Membrane in water
40344
    1TMC1    C1    1   4.388   1.419  12.133 -0.1889  0.0311  0.4953
    1TMC1    C2    2   4.372   1.547  12.073  0.2337 -0.2798  0.5294
    1TMC1    C3    3   4.476   1.602  12.003  0.1473 -0.3839  0.1659
    1TMC1    C4    4   4.498   1.346  12.103  0.9335 -0.3051  0.3261
    1TMC1    C5    5   4.597   1.409  12.026  0.1019 -0.3518  0.5166
    1TMC1    C6    6   4.594   1.537  11.979 -0.1828  0.5341 -0.9174
    1TMC1     C    7   4.273   1.347  12.186 -0.4677  0.0399 -0.1216
    1TMC1     O    8   4.160   1.374  12.140 -0.9319 -0.0396 -0.2835
    1TMC1     H    9   4.284   1.603  12.103  0.4883  0.3405  0.1214
    1TMC1    H1   10   4.505   1.249  12.149 -0.3313  0.0132  1.1897
    1TMC1    H2   11   4.686   1.585  11.948  1.4908 -1.5590  0.7467
    1TMC1    C7   12   4.730   1.358  12.059 -0.3327 -0.4753 -0.8148
    1TMC1    C8   13   4.474   1.747  11.982  0.1649  0.5838 -0.2958
    1TMC1    O1   14   0.007   1.309  12.168 -0.3354 -0.0899  0.2697
    1TMC1    O2   15   4.577   1.814  11.979  0.0971  0.0598  0.1838
    1TMC1    O3   16   0.094   1.423  11.990 -0.6038 -0.3035 -0.3014
    1TMC1    H3   17   0.075   1.467  11.905 -0.0015 -0.1723 -0.3664
    1TMC1    O5   18   4.351   1.790  11.950  0.3797 -0.2599  0.1889
    1TMC1    H5   19   4.285   1.720  11.937 -1.1030  1.7402 -3.0653
    2MPD2     C   20   4.083   0.984  12.480  0.7604  0.4277 -0.2246
    2MPD2    C1   21   4.028   1.050  12.373  0.0041  0.2812 -0.1493
    2MPD2    C2   22   4.102   1.154  12.316  0.6864 -0.3619 -0.1742
    2MPD2    C3   23   4.229   1.182  12.367 -0.3374  0.4254 -0.0457
    2MPD2    C4   24   4.282   1.111  12.475 -0.2708  0.3963 -0.6058
    2MPD2    C5   25   4.206   1.020  12.535 -0.1441 -0.5795 -0.4596
    2MPD2     H   26   4.066   1.201  12.226  0.6880  1.3361  0.7133
    2MPD2    H1   27   4.378   1.130  12.521  0.6502 -1.1127 -1.9163
    2MPD2    H2   28   4.046   0.898  12.535 -1.2093  1.4037 -0.0550
    2MPD2    H3   29   4.246   0.975  12.625 -0.9898 -1.0138 -0.3034
    2MPD2     N   30   4.313   1.272  12.298  0.5859 -0.1382  0.0682
    2MPD2    H5   31   4.412   1.264  12.320  0.9415 -0.9423 -1.8136
    2MPD2    N1   32   3.909   1.009  12.306  0.1514  0.4987  0.0857
    2MPD2    H7   33   3.879   1.062  12.224  1.4359  3.1258  1.3258
    3TMC1    C1   34   3.211   2.141  10.502 -0.0509 -0.7095  0.2321
    3TMC1    C2   35   3.213   2.278  10.468  0.3346  0.3828  0.6576
    3TMC1    C3   36   3.277   2.313  10.352  0.2829  0.1327  0.8873
    3TMC1    C4   37   3.263   2.047  10.414 -0.6911  0.2054 -0.1617
    3TMC1    C5   38   3.314   2.083  10.293 -0.1692  0.4919 -0.6670
    3TMC1    C6   39   3.313   2.215  10.262  0.0845 -0.6160 -0.5175
    3TMC1     C   40   3.123   2.097  10.598 -0.0086  0.0888 -0.5219
    3TMC1     O   41   3.122   1.976  10.616 -0.5111 -0.2511 -0.0390
    3TMC1     H   42   3.172   2.358  10.527  1.5354 -0.4681  2.6476
    3TMC1    H1   43   3.244   1.940  10.416  3.4076 -0.5305 -0.7043
    3TMC1    H2   44   3.344   2.235  10.160  0.6556  0.5720 -0.1070
    3TMC1    C7   45   3.248   2.009  10.194  0.7231  0.3201  0.7928
    3TMC1    C8   46   3.284   2.452  10.320  0.2277  0.1819  0.1452
    3TMC1    O1   47   3.129   1.979  10.207 -0.0785  0.1211 -0.0537
    3TMC1    O2   48   3.191   2.522  10.346 -0.0398  0.1099 -0.4782
    3TMC1    O3   49   3.306   2.030  10.080  0.2573  0.3143 -0.4600
    3TMC1    H3   50   3.398   2.064  10.087  0.0184  0.8145  0.3052
    3TMC1    O5   51   3.359   2.466  10.208  0.3375  0.7009  0.0245
    3TMC1    H5   52   3.438   2.409  10.202  1.1721  1.7570  0.9186
    4MPD2     C   53   2.703   2.189  10.908 -0.4885 -0.4468 -0.0920
    4MPD2    C1   54   2.763   2.311  10.868  0.3044  0.3183  0.4688
    4MPD2    C2   55   2.868   2.303  10.777  0.3028 -0.4597  0.1251
    4MPD2    C3   56   2.942   2.190  10.746 -0.2373  0.2115 -0.8517
    4MPD2    C4   57   2.890   2.073  10.791  0.3163 -0.0795 -0.1122
    4MPD2    C5   58   2.773   2.077  10.867  0.0775 -0.1825  0.1932
    4MPD2     H   59   2.913   2.391  10.732 -1.9196 -0.2216 -1.5614
    4MPD2    H1   60   2.937   1.979  10.766  0.8201  0.0796  0.2386
    4MPD2    H2   61   2.612   2.177  10.966  0.4814 -1.3746  1.2521
    4MPD2    H3   62   2.735   1.978  10.890 -4.1908  2.2067  3.1626
    4MPD2     N   63   3.055   2.201  10.663  0.4970  0.5244  0.4030
    4MPD2    H5   64   3.065   2.293  10.621  0.6054  0.5363  0.4535
    4MPD2    N1   65   2.714   2.439  10.906  0.6769  0.1318 -0.1333
    4MPD2    H7   66   2.770   2.519  10.881 -1.1091  0.8039 -2.0784
    5TCq1    O1   67   4.143   4.203  12.176  0.1144 -0.2818  0.0424
    5TCq1    C1   68   4.147   4.122  12.065  0.4266  0.3789  0.4750
    5TCq1    O2   69   4.243   4.106  11.994 -0.1902 -0.2828 -0.1056
    5TCq1    C2   70   4.009   4.105  12.029 -0.5114 -0.6694 -0.0097
    5TCq1    C3   71   3.912   4.069  12.117  0.4097  0.0465 -0.3226
    5TCq1    C4   72   3.779   4.063  12.074 -0.0401  0.0000 -0.0425
    5TCq1    C5   73   3.755   4.084  11.944 -0.4481 -0.0538 -0.5353
    5TCq1    C6   74   3.859   4.114  11.852  0.6194 -0.1738 -0.0212
    5TCq1    C7   75   3.986   4.116  11.890  0.6245 -0.2547 -0.2773
    5TCq1    C8   76   3.843   4.089  11.717  0.1722 -0.0218 -0.4282
    5TCq1    O4   77   3.930   4.044  11.648  0.1196 -0.5851  0.2090
    5TCq1    C9   78   3.666   4.044  12.169 -0.4569 -0.5105 -0.7414
    5TCq1    O5   79   3.709   4.023  12.287 -0.5221  0.3045  0.2799
    5TCq1    O6   80   3.552   4.011  12.125  0.1422 -0.0188  0.5242
    5TCq1    H1   81   4.054   4.225  12.211 -0.0152 -1.1330  0.2500
    5TCq1    H2   82   3.934   4.049  12.221  0.6411 -0.3364 -0.4464
    5TCq1    H3   83   3.651   4.074  11.915 -0.4321 -0.1930 -0.5442
    5TCq1    H4   84   4.061   4.137  11.814  0.5728 -1.3289 -0.6307
    6MPD2     C   85   3.545   4.233  11.549  0.1669  0.0590  0.3458
    6MPD2    C1   86   3.653   4.147  11.566 -0.3175 -0.6895 -0.7150
    6MPD2    C2   87   3.690   4.066  11.465  0.2876  0.3679  0.7832
    6MPD2    C3   88   3.615   4.059  11.345  0.6010 -0.1527  0.9822
    6MPD2    C4   89   3.521   4.160  11.325  0.0903  0.1234 -0.1437
    6MPD2    C5   90   3.480   4.246  11.425 -0.2414  0.3001  0.7720
    6MPD2     H   91   3.770   3.994  11.478  0.9531  0.7584 -1.0966
    6MPD2    H1   92   3.467   4.171  11.232  0.3675  0.3436 -0.2776
    6MPD2    H2   93   3.534   4.314  11.621  2.1850 -0.1828  0.9252
    6MPD2    H3   94   3.411   4.329  11.414 -1.2601 -0.7272 -0.5740
    6MPD2     N   95   3.643   3.958  11.248 -0.5723  0.3356  0.0057
    6MPD2    H5   96   3.687   3.871  11.278  2.7450  2.4865  1.3466
    6MPD2    N1   97   3.723   4.153  11.685  0.1996  0.2453  0.0161
    6MPD2    H7   98   3.684   4.215  11.756 -1.0103 -0.3416 -0.1371
    7TCq1    O1   99   1.207   4.131  13.440  0.0875 -0.1949 -0.2566
    7TCq1    C1  100   1.148   4.011  13.451 -0.4530  0.2952  0.0730
    7TCq1    O2  101   1.114   3.967  13.562  0.0964 -0.4513 -0.0940
    7TCq1    C2  102   1.177   3.937  13.330 -0.2312  0.5935  0.5658
    7TCq1    C3  103   1.244   3.989  13.219  0.0177  0.2301  0.7674
    7TCq1    C4  104   1.288   3.903  13.120  0.1179 -0.5831  0.3377
    7TCq1    C5  105   1.255   3.775  13.128 -0.1096  0.3980 -0.2908
    7TCq1    C6  106   1.204   3.723  13.246 -0.6115 -0.2714  0.2679
    7TCq1    C7  107   1.160   3.806  13.349  0.0968 -0.4221  0.5200
    7TCq1    C8  108   1.182   3.580  13.263 -0.3431  0.1961  0.1906
    7TCq1    O4  109   1.080   3.562  13.323  0.0710 -0.1666  0.3748
    7TCq1    C9  110   1.349   3.965  13.000 -0.8225 -0.1025  0.0167
    7TCq1    O5  111   1.356   4.095  12.999  0.1033  0.2589  0.1354
    7TCq1    O6  112   1.409   3.881  12.920 -0.1935  0.4434 -0.5643
    7TCq1    H1  113   1.227   4.160  13.348  0.3658  0.0894 -0.1039
    7TCq1    H2  114   1.273   4.093  13.216 -0.0303  0.2433  0.7612
    7TCq1    H3  115   1.285   3.713  13.044  0.9200 -2.4130  2.1242
    7TCq1    H4  116   1.107   3.768  13.435  0.4819  1.3312  1.5419
    8MPD2     C  117   1.256   3.095  13.133  0.5835 -0.1624  0.2485
    8MPD2    C1  118   1.164   3.149  13.217  0.1982  0.3026 -0.1414
    8MPD2    C2  119   1.162   3.285  13.238 -0.0122 -0.3197  0.2809
    8MPD2    C3  120   1.269   3.360  13.187 -0.3483 -0.3950  0.0345
    8MPD2    C4  121   1.372   3.299  13.116 -0.0901 -0.1358  0.5822
    8MPD2    C5  122   1.358   3.167  13.081  0.1064 -0.1775  0.0888
    8MPD2     H  123   1.079   3.335  13.287  1.4191  0.9497  1.4009
    8MPD2    H1  124   1.447   3.361  13.068 -0.2103  1.7605  2.8564
    8MPD2    H2  125   1.253   2.988  13.120  0.3224  0.0260 -1.2489
    8MPD2    H3  126   1.433   3.128  13.013  0.7508  2.6969 -0.8401
    8MPD2     N  127   1.275   3.496  13.205  0.1378  0.3941  0.3867
    8MPD2    H5  128   1.357   3.542  13.166  0.1045  2.0610  2.2433
    8MPD2    N1  129   1.061   3.065  13.274  0.8304 -0.5480 -0.1415
    8MPD2    H7  130   1.057   2.966  13.252  0.8961  0.0246 -2.7080
    9TMC1    C1  131   3.395   2.502  11.296  0.4574  0.1914 -0.2632
    9TMC1    C2  132   3.379   2.575  11.406  0.1187  0.1641 -0.3687
    9TMC1    C3  133   3.377   2.710  11.396  0.6256  0.2360  0.4970
    9TMC1    C4  134   3.423   2.561  11.175  0.0661  0.0892  0.2354
    9TMC1    C5  135   3.438   2.700  11.171  0.4127 -0.2071 -0.7154
    9TMC1    C6  136   3.407   2.779  11.281  0.0583 -0.0615 -0.0392
    9TMC1     C  137   3.377   2.357  11.300 -0.1708  0.2718  0.6156
    9TMC1     O  138   3.396   2.300  11.192  0.2016  0.1226 -0.0949
    9TMC1     H  139   3.363   2.532  11.504  0.0604 -1.0770 -0.9290
    9TMC1    H1  140   3.438   2.497  11.089 -0.3069 -1.9205  1.6534
    9TMC1    H2  141   3.390   2.885  11.272 -2.9879 -0.7494 -2.3071
    9TMC1    C7  142   3.451   2.770  11.041  0.1778 -0.2098 -0.1664
    9TMC1    C8  143   3.333   2.796  11.508  0.7299 -0.7204  0.0206
    9TMC1    O1  144   3.376   2.854  11.003 -0.2264  0.2151 -0.4814
    9TMC1    O2  145   3.338   2.921  11.507 -1.1269  0.3691 -0.1004
    9TMC1    O3  146   3.534   2.695  10.963  0.0028  0.0263 -0.1607
    9TMC1    H3  147   3.586   2.622  11.003  1.0610  0.8343 -0.0626
    9TMC1    O5  148   3.230   2.726  11.555  0.5913  0.4801 -0.3615
    9TMC1    H5  149   3.244   2.631  11.534 -1.1996  0.4693 -1.5257
   10MPD2     C  150   3.361   2.074  11.377  0.4111  0.4578 -0.2313
   10MPD2    C1  151   3.302   2.175  11.452  0.8797  0.0509 -0.3596
   10MPD2    C2  152   3.242   2.139  11.576 -0.2286 -0.8596 -0.0936
   10MPD2    C3  153   3.228   2.005  11.612  0.2449  0.9993  0.2071
   10MPD2    C4  154   3.283   1.906  11.531 -0.0019  0.0745  0.3406
   10MPD2    C5  155   3.356   1.946  11.419 -0.3490  0.2906  0.0695
   10MPD2     H  156   3.192   2.218  11.631  0.3541 -0.0302 -0.7569
   10MPD2    H1  157   3.271   1.802  11.560 -1.0511 -0.3892 -1.7563
   10MPD2    H2  158   3.417   2.090  11.285 -2.7728  1.2399 -2.0324
   10MPD2    H3  159   3.395   1.865  11.359 -0.1927  1.0870 -0.9037
   10MPD2     N  160   3.167   1.953  11.725 -0.0445 -0.1452 -0.5865
   10MPD2    H5  161   3.151   1.854  11.740  0.4035  0.1732  2.1380
   10MPD2    N1  162   3.319   2.311  11.416 -0.2327 -0.1750  0.4505
   10MPD2    H7  163   3.301   2.381  11.487  1.0710 -1.7629  2.3610
   11TCq1    O1  164   3.130   2.505  13.760 -0.4881 -0.1836  0.0062
   11TCq1    C1  165   3.080   2.429  13.662 -0.0287  0.2519 -0.6142
   11TCq1    O2  166   2.987   2.466  13.585  0.4891 -0.6768  0.2175
   11TCq1    C2  167   3.177   2.323  13.634 -0.4343 -0.5833 -0.0956
   11TCq1    C3  168   3.172   2.270  13.503  1.1466 -0.3316 -0.1643
   11TCq1    C4  169   3.211   2.135  13.483 -0.1386  0.3800  0.1721
   11TCq1    C5  170   3.267   2.066  13.583 -0.0864 -0.4433  0.0545
   11TCq1    C6  171   3.261   2.123  13.708  0.7783  0.1996 -0.2365
   11TCq1    C7  172   3.227   2.252  13.739 -0.5150 -0.2971  0.0490
   11TCq1    C8  173   3.335   2.047  13.814 -0.5228 -1.0466  0.7026
   11TCq1    O4  174   3.362   2.111  13.918 -0.2651  0.0551 -0.0536
   11TCq1    C9  175   3.207   2.085  13.350 -0.2640 -0.7213 -0.2752
   11TCq1    O5  176   3.164   2.162  13.264 -0.4464  0.3961  0.0983
   11TCq1    O6  177   3.213   1.958  13.339  0.0135 -0.2506 -0.0466
   11TCq1    H1  178   3.215   2.477  13.800 -0.3509  1.8003  1.0755
   11TCq1    H2  179   3.126   2.326  13.423  0.2843  0.3124  0.7742
   11TCq1    H3  180   3.320   1.974  13.559  0.0186 -0.4144  0.1739
   11TCq1    H4  181   3.213   2.281  13.843 -2.2033  1.5674 -0.7110
   12MPD2     C  182   3.541   1.895  13.930 -0.4726 -0.4167  0.0094
   12MPD2    C1  183   3.433   1.835  13.862  0.2900 -0.1675 -0.5974
   12MPD2    C2  184   3.404   1.697  13.880 -0.2981  0.0172 -0.8055
   12MPD2    C3  185   3.485   1.624  13.965  0.1650 -0.3552  0.2569
   12MPD2    C4  186   3.592   1.681  14.024  1.0549 -0.9204  0.3656
   12MPD2    C5  187   3.617   1.816  14.005 -0.3503 -0.5041  0.2972
   12MPD2     H  188   3.321   1.650  13.828  0.7482 -0.5826 -1.9462
   12MPD2    H1  189   3.659   1.628  14.091  0.5451 -1.1324  0.7078
   12MPD2    H2  190   3.572   1.999  13.924 -2.2614 -0.0931 -3.8828
   12MPD2    H3  191   3.698   1.856  14.064 -1.1304  0.1392  0.9436
   12MPD2     N  192   3.466   1.491  14.004 -0.8388 -0.0247  0.0054
   12MPD2    H5  193   3.539   1.446  14.058  0.0434  1.0345 -0.3055
   12MPD2    N1  194   3.338   1.914  13.792 -0.2608  0.5131  0.1192
   12MPD2    H7  195   3.276   1.862  13.732 -0.6083 -1.7665  2.4385
   13TCq1    O1  196   4.117   2.078  10.542 -0.4016 -0.2292 -0.5104
   13TCq1    C1  197   4.030   2.053  10.436  0.4009  0.2893 -0.2475
   13TCq1    O2  198   4.057   2.040  10.318 -0.8225 -0.2712 -0.1256
   13TCq1    C2  199   3.913   2.135  10.471  0.4074 -0.0447 -0.4223
   13TCq1    C3  200   3.867   2.219  10.374  0.3254  0.3990  0.2442
   13TCq1    C4  201   3.738   2.267  10.379 -0.3955  0.4949  0.2239
   13TCq1    C5  202   3.655   2.209  10.469 -0.2742 -0.1136  0.0974
   13TCq1    C6  203   3.705   2.122  10.566 -0.0108  0.1332 -0.3995
   13TCq1    C7  204   3.836   2.091  10.579 -0.5815 -0.5685  0.4688
   13TCq1    C8  205   3.603   2.060  10.657 -1.0137  0.3821  1.0024
   13TCq1    O4  206   3.491   2.111  10.657  0.3710  0.0545  0.9387
   13TCq1    C9  207   3.690   2.364  10.280  0.0348  0.1805  0.2304
   13TCq1    O5  208   3.774   2.435  10.212  0.0268 -0.1068  0.1204
   13TCq1    O6  209   3.570   2.349  10.242 -0.4128 -0.9894 -0.3748
   13TCq1    H1  210   4.064   2.111  10.618 -0.5717 -1.4576 -0.0850
   13TCq1    H2  211   3.932   2.249  10.293  0.2554  0.1820  0.1079
   13TCq1    H3  212   3.551   2.241  10.468 -0.3926 -0.5614 -1.0297
   13TCq1    H4  213   3.865   2.024  10.658 -3.2776 -0.6059  1.4295
   14MPD2     C  214   3.583   1.725  10.797 -0.2617  0.2913  0.2951
   14MPD2    C1  215   3.557   1.857  10.795 -0.6700 -0.7624  1.0378
   14MPD2    C2  216   3.450   1.912  10.865  0.1585 -0.1933  0.7010
   14MPD2    C3  217   3.372   1.836  10.946 -0.2105  0.2920  0.2480
   14MPD2    C4  218   3.396   1.703  10.940 -0.1078  0.4192  0.9193
   14MPD2    C5  219   3.488   1.652  10.853 -0.4398  0.2083  0.3339
   14MPD2     H  220   3.429   2.018  10.872 -0.6377 -0.2001 -1.6999
   14MPD2    H1  221   3.330   1.629  10.985  0.0644  0.1646  0.7519
   14MPD2    H2  222   3.658   1.672  10.740 -3.0676 -1.0839 -2.0549
   14MPD2    H3  223   3.492   1.543  10.848  0.9559  0.2273  1.0587
   14MPD2     N  224   3.266   1.896  11.022 -0.1941  0.2401  0.2020
   14MPD2    H5  225   3.245   1.989  10.986 -0.5095  0.1862  0.2521
   14MPD2    N1  226   3.635   1.933  10.709  0.7224  0.9616 -0.3947
   14MPD2    H7  227   3.720   1.889  10.675  0.4836 -0.1551  0.4596
   15TCq1    O1  228   0.774   1.813   1.951 -0.1137 -0.0153  0.0938
   15TCq1    C1  229   0.689   1.703   1.932 -0.3095  0.1359  0.3785
   15TCq1    O2  230   0.720   1.586   1.960 -0.2961  1.2879  0.3448
   15TCq1    C2  231   0.597   1.741   1.823 -0.4714  0.1109 -2.3543
   15TCq1    C3  232   0.523   1.853   1.828 -0.0575  0.8228 -0.1439
   15TCq1    C4  233   0.435   1.876   1.726  0.4262  0.3534 -0.1809
   15TCq1    C5  234   0.427   1.784   1.630  0.7248 -0.0600 -0.0226
   15TCq1    C6  235   0.507   1.670   1.630 -0.1067  1.0458 -0.1544
   15TCq1    C7  236   0.595   1.647   1.727  0.1444  0.1878  0.3524
   15TCq1    C8  237   0.490   1.559   1.529  0.3373  0.2503  0.5603
   15TCq1    O4  238   0.524   1.447   1.563  0.3063  0.1657 -0.1689
   15TCq1    C9  239   0.328   1.974   1.736 -0.5714 -0.4737 -0.3831
   15TCq1    O5  240   0.309   2.029   1.846  0.3377  0.3686 -0.1690
   15TCq1    O6  241   0.225   1.940   1.667 -0.2960 -0.3385  0.2118
   15TCq1    H1  242   0.748   1.885   1.890 -1.5470  0.5774  1.3640
   15TCq1    H2  243   0.528   1.925   1.908  0.6335  1.3173 -0.6341
   15TCq1    H3  244   0.367   1.821   1.547  0.4462 -0.4618 -0.0033
   15TCq1    H4  245   0.655   1.556   1.730  2.2294  1.4944 -1.4348
   16MPD2     C  246   0.291   1.590   1.209 -0.4254  0.2147  0.9143
   16MPD2    C1  247   0.366   1.529   1.306  0.4409  0.1517  0.7683
   16MPD2    C2  248   0.400   1.395   1.289 -0.1502 -0.7458 -0.2849
   16MPD2    C3  249   0.345   1.324   1.179  0.0222 -0.3074 -0.3458
   16MPD2    C4  250   0.259   1.386   1.091  0.2850  0.1726 -0.5154
   16MPD2    C5  251   0.222   1.515   1.115  0.2054  0.4356  0.4964
   16MPD2     H  252   0.457   1.352   1.370  0.2413  2.2069  0.9837
   16MPD2    H1  253   0.210   1.331   1.012 -1.0887  1.9282 -0.8649
   16MPD2    H2  254   0.273   1.697   1.216  1.6764  0.6693 -0.6144
   16MPD2    H3  255   0.157   1.554   1.036  0.1953 -2.5351 -0.9526
   16MPD2     N  256   0.391   1.188   1.171 -0.0993  0.2953  0.4599
   16MPD2    H5  257   0.454   1.155   1.243  1.4393 -0.2093 -1.1151
   16MPD2    N1  258   0.410   1.601   1.421 -0.4216  0.1379 -0.0794
   16MPD2    H7  259   0.395   1.702   1.422  1.8105  0.4887 -1.4665
   17TMC1    C1  260   3.275   1.231  11.508 -0.6135  0.0907  0.1211
   17TMC1    C2  261   3.188   1.166  11.593  0.5682  0.2378 -0.1981
   17TMC1    C3  262   3.133   1.240  11.694  0.2819  0.2412  0.1060
   17TMC1    C4  263   3.320   1.358  11.532 -0.0893  0.3365 -0.7037
   17TMC1    C5  264   3.283   1.411  11.655 -0.0824  0.1117 -0.3735
   17TMC1    C6  265   3.184   1.360  11.729 -0.8493 -0.2383 -0.5844
   17TMC1     C  266   3.336   1.150  11.403 -0.0442 -0.4101  0.9334
   17TMC1     O  267   3.337   1.031  11.415 -0.4590 -0.0014 -0.0923
   17TMC1     H  268   3.150   1.065  11.585  1.5533 -0.1936  0.4695
   17TMC1    H1  269   3.391   1.393  11.458 -0.3810 -0.0046 -1.1456
   17TMC1    H2  270   3.143   1.400  11.821  1.8850  0.7642  0.1797
   17TMC1    C7  271   3.324   1.535  11.698 -0.4744 -0.3404  1.1159
   17TMC1    C8  272   3.046   1.167  11.779 -0.1893  0.3889 -0.8471
   17TMC1    O1  273   3.245   1.619  11.739 -0.2242  0.6071 -0.8362
   17TMC1    O2  274   3.053   1.047  11.799 -0.1466  0.2292  0.1684
   17TMC1    O3  275   3.437   1.564  11.620 -0.1777 -0.5658 -0.6103
   17TMC1    H3  276   3.501   1.493  11.641 -0.5130 -1.2816 -2.0236
   17TMC1    O5  277   2.942   1.247  11.787 -0.1161  0.2269 -0.1577
   17TMC1    H5  278   2.966   1.337  11.755 -0.9244 -0.5461 -2.9180
   18MPD2     C  279   3.507   1.073  11.189  0.1887 -0.3878 -0.2423
   18MPD2    C1  280   3.427   1.181  11.173 -0.6947 -0.7393 -0.1799
   18MPD2    C2  281   3.410   1.238  11.046  0.5540 -0.4882  0.0643
   18MPD2    C3  282   3.469   1.176  10.937  0.2857  0.4327  0.4226
   18MPD2    C4  283   3.555   1.066  10.960  0.6677  0.8418  0.4749
   18MPD2    C5  284   3.571   1.015  11.083 -0.6423 -0.1490 -0.1552
   18MPD2     H  285   3.348   1.327  11.043 -0.3205 -1.1466 -1.2074
   18MPD2    H1  286   3.600   1.011  10.878 -0.9695  1.1208 -0.6192
   18MPD2    H2  287   3.532   1.039  11.289 -0.4835 -0.4016 -0.0733
   18MPD2    H3  288   3.639   0.932  11.100 -3.1213 -2.2298 -0.3795
   18MPD2     N  289   3.443   1.218  10.798  0.0663 -0.2848 -0.6598
   18MPD2    H5  290   3.499   1.176  10.725  0.9854 -0.5737  0.2135
   18MPD2    N1  291   3.359   1.225  11.287  0.2958 -0.6870 -0.6296
   18MPD2    H7  292   3.312   1.314  11.271  1.4541  0.1630  0.7286
   19TMC2    C1  293   0.008   2.313  13.998 -0.2007 -0.1001 -0.4775
   19TMC2    C2  294   4.669   2.416  13.948 -0.1579  0.3346 -0.3358
   19TMC2    C3  295   4.551   2.386  13.884  0.0678  0.7107  0.0142
   19TMC2    C4  296   4.702   2.181  13.986  0.2698  0.1811 -0.8185
   19TMC2    C5  297   4.586   2.155  13.918  0.3499 -0.0076  0.0705
   19TMC2    C6  298   4.511   2.254  13.865  0.3510 -0.1312 -0.0704
   19TMC2     C  299   0.147   2.347  14.056  0.5388  0.2859  0.6368
   19TMC2     O  300   0.176   2.464  14.057 -0.0166  0.2317  0.3354
   19TMC2     H  301   4.712   2.515  13.959  0.7499 -0.0357 -0.5605
   19TMC2    H1  302   0.023   2.092  14.008 -0.8718 -0.8517 -2.0790
   19TMC2    H2  303   4.417   2.248  13.812 -1.5376  0.5537  3.1974
   19TMC2    C7  304   4.544   2.020  13.916 -0.7936 -0.3645 -0.0089
   19TMC2    C8  305   4.503   2.481  13.782 -0.9114 -0.8438  0.1011
   19TMC2    O1  306   4.633   1.937  13.931  0.4323  0.1667 -0.3753
   19TMC2    O2  307   4.446   2.434  13.683 -0.2176 -0.8301 -0.0101
   19TMC2    O5  308   4.453   2.586  13.856  0.0617 -0.2365 -0.5470
   19TMC2    H5  309   4.516   2.624  13.920 -0.4267  1.1304 -0.8863
   20MPD2     C  310   0.436   2.348  14.158 -0.4924  0.1246 -0.4695
   20MPD2    C1  311   0.355   2.240  14.151 -0.3800  0.0581  0.1521
   20MPD2    C2  312   0.406   2.115  14.187  0.1330 -0.6887  0.7031
   20MPD2    C3  313   0.537   2.105  14.228 -0.1327  0.3943  0.5153
   20MPD2    C4  314   0.616   2.216  14.242  0.3643 -0.0955 -0.0431
   20MPD2    C5  315   0.556   2.340  14.212  0.6305  0.3229 -0.0360
   20MPD2     H  316   0.345   2.026  14.184  0.1856 -0.6235 -1.8315
   20MPD2    H1  317   0.722   2.211  14.264  0.5292 -1.9302 -1.2345
   20MPD2    H2  318   0.399   2.443  14.121 -0.3088  1.0602  1.7145
   20MPD2    H3  319   0.611   2.433  14.221  1.6336 -0.3269  0.5061
   20MPD2     N  320   0.602   1.985  14.256 -1.0314 -0.1426  0.3369
   20MPD2    H5  321   0.701   1.997  14.272 -1.0537  2.5824 -1.6151
   20MPD2    N1  322   0.218   2.238  14.105  0.0991  0.7814 -0.1590
   20MPD2    H7  323   0.170   2.148  14.099  0.3422  0.7667 -1.7590
   21TMC2    C1  324   2.390   2.154  14.387 -0.4430  0.0427  0.3997
   21TMC2    C2  325   2.397   2.056  14.470  0.6652  0.2934 -0.5869
   21TMC2    C3  326   2.382   2.082  14.600  0.3518 -0.4805  0.5530
   21TMC2    C4  327   2.363   2.280  14.427  0.7239 -0.3869 -0.0597
   21TMC2    C5  328   2.347   2.304  14.561  0.0152 -0.0021 -0.3947
   21TMC2    C6  329   2.368   2.206  14.658 -0.2100  0.0520  0.1571
   21TMC2     C  330   2.516   2.156  14.310  0.7339  0.2927  0.9963
   21TMC2     O  331   2.608   2.084  14.349 -0.9062  0.2508  0.1107
   21TMC2     H  332   2.416   1.954  14.438  1.1740 -0.0170  0.7029
   21TMC2    H1  333   2.324   2.355  14.360  2.1933  0.7273  0.3401
   21TMC2    H2  334   2.353   2.234  14.762 -0.4555  1.4669 -0.2488
   21TMC2    C7  335   2.366   2.434  14.606 -0.5263  0.5627  0.0968
   21TMC2    C8  336   2.413   1.971  14.692 -0.6037  0.2488 -0.0839
   21TMC2    O1  337   2.413   2.443  14.717 -0.2510 -0.1567 -0.1189
   21TMC2    O2  338   2.502   1.888  14.675  0.4785 -0.2466 -0.2225
   21TMC2    O5  339   2.355   1.989  14.813 -0.7198 -0.1689  0.1913
   21TMC2    H5  340   2.290   2.060  14.835  0.8930  0.9148  1.5322
   22MPD2     C  341   2.891   2.488  14.214 -0.2997 -0.9143  0.1237
   22MPD2    C1  342   2.885   2.387  14.302 -0.0548  1.1122  0.1456
   22MPD2    C2  343   2.767   2.312  14.307 -0.5459 -0.5348  0.1250
   22MPD2    C3  344   2.656   2.347  14.232 -0.2928 -1.2492  0.8071
   22MPD2    C4  345   2.667   2.453  14.144 -0.0759  0.6546 -0.5931
   22MPD2    C5  346   2.789   2.513  14.130  0.2465  0.1622 -0.9107
   22MPD2     H  347   2.767   2.226  14.373 -1.8557 -0.7545 -0.1620
   22MPD2    H1  348   2.594   2.475  14.067 -2.1262  0.3502  1.2953
   22MPD2    H2  349   2.967   2.564  14.225  0.5579 -1.6016 -0.9580
   22MPD2    H3  350   2.792   2.592  14.056 -0.7525  1.9305  0.9491
   22MPD2     N  351   2.530   2.276  14.243 -0.1067  0.3696 -0.2390
   22MPD2    H5  352   2.442   2.312  14.207  1.2208  2.7080 -1.0781
   22MPD2    N1  353   2.993   2.350  14.395  0.8879 -0.8503 -0.4643
   22MPD2    H7  354   2.981   2.271  14.457 -0.0675 -0.5498 -0.2639
   23TMC2    C1  355   3.801   3.600  14.337  0.5218 -0.0272  0.5289
   23TMC2    C2  356   3.907   3.640  14.253  0.8452  0.2529 -0.2628
   23TMC2    C3  357   3.904   3.593  14.129  0.2092  0.3654 -0.4152
   23TMC2    C4  358   3.698   3.514  14.292  0.1028  0.8699  0.2840
   23TMC2    C5  359   3.701   3.476  14.159  0.4568  0.1306  0.4681
   23TMC2    C6  360   3.796   3.518  14.076 -0.0725  0.6756 -0.3527
   23TMC2     C  361   3.824   3.634  14.480  0.8106 -0.3374  0.3028
   23TMC2     O  362   3.930   3.680  14.506  0.2074 -0.3822 -0.2353
   23TMC2     H  363   3.987   3.711  14.268  1.5687 -0.0945 -2.5306
   23TMC2    H1  364   3.616   3.479  14.355 -0.1664  0.3307 -0.3588
   23TMC2    H2  365   3.789   3.507  13.969 -3.3107  0.3409 -0.0898
   23TMC2    C7  366   3.629   3.354  14.123 -0.2391  0.0403 -0.4232
   23TMC2    C8  367   4.028   3.551  14.067  0.3723 -0.6900  1.0866
   23TMC2    O1  368   3.692   3.286  14.041  0.2595 -0.1597  0.2079
   23TMC2    O2  369   4.048   3.445  14.014 -0.3842 -0.3443  0.2060
   23TMC2    O5  370   4.066   3.666  14.017 -0.1706 -0.8861 -0.1439
   23TMC2    H5  371   4.025   3.743  14.062  2.0708  0.8872 -1.1419
   24MPD2     C  372   3.654   3.762  14.945 -0.3560 -0.2423  0.8854
   24MPD2    C1  373   3.784   3.740  14.906 -0.4665 -0.4345  0.0171
   24MPD2    C2  374   3.800   3.691  14.777  0.8098 -0.2653 -0.5025
   24MPD2    C3  375   3.696   3.654  14.696  0.0684  0.2343  0.3810
   24MPD2    C4  376   3.564   3.676  14.740 -0.0274 -0.4812 -0.5458
   24MPD2    C5  377   3.549   3.743  14.860  0.0746 -0.6077  0.2866
   24MPD2     H  378   3.899   3.669  14.739  0.6497  0.4404 -1.3389
   24MPD2    H1  379   3.478   3.661  14.676  0.0536 -1.4110 -0.4293
   24MPD2    H2  380   3.633   3.816  15.037 -0.4905  0.1306  0.6355
   24MPD2    H3  381   3.449   3.770  14.890 -0.7670 -0.1042 -2.9590
   24MPD2     N  382   3.714   3.621  14.556 -0.4527 -0.6467 -0.2077
   24MPD2    H5  383   3.631   3.587  14.508 -0.6677 -0.5497  0.0993
   24MPD2    N1  384   3.894   3.752  14.992  0.0831 -0.1935 -0.4241
   24MPD2    H7  385   3.983   3.717  14.958  1.0709  0.4923  1.4594
   25TMC2    C1  386   3.046   0.290  12.015 -0.1424 -0.9026  0.0802
   25TMC2    C2  387   3.094   0.247  12.136 -0.2547 -0.7049 -0.4018
   25TMC2    C3  388   3.029   0.301  12.242  0.9104  0.2615 -0.4062
   25TMC2    C4  389   2.949   0.388  12.001 -0.4297  0.2805  0.3601
   25TMC2    C5  390   2.896   0.448  12.111 -1.0741  0.9592 -0.4445
   25TMC2    C6  391   2.932   0.404  12.235 -0.8252 -0.5380  0.2750
   25TMC2     C  392   3.109   0.227  11.894  0.1348 -0.9907 -0.1043
   25TMC2     O  393   3.215   0.168  11.902 -0.0658  0.5147 -0.7231
   25TMC2     H  394   3.171   0.170  12.139 -0.2997 -0.7060  0.5775
   25TMC2    H1  395   2.924   0.424  11.902  0.3921  0.2630  0.1470
   25TMC2    H2  396   2.896   0.449  12.326  1.6510  0.1728  0.9106
   25TMC2    C7  397   2.782   0.531  12.099 -0.1225 -0.1065  0.0574
   25TMC2    C8  398   3.040   0.214  12.359 -0.3200  0.3241  0.1542
   25TMC2    O1  399   2.755   0.609  12.189  0.3694 -0.6647  0.2552
   25TMC2    O2  400   3.075   0.096  12.352  0.3163  0.0252 -0.2421
   25TMC2    O5  401   2.972   0.264  12.462  0.6486 -0.8376  0.1725
   25TMC2    H5  402   2.963   0.362  12.466 -1.7611 -1.1051  0.7650
   26MPD2     C  403   3.032   0.024  11.430 -0.6279  0.0829  0.1822
   26MPD2    C1  404   2.920   0.081  11.481 -0.4782 -0.2414 -0.2310
   26MPD2    C2  405   2.931   0.161  11.592 -0.2571 -0.1705  1.0433
   26MPD2    C3  406   3.047   0.168  11.663 -0.2785 -0.3435  0.0846
   26MPD2    C4  407   3.156   0.101  11.630 -0.6298  0.5262  0.2945
   26MPD2    C5  408   3.147   0.029  11.514 -0.1898 -0.0039  1.2222
   26MPD2     H  409   2.844   0.213  11.630 -0.4742  0.4827 -0.3542
   26MPD2    H1  410   3.247   0.096  11.689 -1.0618 -0.6831  0.8555
   26MPD2    H2  411   3.044   4.700  11.341  0.3817 -0.6798  0.8417
   26MPD2    H3  412   3.235   4.714  11.478 -2.0217 -1.6992 -0.8128
   26MPD2     N  413   3.028   0.232  11.784  0.0925  0.1358 -0.0949
   26MPD2    H5  414   2.937   0.270  11.806  0.3841  1.4884 -1.2188
   26MPD2    N1  415   2.797   0.051  11.422 -0.0452 -0.6528  0.2705
   26MPD2    H7  416   2.802   4.715  11.351  0.3229  0.0257 -0.3844
   27TMC2    C1  417   1.134   3.228  11.944 -0.6060  0.1063 -0.1583
   27TMC2    C2  418   1.103   3.334  11.860 -0.4928  0.7702 -0.4862
   27TMC2    C3  419   1.179   3.446  11.873 -0.1807  0.0690 -0.0871
   27TMC2    C4  420   1.236   3.238  12.034 -0.5035  0.0390  0.5949
   27TMC2    C5  421   1.305   3.350  12.039  0.2073 -0.1648 -0.2374
   27TMC2    C6  422   1.281   3.460  11.960  0.1954 -0.6474 -0.5516
   27TMC2     C  423   1.085   3.093  11.917  0.4410 -0.1322 -0.2935
   27TMC2     O  424   1.023   3.067  11.815  0.0264 -0.2608  0.2533
   27TMC2     H  425   1.030   3.317  11.781 -0.2861 -2.3919 -0.0073
   27TMC2    H1  426   1.286   3.155  12.082  1.1013  1.6017  1.6187
   27TMC2    H2  427   1.343   3.548  11.958  0.2150 -0.6973 -2.0897
   27TMC2    C7  428   1.395   3.369  12.151 -0.1357  0.3490  0.2595
   27TMC2    C8  429   1.165   3.547  11.769 -0.6127  0.5983  1.1075
   27TMC2    O1  430   1.454   3.267  12.190 -0.4556 -0.0180  0.0494
   27TMC2    O2  431   1.092   3.528  11.668 -0.2783 -0.5966  0.0205
   27TMC2    O5  432   1.179   3.664  11.827 -0.0788  0.3007  0.1927
   27TMC2    H5  433   1.196   3.661  11.924  2.2657  0.2921 -0.2029
   28MPD2     C  434   1.075   2.594  12.078  0.3085  0.3080  0.3704
   28MPD2    C1  435   1.099   2.679  12.185 -0.7318  0.8369 -0.6844
   28MPD2    C2  436   1.110   2.818  12.167 -0.6074 -0.4078 -0.5517
   28MPD2    C3  437   1.100   2.872  12.042 -1.0231  0.1199  0.2702
   28MPD2    C4  438   1.077   2.789  11.933 -0.5385  0.1456  0.0298
   28MPD2    C5  439   1.076   2.647  11.953  0.2688 -0.3153 -0.6470
   28MPD2     H  440   1.121   2.889  12.249  2.1961 -0.9636 -0.4214
   28MPD2    H1  441   1.086   2.824  11.831  0.1188 -2.0371 -0.6627
   28MPD2    H2  442   1.066   2.486  12.090  2.0019  0.1432  0.2132
   28MPD2    H3  443   1.063   2.587  11.864  1.6539 -2.3549  0.5289
   28MPD2     N  444   1.110   3.013  12.025  0.2431  0.3431 -0.3542
   28MPD2    H5  445   1.140   3.055  12.113  1.0421  1.5881 -1.2273
   28MPD2    N1  446   1.103   2.628  12.314 -0.4943 -0.1151  0.0202
   28MPD2    H7  447   1.079   2.529  12.314  0.1741 -0.2676 -1.4937
   29TMC2    C1  448   1.168   0.874  14.325 -0.7608  0.0876 -0.5393
   29TMC2    C2  449   1.179   0.931  14.455  1.4602  0.2359  0.7044
   29TMC2    C3  450   1.223   1.060  14.456 -0.1339  0.4589 -0.2501
   29TMC2    C4  451   1.219   0.933  14.213 -0.4552 -0.1422  0.2586
   29TMC2    C5  452   1.267   1.062  14.226  0.2520  0.5798  0.1956
   29TMC2    C6  453   1.264   1.130  14.344 -0.0916  0.1758  0.0350
   29TMC2     C  454   1.168   0.726  14.322 -0.4326  0.1279  0.1697
   29TMC2     O  455   1.216   0.666  14.418  0.6193 -0.0175 -0.1106
   29TMC2     H  456   1.139   0.880  14.541  0.2406 -0.4889 -0.2951
   29TMC2    H1  457   1.231   0.873  14.123 -2.5658 -0.1393 -0.0186
   29TMC2    H2  458   1.279   1.237  14.340 -1.7422  0.4356  0.8155
   29TMC2    C7  459   1.336   1.131  14.119 -0.0830  0.4066 -0.5368
   29TMC2    C8  460   1.240   1.113  14.587 -0.5371 -0.2981 -0.9094
   29TMC2    O1  461   1.330   1.078  14.011  0.2131 -0.5458 -0.0081
   29TMC2    O2  462   1.141   1.127  14.657 -0.3957 -0.1651  0.4308
   29TMC2    O5  463   1.349   1.189  14.589 -0.4159  0.1384  0.7682
   29TMC2    H5  464   1.408   1.180  14.511 -0.4697 -0.5457  0.8047
   30MPD2     C  465   1.059   0.301  14.044 -0.0164 -0.6811  0.6018
   30MPD2    C1  466   1.150   0.314  14.151  0.2773  0.2517 -0.4104
   30MPD2    C2  467   1.163   0.441  14.214  0.0554  0.1889  0.2612
   30MPD2    C3  468   1.088   0.548  14.164 -0.2951  0.0625  0.3639
   30MPD2    C4  469   0.999   0.534  14.055 -0.7529 -0.0435 -1.0436
   30MPD2    C5  470   0.991   0.406  13.993  0.4802  0.3362 -0.1215
   30MPD2     H  471   1.235   0.450  14.294 -0.1340 -1.1845  0.5814
   30MPD2    H1  472   0.941   0.612  14.006  0.0479 -0.1688 -2.1997
   30MPD2    H2  473   1.041   0.199  14.012 -0.0761 -0.7685  0.9097
   30MPD2    H3  474   0.933   0.392  13.902  0.0193  0.5625  0.1378
   30MPD2     N  475   1.101   0.681  14.212  0.0966 -0.8211  0.4625
   30MPD2    H5  476   1.041   0.748  14.166  2.2865  0.1753 -0.9079
   30MPD2    N1  477   1.215   0.207  14.213  0.3585  0.3016  0.4899
   30MPD2    H7  478   1.279   0.228  14.289 -0.9452  1.2312  1.3272
   31TMC2    C1  479   3.727   4.181  15.741  0.0266  0.1090  0.1034
   31TMC2    C2  480   3.613   4.251  15.781 -0.2595  0.1927 -0.1450
   31TMC2    C3  481   3.593   4.268  15.913  0.1087 -0.6662 -0.2828
   31TMC2    C4  482   3.819   4.133  15.829  0.0058 -0.7559  0.2755
   31TMC2    C5  483   3.805   4.168  15.958 -0.2547 -0.5600 -0.1505
   31TMC2    C6  484   3.692   4.232  16.004 -0.7934 -0.0003 -0.9062
   31TMC2     C  485   3.753   4.188  15.600  0.4202 -0.2751 -0.7399
   31TMC2     O  486   3.663   4.234  15.530 -0.1697 -0.6312  0.4875
   31TMC2     H  487   3.535   4.283  15.714  1.3723 -0.6226 -2.4107
   31TMC2    H1  488   3.900   4.065  15.804 -0.8687 -1.4664 -0.6138
   31TMC2    H2  489   3.673   4.251  16.109 -1.8617 -1.2709 -0.8655
   31TMC2    C7  490   3.857   4.074  16.055  0.2869  0.8260  0.1077
   31TMC2    C8  491   3.456   4.261  15.961 -0.1014 -0.0332  0.0063
   31TMC2    O1  492   3.883   3.963  16.016  0.1176  0.5478  0.1097
   31TMC2    O2  493   3.427   4.207  16.070  0.5034 -0.6984 -0.0103
   31TMC2    O5  494   3.380   4.348  15.896 -0.1181  0.2399 -0.1809
   31TMC2    H5  495   3.428   4.406  15.833 -0.0526 -0.7232 -1.0178
   32MPD2     C  496   4.107   4.215  15.213 -0.7029  0.3071  0.1434
   32MPD2    C1  497   3.962   4.241  15.217 -0.4509  0.2716 -0.3630
   32MPD2    C2  498   3.889   4.225  15.335  0.1217 -1.4163 -0.0697
   32MPD2    C3  499   3.956   4.183  15.449  1.3881 -0.0632  0.2002
   32MPD2    C4  500   4.089   4.147  15.442 -0.3725 -0.0892  0.3596
   32MPD2    C5  501   4.161   4.164  15.328 -0.4655  0.1419 -0.0877
   32MPD2     H  502   3.781   4.232  15.332  0.2807  1.2602  0.7857
   32MPD2    H1  503   4.145   4.124  15.532  0.4709 -0.8204 -0.3542
   32MPD2    H2  504   4.165   4.249  15.127 -1.9027  1.5778 -0.1548
   32MPD2    H3  505   4.268   4.147  15.333 -1.0291 -3.1260  1.2813
   32MPD2     N  506   3.885   4.155  15.565  0.0232 -0.1108 -0.0194
   32MPD2    H5  507   3.953   4.128  15.635  0.0701 -1.8327 -0.7138
   32MPD2    N1  508   3.902   4.291  15.093 -0.4309 -0.8879  0.0198
   32MPD2    H7  509   3.961   4.295  15.010  2.4360  1.0481  2.1576
   33TMC2    C1  510   3.475   1.865   9.780  0.4554 -0.5935  0.4891
   33TMC2    C2  511   3.407   1.800   9.678 -0.3243 -0.1447  0.7068
   33TMC2    C3  512   3.412   1.858   9.559  0.3400 -0.2652  0.7263
   33TMC2    C4  513   3.546   1.979   9.762 -0.2035  0.2194  1.1121
   33TMC2    C5  514   3.547   2.033   9.637 -0.4777  0.4858  0.0257
   33TMC2    C6  515   3.477   1.977   9.533 -0.1957  1.0018 -0.8165
   33TMC2     C  516   3.476   1.788   9.898 -0.1949  0.2976  0.2214
   33TMC2     O  517   3.388   1.701   9.915 -0.1403  0.2485  0.0083
   33TMC2     H  518   3.354   1.705   9.683  0.4074 -0.6181 -0.6702
   33TMC2    H1  519   3.607   2.020   9.842  1.9519  0.3963 -0.6217
   33TMC2    H2  520   3.469   2.015   9.432  1.3237  0.7745 -1.0237
   33TMC2    C7  521   3.615   2.159   9.624 -0.7313  0.5233  0.6523
   33TMC2    C8  522   3.332   1.801   9.455 -0.7869  0.6262 -0.5520
   33TMC2    O1  523   3.654   2.215   9.727 -0.4539  0.1003  0.2942
   33TMC2    O2  524   3.217   1.770   9.479 -0.0855  0.0312  1.2611
   33TMC2    O5  525   3.390   1.802   9.340 -0.5079  0.0864 -0.1559
   33TMC2    H5  526   3.487   1.818   9.347 -0.3941 -0.0866 -1.3383
   34MPD2     C  527   3.616   1.722  10.385  0.5414  0.2081 -0.1923
   34MPD2    C1  528   3.507   1.667  10.313 -0.3749  1.1389  0.6481
   34MPD2    C2  529   3.493   1.709  10.185  0.2142 -0.3185  0.0077
   34MPD2    C3  530   3.584   1.794  10.122  0.4386 -0.3327 -0.4065
   34MPD2    C4  531   3.696   1.845  10.189 -0.0830 -0.2084  0.3280
   34MPD2    C5  532   3.704   1.805  10.321 -0.2253  0.9988 -0.1855
   34MPD2     H  533   3.414   1.666  10.125 -1.7685 -0.5289  2.7770
   34MPD2    H1  534   3.762   1.921  10.151  0.0728 -0.1371  0.7421
   34MPD2    H2  535   3.636   1.697  10.488 -0.2682 -0.7479 -0.2624
   34MPD2    H3  536   3.785   1.840  10.384  1.7824 -0.7531 -1.8473
   34MPD2     N  537   3.567   1.832   9.989 -0.0552  0.0429 -0.3053
   34MPD2    H5  538   3.631   1.906   9.961  2.4154 -2.7382 -1.9132
   34MPD2    N1  539   3.417   1.579  10.383  0.5861  0.5971 -0.9271
   34MPD2    H7  540   3.451   1.552  10.475 -1.6785 -3.0939 -1.1731
   35TMC2    C1  541   4.560   2.812  11.465  0.2950  0.2583 -0.3800
   35TMC2    C2  542   4.468   2.807  11.361 -0.0495 -0.2828  0.5613
   35TMC2    C3  543   4.348   2.746  11.390  0.0054  0.0796  0.5556
   35TMC2    C4  544   4.523   2.792  11.595 -0.6601 -0.5849  0.3874
   35TMC2    C5  545   4.400   2.753  11.623 -0.0587  1.4197  0.3667
   35TMC2    C6  546   4.311   2.725  11.520 -0.2049  0.0908  0.3185
   35TMC2     C  547   4.696   2.857  11.429  0.0933 -0.0916 -0.0603
   35TMC2     O  548   4.722   2.884  11.314  0.7009 -0.3058 -0.0655
   35TMC2     H  549   4.496   2.828  11.259  1.8483 -0.2929  1.0740
   35TMC2    H1  550   4.599   2.804  11.670  1.3370  0.7509 -1.8363
   35TMC2    H2  551   4.216   2.690  11.559 -0.8091  2.8796  1.3548
   35TMC2    C7  552   4.387   2.671  11.740  0.2915  0.1346 -0.9432
   35TMC2    C8  553   4.244   2.715  11.291  0.0746  0.7441 -0.0611
   35TMC2    O1  554   4.276   2.636  11.762 -0.5270 -0.1589 -0.1107
   35TMC2    O2  555   4.238   2.801  11.203 -0.0168  0.1102 -0.0851
   35TMC2    O5  556   4.142   2.648  11.354  0.5630 -0.0298  0.0718
   35TMC2    H5  557   4.168   2.576  11.416  0.8933 -0.0818 -0.1252
   36MPD2     C  558   0.457   2.970  11.520  0.3383  0.9822 -0.3011
   36MPD2    C1  559   0.418   2.878  11.612  0.1698 -0.5550 -0.5353
   36MPD2    C2  560   0.287   2.837  11.614 -0.4688  0.0812  0.2047
   36MPD2    C3  561   0.189   2.879  11.519  0.2220  0.2914 -0.2823
   36MPD2    C4  562   0.233   2.970  11.428  0.1567 -0.1818 -1.1121
   36MPD2    C5  563   0.366   3.004  11.423 -0.2157  0.3861 -1.0024
   36MPD2     H  564   0.248   2.777  11.696  1.7791 -1.5720  0.0676
   36MPD2    H1  565   0.170   3.017  11.353 -0.4698 -1.0275 -1.1102
   36MPD2    H2  566   0.552   3.022  11.522  0.8698 -0.0485  0.7846
   36MPD2    H3  567   0.380   3.082  11.349  2.3854 -0.1933 -1.0968
   36MPD2     N  568   0.060   2.827  11.516 -0.4097  0.1977  0.3074
   36MPD2    H5  569   0.041   2.758  11.588  1.2016 -0.4497  0.0993
   36MPD2    N1  570   0.511   2.847  11.714  0.5408  0.0452 -0.0296
   36MPD2    H7  571   0.602   2.890  11.701  0.0027  0.5852 -1.9712
   37TMC2    C1  572   4.153   3.380  11.786 -0.9453  0.1537 -0.5066
   37TMC2    C2  573   4.266   3.312  11.747  0.4272  0.2882 -0.0333
   37TMC2    C3  574   4.274   3.260  11.623 -0.2814  0.3555 -0.2466
   37TMC2    C4  575   4.047   3.391  11.698  0.2256 -0.1633 -0.3023
   37TMC2    C5  576   4.068   3.357  11.567  0.2935  0.2287 -0.2430
   37TMC2    C6  577   4.174   3.276  11.536 -0.2635 -0.2721 -0.3569
   37TMC2     C  578   4.146   3.379  11.928  0.0531 -0.2049  0.0162
   37TMC2     O  579   4.252   3.398  11.989  0.7762 -0.3499 -0.0566
   37TMC2     H  580   4.341   3.283  11.820  0.4887  0.8831  0.1423
   37TMC2    H1  581   3.968   3.458  11.730  1.7462  1.8596 -0.8385
   37TMC2    H2  582   4.181   3.234  11.436  0.9088 -0.2851 -0.2698
   37TMC2    C7  583   3.956   3.375  11.479  0.0854 -0.3605 -0.1096
   37TMC2    C8  584   4.381   3.170  11.604 -0.1857  0.4737 -0.4894
   37TMC2    O1  585   3.881   3.470  11.501 -0.2122 -0.0160 -0.3008
   37TMC2    O2  586   4.489   3.180  11.657  0.6154  0.1300 -0.2561
   37TMC2    O5  587   4.334   3.065  11.538 -0.0818 -0.4648 -0.2285
   37TMC2    H5  588   4.241   3.058  11.507 -0.3518  0.4323  0.3834
   38MPD2     C  589   3.887   3.367  12.373  0.3578  0.4345  0.6620
   38MPD2    C1  590   3.805   3.339  12.271 -0.1005 -0.0921 -0.3669
   38MPD2    C2  591   3.853   3.338  12.136 -0.3037 -0.3707 -0.2753
   38MPD2    C3  592   3.985   3.364  12.109 -0.2294 -0.1858 -0.1874
   38MPD2    C4  593   4.065   3.378  12.218  0.6651  0.1037 -0.3929
   38MPD2    C5  594   4.019   3.379  12.346  0.0530 -0.8880 -0.0935
   38MPD2     H  595   3.779   3.321  12.059 -1.4959  1.5349  0.4854
   38MPD2    H1  596   4.169   3.407  12.214 -0.4227  4.2938  1.3705
   38MPD2    H2  597   3.855   3.379  12.476  0.6799 -0.5740  0.8881
   38MPD2    H3  598   4.077   3.404  12.433  1.3006 -1.2008 -0.8253
   38MPD2     N  599   4.022   3.356  11.972  0.8283 -0.1190  0.2618
   38MPD2    H5  600   3.949   3.323  11.908 -0.2622  1.2192  0.8097
   38MPD2    N1  601   3.662   3.314  12.290  0.5478  0.6176 -0.9409
   38MPD2    H7  602   3.609   3.284  12.209  0.5273 -0.8132 -0.3988
   39TMC2    C1  603   1.061   0.524   1.610 -0.1458 -0.3300  0.1055
   39TMC2    C2  604   1.035   0.610   1.721 -0.0876  0.2283  0.0429
   39TMC2    C3  605   1.141   0.683   1.766  0.1341  0.0769  0.5099
   39TMC2    C4  606   1.187   0.506   1.555  0.1932  0.1584 -0.4336
   39TMC2    C5  607   1.290   0.573   1.609 -0.8490 -0.2893  0.3430
   39TMC2    C6  608   1.268   0.673   1.701  0.1266 -0.4544 -0.1868
   39TMC2     C  609   0.938   0.496   1.542 -0.7484  0.4013 -0.7554
   39TMC2     O  610   0.842   0.571   1.571 -0.1392 -0.2515 -0.4181
   39TMC2     H  611   0.943   0.626   1.776 -0.2040 -1.6450  0.3960
   39TMC2    H1  612   1.210   0.435   1.477 -0.4090 -1.4218  0.8356
   39TMC2    H2  613   1.351   0.729   1.744 -0.2302  0.7139 -1.0092
   39TMC2    C7  614   1.424   0.551   1.554 -0.2598 -0.2808 -0.4080
   39TMC2    C8  615   1.123   0.765   1.884  0.2023 -0.9060  0.1060
   39TMC2    O1  616   1.448   0.440   1.516  0.5481  0.5642  0.1686
   39TMC2    O2  617   1.016   0.810   1.926 -1.0465  0.0520  0.5025
   39TMC2    O5  618   1.238   0.792   1.953  0.1675  0.2831  0.1516
   39TMC2    H5  619   1.301   0.719   1.936 -1.0997 -1.0184  1.1136
   40MPD2     C  620   0.917   0.325   1.216  0.0037 -0.7006 -0.1526
   40MPD2    C1  621   0.876   0.386   1.332  0.6037 -0.2819 -0.1423
   40MPD2    C2  622   0.736   0.419   1.340  0.2190  1.1891 -1.0754
   40MPD2    C3  623   0.653   0.411   1.223 -0.3810  0.0992 -0.8002
   40MPD2    C4  624   0.702   0.359   1.105  0.1500  0.0578 -0.7816
   40MPD2    C5  625   0.833   0.316   1.104  0.2778  0.8157  0.4032
   40MPD2     H  626   0.695   0.468   1.427  0.6374 -1.7121  0.7825
   40MPD2    H1  627   0.654   0.362   1.008 -1.0618  0.3840 -0.1759
   40MPD2    H2  628   1.018   0.295   1.193  0.5413  1.9780 -1.2983
   40MPD2    H3  629   0.876   0.293   1.007 -0.2772 -0.1920  0.3919
   40MPD2     N  630   0.522   0.465   1.223 -0.3468 -0.1245  0.4664
   40MPD2    H5  631   0.466   0.448   1.140 -1.2329 -0.6318  1.1772
   40MPD2    N1  632   0.967   0.420   1.431  0.2330 -0.5889 -0.4086
   40MPD2    H7  633   1.054   0.367   1.428 -0.2219 -1.5108  3.0270
   41TMC2    C1  634   0.421   3.791  13.460 -0.5307 -0.0860 -0.2478
   41TMC2    C2  635   0.514   3.810  13.558  0.2724  0.0661 -0.4260
   41TMC2    C3  636   0.634   3.856  13.519 -0.0046  0.3442  0.5531
   41TMC2    C4  637   0.455   3.812  13.331 -0.5539 -0.0784 -0.0970
   41TMC2    C5  638   0.571   3.869  13.305  0.4595  0.3183  0.2743
   41TMC2    C6  639   0.675   3.889  13.392  0.7098  0.4706  0.3166
   41TMC2     C  640   0.302   3.712  13.490 -0.2319 -0.3503  0.1767
   41TMC2     O  641   0.287   3.625  13.402 -0.1089 -0.5137  0.1623
   41TMC2     H  642   0.495   3.780  13.660  0.6103  1.2900 -0.0048
   41TMC2    H1  643   0.384   3.803  13.249 -1.1342 -1.8560  0.6087
   41TMC2    H2  644   0.778   3.922  13.377  1.7274 -2.7325  0.2504
   41TMC2    C7  645   0.613   3.874  13.165  0.0595 -0.5988 -0.1463
   41TMC2    C8  646   0.738   3.808  13.602  0.2696  0.5069  0.2026
   41TMC2    O1  647   0.687   3.964  13.137  0.2024  0.0043 -0.4309
   41TMC2    O2  648   0.742   3.823  13.725  0.3711  0.5130 -0.8528
   41TMC2    O5  649   0.803   3.713  13.528 -0.3046 -0.8763  0.4027
   41TMC2    H5  650   0.774   3.702  13.435 -3.0326  0.6934  1.0894
   42MPD2     C  651   0.144   3.513  13.646  0.3038 -0.4602 -0.1119
   42MPD2    C1  652   0.170   3.644  13.684  0.0604 -0.4042 -0.5267
   42MPD2    C2  653   0.119   3.684  13.808 -0.0692  0.0160  0.1132
   42MPD2    C3  654   0.034   3.605  13.885 -0.0006 -0.8079  0.0333
   42MPD2    C4  655   0.013   3.475  13.844 -0.0155 -0.2444  0.0636
   42MPD2    C5  656   0.066   3.430  13.730 -0.0128  0.3230  0.1788
   42MPD2     H  657   0.135   3.790  13.829 -1.6301  0.2137  0.2514
   42MPD2    H1  658   4.696   3.408  13.910 -2.3612  0.9131 -0.6451
   42MPD2    H2  659   0.168   3.463  13.553  2.4508 -0.8702  0.6833
   42MPD2    H3  660   0.044   3.326  13.708  3.0016 -0.9406  3.1556
   42MPD2     N  661   4.696   3.656  14.000  0.0251 -0.3044  0.1958
   42MPD2    H5  662   4.616   3.600  14.029  0.2410 -0.8788 -0.3128
   42MPD2    N1  663   0.247   3.733  13.610  0.0534 -0.1181  0.0190
   42MPD2    H7  664   0.279   3.818  13.655  1.6965  0.5249 -2.3872
   43TMC2    C1  665   1.215   1.845   0.646 -0.1819  0.8310 -0.8960
   43TMC2    C2  666   1.113   1.936   0.641  0.4675  0.7268 -0.1126
   43TMC2    C3  667   1.073   1.986   0.764 -0.3176 -0.0186 -0.2135
   43TMC2    C4  668   1.276   1.807   0.756 -0.1971 -0.4975 -0.2023
   43TMC2    C5  669   1.237   1.864   0.874 -0.9262  0.2444  0.3549
   43TMC2    C6  670   1.130   1.955   0.880  0.0863  0.5019 -0.8478
   43TMC2     C  671   1.265   1.789   0.521 -0.3209 -0.4133 -0.3096
   43TMC2     O  672   1.349   1.698   0.532  0.4421  0.1661 -0.0634
   43TMC2     H  673   1.057   1.948   0.549  0.5990  0.9649 -0.1600
   43TMC2    H1  674   1.368   1.750   0.758 -0.0905 -0.2657  1.6796
   43TMC2    H2  675   1.090   1.993   0.973 -3.2468  0.1356 -2.1045
   43TMC2    C7  676   1.311   1.832   0.987 -0.5775 -0.1986 -0.3068
   43TMC2    C8  677   0.971   2.091   0.764 -0.4709 -0.5248  0.4271
   43TMC2    O1  678   1.344   1.717   1.009 -0.2390  0.0761  0.1179
   43TMC2    O2  679   0.906   2.107   0.660  0.7640  0.3590 -0.2512
   43TMC2    O5  680   1.025   2.190   0.840  0.2866 -0.2660 -0.6508
   43TMC2    H5  681   1.097   2.159   0.900  0.8367  1.8654 -0.2160
   44MPD2     C  682   1.375   1.785   0.019 -0.4889 -0.1332 -0.4791
   44MPD2    C1  683   1.378   1.692   0.116 -0.1272  0.4328  0.7824
   44MPD2    C2  684   1.339   1.720   0.240  0.5585  0.4170  1.0388
   44MPD2    C3  685   1.298   1.844   0.286 -0.1224 -0.0790  0.9322
   44MPD2    C4  686   1.295   1.937   0.182  0.5595 -0.0667 -0.7397
   44MPD2    C5  687   1.332   1.910   0.055  0.5796  0.0183 -0.4269
   44MPD2     H  688   1.330   1.642   0.314  2.3712 -0.1602  0.6477
   44MPD2    H1  689   1.250   2.034   0.199  0.4563 -0.1681 -0.4250
   44MPD2    H2  690   1.402   1.764  17.658 -0.5511 -0.9004 -0.3419
   44MPD2    H3  691   1.329   1.983  17.718 -0.4294  0.9887  0.5082
   44MPD2     N  692   1.246   1.878   0.414 -0.3169 -0.0553 -0.5123
   44MPD2    H5  693   1.199   1.968   0.418  2.2352  1.2162  0.6915
   44MPD2    N1  694   1.410   1.556   0.095  0.0217  0.1778  0.4931
   44MPD2    H7  695   1.402   1.497   0.177 -0.0929 -1.9389 -1.0428
   45TMC2    C1  696   2.456   2.761  10.250 -0.6025  0.6555 -0.2025
   45TMC2    C2  697   2.481   2.701  10.369  0.2157 -0.1371  0.0945
   45TMC2    C3  698   2.503   2.776  10.476  0.1517  0.3905 -0.2695
   45TMC2    C4  699   2.463   2.897  10.232  0.2720  0.4029 -0.3677
   45TMC2    C5  700   2.491   2.976  10.343  0.2682 -0.1515  0.6077
   45TMC2    C6  701   2.502   2.913  10.468 -0.4824  0.0324  0.0871
   45TMC2     C  702   2.431   2.672  10.138  0.0088 -0.4026 -0.2257
   45TMC2     O  703   2.488   2.566  10.138  0.7854  0.3928  0.4780
   45TMC2     H  704   2.473   2.593  10.378 -0.1731 -0.0065  1.3881
   45TMC2    H1  705   2.470   2.944  10.135 -1.6051 -0.6764 -1.0078
   45TMC2    H2  706   2.525   2.975  10.553  1.4743  0.1333 -0.5153
   45TMC2    C7  707   2.489   3.124  10.337 -0.2690  0.6704 -0.1106
   45TMC2    C8  708   2.524   2.700  10.599 -0.1187  0.6900  1.0785
   45TMC2    O1  709   2.536   3.188  10.433  0.5519  0.4479  0.2684
   45TMC2    O2  710   2.578   2.590  10.591  0.9032  0.0677  0.2664
   45TMC2    O5  711   2.559   2.792  10.695  0.0883  0.3486 -0.7433
   45TMC2    H5  712   2.501   2.870  10.698 -0.4710 -0.1026  0.0271
   46MPD2     C  713   2.307   2.530   9.912 -0.5889 -0.1950  0.0680
   46MPD2    C1  714   2.273   2.654   9.948  0.0975  0.2851  0.0891
   46MPD2    C2  715   2.161   2.710   9.885 -0.3887  0.1407 -0.4215
   46MPD2    C3  716   2.082   2.638   9.798  0.4010  0.7004  0.1445
   46MPD2    C4  717   2.113   2.510   9.767  0.7674  0.0743 -0.9768
   46MPD2    C5  718   2.231   2.459   9.820 -0.4285 -0.0050  0.5727
   46MPD2     H  719   2.126   2.811   9.901  2.0356  0.5166  2.6257
   46MPD2    H1  720   2.060   2.448   9.695  0.3523 -1.6525  0.8253
   46MPD2    H2  721   2.399   2.480   9.942  1.4063  2.7390 -1.1881
   46MPD2    H3  722   2.272   2.367   9.780 -1.4347  0.7806 -2.3013
   46MPD2     N  723   1.982   2.710   9.727 -0.1786 -0.1767  0.0805
   46MPD2    H5  724   1.969   2.808   9.746 -0.8453  0.0631 -1.6218
   46MPD2    N1  725   2.340   2.724  10.045 -0.1895  0.1446  0.5246
   46MPD2    H7  726   2.308   2.819  10.059 -2.6257 -0.5793 -0.0690
   47TMC2    C1  727   3.788   3.574   9.504  0.2135 -0.0770 -0.9889
   47TMC2    C2  728   3.810   3.441   9.489  0.4930 -1.0130 -0.6822
   47TMC2    C3  729   3.707   3.362   9.457 -0.2767 -0.6103  0.0291
   47TMC2    C4  730   3.666   3.626   9.469 -0.8654  0.5319 -0.4839
   47TMC2    C5  731   3.558   3.546   9.441  1.2058 -0.0178  0.3042
   47TMC2    C6  732   3.582   3.413   9.442  0.1638 -0.3177 -0.1699
   47TMC2     C  733   3.899   3.664   9.518  0.4824  0.1035 -0.8162
   47TMC2     O  734   3.866   3.783   9.528 -0.3690 -0.6714  0.3832
   47TMC2     H  735   3.895   3.393   9.537  0.0065  0.1795  1.3967
   47TMC2    H1  736   3.663   3.735   9.462 -2.0538  0.5979  1.1828
   47TMC2    H2  737   3.497   3.348   9.428 -0.2808 -0.2713  2.2283
   47TMC2    C7  738   3.425   3.593   9.489  0.7734  0.1954  0.6795
   47TMC2    C8  739   3.724   3.226   9.408 -0.0981  0.1443  0.7443
   47TMC2    O1  740   3.337   3.503   9.499 -0.4755 -0.2834 -0.3341
   47TMC2    O2  741   3.628   3.148   9.399  0.5824 -0.3789  0.0723
   47TMC2    O5  742   3.833   3.214   9.332  0.1164  0.0412  0.6695
   47TMC2    H5  743   3.897   3.284   9.358  2.4501 -0.9198 -2.5860
   48MPD2     C  744   4.140   3.816   9.551  0.1471  0.3143  0.8741
   48MPD2    C1  745   4.142   3.685   9.515 -0.4205  0.1132 -0.1253
   48MPD2    C2  746   4.261   3.624   9.487 -0.3331  0.4757  0.6349
   48MPD2    C3  747   4.378   3.699   9.478  0.5946 -0.6801 -0.0659
   48MPD2    C4  748   4.379   3.830   9.518  0.0229 -0.0568  0.5123
   48MPD2    C5  749   4.258   3.884   9.563  0.7400 -0.2990  0.1666
   48MPD2     H  750   4.265   3.518   9.464  0.1495  0.4722  0.7244
   48MPD2    H1  751   4.457   3.905   9.510  1.0021 -1.4920 -3.3319
   48MPD2    H2  752   4.055   3.864   9.598  0.0554  0.8255  0.1898
   48MPD2    H3  753   4.254   3.983   9.607 -0.0515 -0.4125  0.3519
   48MPD2     N  754   4.497   3.634   9.427  0.4455  0.5274  0.2736
   48MPD2    H5  755   4.498   3.534   9.411  0.2404  0.7681 -1.2384
   48MPD2    N1  756   4.023   3.613   9.508  0.0925  0.0358 -0.0826
   48MPD2    H7  757   4.027   3.520   9.469  0.1819  0.5371 -1.2605
   49TMC2    C1  758   2.384   0.398  11.048 -0.7125 -0.1670 -0.2238
   49TMC2    C2  759   2.349   0.344  10.928 -0.1306 -0.0546  0.2491
   49TMC2    C3  760   2.245   0.250  10.926  0.5891 -0.5730  0.4855
   49TMC2    C4  761   2.312   0.376  11.167 -0.1206  0.4676  0.2491
   49TMC2    C5  762   2.212   0.285  11.162  0.1415  0.8294 -0.0073
   49TMC2    C6  763   2.178   0.214  11.042 -0.7380 -1.2657  0.3102
   49TMC2     C  764   2.476   0.507  11.039 -0.4398 -0.4075  0.1265
   49TMC2     O  765   2.535   0.510  10.933  0.2202  0.4739  0.1379
   49TMC2     H  766   2.396   0.388  10.841  0.7327  0.3013  0.8964
   49TMC2    H1  767   2.334   0.420  11.263  2.9521 -1.9778  0.6799
   49TMC2    H2  768   2.092   0.148  11.036 -0.8530 -1.1164  0.2922
   49TMC2    C7  769   2.118   0.263  11.269  0.1554  0.7741 -0.5940
   49TMC2    C8  770   2.188   0.203  10.803  0.7220 -0.1657 -0.8215
   49TMC2    O1  771   2.052   0.162  11.262  0.7010 -0.3776 -0.4895
   49TMC2    O2  772   2.138   0.094  10.783 -0.2314 -0.0947 -0.1069
   49TMC2    O5  773   2.163   0.318  10.726  0.8252  0.4729 -0.5836
   49TMC2    H5  774   2.172   0.407  10.766  1.8891 -0.0547  0.3644
   50MPD2     C  775   2.675   0.723  11.062  0.2159  0.3755  0.2729
   50MPD2    C1  776   2.575   0.697  11.157 -0.4658  0.4057  0.2070
   50MPD2    C2  777   2.582   0.777  11.273 -0.5176  0.8507  0.4483
   50MPD2    C3  778   2.661   0.887  11.281 -0.8098  0.7069 -0.5212
   50MPD2    C4  779   2.757   0.910  11.184 -0.3126 -0.4109  0.0806
   50MPD2    C5  780   2.766   0.822  11.082 -0.4232 -0.0882 -0.1550
   50MPD2     H  781   2.511   0.752  11.350  0.0276  0.8456  0.9453
   50MPD2    H1  782   2.829   0.990  11.194 -0.2106 -0.4181 -0.5727
   50MPD2    H2  783   2.693   0.655  10.979 -1.7775  1.3314 -0.9126
   50MPD2    H3  784   2.853   0.835  11.019  1.1481 -2.2029  1.5918
   50MPD2     N  785   2.662   0.976  11.400  0.4110  0.0162 -0.1403
   50MPD2    H5  786   2.716   1.062  11.402 -1.2028  1.0728 -1.6606
   50MPD2    N1  787   2.482   0.590  11.147  0.4596 -0.1543  0.4164
   50MPD2    H7  788   2.417   0.583  11.225 -0.2999  1.3656 -0.0862
   51TMC2    C1  789   3.465   4.517   1.853  1.4046 -0.3119  0.1977
   51TMC2    C2  790   3.335   4.499   1.825 -0.0122 -0.4020  0.0679
   51TMC2    C3  791   3.258   4.603   1.802 -0.1010 -0.0126 -0.5340
   51TMC2    C4  792   3.518   4.640   1.878  0.6209  0.4325 -0.1078
   51TMC2    C5  793   3.435   0.009   1.862  0.9376 -0.3302 -0.0116
   51TMC2    C6  794   3.306   4.733   1.820 -0.2579  0.0677 -0.0002
   51TMC2     C  795   3.559   4.425   1.804  0.4853 -0.1342  0.1263
   51TMC2     O  796   3.508   4.341   1.732  0.3886  0.2948  0.0992
   51TMC2     H  797   3.286   4.404   1.806 -2.2532  0.9545 -0.8640
   51TMC2    H1  798   3.625   4.642   1.900  0.2535 -0.3160  1.7182
   51TMC2    H2  799   3.249   0.086   1.798 -1.0580 -0.8757 -1.8052
   51TMC2    C7  800   3.502   0.132   1.828  0.8991 -0.1222  0.6028
   51TMC2    C8  801   3.136   4.577   1.731  0.6489 -0.0808 -0.1335
   51TMC2    O1  802   3.617   0.109   1.799 -0.1230  0.5492 -0.0241
   51TMC2    O2  803   3.059   4.485   1.764 -0.5581 -0.0322 -0.0371
   51TMC2    O5  804   3.101   4.687   1.657  0.7139  0.1187  0.4326
   51TMC2    H5  805   3.178   0.007   1.633 -0.1520  1.9817  2.0329
   52MPD2     C  806   3.986   4.149   1.809 -0.1566  0.3967  0.6158
   52MPD2    C1  807   3.885   4.167   1.717  0.0401  0.5721  0.2439
   52MPD2    C2  808   3.772   4.238   1.745 -0.0009  0.2707 -0.1026
   52MPD2    C3  809   3.773   4.318   1.860 -0.2364 -0.3954  0.4422
   52MPD2    C4  810   3.874   4.297   1.956 -0.2757  0.5697  0.3752
   52MPD2    C5  811   3.977   4.217   1.924 -0.0171  0.0272  0.2542
   52MPD2     H  812   3.696   4.253   1.669 -0.2084 -0.3078 -0.0059
   52MPD2    H1  813   3.889   4.360   2.043  1.4874 -0.1303  0.5736
   52MPD2    H2  814   4.079   4.100   1.782 -1.1867 -1.3063  0.1482
   52MPD2    H3  815   4.060   4.214   1.994 -1.0611  0.9722  1.5235
   52MPD2     N  816   3.670   4.409   1.885  0.3565 -0.0575  0.1186
   52MPD2    H5  817   3.666   4.473   1.964 -0.2937 -0.5110  0.4530
   52MPD2    N1  818   3.889   4.116   1.587 -0.1793  0.0309 -0.7550
   52MPD2    H7  819   3.832   4.164   1.518  2.1451  1.4471 -1.7008
   53TMC2    C1  820   3.265   3.452  11.237 -0.0807 -0.5939 -0.2006
   53TMC2    C2  821   3.146   3.488  11.176  0.0833 -0.1848  0.2236
   53TMC2    C3  822   3.050   3.532  11.266  0.0894 -0.1870 -0.8066
   53TMC2    C4  823   3.276   3.435  11.375 -0.3353 -0.2752 -0.5344
   53TMC2    C5  824   3.169   3.481  11.453 -0.4850  0.8409  0.3723
   53TMC2    C6  825   3.058   3.529  11.403  0.1623 -0.3717  0.2860
   53TMC2     C  826   3.362   3.376  11.162  0.0970 -0.5487 -0.0774
   53TMC2     O  827   3.315   3.287  11.090  0.0128  0.5668 -0.3712
   53TMC2     H  828   3.135   3.498  11.069  2.2590 -2.5513 -0.2344
   53TMC2    H1  829   3.366   3.388  11.411 -0.7946 -0.7986 -0.0618
   53TMC2    H2  830   2.974   3.561  11.463  0.1738  3.0414 -1.5208
   53TMC2    C7  831   3.189   3.505  11.595 -0.2235  0.0214 -1.0561
   53TMC2    C8  832   2.926   3.581  11.196  0.0365 -0.1179 -0.1247
   53TMC2    O1  833   3.107   3.572  11.663 -0.0808 -0.3336  0.3207
   53TMC2    O2  834   2.860   3.678  11.238  0.5077  0.3443  0.1073
   53TMC2    O5  835   2.913   3.505  11.083 -0.8395  0.0490 -0.2942
   53TMC2    H5  836   2.955   3.417  11.094 -1.5896 -0.4963 -1.8289
   54MPD2     C  837   3.605   3.189  11.144  0.3302 -0.2382 -0.1075
   54MPD2    C1  838   3.605   3.311  11.213 -0.9688 -0.6735  0.8129
   54MPD2    C2  839   3.717   3.338  11.291  0.7725  0.4056 -0.3881
   54MPD2    C3  840   3.832   3.254  11.295  0.3192  0.3240  0.7386
   54MPD2    C4  841   3.827   3.142  11.215 -1.1538  0.0762 -0.5949
   54MPD2    C5  842   3.714   3.117  11.144 -0.7047  0.0502  0.6240
   54MPD2     H  843   3.712   3.435  11.339 -0.7268 -1.1898  2.6867
   54MPD2    H1  844   3.913   3.077  11.211 -0.6714  0.7682 -1.5609
   54MPD2    H2  845   3.520   3.154  11.085  2.5880 -1.6974 -2.4755
   54MPD2    H3  846   3.721   3.030  11.079 -1.3391  0.1383  0.4444
   54MPD2     N  847   3.943   3.282  11.375  0.0268  0.0392 -0.4392
   54MPD2    H5  848   4.020   3.215  11.369 -0.2026 -0.2388 -0.2729
   54MPD2    N1  849   3.488   3.393  11.218  0.1959 -0.1477 -0.2650
   54MPD2    H7  850   3.491   3.474  11.280  1.2350 -0.6794  0.3846
   55TMC2    C1  851   4.542   1.964   0.795  0.4550 -0.3640 -0.4449
   55TMC2    C2  852   4.639   2.030   0.866 -0.0391  0.7271  0.0723
   55TMC2    C3  853   4.722   1.956   0.949 -0.3152 -0.6023  0.5100
   55TMC2    C4  854   4.522   1.829   0.817  0.6602  0.2635 -0.1986
   55TMC2    C5  855   4.598   1.764   0.913 -0.1685 -0.3823 -0.0253
   55TMC2    C6  856   4.711   1.820   0.973  0.4271  0.2377 -0.3602
   55TMC2     C  857   4.432   2.035   0.725  0.2464 -0.1383  0.6561
   55TMC2     O  858   4.325   1.971   0.717 -0.5336  0.1595 -0.3171
   55TMC2     H  859   4.649   2.138   0.871 -2.7866  0.9103  1.7603
   55TMC2    H1  860   4.446   1.779   0.758  1.8064 -1.2842 -0.3702
   55TMC2    H2  861   0.044   1.774   1.042  2.9740  3.3639 -0.8363
   55TMC2    C7  862   4.574   1.621   0.930 -0.4358 -0.1436 -0.6652
   55TMC2    C8  863   0.085   2.039   1.014 -0.1411  0.1577 -0.2495
   55TMC2    O1  864   4.660   1.553   0.990  0.1979  0.4149  0.0856
   55TMC2    O2  865   0.130   2.140   0.967 -0.4388 -0.4659  0.1183
   55TMC2    O5  866   0.055   2.036   1.147  0.2444 -0.7388 -0.3418
   55TMC2    H5  867   4.732   1.962   1.172  0.4871 -0.6299  0.5613
   56MPD2     C  868   4.392   2.402   0.664 -0.0133  0.4857 -0.5260
   56MPD2    C1  869   4.355   2.266   0.671  0.2372  0.5201  0.6999
   56MPD2    C2  870   4.222   2.224   0.636 -0.2707  0.1471 -0.0118
   56MPD2    C3  871   4.133   2.321   0.599 -1.2631  0.0248 -0.4928
   56MPD2    C4  872   4.177   2.449   0.572  0.3326 -0.4154 -0.0679
   56MPD2    C5  873   4.306   2.482   0.601 -0.0475 -0.2163 -0.4305
   56MPD2     H  874   4.187   2.123   0.649 -0.2039  0.2836  1.1866
   56MPD2    H1  875   4.120   2.531   0.530 -0.2515 -0.1027  1.3408
   56MPD2    H2  876   4.493   2.439   0.671 -0.4890  1.4812  1.0493
   56MPD2    H3  877   4.337   2.584   0.579  1.2943 -0.8898 -1.6030
   56MPD2     N  878   3.997   2.288   0.594  0.4911 -0.3081 -0.3368
   56MPD2    H5  879   3.986   2.193   0.626 -1.7617  0.1214  0.1921
   56MPD2    N1  880   4.451   2.175   0.723 -0.5923 -0.3902 -0.0199
   56MPD2    H7  881   4.544   2.210   0.743 -0.0407 -3.1478  2.1776
   57TMC2    C1  882   3.132   1.382  13.523  0.2065  0.4761  0.3610
   57TMC2    C2  883   3.083   1.309  13.418 -0.4210  0.0060  0.3958
   57TMC2    C3  884   3.166   1.229  13.346  0.2092  0.2159  0.0157
   57TMC2    C4  885   3.261   1.358  13.563 -0.3925 -0.2650 -0.4418
   57TMC2    C5  886   3.337   1.265  13.506  0.1250 -0.5671  0.2567
   57TMC2    C6  887   3.292   1.198  13.396 -0.4070 -0.7738  1.0361
   57TMC2     C  888   3.056   1.494  13.560 -0.1460 -0.2207 -0.4538
   57TMC2     O  889   2.979   1.537  13.478 -0.2298  0.2210 -0.0663
   57TMC2     H  890   2.988   1.337  13.376 -1.1840 -0.8104  1.5619
   57TMC2    H1  891   3.304   1.433  13.628  0.5886 -1.4737  0.2919
   57TMC2    H2  892   3.341   1.118  13.341  0.0015  1.3288 -1.6847
   57TMC2    C7  893   3.466   1.244  13.568  0.1749  0.1275 -0.0269
   57TMC2    C8  894   3.142   1.182  13.210 -0.5388 -0.2056 -0.1279
   57TMC2    O1  895   3.474   1.306  13.676 -0.3194 -0.3906  0.0668
   57TMC2    O2  896   3.235   1.152  13.139  0.3322  0.2062  0.0627
   57TMC2    O5  897   3.018   1.225  13.168 -0.7244 -0.2849 -0.1438
   57TMC2    H5  898   2.962   1.252  13.245 -2.5155 -0.2476 -1.4481
   58MPD2     C  899   2.991   1.918  13.829 -0.0815 -0.1219 -0.7087
   58MPD2    C1  900   2.950   1.884  13.706 -0.5831 -0.2835 -0.4234
   58MPD2    C2  901   2.962   1.761  13.660  0.1548 -0.0326  0.2550
   58MPD2    C3  902   3.034   1.663  13.731  0.0735  0.4891 -0.3609
   58MPD2    C4  903   3.075   1.692  13.859 -0.5002  0.6594 -0.4964
   58MPD2    C5  904   3.049   1.819  13.910 -0.2465 -0.1967  0.7349
   58MPD2     H  905   2.930   1.747  13.558 -0.7726 -1.8241  0.7933
   58MPD2    H1  906   3.122   1.620  13.924  0.6981  1.6648 -0.2349
   58MPD2    H2  907   2.993   2.018  13.871  1.0019 -0.4262 -0.0423
   58MPD2    H3  908   3.083   1.843  14.009 -2.4011 -1.4471  1.7837
   58MPD2     N  909   3.087   1.546  13.683 -0.1139 -0.2225 -0.1735
   58MPD2    H5  910   3.146   1.493  13.746  0.4942 -0.1829 -0.7103
   58MPD2    N1  911   2.884   1.976  13.622 -0.0215 -0.8094  0.3062
   58MPD2    H7  912   2.840   1.943  13.537 -1.5720 -0.1208  0.8377
   59TMC2    C1  913   1.079   2.036  12.798 -0.3755 -0.3288 -0.4232
   59TMC2    C2  914   1.080   1.906  12.837  0.3582  0.5525 -0.2394
   59TMC2    C3  915   1.089   1.819  12.734  0.3272  0.1305 -0.2005
   59TMC2    C4  916   1.096   2.076  12.664 -0.5092  0.2281  0.1819
   59TMC2    C5  917   1.104   1.980  12.568  0.3011  0.5381 -0.2188
   59TMC2    C6  918   1.090   1.844  12.599  0.6478 -0.2824  0.8550
   59TMC2     C  919   1.047   2.136  12.895 -0.3995  0.0424  0.2798
   59TMC2     O  920   0.981   2.093  12.987  0.0934  0.2976  0.3870
   59TMC2     H  921   1.052   1.874  12.936  1.0735  0.5504 -0.0414
   59TMC2    H1  922   1.109   2.181  12.641 -0.2451  0.2523  0.4277
   59TMC2    H2  923   1.091   1.768  12.522 -1.5343 -0.8928  1.4328
   59TMC2    C7  924   1.067   2.011  12.427 -0.1110  0.0170  0.0484
   59TMC2    C8  925   1.065   1.686  12.767 -0.2968  0.3561 -0.1993
   59TMC2    O1  926   1.094   1.920  12.347 -0.2795 -0.3988 -0.3518
   59TMC2    O2  927   1.006   1.667  12.873  0.4176  0.1358  0.2273
   59TMC2    O5  928   1.178   1.620  12.743 -0.4740  0.5094  0.1108
   59TMC2    H5  929   1.225   1.648  12.661  2.0619 -1.1927  1.0194
   60MPD2     C  930   1.021   2.366  13.072 -0.7796  0.9081  0.2455
   60MPD2    C1  931   1.106   2.366  12.969 -0.2978 -1.3130  0.3273
   60MPD2    C2  932   1.209   2.461  12.971  0.4632 -0.2570  0.9673
   60MPD2    C3  933   1.226   2.545  13.078 -0.7115 -0.3651 -0.5593
   60MPD2    C4  934   1.135   2.541  13.178 -1.0234  0.1115  0.2630
   60MPD2    C5  935   1.036   2.447  13.179 -0.5184  0.4288  0.2078
   60MPD2     H  936   1.287   2.454  12.896 -2.1647 -1.0293 -1.7224
   60MPD2    H1  937   1.135   2.589  13.275 -0.4987  1.8903 -0.6193
   60MPD2    H2  938   0.942   2.292  13.080 -1.1142  1.4454  2.0081
   60MPD2    H3  939   0.981   2.434  13.272  1.0382 -0.7860  0.9572
   60MPD2     N  940   1.341   2.622  13.104 -0.3397 -0.1218 -0.2732
   60MPD2    H5  941   1.349   2.655  13.200  0.9729  0.2971 -0.5290
   60MPD2    N1  942   1.111   2.263  12.873 -0.4525 -0.2868  0.5531
   60MPD2    H7  943   1.181   2.273  12.801  1.4827  0.1695  2.4968
   61TMC2    C1  944   0.437   4.031  15.867 -0.5843  0.5191  0.4854
   61TMC2    C2  945   0.370   3.969  15.967  0.1778 -0.0171 -0.1023
   61TMC2    C3  946   0.280   4.042  16.040 -0.6125 -0.0723 -0.3091
   61TMC2    C4  947   0.423   4.163  15.837  0.0850  0.9843 -0.8289
   61TMC2    C5  948   0.334   4.239  15.919  0.6189  0.3108  0.2958
   61TMC2    C6  949   0.264   4.176  16.021  0.5522  0.4457 -0.1176
   61TMC2     C  950   0.550   3.954  15.806  0.1608  1.6279 -0.8824
   61TMC2     O  951   0.618   3.885  15.883 -0.5834 -0.4541 -0.9701
   61TMC2     H  952   0.393   3.865  15.987  0.4290  0.8039  3.7660
   61TMC2    H1  953   0.493   4.207  15.767  0.2161  0.8578 -0.7752
   61TMC2    H2  954   0.199   4.229  16.089  1.8698 -1.2597  2.4746
   61TMC2    C7  955   0.295   4.363  15.862 -0.1062 -0.2741  0.4243
   61TMC2    C8  956   0.207   3.989  16.159 -0.7301  0.1916 -0.3428
   61TMC2    O1  957   0.366   4.406  15.778 -0.2802  0.2254  0.1103
   61TMC2    O2  958   0.091   4.033  16.175  0.0323 -0.2163  0.0470
   61TMC2    O5  959   0.257   3.875  16.213 -0.2644  0.3347  0.3205
   61TMC2    H5  960   0.354   3.866  16.206 -0.5860 -0.7196 -2.8952
   62MPD2     C  961   0.775   3.876  15.642  0.5048 -0.0598 -0.2526
   62MPD2    C1  962   0.664   3.936  15.594 -0.6970 -0.0580  0.4548
   62MPD2    C2  963   0.659   3.954  15.458  0.0989  0.2654 -0.2292
   62MPD2    C3  964   0.761   3.904  15.377  0.0422 -0.0173 -0.0605
   62MPD2    C4  965   0.878   3.845  15.426  0.5820 -0.1826  0.1859
   62MPD2    C5  966   0.886   3.837  15.565 -0.2332 -0.0598 -0.1073
   62MPD2     H  967   0.573   4.002  15.413  1.8195 -0.3057 -4.1085
   62MPD2    H1  968   0.957   3.791  15.375 -1.9765 -0.7700 -3.1332
   62MPD2    H2  969   0.791   3.863  15.749  0.2273  1.4251 -0.0348
   62MPD2    H3  970   0.969   3.790  15.616 -1.1549 -0.3272  1.1643
   62MPD2     N  971   0.738   3.919  15.240  0.0648 -0.3997 -0.0715
   62MPD2    H5  972   0.648   3.957  15.213 -0.8839 -2.6798 -0.1561
   62MPD2    N1  973   0.560   3.984  15.675 -0.2580  0.5208 -0.4729
   62MPD2    H7  974   0.477   4.032  15.641 -1.2906 -1.1204 -0.2612
   63TMC2    C1  975   4.676   3.820  10.032 -0.2337  1.0068 -0.1653
   63TMC2    C2  976   0.057   3.867  10.067  0.2845 -0.0711  0.3732
   63TMC2    C3  977   0.106   3.984  10.001 -0.2132 -1.0179  0.6739
   63TMC2    C4  978   4.599   3.872   9.932  0.4042 -0.4066 -0.7303
   63TMC2    C5  979   4.648   3.988   9.869 -0.2877  0.2568 -0.6465
   63TMC2    C6  980   0.026   4.052   9.908 -0.9711 -0.0130  0.9141
   63TMC2     C  981   4.621   3.712  10.113 -0.5530 -0.2633 -0.4669
   63TMC2     O  982   4.697   3.646  10.184  0.4233 -0.2863  0.1370
   63TMC2     H  983   0.107   3.827  10.154  0.6322 -0.2952  0.0711
   63TMC2    H1  984   4.511   3.821   9.896  0.9977 -1.0197 -1.3141
   63TMC2    H2  985   0.065   4.136   9.853 -0.1718  1.5575  3.9097
   63TMC2    C7  986   4.542   4.083   9.837  0.8753  0.5282  0.4244
   63TMC2    C8  987   0.247   4.019  10.010 -0.1289  0.0899  0.2518
   63TMC2    O1  988   4.436   4.029   9.811 -0.4629 -0.3308  0.5018
   63TMC2    O2  989   0.308   4.072   9.914 -0.0791  0.3290 -0.0364
   63TMC2    O5  990   0.283   4.013  10.139  0.0624 -0.1409 -0.4000
   63TMC2    H5  991   0.216   3.969  10.195  0.5028  0.0282  0.2636
   64MPD2     C  992   4.261   3.468  10.373  0.2755  0.4839  0.6791
   64MPD2    C1  993   4.391   3.433  10.341 -0.1954 -0.5274 -0.2444
   64MPD2    C2  994   4.461   3.522  10.267  0.3251  0.0185 -0.1038
   64MPD2    C3  995   4.412   3.635  10.211 -0.4284 -0.3475 -1.1387
   64MPD2    C4  996   4.284   3.668  10.232  0.4702 -0.1620  0.1067
   64MPD2    C5  997   4.210   3.589  10.319 -0.4503 -0.3474  0.4152
   64MPD2     H  998   4.560   3.483  10.245 -0.4094  0.0862 -3.4289
   64MPD2    H1  999   4.241   3.762  10.201 -0.3583 -0.8468 -0.8152
   64MPD2    H2 1000   4.190   3.404  10.424  0.0000  1.3994  1.4497
   64MPD2    H3 1001   4.108   3.612  10.346  0.0120  1.8463  0.2699
   64MPD2     N 1002   4.479   3.712  10.119 -0.2811 -0.3396 -0.4677
   64MPD2    H5 1003   4.421   3.787  10.083 -0.9094 -1.5043 -1.8533
   64MPD2    N1 1004   4.456   3.314  10.377 -0.4180  0.4284  1.0877
   64MPD2    H7 1005   4.554   3.309  10.352 -0.5322  2.0574  0.3489
   65TMC2    C1 1006   1.273   3.825  15.494 -0.1870  0.1337 -0.8987
   65TMC2    C2 1007   1.253   3.767  15.368 -0.5404 -0.3503  0.2796
   65TMC2    C3 1008   1.228   3.843  15.264  0.0178  0.0105 -0.4200
   65TMC2    C4 1009   1.236   3.952  15.519  0.2212 -0.0439  1.0444
   65TMC2    C5 1010   1.197   4.023  15.407  0.6459  0.5092 -0.5422
   65TMC2    C6 1011   1.198   3.976  15.282 -0.1008 -0.2047  0.3074
   65TMC2     C 1012   1.263   3.736  15.611 -0.1028 -0.4371  0.8221
   65TMC2     O 1013   1.268   3.787  15.722 -0.4020 -0.1748 -0.8799
   65TMC2     H 1014   1.286   3.665  15.352  2.0356  0.1925  1.9989
   65TMC2    H1 1015   1.247   3.995  15.618  2.2212  1.5533  0.1308
   65TMC2    H2 1016   1.171   4.044  15.202 -0.6081  1.0059  1.4960
   65TMC2    C7 1017   1.180   4.164  15.417  0.0373  0.2617 -0.7270
   65TMC2    C8 1018   1.248   3.804  15.125  0.0636 -0.7849  0.5855
   65TMC2    O1 1019   1.188   4.235  15.316  0.5072  0.5804  0.2141
   65TMC2    O2 1020   1.236   3.688  15.088 -0.2578  0.3921  0.5302
   65TMC2    O5 1021   1.319   3.904  15.066 -0.2138  0.0769  0.2402
   65TMC2    H5 1022   1.329   3.987  15.116 -1.0899  0.4408 -0.1978
   66MPD2     C 1023   1.196   3.512  15.787  0.5092 -1.0640  0.6474
   66MPD2    C1 1024   1.156   3.520  15.655 -0.0025 -0.1012  1.2083
   66MPD2    C2 1025   1.083   3.409  15.616  0.0300  0.1417 -0.2087
   66MPD2    C3 1026   1.056   3.298  15.697 -0.6516  0.5288 -0.7648
   66MPD2    C4 1027   1.087   3.305  15.831 -0.2197  0.1398  0.9460
   66MPD2    C5 1028   1.148   3.421  15.872 -0.8739  0.1274  0.4624
   66MPD2     H 1029   1.045   3.409  15.514 -0.4800 -0.4249 -0.0200
   66MPD2    H1 1030   1.077   3.228  15.906 -0.4406 -1.4434 -0.6912
   66MPD2    H2 1031   1.263   3.585  15.831  0.1824  0.3983 -1.2469
   66MPD2    H3 1032   1.180   3.416  15.975 -1.8784  0.3002  0.7842
   66MPD2     N 1033   0.984   3.180  15.653  0.1031 -0.0030  0.0940
   66MPD2    H5 1034   0.966   3.106  15.720  1.3738 -0.0387  0.4088
   66MPD2    N1 1035   1.195   3.622  15.571  0.0096  0.4715 -0.2782
   66MPD2    H7 1036   1.170   3.615  15.473  1.0658 -1.6103 -0.3959
   67TMC2    C1 1037   1.070   2.943  14.420 -0.2801  0.8731  0.0517
   67TMC2    C2 1038   1.035   3.075  14.422 -0.6071  0.3847  0.7728
   67TMC2    C3 1039   1.098   3.154  14.518  0.1669  0.3716  0.0535
   67TMC2    C4 1040   1.165   2.892  14.510 -0.1026 -0.0260 -0.0286
   67TMC2    C5 1041   1.223   2.977  14.603 -0.2456 -0.7458  0.2857
   67TMC2    C6 1042   1.195   3.109  14.607  0.3605 -0.4815  0.4110
   67TMC2     C 1043   0.995   2.841  14.341 -0.4118 -0.6242  0.5430
   67TMC2     O 1044   0.985   2.731  14.393 -0.8118  0.7012 -0.1087
   67TMC2     H 1045   0.948   3.112  14.370  0.5883  1.5636 -0.3993
   67TMC2    H1 1046   1.187   2.786  14.503 -1.5173 -0.2691 -0.6764
   67TMC2    H2 1047   1.248   3.176  14.673  0.2404  0.0093  0.0136
   67TMC2    C7 1048   1.327   2.925  14.680 -0.4936 -1.0187 -0.5457
   67TMC2    C8 1049   1.021   3.269  14.561 -0.0875 -0.0209  0.4448
   67TMC2    O1 1050   1.392   2.827  14.643 -0.1942  0.2227 -0.1656
   67TMC2    O2 1051   0.961   3.347  14.485  0.1226 -0.2191 -0.5663
   67TMC2    O5 1052   1.016   3.287  14.697 -0.0526 -0.0489  0.2573
   67TMC2    H5 1053   1.036   3.202  14.742  0.0569  0.4757  1.2018
   68MPD2     C 1054   0.857   2.670  14.139  0.1421 -0.3681 -0.1411
   68MPD2    C1 1055   0.867   2.807  14.129 -0.8721 -0.2453  0.3293
   68MPD2    C2 1056   0.803   2.872  14.034  0.2782 -0.6667  0.3383
   68MPD2    C3 1057   0.735   2.812  13.933  0.1673 -0.2501 -0.5175
   68MPD2    C4 1058   0.725   2.677  13.930 -0.3709  0.3609  0.1507
   68MPD2    C5 1059   0.786   2.606  14.035 -0.8299  0.2898 -0.1289
   68MPD2     H 1060   0.810   2.979  14.050 -0.0273 -0.7904  1.2807
   68MPD2    H1 1061   0.659   2.631  13.857  1.3321 -1.9629  0.0652
   68MPD2    H2 1062   0.889   2.606  14.221  0.7872 -0.9397 -0.8326
   68MPD2    H3 1063   0.777   2.499  14.045  2.1027 -0.0663 -1.2377
   68MPD2     N 1064   0.666   2.892  13.825 -0.4764  0.1732 -0.2643
   68MPD2    H5 1065   0.624   2.838  13.750 -0.6275  0.4280 -0.3589
   68MPD2    N1 1066   0.929   2.888  14.228 -0.6192 -0.4035 -0.0014
   68MPD2    H7 1067   0.940   2.986  14.200 -3.4845  0.0784  0.5642
   69TMC2    C1 1068   3.801   3.659  12.645  0.0152 -0.6626 -0.0197
   69TMC2    C2 1069   3.689   3.738  12.654 -0.2365  0.0974  0.3099
   69TMC2    C3 1070   3.638   3.786  12.540  0.3339  0.4417  0.2583
   69TMC2    C4 1071   3.879   3.657  12.534 -0.7885 -0.0560  0.3597
   69TMC2    C5 1072   3.825   3.708  12.422  0.6899  0.2995 -0.2664
   69TMC2    C6 1073   3.704   3.771  12.419 -0.6859 -0.2934  0.0084
   69TMC2     C 1074   3.808   3.555  12.741 -0.4669 -0.0173  0.2564
   69TMC2     O 1075   3.706   3.528  12.796  0.5217  0.0514  0.0564
   69TMC2     H 1076   3.618   3.733  12.735  0.6973 -2.3768  0.9834
   69TMC2    H1 1077   3.967   3.595  12.529  0.6504  1.8435  2.3969
   69TMC2    H2 1078   3.644   3.797  12.332 -1.4768  0.9786  0.9151
   69TMC2    C7 1079   3.901   3.686  12.300 -0.4353  0.0045 -0.6997
   69TMC2    C8 1080   3.510   3.858  12.549 -0.8854  0.2050  0.6975
   69TMC2    O1 1081   4.023   3.700  12.316 -0.0031  0.1024  0.2569
   69TMC2    O2 1082   3.420   3.836  12.630  0.2136  0.2801  0.1423
   69TMC2    O5 1083   3.521   3.971  12.471 -0.4030 -0.4144 -0.3030
   69TMC2    H5 1084   3.597   3.973  12.408 -0.7630 -0.9690 -0.7456
   70MPD2     C 1085   4.112   3.412  12.887 -0.1450  0.5412  0.3565
   70MPD2    C1 1086   3.986   3.422  12.850  0.2369  0.7293 -0.1142
   70MPD2    C2 1087   3.904   3.328  12.891 -0.2410  0.2108 -0.9478
   70MPD2    C3 1088   3.945   3.223  12.977  0.4340  1.3433 -0.2570
   70MPD2    C4 1089   4.074   3.225  13.024  0.1322  0.6911 -0.0271
   70MPD2    C5 1090   4.158   3.320  12.970 -0.4496  0.3237 -0.9426
   70MPD2     H 1091   3.798   3.333  12.871 -0.2103 -0.1420 -1.1895
   70MPD2    H1 1092   4.116   3.150  13.089  0.1303 -0.7562 -1.6981
   70MPD2    H2 1093   4.191   3.480  12.855  1.0790 -1.0144  0.0742
   70MPD2    H3 1094   4.262   3.325  13.000 -0.7541  1.1841 -0.0156
   70MPD2     N 1095   3.857   3.127  13.039 -0.0859  0.3245 -0.5033
   70MPD2    H5 1096   3.904   3.067  13.106 -1.9515  0.6029  1.0387
   70MPD2    N1 1097   3.945   3.533  12.772  0.0800 -0.1054  0.0265
   70MPD2    H7 1098   4.022   3.588  12.735  0.2422  0.7446  1.6146
   71TMC2    C1 1099   0.740   0.051   1.431 -0.5101  0.3124  0.4773
   71TMC2    C2 1100   0.864   0.076   1.495  0.1972  0.1655  0.5299
   71TMC2    C3 1101   0.861   0.112   1.630  0.4901 -0.6035  0.3180
   71TMC2    C4 1102   0.620   0.058   1.498  0.2476  0.4824 -0.4437
   71TMC2    C5 1103   0.630   0.092   1.627 -0.2654  0.0952  0.8603
   71TMC2    C6 1104   0.740   0.123   1.696  0.2984  0.1694 -0.0652
   71TMC2     C 1105   0.744   0.018   1.291 -0.0589 -0.4492 -0.1588
   71TMC2     O 1106   0.644   0.058   1.239  0.4412 -0.3997 -0.0437
   71TMC2     H 1107   0.958   0.079   1.441 -0.5650 -2.1583 -0.8787
   71TMC2    H1 1108   0.530   0.067   1.439  0.5569 -0.2134 -1.0116
   71TMC2    H2 1109   0.733   0.168   1.795  0.4448  0.0848 -0.0155
   71TMC2    C7 1110   0.504   0.110   1.704 -0.2484  0.0720 -0.1146
   71TMC2    C8 1111   0.975   0.183   1.665 -0.0543  0.3066 -0.6464
   71TMC2    O1 1112   0.501   0.178   1.807 -0.1520  0.0996  0.2783
   71TMC2    O2 1113   1.072   0.203   1.593 -0.4863 -0.7743 -0.3141
   71TMC2    O5 1114   0.972   0.212   1.800  0.1333  0.0569 -0.2799
   71TMC2    H5 1115   0.900   0.174   1.854 -0.6171  0.8456 -0.7324
   72MPD2     C 1116   0.900   4.520   0.867  0.5389 -0.0057 -0.1707
   72MPD2    C1 1117   0.792   4.604   0.893  0.8220 -0.5003  0.8886
   72MPD2    C2 1118   0.783   4.658   1.020  0.2956  0.1260 -0.2280
   72MPD2    C3 1119   0.857   4.616   1.128  0.1289 -0.2548  0.2037
   72MPD2    C4 1120   0.958   4.531   1.103  0.8963 -0.3039 -0.0075
   72MPD2    C5 1121   0.985   4.491   0.972 -0.3083 -1.0280 -0.6880
   72MPD2     H 1122   0.708   4.734   1.035 -1.0806 -1.5969  1.6755
   72MPD2    H1 1123   1.025   4.508   1.186  0.1615 -0.8681  0.4296
   72MPD2    H2 1124   0.918   4.485   0.766  0.9008  0.3633 -0.2330
   72MPD2    H3 1125   1.068   4.423   0.958  1.7688  0.6180  3.5703
   72MPD2     N 1126   0.848   4.671   1.255 -0.1047 -0.2028 -0.1833
   72MPD2    H5 1127   0.908   4.633   1.328  1.1534 -2.6427 -2.4923
   72MPD2    N1 1128   0.696   4.635   0.798  0.0433 -0.0298  0.0003
   72MPD2    H7 1129   0.640   4.719   0.811  1.2701  1.1377 -2.1946
   73TMC2    C1 1130   0.450   1.602  13.814 -0.1408 -0.3176  0.0844
   73TMC2    C2 1131   0.368   1.600  13.927  0.3248 -0.4201 -0.2668
   73TMC2    C3 1132   0.377   1.496  14.011  0.2024  0.6482 -0.3351
   73TMC2    C4 1133   0.534   1.492  13.792 -0.2590  0.3942 -0.2885
   73TMC2    C5 1134   0.546   1.391  13.888  0.0758 -0.3377  0.0006
   73TMC2    C6 1135   0.459   1.388  13.991  0.3114  0.0573  0.5211
   73TMC2     C 1136   0.517   1.727  13.779  0.4366  0.8212 -0.0144
   73TMC2     O 1137   0.637   1.718  13.753 -0.4363  0.4089 -0.3336
   73TMC2     H 1138   0.304   1.684  13.955  3.9356  1.1727  3.1901
   73TMC2    H1 1139   0.595   1.495  13.703  0.4804 -0.0283  0.1995
   73TMC2    H2 1140   0.451   1.302  14.057 -1.5619  0.3364  0.6623
   73TMC2    C7 1141   0.687   1.364  13.922 -0.3807 -0.2780  0.4004
   73TMC2    C8 1142   0.309   1.499  14.131  0.0468 -0.0419 -0.0425
   73TMC2    O1 1143   0.720   1.284  14.009  0.0621  0.3584 -0.2935
   73TMC2    O2 1144   0.347   1.421  14.219  0.1348 -0.2580 -1.0296
   73TMC2    O5 1145   0.177   1.538  14.106  0.5337 -0.6422  0.0275
   73TMC2    H5 1146   0.166   1.596  14.027  0.4459  1.4525  1.5810
   74MPD2     C 1147   0.605   2.230  13.854 -0.7293 -0.1404 -0.0949
   74MPD2    C1 1148   0.687   2.123  13.851 -0.2211  0.1063 -0.9686
   74MPD2    C2 1149   0.632   1.994  13.850 -0.3250  0.0676 -0.3886
   74MPD2    C3 1150   0.499   1.963  13.829  0.3700  0.0433  0.1963
   74MPD2    C4 1151   0.423   2.066  13.847  0.4172  0.1355 -0.0921
   74MPD2    C5 1152   0.472   2.192  13.870 -0.6184 -0.1578 -0.5874
   74MPD2     H 1153   0.703   1.912  13.857  0.3346  0.7241  0.6527
   74MPD2    H1 1154   0.317   2.046  13.858  0.2313  0.8949 -0.5306
   74MPD2    H2 1155   0.634   2.334  13.866  1.8571 -0.9006  0.1221
   74MPD2    H3 1156   0.405   2.278  13.874 -0.6384 -0.2464  0.7139
   74MPD2     N 1157   0.449   1.835  13.831  0.1374 -0.0253 -0.1033
   74MPD2    H5 1158   0.350   1.821  13.853 -0.0792  0.7102 -0.6316
   74MPD2    N1 1159   0.829   2.152  13.855  0.2105 -0.5131  0.3935
   74MPD2    H7 1160   0.861   2.246  13.835  0.2110 -0.4476  0.7057
   75TMC2    C1 1161   0.631   3.087  13.689 -1.0690  0.5387  0.0732
   75TMC2    C2 1162   0.650   3.218  13.675 -0.0988 -0.0025  0.3909
   75TMC2    C3 1163   0.619   3.277  13.556  0.0839 -0.7997  1.1107
   75TMC2    C4 1164   0.591   3.010  13.585 -0.2361 -0.5720 -0.7672
   75TMC2    C5 1165   0.560   3.067  13.462 -0.0483 -0.4816 -0.1544
   75TMC2    C6 1166   0.566   3.209  13.445  0.4776 -0.3269 -0.0083
   75TMC2     C 1167   0.676   3.033  13.822 -0.2657  0.2659 -0.6190
   75TMC2     O 1168   0.711   3.115  13.909  0.0573  0.0061  0.2039
   75TMC2     H 1169   0.706   3.270  13.752  1.8543 -0.2689 -0.8579
   75TMC2    H1 1170   0.567   2.904  13.593  1.1487 -0.9040 -1.1078
   75TMC2    H2 1171   0.550   3.260  13.351 -0.0709 -2.1956 -0.9357
   75TMC2    C7 1172   0.485   2.989  13.365  0.0053  0.8253  0.5015
   75TMC2    C8 1173   0.636   3.419  13.540  0.0301  0.2384 -0.3541
   75TMC2    O1 1174   0.505   2.866  13.367 -0.1066 -0.3332  0.5440
   75TMC2    O2 1175   0.620   3.467  13.428 -0.5246  0.3776 -0.6194
   75TMC2    O5 1176   0.559   3.468  13.638 -1.0434 -0.4995  0.3014
   75TMC2    H5 1177   0.555   3.410  13.717  0.4500 -0.0387  0.7250
   76TMC2    C1 1178   4.377   2.933  12.394  0.6234 -0.0418  0.3486
   76TMC2    C2 1179   4.236   2.900  12.391  0.0258  0.1518 -0.2371
   76TMC2    C3 1180   4.185   2.792  12.455 -0.6009 -0.7450 -0.0152
   76TMC2    C4 1181   4.465   2.860  12.466  0.0587  0.5630  0.0763
   76TMC2    C5 1182   4.407   2.762  12.542  0.2872 -0.5328 -0.5639
   76TMC2    C6 1183   4.275   2.722  12.528 -0.3467  0.0267 -0.4728
   76TMC2     C 1184   4.421   3.027  12.297  0.3676  0.0071  0.2141
   76TMC2     O 1185   4.348   3.048  12.204  0.4095  0.3716  0.5898
   76TMC2     H 1186   4.173   2.968  12.335  0.5062  0.7696 -0.0246
   76TMC2    H1 1187   4.572   2.876  12.474  0.5011 -0.9940 -2.4666
   76TMC2    H2 1188   4.246   2.641  12.594 -2.5099  0.2297 -1.1735
   76TMC2    C7 1189   4.489   2.691  12.634  0.1217  0.5286  0.0481
   76TMC2    C8 1190   4.050   2.748  12.467  0.5879  0.0249 -0.0371
   76TMC2    O1 1191   4.448   2.586  12.678  0.5794  0.2926  0.1495
   76TMC2    O2 1192   4.009   2.641  12.508 -0.1790 -0.6169 -0.1250
   76TMC2    O5 1193   3.992   2.817  12.365  0.3549  0.3272  0.4231
   76TMC2    H5 1194   4.018   2.911  12.379 -0.5455  0.6415 -0.0491
   77MPD2     C 1195   0.022   3.335  12.060 -0.1246  0.1905 -0.4895
   77MPD2    C1 1196   4.620   3.333  12.055  0.5533 -0.5543  0.5618
   77MPD2    C2 1197   4.547   3.254  12.145  0.1811  0.8644  1.0889
   77MPD2    C3 1198   4.611   3.163  12.219 -0.2668 -0.2707 -0.4902
   77MPD2    C4 1199   0.009   3.149  12.206 -0.1384 -0.0248  0.1378
   77MPD2    C5 1200   0.083   3.234  12.129 -0.1503 -0.4271  0.6910
   77MPD2     H 1201   4.439   3.262  12.155 -0.1882 -0.1779 -2.0472
   77MPD2    H1 1202   0.062   3.067  12.255 -1.2401 -1.0392 -0.3826
   77MPD2    H2 1203   0.084   3.399  11.998 -1.8475  0.6566 -1.7496
   77MPD2    H3 1204   0.191   3.223  12.119 -0.1082 -0.0288  0.7049
   77MPD2     N 1205   4.553   3.073  12.313 -0.3412 -0.1313  0.3810
   77MPD2    H5 1206   4.612   3.017  12.373  1.3431  0.2221 -0.9656
   77MPD2    N1 1207   4.548   3.407  11.961  0.3225  0.0360  0.4673
   77MPD2    H7 1208   4.447   3.412  11.962  0.2817 -0.4200 -1.4696
   78TMC2    C1 1209   0.256   4.331   1.791 -0.2640 -0.3498  0.8620
   78TMC2    C2 1210   0.262   4.247   1.686  0.4199 -0.3747 -0.1676
   78TMC2    C3 1211   0.379   4.221   1.622  0.7691 -0.2947  0.0484
   78TMC2    C4 1212   0.363   4.418   1.812 -0.1046 -0.2577  0.7009
   78TMC2    C5 1213   0.482   4.392   1.749 -0.2340  0.2605  0.0328
   78TMC2    C6 1214   0.489   4.293   1.652 -0.3773  0.2027 -0.2101
   78TMC2     C 1215   0.138   4.336   1.882 -1.1710 -0.4476  0.6428
   78TMC2     O 1216   0.047   4.260   1.850  0.5006 -0.2587  0.1624
   78TMC2     H 1217   0.186   4.170   1.675  2.3249 -1.9027 -2.3932
   78TMC2    H1 1218   0.365   4.507   1.874 -1.6488  0.3803 -0.1571
   78TMC2    H2 1219   0.576   4.280   1.589  0.0779  1.6400  0.1257
   78TMC2    C7 1220   0.605   4.454   1.806 -0.1200 -0.3382 -0.2149
   78TMC2    C8 1221   0.378   4.179   1.483  0.3820  0.2529 -0.0713
   78TMC2    O1 1222   0.584   4.471   1.925  0.0548 -0.1566 -0.8912
   78TMC2    O2 1223   0.473   4.173   1.408  0.0066  0.0631  0.6212
   78TMC2    O5 1224   0.248   4.194   1.441  0.3575  0.1907 -0.4762
   78TMC2    H5 1225   0.187   4.235   1.507  1.7180 -0.4575  1.1785
   79MPD1     C 1226   4.560   4.601   2.188 -0.0415  0.1421 -0.2343
   79MPD1    C1 1227   4.536   4.488   2.113  0.4305  0.2660  0.0614
   79MPD1    C2 1228   4.647   4.434   2.049  0.0796  0.3577 -0.0677
   79MPD1    C3 1229   0.040   4.485   2.056  0.2950 -0.4018 -0.1273
   79MPD1    C4 1230   0.055   4.595   2.138  1.1515 -0.0359  0.4452
   79MPD1    C5 1231   4.685   4.657   2.202  0.4487 -0.3387 -0.0040
   79MPD1     H 1232   4.623   4.348   1.988 -0.7023 -0.0685  0.8423
   79MPD1    H1 1233   0.150   4.645   2.154  0.5697  1.0104  0.6499
   79MPD1    H2 1234   4.486   4.651   2.250  1.3521  1.4287  0.3874
   79MPD1    H3 1235   4.708   0.019   2.244 -1.2358 -0.0451  0.2290
   79MPD1     N 1236   0.148   4.433   1.982  0.6532 -0.2600  0.4960
   79MPD1    H5 1237   0.224   4.499   1.984  0.8816 -0.5780  2.7748
   79MPD1    N1 1238   4.411   4.427   2.123 -0.7284  0.0055  0.0599
   79MPD1    H6 1239   4.390   4.362   2.048 -0.6934 -2.3724  2.1244
   79MPD1    H7 1240   4.336   4.496   2.131 -1.2849 -0.7075  0.9428
   80TMC2    C1 1241   2.545   2.990  11.723 -0.5331  0.2811  0.2423
   80TMC2    C2 1242   2.436   3.030  11.651  0.0608  0.9924 -0.1189
   80TMC2    C3 1243   2.313   3.021  11.717  0.2043 -0.3926  0.3951
   80TMC2    C4 1244   2.538   2.917  11.836 -0.3354  0.6101 -0.6195
   80TMC2    C5 1245   2.411   2.884  11.882  0.3547 -0.2714 -0.9070
   80TMC2    C6 1246   2.297   2.941  11.827  0.2444  0.0186 -0.0019
   80TMC2     C 1247   2.672   3.058  11.684  0.4290 -0.6166 -0.2315
   80TMC2     O 1248   2.684   3.094  11.569  0.3928  0.3995  0.1315
   80TMC2     H 1249   2.455   3.077  11.555 -1.6545  1.4082 -0.2436
   80TMC2    H1 1250   2.630   2.878  11.877 -1.3536 -2.1501 -0.9646
   80TMC2    H2 1251   2.202   2.919  11.873  1.2523  0.3402  2.2635
   80TMC2    C7 1252   2.400   2.849  12.022 -0.3509 -0.4372 -0.1040
   80TMC2    C8 1253   2.199   3.097  11.671  0.6001  0.7164 -0.1434
   80TMC2    O1 1254   2.301   2.886  12.085  0.0914 -0.9215  0.7873
   80TMC2    O2 1255   2.113   3.129  11.757 -0.1026 -0.2818  0.3312
   80TMC2    O5 1256   2.224   3.152  11.553 -0.0885 -0.0445  0.0008
   80TMC2    H5 1257   2.297   3.118  11.497 -0.5058 -0.2917 -0.3975
   81MPD2     C 1258   2.959   3.147  11.672 -0.6798 -0.7067 -0.6558
   81MPD2    C1 1259   2.888   3.113  11.788  0.3702 -0.6653  0.1170
   81MPD2    C2 1260   2.945   3.134  11.910 -0.2229  0.9582 -0.2170
   81MPD2    C3 1261   3.079   3.172  11.923 -0.6585  0.5634 -0.6810
   81MPD2    C4 1262   3.150   3.207  11.809 -0.3296  0.8143  0.1109
   81MPD2    C5 1263   3.092   3.190  11.686  0.3850  0.8962 -0.8523
   81MPD2     H 1264   2.882   3.127  11.998  0.0371  2.0052  0.0487
   81MPD2    H1 1265   3.253   3.240  11.806  0.2469 -1.0775 -0.9077
   81MPD2    H2 1266   2.907   3.125  11.579  1.7445 -0.0195 -2.1503
   81MPD2    H3 1267   3.148   3.217  11.597  0.2203  3.4129 -0.1787
   81MPD2     N 1268   3.130   3.189  12.057 -0.2438 -0.4703  0.1798
   81MPD2    H5 1269   3.076   3.182  12.143  1.8076  0.4203  1.5369
   81MPD2    N1 1270   2.754   3.065  11.791  0.2312 -0.4781 -0.2875
   81MPD2    H7 1271   2.724   3.030  11.882 -1.4557 -0.6147 -0.8979
   82TMC2    C1 1272   0.990   1.575  10.536 -0.0694  0.3026 -0.1790
   82TMC2    C2 1273   0.960   1.496  10.429 -0.5079 -0.0856  0.3580
   82TMC2    C3 1274   0.926   1.368  10.453 -0.6520  0.0381 -0.3751
   82TMC2    C4 1275   0.957   1.534  10.666  0.4565 -0.9286  0.2767
   82TMC2    C5 1276   0.901   1.409  10.678  0.1423 -0.1447 -0.1752
   82TMC2    C6 1277   0.895   1.322  10.576 -0.3666 -0.1482 -0.1089
   82TMC2     C 1278   1.038   1.711  10.508 -0.9133 -0.0060  0.0177
   82TMC2     O 1279   1.055   1.747  10.390 -0.2259  0.5197 -0.2922
   82TMC2     H 1280   0.982   1.526  10.327 -0.8455  0.2465  0.3821
   82TMC2    H1 1281   0.960   1.596  10.755 -0.5851 -3.8596  2.3670
   82TMC2    H2 1282   0.859   1.220  10.587 -0.6869  0.1058  1.2418
   82TMC2    C7 1283   0.830   1.382  10.805 -0.1907 -0.1380 -0.4199
   82TMC2    C8 1284   0.906   1.282  10.340 -0.4119  0.4854 -0.1778
   82TMC2    O1 1285   0.875   1.429  10.904 -0.2032  0.0969  0.3029
   82TMC2    O2 1286   0.816   1.303  10.259  0.2281  0.4799 -0.9230
   82TMC2    O5 1287   0.951   1.157  10.376  0.4826  0.1300  0.2983
   82TMC2    H5 1288   1.035   1.171  10.424  0.8638  0.0820 -0.3587
   83MPD2     C 1289   1.116   2.203  10.617  0.0920 -0.6513 -0.2589
   83MPD2    C1 1290   1.071   2.146  10.501  0.0119  0.0610  0.1095
   83MPD2    C2 1291   1.036   2.014  10.506 -0.0191 -0.7463 -0.6731
   83MPD2    C3 1292   1.056   1.932  10.615  0.1044 -0.5911  0.8659
   83MPD2    C4 1293   1.068   1.995  10.735  0.0546 -0.3657 -0.4119
   83MPD2    C5 1294   1.106   2.130  10.736  0.2554 -0.1231 -0.3909
   83MPD2     H 1295   1.002   1.969  10.413 -1.9680 -0.9223  0.1100
   83MPD2    H1 1296   1.076   1.943  10.830  3.3934  0.5204 -0.1902
   83MPD2    H2 1297   1.160   2.303  10.621  2.1612 -1.3788 -4.3974
   83MPD2    H3 1298   1.142   2.163  10.833 -0.6220 -0.0781 -0.0791
   83MPD2     N 1299   1.041   1.792  10.618 -0.1309  1.2525 -0.5989
   83MPD2    H5 1300   1.047   1.745  10.707  0.1082  1.0720 -0.7100
   83MPD2    N1 1301   1.069   2.223  10.382 -0.0727 -0.0453  0.3123
   83MPD2    H7 1302   1.082   2.324  10.392  3.1076 -0.3713 -0.4947
   84TMC2    C1 1303   2.610   1.296  11.641  0.9917 -0.1892 -0.0847
   84TMC2    C2 1304   2.589   1.275  11.775 -0.4707 -0.6865  0.5049
   84TMC2    C3 1305   2.571   1.151  11.822 -0.4911  0.1870  0.1003
   84TMC2    C4 1306   2.610   1.197  11.552  0.6857 -0.9677 -0.3390
   84TMC2    C5 1307   2.605   1.070  11.606  0.2277 -0.0705 -0.1663
   84TMC2    C6 1308   2.577   1.043  11.739  0.1141 -0.0059  0.7249
   84TMC2     C 1309   2.625   1.427  11.596  0.5496  0.7640 -0.1938
   84TMC2     O 1310   2.584   1.520  11.662 -0.3978  0.0203  0.4846
   84TMC2     H 1311   2.599   1.357  11.845  0.6944  0.4885 -1.0602
   84TMC2    H1 1312   2.617   1.216  11.445 -1.0142 -1.7389 -0.5857
   84TMC2    H2 1313   2.581   0.946  11.786  2.0062 -0.3611 -0.1734
   84TMC2    C7 1314   2.594   0.952  11.519  0.3295  0.3498  0.0579
   84TMC2    C8 1315   2.596   1.139  11.962 -0.0924  0.2140 -0.7295
   84TMC2    O1 1316   2.522   0.862  11.555 -0.0875 -0.2307 -0.0481
   84TMC2    O2 1317   2.630   1.032  12.006  0.1101 -0.4368 -0.5014
   84TMC2    O5 1318   2.509   1.222  12.031  0.2142  0.5008  0.0852
   84TMC2    H5 1319   2.468   1.294  11.978  1.2186  0.0666 -1.2931
   85TMC2    C1 1320   3.620   0.076  15.951 -0.5046  0.1604  0.4334
   85TMC2    C2 1321   3.509   0.141  15.913  0.5561 -0.4940  0.5298
   85TMC2    C3 1322   3.522   0.235  15.818 -0.4901 -0.1681  0.2718
   85TMC2    C4 1323   3.741   0.104  15.888  0.1611  0.1552 -0.4780
   85TMC2    C5 1324   3.753   0.194  15.784  0.8750 -0.2277 -0.9602
   85TMC2    C6 1325   3.633   0.257  15.743 -0.8673  0.0371  1.2159
   85TMC2     C 1326   3.619   4.722  16.062  0.7266 -0.0017 -0.5477
   85TMC2     O 1327   3.708   4.733  16.145  0.0342 -0.7200 -0.0162
   85TMC2     H 1328   3.413   0.125  15.961  0.8714  1.7267  1.9013
   85TMC2    H1 1329   3.830   0.050  15.920 -0.3779  1.0814  2.6132
   85TMC2    H2 1330   3.630   0.327  15.660  1.1059  0.0132  1.1244
   85TMC2    C7 1331   3.872   0.173  15.697  0.7152  0.6898 -0.4760
   85TMC2    C8 1332   3.419   0.339  15.817 -0.0510 -0.0709  0.3347
   85TMC2    O1 1333   3.969   0.107  15.741  0.0929  0.0355  0.1925
   85TMC2    O2 1334   3.406   0.405  15.716 -0.2491 -0.0931  0.1961
   85TMC2    O5 1335   3.424   0.390  15.944  0.0561 -0.3144  0.5908
   85TMC2    H5 1336   3.465   0.327  16.006 -1.2063 -0.6955  1.0520
   86MPD2     C 1337   3.378   4.418  16.402 -0.4423 -0.0953  0.5391
   86MPD2    C1 1338   3.305   4.424  16.283  0.1200  0.0061 -1.3670
   86MPD2    C2 1339   3.348   4.508  16.178  0.0716 -0.2296  0.1028
   86MPD2    C3 1340   3.471   4.575  16.183 -0.4263 -0.0368 -1.1676
   86MPD2    C4 1341   3.544   4.561  16.301 -0.9240  0.2031 -0.1696
   86MPD2    C5 1342   3.502   4.481  16.405 -0.1372  0.3738 -0.5199
   86MPD2     H 1343   3.296   4.528  16.085  1.0739  0.2106 -0.3561
   86MPD2    H1 1344   3.647   4.595  16.304 -0.7468 -0.2239 -1.1572
   86MPD2    H2 1345   3.354   4.353  16.486 -1.5081  0.3378  0.5626
   86MPD2    H3 1346   3.560   4.461  16.494 -1.2410 -0.6003 -0.0165
   86MPD2     N 1347   3.494   4.669  16.085  0.8107  0.5042  0.5123
   86MPD2    H5 1348   3.415   4.685  16.023  0.7744 -3.2794 -0.3747
   86MPD2    N1 1349   3.196   4.337  16.274  0.1022 -0.2053 -0.0589
   86MPD2    H7 1350   3.175   4.308  16.179  0.7696  0.2522 -0.3414
   87TMC2    C1 1351   1.441   2.727   1.031 -0.2306  0.1028 -0.3859
   87TMC2    C2 1352   1.574   2.750   1.020 -0.3756 -0.2708 -0.5853
   87TMC2    C3 1353   1.623   2.861   1.081  0.3686 -0.1784 -0.1869
   87TMC2    C4 1354   1.353   2.807   1.104  0.5276 -0.3133  1.0141
   87TMC2    C5 1355   1.410   2.912   1.170  0.4174  0.0503  0.6894
   87TMC2    C6 1356   1.542   2.933   1.160 -0.5035 -0.2175  0.6106
   87TMC2     C 1357   1.379   2.642   0.934  0.1744  0.7845  0.3738
   87TMC2     O 1358   1.280   2.678   0.876  0.1067  0.1309  0.3288
   87TMC2     H 1359   1.623   2.699   0.938  0.2033  0.5669 -0.7517
   87TMC2    H1 1360   1.246   2.795   1.088  0.2045  1.8974  1.5468
   87TMC2    H2 1361   1.576   3.012   1.226  0.5652 -1.5824  1.6970
   87TMC2    C7 1362   1.326   3.023   1.212  0.1833  0.6194  0.0480
   87TMC2    C8 1363   1.763   2.865   1.102  0.4085 -0.1138 -0.2068
   87TMC2    O1 1364   1.384   3.130   1.237 -0.3267 -0.0292 -0.2685
   87TMC2    O2 1365   1.846   2.774   1.082  0.0802 -0.7253 -0.1179
   87TMC2    O5 1366   1.797   2.997   1.105 -0.4765  0.5841  0.5083
   87TMC2    H5 1367   1.728   3.050   1.060 -0.3452  1.8278  1.7606
   88MPD2     C 1368   0.965   3.025   1.259 -0.4391 -0.1052  0.2292
   88MPD2    C1 1369   1.085   3.087   1.245  0.2461  0.5144  0.9493
   88MPD2    C2 1370   1.100   3.220   1.281 -0.1828  0.2359 -0.1404
   88MPD2    C3 1371   0.992   3.296   1.318 -0.1430 -0.4228  0.3654
   88MPD2    C4 1372   0.869   3.233   1.333 -0.6089 -0.5669  0.2556
   88MPD2    C5 1373   0.856   3.100   1.306 -0.4418  0.3931  0.2137
   88MPD2     H 1374   1.202   3.258   1.278 -0.1813  0.3193  1.1012
   88MPD2    H1 1375   0.787   3.287   1.379 -1.3985 -0.5606 -1.1690
   88MPD2    H2 1376   0.943   2.920   1.238 -2.1989  0.2454  0.3481
   88MPD2    H3 1377   0.759   3.053   1.316  0.2688 -1.4299 -1.4897
   88MPD2     N 1378   0.997   3.436   1.329  0.3861 -0.4087  0.2505
   88MPD2    H5 1379   0.905   3.479   1.342  0.2357 -0.5109 -0.4532
   88MPD2    N1 1380   1.190   2.996   1.218 -0.5944 -0.2099  0.4103
   88MPD2    H7 1381   1.154   2.905   1.190 -1.4110  0.3681 -0.3977
   89TMC2    C1 1382   1.993   1.129   1.382 -0.4544 -0.4872 -0.4746
   89TMC2    C2 1383   2.073   1.215   1.449 -0.4064  0.5841  0.6522
   89TMC2    C3 1384   2.093   1.337   1.387  0.5540  0.6410 -0.4034
   89TMC2    C4 1385   1.910   1.168   1.283  0.2501 -0.4595 -0.7905
   89TMC2    C5 1386   1.924   1.297   1.235  0.0240  0.1960  0.7380
   89TMC2    C6 1387   2.013   1.385   1.288  0.3594  0.2005  0.3364
   89TMC2     C 1388   1.991   0.985   1.413  0.2791 -0.3876 -0.4046
   89TMC2     O 1389   2.091   0.938   1.465 -0.1588 -0.7087  0.1961
   89TMC2     H 1390   2.130   1.188   1.537 -1.5491 -0.4447  1.0676
   89TMC2    H1 1391   1.832   1.108   1.237 -3.3175  2.7709  1.0208
   89TMC2    H2 1392   2.046   1.470   1.230 -1.1958 -0.8297 -2.0653
   89TMC2    C7 1393   1.846   1.340   1.116 -0.8757 -0.0643 -0.1975
   89TMC2    C8 1394   2.206   1.409   1.425 -0.8599  0.2628  0.0608
   89TMC2    O1 1395   1.767   1.261   1.064 -0.7262  0.5143 -0.4801
   89TMC2    O2 1396   2.306   1.366   1.480 -0.3013 -0.1071  0.5095
   89TMC2    O5 1397   2.159   1.536   1.449  0.3146  0.0259  0.0634
   89TMC2    H5 1398   2.075   1.563   1.407  0.3708 -2.2157 -1.5183
   90MPD2     C 1399   1.708   0.555   1.506 -0.2609 -0.9749 -1.1204
   90MPD2    C1 1400   1.628   0.668   1.500  0.5594  0.2388  0.6152
   90MPD2    C2 1401   1.676   0.787   1.440 -0.4629 -0.5657  0.1972
   90MPD2    C3 1402   1.811   0.805   1.429  0.2255  0.0007  0.3234
   90MPD2    C4 1403   1.895   0.693   1.448  0.4667 -0.4259 -0.3135
   90MPD2    C5 1404   1.839   0.569   1.477  0.8776 -0.0461 -0.0899
   90MPD2     H 1405   1.609   0.870   1.419 -0.3963 -0.5155  0.1856
   90MPD2    H1 1406   2.000   0.708   1.429  0.9257  0.0923  2.5240
   90MPD2    H2 1407   1.677   0.462   1.552 -0.2981 -0.6357 -0.4595
   90MPD2    H3 1408   1.904   0.483   1.464  1.4904  0.4835 -0.5654
   90MPD2     N 1409   1.862   0.936   1.400 -0.5731 -0.4992  0.0955
   90MPD2    H5 1410   1.791   1.008   1.388  1.2248  0.9357 -1.8427
   90MPD2    N1 1411   1.495   0.668   1.540 -0.2658  0.1649  0.0972
   90MPD2    H7 1412   1.440   0.753   1.542  1.6127  1.3197  2.0785
   91TMC2    C1 1413   3.209   0.598  16.724  0.7194  0.4504 -1.1547
   91TMC2    C2 1414   3.238   0.541  16.844 -0.4198  0.6405  0.1587
   91TMC2    C3 1415   3.179   0.422  16.876 -0.0660  0.1160  0.6009
   91TMC2    C4 1416   3.115   0.543  16.638  0.1569 -1.1865  0.5021
   91TMC2    C5 1417   3.061   0.421  16.672 -0.2174 -0.1304 -0.0354
   91TMC2    C6 1418   3.092   0.360  16.791  0.1928 -0.2417 -0.2137
   91TMC2     C 1419   3.231   0.743  16.716 -0.0141  0.3226 -0.2507
   91TMC2     O 1420   3.145   0.807  16.656  0.4653  0.4071  0.4444
   91TMC2     H 1421   3.292   0.598  16.919  0.9519  1.1984 -1.2410
   91TMC2    H1 1422   3.117   0.585  16.538  0.2900 -0.6115  0.7444
   91TMC2    H2 1423   3.052   0.266  16.826  1.2272 -1.0252 -1.1389
   91TMC2    C7 1424   2.947   0.366  16.606  0.7854  0.3402  0.6017
   91TMC2    C8 1425   3.215   0.359  17.002  0.2214  0.1538  1.2709
   91TMC2    O1 1426   2.883   0.286  16.673  0.3856 -0.3279 -0.0664
   91TMC2    O2 1427   3.135   0.277  17.049 -0.2562 -0.0430 -0.7059
   91TMC2    O5 1428   3.342   0.336  16.985 -0.1909  0.0941 -0.3608
   91TMC2    H5 1429   3.383   0.400  16.922 -1.6059  0.8942 -0.4549
   92MPD2     C 1430   3.366   0.997  16.677 -0.9027 -0.6629 -0.5095
   92MPD2    C1 1431   3.426   0.892  16.745 -0.2035 -0.5376  0.0258
   92MPD2    C2 1432   3.556   0.901  16.785 -0.2307 -0.4172  0.0091
   92MPD2    C3 1433   3.630   1.022  16.773 -0.4979 -0.3779 -0.3452
   92MPD2    C4 1434   3.568   1.128  16.710  0.2249 -0.2758 -0.3520
   92MPD2    C5 1435   3.444   1.113  16.661  0.1735  0.7884 -0.3794
   92MPD2     H 1436   3.604   0.820  16.839  0.5779 -0.8845 -1.3998
   92MPD2    H1 1437   3.619   1.218  16.677 -0.6988 -0.4735 -2.3100
   92MPD2    H2 1438   3.273   0.993  16.622 -1.2341  1.8211 -0.1460
   92MPD2    H3 1439   3.409   1.175  16.579  0.5976  2.5306  0.7516
   92MPD2     N 1440   3.767   1.028  16.810 -1.2647 -0.2550 -0.6286
   92MPD2    H5 1441   3.791   0.954  16.875  1.9031  1.3830  0.0821
   92MPD2    N1 1442   3.361   0.772  16.762  0.0201 -0.1991 -0.5735
   92MPD2    H7 1443   3.417   0.701  16.808 -0.1326  0.4778  0.6823
   93TMC2    C1 1444   0.302   0.645  13.923 -0.3647  0.0466  0.2092
   93TMC2    C2 1445   0.272   0.756  13.995 -0.3659 -0.3722 -0.5678
   93TMC2    C3 1446   0.372   0.840  14.052 -0.6950  0.0939 -0.6343
   93TMC2    C4 1447   0.437   0.620  13.907 -0.5291 -0.6417  0.0917
   93TMC2    C5 1448   0.533   0.706  13.955  0.1041  0.6466 -0.6051
   93TMC2    C6 1449   0.498   0.819  14.019  0.5669  0.5511 -0.7096
   93TMC2     C 1450   0.210   0.554  13.866  0.4321 -0.7860  1.0186
   93TMC2     O 1451   0.256   0.480  13.779  0.4118 -0.7443  0.7380
   93TMC2     H 1452   0.168   0.785  13.996 -0.6229 -1.3003 -0.1929
   93TMC2    H1 1453   0.469   0.541  13.840  1.4444  0.1502  0.0821
   93TMC2    H2 1454   0.572   0.879  14.070  1.2516  0.2952 -1.3941
   93TMC2    C7 1455   0.657   0.708  13.877 -0.6950 -0.2957  0.6642
   93TMC2    C8 1456   0.324   0.946  14.141  0.1882  0.2370  0.1152
   93TMC2    O1 1457   0.706   0.600  13.868 -0.3281 -0.1355 -0.2442
   93TMC2    O2 1458   0.388   1.044  14.172 -0.3082 -0.1933  0.1471
   93TMC2    O5 1459   0.234   0.888  14.224 -0.4463  0.3081  0.9052
   93TMC2    H5 1460   0.214   0.796  14.198 -0.6872 -0.1773  2.8174
   94MPD2     C 1461   4.722   0.392  13.773  0.2065  0.4981 -0.6108
   94MPD2    C1 1462   4.711   0.487  13.873  0.4442  0.1163 -0.0950
   94MPD2    C2 1463   4.591   0.521  13.925  0.1920  0.4941  0.6018
   94MPD2    C3 1464   4.473   0.467  13.879  0.1304 -0.2942  1.1546
   94MPD2    C4 1465   4.488   0.375  13.774  0.2530 -0.0013  0.5079
   94MPD2    C5 1466   4.610   0.337  13.732 -0.1825  0.5430 -0.3586
   94MPD2     H 1467   4.590   0.601  13.998 -0.2366 -0.1158  1.2688
   94MPD2    H1 1468   4.403   0.331  13.724 -2.2848  2.5948  2.5660
   94MPD2    H2 1469   0.079   0.361  13.728 -0.6282 -2.5621 -0.1826
   94MPD2    H3 1470   4.628   0.260  13.658 -1.1100 -0.1657  0.1571
   94MPD2     N 1471   4.343   0.490  13.921  0.2039 -0.3645 -0.4740
   94MPD2    H5 1472   4.266   0.449  13.869  0.9620 -1.1672 -0.9455
   94MPD2    N1 1473   0.085   0.568  13.923 -0.2350 -0.5226  0.3179
   94MPD2    H7 1474   0.072   0.640  13.993 -0.4052  3.2078 -3.5520
   95TMC2    C1 1475   0.207   2.855  16.246 -0.0333 -0.3103 -0.1939
   95TMC2    C2 1476   0.105   2.771  16.276 -0.4308 -0.1798 -0.1415
   95TMC2    C3 1477   0.067   2.768  16.402 -0.2699  1.0563 -0.0222
   95TMC2    C4 1478   0.272   2.930  16.340  0.1595  0.2985 -0.2374
   95TMC2    C5 1479   0.220   2.923  16.471  0.5993  0.6520 -0.2571
   95TMC2    C6 1480   0.121   2.843  16.499  0.0976  0.5190 -0.2104
   95TMC2     C 1481   0.286   2.836  16.122 -0.8528 -0.0085  0.0570
   95TMC2     O 1482   0.393   2.893  16.116  0.0286 -0.0426  0.7204
   95TMC2     H 1483   0.061   2.688  16.222  4.3783 -2.4405 -0.6002
   95TMC2    H1 1484   0.368   2.977  16.324 -0.7676  2.1131 -0.4311
   95TMC2    H2 1485   0.078   2.837  16.599  0.3955 -1.2793 -0.1832
   95TMC2    C7 1486   0.220   3.043  16.549 -0.2584 -0.1150  0.6315
   95TMC2    C8 1487   4.680   2.681  16.428  0.1100 -0.5231  0.1670
   95TMC2    O1 1488   0.169   3.035  16.664 -0.5212  0.4517  0.0518
   95TMC2    O2 1489   4.605   2.649  16.339  0.2026 -0.2173  0.7544
   95TMC2    O5 1490   4.697   2.611  16.543 -0.4320 -0.4420 -0.4262
   95TMC2    H5 1491   0.044   2.621  16.594  0.1050 -0.5497 -1.2851
   96MPD2     C 1492   0.271   2.711  15.625  0.2258  0.2280  0.4273
   96MPD2    C1 1493   0.371   2.772  15.695  0.4700  0.5592 -0.4856
   96MPD2    C2 1494   0.346   2.791  15.831  0.7689 -0.3677 -0.6692
   96MPD2    C3 1495   0.234   2.742  15.893  0.1296 -0.0851  0.0483
   96MPD2    C4 1496   0.143   2.666  15.819  0.6053 -0.2843 -0.2935
   96MPD2    C5 1497   0.165   2.656  15.679 -0.1480 -0.0918  0.7048
   96MPD2     H 1498   0.418   2.840  15.895 -0.3805  0.2488  0.1536
   96MPD2    H1 1499   0.050   2.630  15.860  1.1502 -2.7660 -1.2111
   96MPD2    H2 1500   0.278   2.709  15.517 -1.3974  1.6593  0.3038
   96MPD2    H3 1501   0.100   2.591  15.622 -0.4949  0.9316 -0.0775
   96MPD2     N 1502   0.201   2.775  16.029  0.2634 -0.3537  0.3325
   96MPD2    H5 1503   0.107   2.753  16.061 -0.1185  0.8898  0.0457
   96MPD2    N1 1504   0.486   2.814  15.624  0.0072 -0.8232 -1.1209
   96MPD2    H7 1505   0.474   2.788  15.527  0.6324 -1.0559 -1.1402
   97TMC2    C1 1506   2.698   0.509  17.316  0.5564  0.9817  0.3318
   97TMC2    C2 1507   2.649   0.501  17.190  0.2586 -0.6109  0.7163
   97TMC2    C3 1508   2.649   0.610  17.111 -0.2075 -0.6488  0.0320
   97TMC2    C4 1509   2.775   0.611  17.359  1.1049  0.5729  0.3038
   97TMC2    C5 1510   2.779   0.716  17.271  0.5682 -0.5401 -0.6739
   97TMC2    C6 1511   2.722   0.721  17.144 -0.0523  0.1418  0.6645
   97TMC2     C 1512   2.645   0.412  17.416 -0.5154 -0.3625 -0.5445
   97TMC2     O 1513   2.715   0.390  17.515 -0.2115  0.4858  0.1496
   97TMC2     H 1514   2.581   0.418  17.177  0.3573 -0.2907 -1.9338
   97TMC2    H1 1515   2.818   0.603  17.458  2.5917 -3.1606 -0.6311
   97TMC2    H2 1516   2.725   0.808  17.079 -2.5580 -0.6960 -0.5561
   97TMC2    C7 1517   2.841   0.840  17.330  0.1955 -0.0516 -0.0921
   97TMC2    C8 1518   2.565   0.617  16.999  0.4444 -0.0794  0.6681
   97TMC2    O1 1519   2.876   0.836  17.446  0.4329  0.4939 -0.4162
   97TMC2    O2 1520   2.502   0.716  16.968  0.1656  0.2514  0.3872
   97TMC2    O5 1521   2.560   0.497  16.937  0.0079  0.1726  0.4046
   97TMC2    H5 1522   2.643   0.451  16.960  0.5902  0.6777 -0.6913
   98MPD2     C 1523   2.281   0.141  17.638 -0.4164 -0.2312 -0.0303
   98MPD2    C1 1524   2.386   0.207  17.693 -0.1892  0.3712 -0.8256
   98MPD2    C2 1525   2.464   0.296  17.619  0.2509  0.8174 -0.0008
   98MPD2    C3 1526   2.445   0.299  17.479 -0.1147 -0.7953  0.1806
   98MPD2    C4 1527   2.340   0.226  17.427 -0.5608 -0.1357 -0.3763
   98MPD2    C5 1528   2.268   0.141  17.503  0.3447  0.0939  0.8209
   98MPD2     H 1529   2.546   0.349  17.665 -0.0607  1.2490  0.0608
   98MPD2    H1 1530   2.324   0.219  17.320  0.2092  0.5883 -0.5360
   98MPD2    H2 1531   2.212   0.083  17.698  1.5007 -1.3950  1.0382
   98MPD2    H3 1532   2.210   0.064  17.455  0.9260 -0.9657  1.8091
   98MPD2     N 1533   2.519   0.379  17.396  0.3574  0.0914 -0.2547
   98MPD2    H5 1534   2.481   0.382  17.302 -0.6176  0.1571  0.1391
   98MPD2    N1 1535   2.413   0.178   0.089  0.2606 -0.6738 -0.1259
   98MPD2    H7 1536   2.360   0.100   0.127  1.1905 -0.3575  1.7933
   99TMC2    C1 1537   1.587   2.358   1.598  0.3386 -0.0513 -0.3393
   99TMC2    C2 1538   1.687   2.428   1.652  0.3322  0.3183 -0.2752
   99TMC2    C3 1539   1.657   2.513   1.754  0.1083  0.1679 -0.8698
   99TMC2    C4 1540   1.461   2.369   1.644  0.2632  0.0273 -0.1498
   99TMC2    C5 1541   1.436   2.447   1.756  0.6074 -0.0910 -0.6571
   99TMC2    C6 1542   1.533   2.527   1.804  0.0967  0.3176  0.4138
   99TMC2     C 1543   1.626   2.254   1.499 -0.1531 -0.1143  0.2760
   99TMC2     O 1544   1.746   2.230   1.501 -0.6174  0.0360  0.3962
   99TMC2     H 1545   1.791   2.428   1.621  0.1598  0.0952 -0.8489
   99TMC2    H1 1546   1.391   2.289   1.624  1.1297 -0.6792 -0.4092
   99TMC2    H2 1547   1.518   2.593   1.889  1.6564  1.5993 -0.3110
   99TMC2    C7 1548   1.307   2.476   1.810 -0.2101 -0.3248 -0.4540
   99TMC2    C8 1549   1.751   2.610   1.787 -0.4354  0.4618 -0.4890
   99TMC2    O1 1550   1.313   2.539   1.911  0.0588  0.3640 -0.0375
   99TMC2    O2 1551   1.725   2.724   1.818 -0.2130  0.0704 -0.1513
   99TMC2    O5 1552   1.846   2.536   1.844 -0.0029 -0.1714  0.0407
   99TMC2    H5 1553   1.836   2.442   1.820 -1.1035 -0.3281  1.1323
  100MPD2     C 1554   1.638   1.998   1.346 -0.6451 -0.0991  1.5822
  100MPD2    C1 1555   1.536   2.091   1.343 -0.0915  0.5773  0.8902
  100MPD2    C2 1556   1.435   2.070   1.245  0.2327 -0.1422 -0.3289
  100MPD2    C3 1557   1.435   1.956   1.164  0.4734 -0.1888 -0.1887
  100MPD2    C4 1558   1.538   1.865   1.170  0.1545 -0.2150  0.5682
  100MPD2    C5 1559   1.629   1.884   1.269  0.3047 -0.1554  0.1323
  100MPD2     H 1560   1.355   2.143   1.236 -0.1618 -0.4555  0.6040
  100MPD2    H1 1561   1.546   1.780   1.103 -2.5135 -0.1725  0.2164
  100MPD2    H2 1562   1.724   1.999   1.412  1.3306 -0.1954 -0.9949
  100MPD2    H3 1563   1.713   1.816   1.276  2.5631  2.6706  0.5861
  100MPD2     N 1564   1.341   1.944   1.061  1.0647  0.3233  0.0236
  100MPD2    H5 1565   1.296   2.032   1.040 -1.6734 -0.0180  4.4943
  100MPD2    N1 1566   1.525   2.202   1.426  0.1937  0.2636 -0.5672
  100MPD2    H7 1567   1.433   2.246   1.420  0.0726  0.3584  1.7499
  101TMC2    C1 1568   2.338   3.441  12.961 -0.0394  0.0159 -0.1782
  101TMC2    C2 1569   2.259   3.541  12.902 -0.1270  0.4896 -0.2792
  101TMC2    C3 1570   2.321   3.636  12.823 -0.7515 -0.4137 -0.0245
  101TMC2    C4 1571   2.472   3.426  12.941  0.3893 -0.5047  0.6091
  101TMC2    C5 1572   2.527   3.525  12.860  0.0742 -0.6468 -0.1115
  101TMC2    C6 1573   2.453   3.621  12.794 -0.3358 -0.3006  0.2355
  101TMC2     C 1574   2.255   3.322  12.971  0.9411 -0.6526 -0.5533
  101TMC2     O 1575   2.135   3.334  12.975 -0.3077 -0.3796 -0.1668
  101TMC2     H 1576   2.154   3.549  12.929  0.0009 -3.0212  1.2442
  101TMC2    H1 1577   2.541   3.366  12.999  1.3323  1.5094  1.5956
  101TMC2    H2 1578   2.499   3.686  12.721 -1.3661 -0.3716 -0.4726
  101TMC2    C7 1579   2.669   3.539  12.861  0.4298  0.2745  0.0972
  101TMC2    C8 1580   2.257   3.739  12.742 -0.2294 -0.1431  0.4928
  101TMC2    O1 1581   2.708   3.648  12.826 -0.1353 -0.3209 -0.1147
  101TMC2    O2 1582   2.302   3.785  12.639  0.2370  0.1690 -0.2582
  101TMC2    O5 1583   2.153   3.784  12.815 -0.2773  0.5490  0.7322
  101TMC2    H5 1584   2.160   3.747  12.906 -0.4119 -0.9076  0.1589
  102MPD2     C 1585   2.353   2.995  12.871 -0.1387  0.4463 -0.2354
  102MPD2    C1 1586   2.276   3.085  12.935 -0.1817  0.1880 -0.2046
  102MPD2    C2 1587   2.154   3.051  12.989  0.3996  0.8658  0.7564
  102MPD2    C3 1588   2.108   2.921  12.976  0.2209  0.7396 -0.3356
  102MPD2    C4 1589   2.184   2.827  12.916  0.9863  0.3007  0.1962
  102MPD2    C5 1590   2.304   2.868  12.858  0.0388  0.2228 -0.8680
  102MPD2     H 1591   2.100   3.121  13.052 -1.0934  0.3891  0.0028
  102MPD2    H1 1592   2.164   2.722  12.900 -1.9203  0.8070  0.4277
  102MPD2    H2 1593   2.450   3.013  12.827 -0.1874 -1.7574 -1.2437
  102MPD2    H3 1594   2.365   2.796  12.805  1.9326 -1.2322  3.3055
  102MPD2     N 1595   1.985   2.895  13.031 -0.2069  0.0498 -0.4195
  102MPD2    H5 1596   1.939   2.973  13.078  1.4356  0.5377  0.3995
  102MPD2    N1 1597   2.333   3.210  12.947 -0.4963  0.3853  0.0755
  102MPD2    H7 1598   2.428   3.222  12.912  0.4948  0.3142  2.7318
  103TMC2    C1 1599   0.470   2.988  12.751 -0.1348 -0.4593 -0.1180
  103TMC2    C2 1600   0.583   2.924  12.701 -0.1260  0.2331  1.0475
  103TMC2    C3 1601   0.682   3.017  12.664 -0.0048  0.0194  0.7256
  103TMC2    C4 1602   0.469   3.128  12.781  0.0955  0.0982  0.3915
  103TMC2    C5 1603   0.586   3.202  12.774 -0.0448  0.7802  0.5277
  103TMC2    C6 1604   0.691   3.149  12.709 -0.2433  0.6169 -0.1233
  103TMC2     C 1605   0.342   2.937  12.718 -0.0594  0.3599 -0.1565
  103TMC2     O 1606   0.259   3.019  12.691 -0.0646  0.2466  0.5391
  103TMC2     H 1607   0.588   2.819  12.676 -0.7095  0.8123 -1.5406
  103TMC2    H1 1608   0.380   3.179  12.818 -0.4076 -0.5497  0.0741
  103TMC2    H2 1609   0.782   3.206  12.691 -2.6618  4.2411 -0.8312
  103TMC2    C7 1610   0.569   3.337  12.810 -0.0529 -0.0700  0.3559
  103TMC2    C8 1611   0.802   2.952  12.610 -0.0156 -0.3220  0.0026
  103TMC2    O1 1612   0.484   3.352  12.893 -0.3595 -0.2997 -0.2245
  103TMC2    O2 1613   0.911   3.009  12.610 -0.0403  0.1539 -0.4141
  103TMC2    O5 1614   0.758   2.863  12.514 -0.0574 -0.0404 -0.2811
  103TMC2    H5 1615   0.664   2.868  12.486  0.1435  0.4848 -0.8584
  104MPD2     C 1616   0.237   2.573  12.717 -0.2064  0.3647 -0.8754
  104MPD2    C1 1617   0.226   2.713  12.710 -0.2580  0.1356 -0.1043
  104MPD2    C2 1618   0.098   2.765  12.713 -0.2208 -0.3863 -0.1765
  104MPD2    C3 1619   4.724   2.679  12.697  0.6907  0.7242  0.0541
  104MPD2    C4 1620   0.003   2.544  12.688 -0.2873 -0.4187 -0.7948
  104MPD2    C5 1621   0.127   2.487  12.697 -0.3750  0.5396 -0.1289
  104MPD2     H 1622   0.088   2.867  12.749 -2.0346 -1.2795  1.8411
  104MPD2    H1 1623   4.652   2.486  12.659  0.6830 -1.1602 -2.2496
  104MPD2    H2 1624   0.333   2.523  12.719  0.1842  1.1355 -0.5160
  104MPD2    H3 1625   0.141   2.380  12.696  0.5801  0.6567  0.8048
  104MPD2     N 1626   4.606   2.751  12.659  1.2570 -0.0369  0.2749
  104MPD2    H5 1627   4.613   2.852  12.650  1.6689 -0.1195 -0.3133
  104MPD2    N1 1628   0.342   2.798  12.717 -0.6361  0.1220  0.0261
  104MPD2    H7 1629   0.433   2.752  12.719 -0.1487  1.0977 -0.0879
  105TMC2    C1 1630   0.961   2.229   0.175 -0.6072  0.0619 -0.3720
  105TMC2    C2 1631   0.837   2.222   0.229 -0.6126 -0.4071  0.3057
  105TMC2    C3 1632   0.833   2.272   0.355  0.1920 -0.2057 -0.1923
  105TMC2    C4 1633   1.073   2.242   0.255 -0.2621  0.1300 -0.4369
  105TMC2    C5 1634   1.053   2.290   0.380  0.2449 -0.4738  0.1297
  105TMC2    C6 1635   0.931   2.306   0.438 -0.4748 -0.0981 -0.0125
  105TMC2     C 1636   0.979   2.197   0.039  0.6517  0.3374 -0.0725
  105TMC2     O 1637   0.897   2.113  17.731  0.4713 -0.0483  0.6040
  105TMC2     H 1638   0.747   2.220   0.167 -0.6685  1.6175  0.3151
  105TMC2    H1 1639   1.166   2.208   0.212 -0.6595 -1.7135  0.1756
  105TMC2    H2 1640   0.912   2.348   0.536 -3.9770  2.5433 -1.8057
  105TMC2    C7 1641   1.155   2.246   0.469  0.4164 -0.6268 -0.1362
  105TMC2    C8 1642   0.697   2.274   0.401 -0.2424 -0.8732 -0.0326
  105TMC2    O1 1643   1.195   2.131   0.451  0.3563 -0.6392 -0.1941
  105TMC2    O2 1644   0.593   2.266   0.333 -0.1382  0.1152  0.0428
  105TMC2    O5 1645   0.719   2.226   0.526 -0.3066  0.2836  0.0755
  105TMC2    H5 1646   0.813   2.228   0.553 -0.4241  1.6647  0.4070
  106MPD2     C 1647   1.286   2.201  17.383  0.2562 -0.0019 -0.0021
  106MPD2    C1 1648   1.283   2.325  17.449 -0.3080 -0.3702  0.4023
  106MPD2    C2 1649   1.213   2.344  17.563  0.0917  1.0068 -0.6613
  106MPD2    C3 1650   1.141   2.238  17.620 -0.8454 -0.6636 -0.1561
  106MPD2    C4 1651   1.141   2.114  17.558 -0.5799  0.2106 -0.1067
  106MPD2    C5 1652   1.218   2.094  17.444 -0.3955  0.0183  0.1223
  106MPD2     H 1653   1.220   2.441  17.610 -0.5108  0.7665 -0.0563
  106MPD2    H1 1654   1.085   2.028  17.593  0.0785  0.9422  2.6929
  106MPD2    H2 1655   1.323   2.181  17.283 -2.5840  2.6945 -1.5754
  106MPD2    H3 1656   1.220   2.001  17.388  0.3333 -0.3814  0.8248
  106MPD2     N 1657   1.084   2.264  17.741 -0.2523  0.3442 -0.5570
  106MPD2    H5 1658   1.102   2.353   0.044 -1.7712 -0.2402  1.1930
  106MPD2    N1 1659   1.366   2.429  17.403  0.1202  0.6669 -0.5689
  106MPD2    H7 1660   1.377   2.503  17.472 -3.3684 -1.6691  2.4970
  107TMC2    C1 1661   2.318   2.210  11.453 -0.2260 -0.0694 -0.1892
  107TMC2    C2 1662   2.349   2.336  11.409 -0.3873  0.5402  0.0279
  107TMC2    C3 1663   2.452   2.347  11.320  0.4644 -1.0552  0.2173
  107TMC2    C4 1664   2.389   2.098  11.411  0.4760 -0.5751  0.0361
  107TMC2    C5 1665   2.497   2.118  11.325 -0.4115  0.3125  0.6969
  107TMC2    C6 1666   2.517   2.240  11.262  0.4233  0.5631  0.0642
  107TMC2     C 1667   2.186   2.184  11.509  0.5977  0.3939 -0.2296
  107TMC2     O 1668   2.183   2.092  11.589 -0.3714  0.1012 -0.1635
  107TMC2     H 1669   2.309   2.424  11.459  0.4786  0.9766 -0.0464
  107TMC2    H1 1670   2.360   1.999  11.442 -0.3801  0.1023  1.3967
  107TMC2    H2 1671   2.587   2.251  11.180  0.7491  0.9406  0.3941
  107TMC2    C7 1672   2.561   2.004  11.267  0.0589  0.5383  0.1258
  107TMC2    C8 1673   2.486   2.483  11.286 -0.7114  0.3816 -0.2690
  107TMC2    O1 1674   2.634   2.023  11.173  0.2920  0.0714 -0.0504
  107TMC2    O2 1675   2.430   2.586  11.317 -0.4766 -0.0967  0.0665
  107TMC2    O5 1676   2.624   2.460  11.291  0.2815  0.0464 -0.0293
  107TMC2    H5 1677   2.667   2.374  11.271  1.4451  0.7790 -0.6526
  108MPD2     C 1678   1.908   2.399  11.441  0.3711 -0.4662 -0.4927
  108MPD2    C1 1679   1.970   2.299  11.502  0.4495  0.3424 -0.2447
  108MPD2    C2 1680   1.913   2.231  11.605 -0.8666  0.4454 -0.7586
  108MPD2    C3 1681   1.786   2.261  11.652 -0.6786 -0.0644  0.4997
  108MPD2    C4 1682   1.725   2.373  11.588  0.4481  0.2180  0.3832
  108MPD2    C5 1683   1.790   2.440  11.493 -0.7139  0.3856  0.1589
  108MPD2     H 1684   1.968   2.149  11.650 -0.9853  1.2706  0.8926
  108MPD2    H1 1685   1.630   2.414  11.622  1.1469 -0.8298  3.6984
  108MPD2    H2 1686   1.941   2.458  11.355 -2.7182  1.1275 -0.5863
  108MPD2    H3 1687   1.755   2.538  11.462 -0.2078  0.2720 -0.7731
  108MPD2     N 1688   1.712   2.191  11.750 -0.4732  0.3476  0.3576
  108MPD2    H5 1689   1.617   2.219  11.771 -0.8574 -0.8414  0.1797
  108MPD2    N1 1690   2.102   2.278  11.460  0.1516 -0.4298 -0.2516
  108MPD2    H7 1691   2.131   2.343  11.388 -3.4610  1.1559 -0.2826
  109TMC2    C1 1692   1.479   4.584   0.324  0.8210 -0.1770 -0.3981
  109TMC2    C2 1693   1.464   4.626   0.191  0.3213 -0.2707 -0.8002
  109TMC2    C3 1694   1.568   4.591   0.106 -0.0684 -0.0954 -0.6023
  109TMC2    C4 1695   1.580   4.498   0.362  0.6966  1.0607 -0.2205
  109TMC2    C5 1696   1.663   4.451   0.264  0.6843 -0.3278 -0.1814
  109TMC2    C6 1697   1.657   4.494   0.136 -0.2835 -0.4787  0.3313
  109TMC2     C 1698   1.386   4.641   0.422 -0.0089 -0.3089 -0.5232
  109TMC2     O 1699   1.293   4.700   0.374  0.4286 -0.4003  0.0801
  109TMC2     H 1700   1.386   4.698   0.170  0.6825 -0.5885 -3.2100
  109TMC2    H1 1701   1.581   4.461   0.464 -1.4407 -0.0745 -0.5971
  109TMC2    H2 1702   1.728   4.461   0.061 -1.3030  0.5060 -1.0762
  109TMC2    C7 1703   1.801   4.439   0.307 -0.9484  0.4300  0.1136
  109TMC2    C8 1704   1.553   4.616  17.708  0.8797 -0.1098 -0.3973
  109TMC2    O1 1705   1.877   4.501   0.231 -0.2064 -0.0831  0.4578
  109TMC2    O2 1706   1.605   4.539  17.631 -0.3039 -0.1175  0.1497
  109TMC2    O5 1707   1.548   0.016  17.690  0.3714 -0.5142  0.2420
  109TMC2    H5 1708   1.543   0.055   0.038  0.7647 -2.3072  1.0411
  110MPD2     C 1709   1.211   0.067   0.868  1.4322  0.5828 -0.3805
  110MPD2    C1 1710   1.313   4.716   0.897  0.6418  0.2248 -0.3364
  110MPD2    C2 1711   1.373   4.658   0.784  0.1966  0.0810  0.3131
  110MPD2    C3 1712   1.332   4.672   0.655 -0.4791 -0.1146 -0.1823
  110MPD2    C4 1713   1.229   0.030   0.628  0.9635 -0.2269  0.0016
  110MPD2    C5 1714   1.171   0.090   0.740  0.5887  0.0194  0.0529
  110MPD2     H 1715   1.451   4.584   0.798 -0.0496 -0.1529  0.4347
  110MPD2    H1 1716   1.190   0.065   0.533  0.3912 -1.0315 -0.0594
  110MPD2    H2 1717   1.170   0.121   0.953  0.6729 -1.9846  0.8566
  110MPD2    H3 1718   1.093   0.162   0.717  1.0169 -0.2867 -2.3723
  110MPD2     N 1719   1.397   4.602   0.554  0.2441  0.7096  0.2504
  110MPD2    H5 1720   1.475   4.541   0.576 -2.3468 -2.2643  1.0722
  110MPD2    N1 1721   1.349   4.690   1.028 -0.4968  0.4038 -0.3817
  110MPD2    H7 1722   1.304   0.014   1.097  0.8854  4.2716 -2.8740
  111TMC2    C1 1723   2.469   4.232  11.766 -0.4038 -0.6559 -0.1279
  111TMC2    C2 1724   2.476   4.309  11.649  0.7009  0.1083 -0.4084
  111TMC2    C3 1725   2.597   4.351  11.606  0.3747 -0.1182 -0.0212
  111TMC2    C4 1726   2.578   4.208  11.845 -0.1829  0.0552  0.9578
  111TMC2    C5 1727   2.704   4.247  11.792  0.1820  0.0449 -0.1764
  111TMC2    C6 1728   2.708   4.320  11.676  0.3476 -0.5470  0.2824
  111TMC2     C 1729   2.347   4.163  11.793  0.4007  0.0285 -0.3612
  111TMC2     O 1730   2.267   4.162  11.703 -0.9248  0.0155 -0.6134
  111TMC2     H 1731   2.384   4.324  11.594  1.1932 -3.7247 -2.2665
  111TMC2    H1 1732   2.577   4.142  11.930  1.9619 -0.9186  0.2056
  111TMC2    H2 1733   2.805   4.354  11.639  0.8148  0.3143  2.2966
  111TMC2    C7 1734   2.815   4.216  11.878 -0.0104  0.4155  0.2380
  111TMC2    C8 1735   2.619   4.404  11.467 -0.5355  0.2617  0.4571
  111TMC2    O1 1736   2.798   4.175  11.991 -0.3311  0.1479 -0.2407
  111TMC2    O2 1737   2.721   4.461  11.434  0.4469 -0.2408 -0.0441
  111TMC2    O5 1738   2.541   4.338  11.388 -0.2628 -0.0667 -0.5558
  111TMC2    H5 1739   2.465   4.289  11.426  0.1064 -0.5818 -0.4869
  112MPD2     C 1740   2.109   3.743  11.961  0.3085 -0.1273 -0.0536
  112MPD2    C1 1741   2.098   3.817  11.844  0.2411  0.0523  0.1974
  112MPD2    C2 1742   2.176   3.928  11.825  0.0730 -0.1533 -0.2561
  112MPD2    C3 1743   2.254   3.981  11.928 -0.4031  0.2370 -0.3490
  112MPD2    C4 1744   2.252   3.911  12.051  0.5405 -0.3216  0.4285
  112MPD2    C5 1745   2.192   3.791  12.059  0.3231 -0.5277 -0.5159
  112MPD2     H 1746   2.186   3.971  11.726 -1.7104  0.5575 -0.1192
  112MPD2    H1 1747   2.314   3.956  12.128 -0.4179  1.1414  0.3595
  112MPD2    H2 1748   2.042   3.664  11.992  0.5245  0.7938  2.7920
  112MPD2    H3 1749   2.210   3.734  12.149 -1.1155  0.5114  0.4371
  112MPD2     N 1750   2.339   4.095  11.913  0.2282  0.2209  0.5114
  112MPD2    H5 1751   2.409   4.109  11.985  1.9074 -1.8523 -0.7226
  112MPD2    N1 1752   2.013   3.791  11.736  0.1175 -0.0068 -0.1671
  112MPD2    H7 1753   2.026   3.856  11.659  1.1945 -0.7135 -0.5788
  113TMC2    C1 1754   0.031   2.677   1.235  0.5437  0.0662  0.0369
  113TMC2    C2 1755   4.729   2.788   1.300  0.1703 -0.0199  0.3314
  113TMC2    C3 1756   4.597   2.816   1.301  0.3129 -0.8123 -0.0283
  113TMC2    C4 1757   4.678   2.593   1.174 -0.5462 -0.4930 -1.0126
  113TMC2    C5 1758   4.549   2.625   1.176 -0.5847 -0.2499  0.1558
  113TMC2    C6 1759   4.507   2.740   1.239  0.3570 -0.2848 -0.2340
  113TMC2     C 1760   0.178   2.648   1.244 -0.1893 -0.6320  0.5392
  113TMC2     O 1761   0.251   2.744   1.263 -0.0516 -0.1135  0.4613
  113TMC2     H 1762   0.064   2.846   1.359 -2.6651  1.4643  2.2958
  113TMC2    H1 1763   4.718   2.521   1.103  1.0263  1.1608 -1.7956
  113TMC2    H2 1764   4.403   2.760   1.262  0.2529  0.6697 -1.5124
  113TMC2    C7 1765   4.445   2.537   1.135 -0.1369  0.0381  0.2860
  113TMC2    C8 1766   4.556   2.926   1.388  0.5514  0.4104 -0.3959
  113TMC2    O1 1767   4.331   2.586   1.144  0.4373 -0.0487  0.0772
  113TMC2    O2 1768   4.634   2.973   1.465  0.2190 -1.7306 -0.1068
  113TMC2    O5 1769   4.472   3.011   1.313  0.0986 -0.1213 -0.0949
  113TMC2    H5 1770   4.418   2.970   1.242  0.1581 -0.1258 -0.1383
  114MPD2     C 1771   0.604   2.375   1.176 -0.6606 -0.5854  0.3895
  114MPD2    C1 1772   0.582   2.503   1.214 -0.1524  0.3104  0.1351
  114MPD2    C2 1773   0.453   2.552   1.211 -0.1509  0.1470 -0.0988
  114MPD2    C3 1774   0.342   2.479   1.174  0.2503  0.2002 -0.1569
  114MPD2    C4 1775   0.365   2.348   1.134 -0.0833 -0.8628  0.0388
  114MPD2    C5 1776   0.494   2.306   1.130 -0.0702  0.4276  0.0030
  114MPD2     H 1777   0.456   2.658   1.237 -0.0160 -0.2186  1.4068
  114MPD2    H1 1778   0.282   2.284   1.105  0.9226 -1.5858 -1.2075
  114MPD2    H2 1779   0.703   2.333   1.164 -0.1391  1.2456 -1.8518
  114MPD2    H3 1780   0.501   2.201   1.107 -1.6680  0.2369  0.3703
  114MPD2     N 1781   0.212   2.522   1.193  1.1316  0.8921 -0.0802
  114MPD2    H5 1782   0.139   2.457   1.167  0.3237  1.8134 -0.0976
  114MPD2    N1 1783   0.681   2.599   1.256  0.0083 -0.0917  0.4243
  114MPD2    H7 1784   0.645   2.688   1.289 -1.3938 -0.5410  0.1315
  115TMC2    C1 1785   0.843   4.538   0.029  0.2621  0.0693 -0.4079
  115TMC2    C2 1786   0.980   4.530   0.020 -0.0731  0.8544  0.7390
  115TMC2    C3 1787   1.041   4.631  17.690  0.1126 -0.1988 -0.3936
  115TMC2    C4 1788   0.766   4.637  17.725 -0.2570  0.2419  0.0855
  115TMC2    C5 1789   0.835   4.732  17.656  0.0161 -0.3246 -0.2174
  115TMC2    C6 1790   0.969   4.735  17.643  0.1968 -0.3576  0.5160
  115TMC2     C 1791   0.788   4.404   0.029  0.1303 -0.0976 -0.3239
  115TMC2     O 1792   0.849   4.316  17.713 -0.0707 -0.1604 -0.1589
  115TMC2     H 1793   1.038   4.451   0.066 -1.1227 -0.0135  0.5718
  115TMC2    H1 1794   0.661   4.612  17.718 -0.4724  0.7612  1.4835
  115TMC2    H2 1795   1.024   0.063  17.575 -1.0592 -1.7214 -1.7996
  115TMC2    C7 1796   0.745   0.102  17.599  0.1091 -0.3023 -0.0716
  115TMC2    C8 1797   1.178   4.656  17.706  0.1458 -0.6824  0.6552
  115TMC2    O1 1798   0.627   0.082  17.623 -0.3562  0.2089  0.8840
  115TMC2    O2 1799   1.227   0.030  17.733  0.3582  0.2338  0.5200
  115TMC2    O5 1800   1.233   4.536  17.734  0.2643 -0.5625 -0.0218
  115TMC2    H5 1801   1.192   4.469  17.674 -0.7044  1.9270 -2.1330
  116MPD2     C 1802   0.376   4.097   0.071 -0.4899  0.0549 -0.0873
  116MPD2    C1 1803   0.493   4.081   0.003  0.8560  0.2378 -0.8024
  116MPD2    C2 1804   0.592   4.179   0.013 -0.4413 -0.3421  0.0674
  116MPD2    C3 1805   0.571   4.294   0.092 -0.9194  0.0565  0.2918
  116MPD2    C4 1806   0.451   4.310   0.160 -0.2191  0.2104 -0.4203
  116MPD2    C5 1807   0.362   4.205   0.148  0.2623  0.1590  0.0703
  116MPD2     H 1808   0.687   4.152  17.714  0.1101  0.5645  0.7295
  116MPD2    H1 1809   0.431   4.399   0.219  0.4190  0.7095 -0.9505
  116MPD2    H2 1810   0.288   4.040   0.042  0.3561 -1.5755  0.5682
  116MPD2    H3 1811   0.271   4.210   0.207  0.1703 -0.2802 -0.0332
  116MPD2     N 1812   0.663   4.401   0.094  0.5385 -0.1210 -0.5831
  116MPD2    H5 1813   0.653   4.479   0.158 -1.8206 -0.3598 -0.6576
  116MPD2    N1 1814   0.497   3.982  17.654 -0.0186  0.2159 -0.2393
  116MPD2    H7 1815   0.408   3.943  17.623  1.0848 -0.3908 -2.6758
  117TMC2    C1 1816   4.445   1.177  14.137  0.0385  0.4979 -0.5564
  117TMC2    C2 1817   4.572   1.131  14.125  0.1298 -0.0341  0.2445
  117TMC2    C3 1818   4.668   1.213  14.070 -0.4880 -0.2394  0.1707
  117TMC2    C4 1819   4.412   1.307  14.092 -0.1089  0.2165  0.3736
  117TMC2    C5 1820   4.516   1.379  14.031  0.0815 -0.2342 -0.8173
  117TMC2    C6 1821   4.653   1.337  14.035 -0.3496 -0.0151  0.7569
  117TMC2     C 1822   4.338   1.080  14.176 -0.3979 -0.4735  0.5460
  117TMC2     O 1823   4.386   0.989  14.240 -0.5747 -0.0375 -0.0841
  117TMC2     H 1824   4.609   1.039  14.168  0.7956 -0.7175 -1.7955
  117TMC2    H1 1825   4.310   1.337  14.111 -0.3089 -1.3697  1.8780
  117TMC2    H2 1826   4.725   1.401  13.987 -0.7123 -0.3577 -0.2299
  117TMC2    C7 1827   4.489   1.508  13.982  0.1615 -0.0206  0.2918
  117TMC2    C8 1828   0.061   1.158  14.027  0.0597  0.3317  0.0105
  117TMC2    O1 1829   4.572   1.595  14.007  0.3236 -0.1616 -0.5621
  117TMC2    O2 1830   0.156   1.223  13.999 -0.2600 -0.1909  0.5093
  117TMC2    O5 1831   0.047   1.036  13.970  0.1511 -0.1012  0.5025
  117TMC2    H5 1832   4.691   1.003  13.975 -0.4347  1.2738 -1.2293
  118MPD2     C 1833   4.164   1.665  13.930  0.0475 -0.0992 -0.0727
  118MPD2    C1 1834   4.295   1.653  13.920 -0.2241 -0.4561  0.6367
  118MPD2    C2 1835   4.374   1.770  13.901  0.2125  0.1237 -0.5132
  118MPD2    C3 1836   4.324   1.897  13.919 -0.3978 -0.2722  0.0405
  118MPD2    C4 1837   4.183   1.909  13.922 -0.5649 -1.0214 -0.2891
  118MPD2    C5 1838   4.110   1.791  13.916  0.0724 -0.5308  0.6306
  118MPD2     H 1839   4.473   1.754  13.861  0.5077 -2.4412  1.3028
  118MPD2    H1 1840   4.124   2.000  13.916  1.3388  0.2268  0.0472
  118MPD2    H2 1841   4.104   1.574  13.935  0.9129 -0.6363  0.4100
  118MPD2    H3 1842   4.002   1.792  13.915  0.0449 -2.9651  0.9059
  118MPD2     N 1843   4.403   2.014  13.920 -0.0513 -0.8326  0.3380
  118MPD2    H5 1844   4.346   2.098  13.924 -1.1453 -1.4389 -3.1459
  118MPD2    N1 1845   4.358   1.524  13.939 -0.2375  0.2449  0.2582
  118MPD2    H7 1846   4.297   1.443  13.943 -1.3176  1.0039 -0.5407
  119TMC2    C1 1847   2.646   1.689  12.594 -0.6366  0.4005  0.1416
  119TMC2    C2 1848   2.644   1.604  12.482 -0.3735  0.4339 -0.1954
  119TMC2    C3 1849   2.526   1.611  12.413  0.4564 -0.7807 -0.0597
  119TMC2    C4 1850   2.536   1.760  12.634  0.2700  0.6908  0.6437
  119TMC2    C5 1851   2.414   1.740  12.577 -0.3864  0.5034  0.4790
  119TMC2    C6 1852   2.410   1.668  12.466  0.2439  0.7061  0.1505
  119TMC2     C 1853   2.777   1.714  12.646 -0.2660  0.6969 -0.3425
  119TMC2     O 1854   2.873   1.656  12.604  0.1360 -0.0779 -0.3417
  119TMC2     H 1855   2.730   1.555  12.438 -0.0814  0.7813 -0.0167
  119TMC2    H1 1856   2.537   1.837  12.710  2.4052  1.4550 -0.1638
  119TMC2    H2 1857   2.314   1.653  12.419  0.0188  0.6418  0.6335
  119TMC2    C7 1858   2.322   1.851  12.604 -0.0919 -0.1823 -0.8945
  119TMC2    C8 1859   2.490   1.497  12.325  0.1353  0.6376  0.5330
  119TMC2    O1 1860   2.257   1.892  12.512 -0.0194  0.0255 -0.3287
  119TMC2    O2 1861   2.375   1.452  12.313 -0.1770  0.2902 -0.2247
  119TMC2    O5 1862   2.598   1.468  12.243 -0.2289  0.1019 -0.0733
  119TMC2    H5 1863   2.663   1.541  12.252  0.3184 -0.3134 -0.7016
  120MPD2     C 1864   3.091   1.949  12.970  0.5019 -0.0859 -0.0204
  120MPD2    C1 1865   2.963   1.972  13.016 -0.4145 -0.3882 -0.7115
  120MPD2    C2 1866   2.863   1.902  12.951 -0.4713 -0.1254  0.7500
  120MPD2    C3 1867   2.891   1.828  12.840  0.1921 -0.5867 -0.8191
  120MPD2    C4 1868   3.023   1.807  12.795  0.3006 -0.0393 -0.1149
  120MPD2    C5 1869   3.126   1.873  12.859  0.9572 -0.6941 -0.9271
  120MPD2     H 1870   2.759   1.908  12.979 -0.9659  0.0313 -1.1450
  120MPD2    H1 1871   3.053   1.759  12.703 -1.5565 -0.7978 -0.3225
  120MPD2    H2 1872   3.173   1.993  13.026 -1.3142  2.0871  0.9335
  120MPD2    H3 1873   3.230   1.856  12.837  0.7655 -0.0434 -2.3410
  120MPD2     N 1874   2.781   1.782  12.767 -0.1457  0.2950 -0.3984
  120MPD2    H5 1875   2.692   1.803  12.813 -0.0151 -2.2979  1.0563
  120MPD2    N1 1876   2.942   2.048  13.133  0.1905 -0.6314 -0.0941
  120MPD2    H7 1877   3.032   2.074  13.173 -0.1700  0.5743 -0.0781
  121TMC2    C1 1878   4.059   4.109  14.201  0.0957  1.3093  0.2055
  121TMC2    C2 1879   4.159   4.209  14.211  0.2824  0.7520 -0.3546
  121TMC2    C3 1880   4.180   4.268  14.338  0.4563 -0.1045 -0.3626
  121TMC2    C4 1881   3.982   4.074  14.308  0.3290 -0.7640  1.1372
  121TMC2    C5 1882   4.011   4.136  14.424  0.0784  0.7308 -0.2411
  121TMC2    C6 1883   4.114   4.223  14.446 -0.1707 -0.4136  0.3315
  121TMC2     C 1884   4.057   4.029  14.079  0.1778 -0.0549  0.7176
  121TMC2     O 1885   3.996   3.921  14.090 -0.2029  0.4853  0.8306
  121TMC2     H 1886   4.235   4.217  14.135 -0.8675 -0.9231 -1.6821
  121TMC2    H1 1887   3.902   4.001  14.298  0.4593 -0.6346 -0.7051
  121TMC2    H2 1888   4.124   4.261  14.547  1.1226  0.8867 -0.2837
  121TMC2    C7 1889   3.909   4.132  14.531  0.2004  0.0409 -0.2656
  121TMC2    C8 1890   4.305   4.344  14.355 -0.1476  0.0651 -0.0559
  121TMC2    O1 1891   3.944   4.140  14.649 -0.4162  0.4137 -0.6064
  121TMC2    O2 1892   4.378   4.345  14.258  0.4482  0.0895  0.3600
  121TMC2    O5 1893   4.348   4.304  14.474  0.0665 -0.0598 -0.0957
  121TMC2    H5 1894   4.321   4.359  14.551 -0.9309 -0.1824 -0.3609
  122MPD2     C 1895   4.030   3.947  13.792 -0.2180  0.0776  0.2863
  122MPD2    C1 1896   4.123   4.036  13.840 -0.2814 -0.1859  0.4106
  122MPD2    C2 1897   4.214   4.085  13.746  0.5211  0.7930  0.4641
  122MPD2    C3 1898   4.219   4.045  13.613  0.9276  0.4450  0.3614
  122MPD2    C4 1899   4.133   3.940  13.575  0.2881  0.4614  0.3984
  122MPD2    C5 1900   4.039   3.900  13.664  0.6709  0.6131 -0.8168
  122MPD2     H 1901   4.291   4.152  13.784  2.9468 -1.7309 -0.0153
  122MPD2    H1 1902   4.130   3.897  13.475 -1.2100 -0.0286  0.6576
  122MPD2    H2 1903   3.956   3.900  13.855 -1.6178 -0.4365 -1.7402
  122MPD2    H3 1904   3.964   3.831  13.628  1.2541 -0.7312  0.5345
  122MPD2     N 1905   4.310   4.097  13.519  0.7191  0.4070  0.1746
  122MPD2    H5 1906   4.320   4.047  13.431  1.0614 -0.2290  0.5710
  122MPD2    N1 1907   4.128   4.081  13.970 -0.1756  0.5094  0.0442
  122MPD2    H7 1908   4.183   4.166  13.983  0.0135  0.4952 -0.6659
  123TMC2    C1 1909   2.246   2.279  10.875 -0.6651  0.1859 -0.3912
  123TMC2    C2 1910   2.179   2.393  10.830 -0.1705  0.1493 -0.4051
  123TMC2    C3 1911   2.220   2.441  10.711  0.0425 -0.2709 -0.3878
  123TMC2    C4 1912   2.350   2.224  10.808  0.1880 -0.3428 -0.3508
  123TMC2    C5 1913   2.382   2.281  10.678  0.5029  0.0974 -0.0195
  123TMC2    C6 1914   2.317   2.388  10.633 -0.1628 -0.1048 -0.1164
  123TMC2     C 1915   2.209   2.227  11.000  0.2082 -0.3094 -0.3291
  123TMC2     O 1916   2.157   2.301  11.085  0.1987  0.1458  0.2541
  123TMC2     H 1917   2.104   2.442  10.892 -1.6168 -1.8524 -0.5617
  123TMC2    H1 1918   2.418   2.150  10.848 -1.1742 -0.7937  1.0984
  123TMC2    H2 1919   2.343   2.437  10.540 -1.6617  2.4778  0.8225
  123TMC2    C7 1920   2.480   2.207  10.598  0.2562  0.6884  0.0190
  123TMC2    C8 1921   2.201   2.577  10.689  0.2225  0.6051 -0.5786
  123TMC2    O1 1922   2.474   2.086  10.571  0.5511  0.2438  0.5985
  123TMC2    O2 1923   2.247   2.664  10.761  0.0314  0.0190  0.6017
  123TMC2    O5 1924   2.177   2.593  10.556  0.3446  0.3717  0.5794
  123TMC2    H5 1925   2.135   2.516  10.512  1.0958  0.6536 -0.6446
  124MPD2     C 1926   2.127   1.839  11.312  0.3001 -0.1091  0.0150
  124MPD2    C1 1927   2.220   1.798  11.220 -0.2743  0.4631  0.3055
  124MPD2    C2 1928   2.259   1.883  11.117  0.1961  0.3232 -0.6717
  124MPD2    C3 1929   2.204   2.008  11.113 -0.1094 -0.0616  0.0141
  124MPD2    C4 1930   2.105   2.046  11.201  0.2714  0.1196 -0.0501
  124MPD2    C5 1931   2.071   1.964  11.299  0.6287  0.5815  0.2556
  124MPD2     H 1932   2.327   1.850  11.039  1.8200 -0.3362  1.0435
  124MPD2    H1 1933   2.049   2.138  11.189 -1.6107 -0.8671  1.3229
  124MPD2    H2 1934   2.081   1.765  11.377  0.0450  0.0176 -0.0197
  124MPD2    H3 1935   1.991   1.990  11.368  0.9891  0.9812  0.5212
  124MPD2     N 1936   2.241   2.088  11.005  0.3137 -0.0907 -0.2620
  124MPD2    H5 1937   2.287   2.047  10.925  2.3536  1.5868  0.0475
  124MPD2    N1 1938   2.265   1.665  11.226  0.4583  0.1128  0.3981
  124MPD2    H7 1939   2.224   1.612  11.303  0.4703 -0.8223 -0.2351
  125TMC2    C1 1940   2.736   3.725  10.145  0.2172  0.9881 -0.1593
  125TMC2    C2 1941   2.672   3.616  10.093  0.5896  0.6001 -0.2624
  125TMC2    C3 1942   2.703   3.581   9.964  0.3650 -0.3467 -0.0503
  125TMC2    C4 1943   2.819   3.807  10.078  0.1174  0.3192 -0.5059
  125TMC2    C5 1944   2.849   3.758   9.951 -0.1421  0.2310 -1.2400
  125TMC2    C6 1945   2.804   3.643   9.898 -0.5121  0.6108  0.2739
  125TMC2     C 1946   2.727   3.743  10.290 -0.3527 -0.2536  0.7621
  125TMC2     O 1947   2.696   3.649  10.361 -0.3740  0.1111 -0.1747
  125TMC2     H 1948   2.602   3.566  10.159  0.9673 -2.3218 -2.0616
  125TMC2    H1 1949   2.880   3.887  10.119  0.2303 -0.2512  0.4226
  125TMC2    H2 1950   2.834   3.604   9.801  1.0903 -0.5531  1.2339
  125TMC2    C7 1951   2.942   3.842   9.874 -0.5343  0.0694 -0.6076
  125TMC2    C8 1952   2.636   3.463   9.919 -0.0172  1.0240 -0.1244
  125TMC2    O1 1953   2.968   3.954   9.920  0.1427  0.4339 -0.3604
  125TMC2    O2 1954   2.639   3.362   9.989  0.3874 -0.2606 -1.0098
  125TMC2    O5 1955   2.630   3.460   9.787 -0.1062 -0.2439 -0.4354
  125TMC2    H5 1956   2.629   3.551   9.749  2.7551  0.1607  0.4422
  126MPD1     C 1957   2.727   4.035  10.712  0.5665  0.1337  0.4255
  126MPD1    C1 1958   2.768   4.112  10.610  0.8349 -0.7067 -0.4266
  126MPD1    C2 1959   2.775   4.056  10.483  0.2564 -0.6741  0.1355
  126MPD1    C3 1960   2.732   3.923  10.457  0.3636  0.4780 -0.4503
  126MPD1    C4 1961   2.706   3.845  10.565  0.7747 -0.0768  0.5089
  126MPD1    C5 1962   2.705   3.899  10.693  0.0836  0.0567 -0.6141
  126MPD1     H 1963   2.817   4.114  10.401 -2.6361  1.7703  0.3744
  126MPD1    H1 1964   2.664   3.745  10.561 -3.9256  1.8908  1.2365
  126MPD1    H2 1965   2.720   4.083  10.809 -0.0955  0.9955 -0.0473
  126MPD1    H3 1966   2.656   3.848  10.774  0.3011  0.9667  0.0946
  126MPD1     N 1967   2.742   3.877  10.331  0.4490 -0.3591  0.8327
  126MPD1    H5 1968   2.762   3.939  10.253 -0.8386 -0.4358  0.4396
  126MPD1    N1 1969   2.821   4.241  10.642  0.2765 -0.1329  0.3592
  126MPD1    H6 1970   2.768   4.269  10.724 -1.0354  2.1348 -1.2752
  126MPD1    H7 1971   2.803   4.303  10.563 -0.2088 -0.2245  0.3997
  127TMC2    C1 1972   4.333   2.785   9.702 -0.4809 -0.7207  0.5922
  127TMC2    C2 1973   4.339   2.719   9.821 -0.7457  0.0690  0.4448
  127TMC2    C3 1974   4.239   2.631   9.845 -0.2900 -0.8467 -0.5400
  127TMC2    C4 1975   4.219   2.773   9.625 -0.3808  0.9100  0.3326
  127TMC2    C5 1976   4.127   2.683   9.643  0.8656 -0.1554 -0.6165
  127TMC2    C6 1977   4.135   2.611   9.756  0.1065 -0.2708 -0.0443
  127TMC2     C 1978   4.433   2.887   9.661 -0.3446 -0.9744 -0.3595
  127TMC2     O 1979   4.421   2.938   9.549 -0.4763  0.5010  0.2319
  127TMC2     H 1980   4.400   2.747   9.906  0.5634 -3.1087  0.5368
  127TMC2    H1 1981   4.217   2.844   9.544 -1.5746 -1.9796 -2.1600
  127TMC2    H2 1982   4.078   2.520   9.771  1.5273 -0.8419  1.8554
  127TMC2    C7 1983   4.052   2.645   9.526 -0.1146 -0.0615  0.3055
  127TMC2    C8 1984   4.241   2.550   9.966 -0.5186 -0.1842 -0.3299
  127TMC2    O1 1985   4.096   2.674   9.411 -0.3447  0.2806  0.0286
  127TMC2    O2 1986   4.142   2.505  10.027 -0.6308 -0.5562  0.2149
  127TMC2    O5 1987   4.361   2.493   9.973 -0.8057  0.2170  0.4505
  127TMC2    H5 1988   4.408   2.508   9.888  1.8497  1.5836  2.1295
  128MPD2     C 1989   0.020   2.970   9.840  0.2221 -1.1470 -0.1920
  128MPD2    C1 1990   4.647   2.980   9.745 -0.4258  0.3382 -0.4817
  128MPD2    C2 1991   4.654   3.080   9.645 -0.1181 -0.1560  0.2508
  128MPD2    C3 1992   0.039   3.149   9.630  0.4951 -0.4027 -0.1131
  128MPD2    C4 1993   0.141   3.133   9.716  0.0415  0.1906  0.3395
  128MPD2    C5 1994   0.134   3.047   9.821  1.0706 -0.1239 -0.6685
  128MPD2     H 1995   4.573   3.110   9.579  0.0140 -2.4592 -0.9481
  128MPD2    H1 1996   0.234   3.185   9.695  0.1933 -1.0178 -1.9866
  128MPD2    H2 1997   0.020   2.892   9.915  1.9402 -1.2535 -0.3202
  128MPD2    H3 1998   0.217   3.030   9.888 -1.0512 -0.8153  1.7662
  128MPD2     N 1999   0.038   3.260   9.543  0.0427 -0.0185  0.2738
  128MPD2    H5 2000   4.688   3.269   9.489 -0.7845  0.0859  1.6287
  128MPD2    N1 2001   4.540   2.897   9.746 -0.0423  1.0601 -0.3162
  128MPD2    H7 2002   4.540   2.830   9.823  1.1159  0.6748 -0.6545
  129TMC2    C1 2003   3.922   3.005   1.399  0.6731 -0.1747 -0.0907
  129TMC2    C2 2004   3.980   2.898   1.458 -0.3744  0.1019  0.2388
  129TMC2    C3 2005   3.898   2.826   1.546  0.2775  0.0317  0.5316
  129TMC2    C4 2006   3.784   3.022   1.413  0.6904  0.7334  0.4472
  129TMC2    C5 2007   3.705   2.942   1.492  0.5193  0.2818 -0.0736
  129TMC2    C6 2008   3.767   2.850   1.568 -0.0987  0.1083  0.2603
  129TMC2     C 2009   4.011   3.092   1.325  0.4214 -0.0807 -0.0856
  129TMC2     O 2010   4.127   3.050   1.314 -0.1642 -0.0065  0.2752
  129TMC2     H 2011   4.078   2.860   1.435 -1.1218  0.8580 -4.2604
  129TMC2    H1 2012   3.741   3.093   1.344 -0.5468 -0.3986  0.0396
  129TMC2    H2 2013   3.713   2.803   1.649  0.3601 -0.7438  0.0796
  129TMC2    C7 2014   3.568   2.980   1.502 -0.2822 -0.0894 -0.5630
  129TMC2    C8 2015   3.962   2.730   1.632  0.1044  0.4834 -0.2867
  129TMC2    O1 2016   3.516   3.021   1.399 -0.3309  0.2768 -0.0295
  129TMC2    O2 2017   4.079   2.707   1.619  0.2882  0.0117  0.5860
  129TMC2    O5 2018   3.868   2.637   1.671 -0.0808  0.0285  0.0282
  129TMC2    H5 2019   3.776   2.667   1.653 -0.8852 -2.3511  0.2379
  130MPD2     C 2020   4.178   3.300   1.185 -0.5464  0.6443  1.0862
  130MPD2    C1 2021   4.046   3.318   1.221 -0.0852  0.2116  0.4860
  130MPD2    C2 2022   3.981   3.436   1.214 -0.4532 -0.8287 -0.7266
  130MPD2    C3 2023   4.049   3.546   1.164  0.3344  0.2249 -0.3598
  130MPD2    C4 2024   4.177   3.529   1.113  0.0386  0.0097 -0.1890
  130MPD2    C5 2025   4.241   3.407   1.120  0.0778  0.0121 -0.5174
  130MPD2     H 2026   3.883   3.443   1.260 -0.3956 -0.6214 -0.6337
  130MPD2    H1 2027   4.242   3.602   1.067  0.8319  0.2856  1.3657
  130MPD2    H2 2028   4.234   3.207   1.189 -3.8706 -1.3652  0.9426
  130MPD2    H3 2029   4.342   3.408   1.080 -0.0354 -1.3676 -0.8050
  130MPD2     N 2030   3.988   3.675   1.164  0.1551 -0.0578  0.4280
  130MPD2    H5 2031   3.903   3.690   1.218 -1.0014 -0.3782 -1.3079
  130MPD2    N1 2032   3.964   3.216   1.286  0.1158 -0.3651 -0.3994
  130MPD2    H7 2033   3.870   3.241   1.313  0.4022  0.7041 -0.3765
  131TMC2    C1 2034   2.144   1.662  10.452  0.5127  0.4216 -0.4600
  131TMC2    C2 2035   2.143   1.791  10.499 -0.0417  0.3940  0.1829
  131TMC2    C3 2036   2.147   1.893  10.409 -0.1771  0.1326 -0.0749
  131TMC2    C4 2037   2.186   1.638  10.324  0.1303 -0.5037 -0.5882
  131TMC2    C5 2038   2.211   1.747  10.243 -1.0714 -0.3761 -0.1651
  131TMC2    C6 2039   2.187   1.870  10.277  0.2377  0.4058  0.3316
  131TMC2     C 2040   2.161   1.565  10.554 -0.4101 -0.3279  0.2070
  131TMC2     O 2041   2.182   1.601  10.668 -0.3384  0.2594  0.8599
  131TMC2     H 2042   2.136   1.819  10.604  1.3623  2.5567 -0.2734
  131TMC2    H1 2043   2.195   1.538  10.283 -2.0177 -1.1216  0.4572
  131TMC2    H2 2044   2.197   1.942  10.196  0.6653  1.8382  1.6669
  131TMC2    C7 2045   2.311   1.718  10.143 -0.0964 -0.2574  0.2737
  131TMC2    C8 2046   2.114   2.031  10.448  0.3591 -0.1885 -0.2115
  131TMC2    O1 2047   2.321   1.602  10.110  0.1285 -0.1218 -0.2052
  131TMC2    O2 2048   2.056   2.073  10.546  0.4711  0.7278 -0.0144
  131TMC2    O5 2049   2.180   2.110  10.359 -0.2339 -0.1815  0.0270
  131TMC2    H5 2050   2.236   2.058  10.297  2.0490  0.2106  1.7458
  132MPD2     C 2051   2.163   1.186  10.531 -0.1079  0.1356 -0.6372
  132MPD2    C1 2052   2.199   1.310  10.573  0.9928  0.8270  0.5602
  132MPD2    C2 2053   2.268   1.325  10.684 -0.0046  0.5522 -0.2428
  132MPD2    C3 2054   2.283   1.221  10.775  0.2890  0.5107 -0.5045
  132MPD2    C4 2055   2.248   1.091  10.734 -0.7428  0.5368 -0.3593
  132MPD2    C5 2056   2.183   1.079  10.617  0.5398  0.0312 -0.7866
  132MPD2     H 2057   2.298   1.424  10.716  1.0297 -0.2116  1.1485
  132MPD2    H1 2058   2.245   1.006  10.802  0.2773  1.7177  1.1583
  132MPD2    H2 2059   2.106   1.172  10.440  0.2898  0.4447 -0.9360
  132MPD2    H3 2060   2.136   0.987  10.585 -0.8038  0.0633  1.1250
  132MPD2     N 2061   2.340   1.244  10.901 -1.0792  0.4262  0.2582
  132MPD2    H5 2062   2.337   1.342  10.926 -1.3560  0.3383  0.5696
  132MPD2    N1 2063   2.150   1.431  10.504 -0.5808 -0.0987 -0.1469
  132MPD2    H7 2064   2.105   1.423  10.414  1.0108 -1.1636 -0.8606
  133TMC2    C1 2065   1.976   3.415  10.239  0.3884 -0.1557 -0.2061
  133TMC2    C2 2066   2.057   3.322  10.302 -0.6535 -0.4824 -0.5881
  133TMC2    C3 2067   2.100   3.349  10.429 -0.1699  0.4899  0.3196
  133TMC2    C4 2068   1.945   3.536  10.304 -0.1006  0.1841  0.1223
  133TMC2    C5 2069   1.988   3.554  10.431  0.3910 -1.1360  0.2314
  133TMC2    C6 2070   2.069   3.470  10.494 -0.4446 -0.5711 -0.3380
  133TMC2     C 2071   1.923   3.378  10.113  0.1853  0.5962 -0.0567
  133TMC2     O 2072   1.904   3.258  10.097 -0.3186 -0.4806  0.2709
  133TMC2     H 2073   2.087   3.237  10.243 -0.1470  0.3123 -1.4765
  133TMC2    H1 2074   1.867   3.601  10.263  1.2580  1.4618 -0.4552
  133TMC2    H2 2075   2.104   3.496  10.593  0.4745 -1.0924 -0.5295
  133TMC2    C7 2076   1.968   3.681  10.487  0.7630  0.2918 -0.3478
  133TMC2    C8 2077   2.154   3.241  10.515 -0.5482  0.1274 -0.3730
  133TMC2    O1 2078   2.010   3.690  10.602  0.0281  0.0417  0.1199
  133TMC2    O2 2079   2.154   3.122  10.479  1.1757  0.9327 -0.1243
  133TMC2    O5 2080   2.128   3.279  10.642 -0.3294  0.3360 -0.0091
  133TMC2    H5 2081   2.139   3.205  10.705  0.1394 -0.3437 -0.8937
  134MPD2     C 2082   1.784   3.588   9.851  0.5346 -0.2559 -0.5217
  134MPD2    C1 2083   1.821   3.471   9.911 -0.0925 -1.0515 -0.3475
  134MPD2    C2 2084   1.811   3.349   9.845 -0.4153 -0.3943  0.4224
  134MPD2    C3 2085   1.745   3.341   9.724 -0.9696  0.9521  0.3711
  134MPD2    C4 2086   1.696   3.456   9.662 -0.4582 -0.1135  0.3612
  134MPD2    C5 2087   1.712   3.578   9.732  0.9508 -0.3266  1.1062
  134MPD2     H 2088   1.852   3.259   9.888  2.4168  1.5070  1.6574
  134MPD2    H1 2089   1.652   3.448   9.562 -0.2005 -2.9762  0.4590
  134MPD2    H2 2090   1.800   3.687   9.894 -0.3389 -0.5919  0.5799
  134MPD2    H3 2091   1.668   3.667   9.688  0.8429 -0.6044  0.6574
  134MPD2     N 2092   1.718   3.217   9.665 -0.4009 -0.3076  0.5511
  134MPD2    H5 2093   1.646   3.223   9.593 -1.3487 -1.4119  1.4261
  134MPD2    N1 2094   1.887   3.480  10.033  0.1281 -0.0701  1.2628
  134MPD2    H7 2095   1.901   3.573  10.070 -2.0990  0.0008  1.9400
  135TMC2    C1 2096   3.542   4.409   9.855  0.6077  0.6362 -0.7390
  135TMC2    C2 2097   3.414   4.461   9.879 -0.0497 -0.1095 -0.4606
  135TMC2    C3 2098   3.310   4.372   9.914  0.5315 -0.2765  0.3488
  135TMC2    C4 2099   3.558   4.274   9.850 -0.2571  0.4886  0.1877
  135TMC2    C5 2100   3.462   4.191   9.884  0.7369  0.3892 -0.0431
  135TMC2    C6 2101   3.340   4.239   9.925 -0.1723 -0.5706  0.1106
  135TMC2     C 2102   3.647   4.509   9.828 -0.3843  0.1737 -0.9841
  135TMC2     O 2103   3.635   4.622   9.872  0.2303  0.0720 -0.1527
  135TMC2     H 2104   3.399   4.568   9.869  2.8251  0.3139 -0.1881
  135TMC2    H1 2105   3.659   4.237   9.835 -0.9854 -2.3906  2.3582
  135TMC2    H2 2106   3.251   4.177   9.935 -1.1666  0.7986 -0.1887
  135TMC2    C7 2107   3.484   4.046   9.868  1.0500 -0.1898 -0.0734
  135TMC2    C8 2108   3.179   4.418   9.957 -0.2166  0.7715  0.0884
  135TMC2    O1 2109   3.589   4.021   9.813 -0.2433  0.2813 -0.1713
  135TMC2    O2 2110   3.079   4.359   9.921  0.2562 -0.0647  0.1615
  135TMC2    O5 2111   3.189   4.516  10.050  0.3082 -1.0028  0.3025
  135TMC2    H5 2112   3.285   4.532  10.061  0.3265 -1.6771  1.1303
  136MPD2     C 2113   3.907   4.634   9.782  0.1698  0.2413 -1.0769
  136MPD2    C1 2114   3.876   4.512   9.736  0.1854 -0.6532  0.3566
  136MPD2    C2 2115   3.961   4.452   9.645  0.1130  0.1586 -0.0290
  136MPD2    C3 2116   4.086   4.504   9.615 -0.1563  0.0794  0.3449
  136MPD2    C4 2117   4.115   4.631   9.665  0.2903  0.4752  0.2722
  136MPD2    C5 2118   4.027   4.691   9.748 -0.2730 -0.2201  0.7745
  136MPD2     H 2119   3.929   4.365   9.589 -1.0920 -0.1212  1.1131
  136MPD2    H1 2120   4.206   4.681   9.635  0.4216 -0.1699 -0.4032
  136MPD2    H2 2121   3.839   4.700   9.835 -0.4925  0.0144 -1.6559
  136MPD2    H3 2122   4.045   0.057   9.781 -0.0313  0.3048 -0.9852
  136MPD2     N 2123   4.183   4.446   9.535  0.0516  0.7321 -0.0791
  136MPD2    H5 2124   4.267   4.497   9.508  0.5465 -0.9328 -1.7456
  136MPD2    N1 2125   3.748   4.454   9.750 -0.2512 -0.4933 -0.0179
  136MPD2    H7 2126   3.754   4.356   9.722  1.4392 -0.8635  1.6670
  137TMC2    C1 2127   3.691   2.809   9.415 -0.0191  1.0515 -0.0390
  137TMC2    C2 2128   3.731   2.862   9.294  0.9943 -0.4259 -0.1385
  137TMC2    C3 2129   3.664   2.820   9.180 -0.0484  0.1497 -0.6144
  137TMC2    C4 2130   3.595   2.718   9.427 -0.3621 -0.6574  0.2301
  137TMC2    C5 2131   3.533   2.682   9.315  0.5152 -0.2137 -0.0718
  137TMC2    C6 2132   3.557   2.737   9.194 -0.8045 -0.3356  0.6483
  137TMC2     C 2133   3.747   2.867   9.538 -0.2635 -0.3824  0.5386
  137TMC2     O 2134   3.706   2.822   9.640  0.1724  0.5064 -0.3486
  137TMC2     H 2135   3.794   2.948   9.276  1.1693 -0.6117 -0.4153
  137TMC2    H1 2136   3.569   2.682   9.526  0.0596  2.5059  1.4913
  137TMC2    H2 2137   3.518   2.698   9.101 -0.4631  0.6890  0.0674
  137TMC2    C7 2138   3.452   2.562   9.311 -0.5339  0.9771  0.0220
  137TMC2    C8 2139   3.733   2.842   9.053  0.2059  0.6073 -0.9460
  137TMC2    O1 2140   3.422   2.519   9.195  0.0583 -0.4799 -0.1563
  137TMC2    O2 2141   3.828   2.919   9.058  0.0432 -0.4297 -0.1703
  137TMC2    O5 2142   3.739   2.718   8.998  0.6921  0.1389 -0.1296
  137TMC2    H5 2143   3.655   2.668   9.003  0.8741 -0.4355 -3.0196
  138MPD2     C 2144   4.054   3.081   9.545  0.3466  0.6271  0.2022
  138MPD2    C1 2145   3.931   3.029   9.590  0.6489 -0.3830  0.0012
  138MPD2    C2 2146   3.905   3.030   9.725 -0.3619  0.5267  0.1112
  138MPD2    C3 2147   3.997   3.078   9.812 -0.6614  0.7987 -0.7685
  138MPD2    C4 2148   4.118   3.115   9.763 -0.2383 -0.0251 -0.2465
  138MPD2    C5 2149   4.150   3.123   9.633 -0.5329  0.0985 -0.3046
  138MPD2     H 2150   3.808   2.997   9.760 -0.7187  1.5003  0.0541
  138MPD2    H1 2151   4.200   3.139   9.829  1.1078  0.6745 -2.1749
  138MPD2    H2 2152   4.077   3.073   9.440  0.3333  4.7235 -0.1173
  138MPD2    H3 2153   4.242   3.162   9.593 -0.2494  0.0016  0.2585
  138MPD2     N 2154   3.952   3.090   9.943 -0.3510  0.1944 -0.8639
  138MPD2    H5 2155   3.869   3.042   9.975  1.3390 -1.2112  1.4172
  138MPD2    N1 2156   3.849   2.954   9.502  0.4468  0.4557  0.0295
  138MPD2    H7 2157   3.873   2.962   9.404  0.9542  0.8452  0.1846
  139TMC2    C1 2158   4.623   1.717  13.622  0.3595 -0.2825  0.9826
  139TMC2    C2 2159   0.003   1.787  13.611  0.4386 -0.3789 -0.3347
  139TMC2    C3 2160   4.719   1.921  13.577  0.4241 -0.3865 -0.6220
  139TMC2    C4 2161   4.495   1.767  13.597 -0.4587 -0.2951  0.0984
  139TMC2    C5 2162   4.489   1.900  13.564  0.1261 -0.8260 -0.1687
  139TMC2    C6 2163   4.596   1.976  13.568  0.4082 -0.4545  0.0010
  139TMC2     C 2164   4.647   1.573  13.635  0.3403 -0.3566 -0.0655
  139TMC2     O 2165   0.017   1.524  13.622  0.3487 -0.1509 -0.0526
  139TMC2     H 2166   0.100   1.751  13.644  0.1391 -1.0587 -0.1856
  139TMC2    H1 2167   4.409   1.706  13.622 -0.7489  0.2563  0.4546
  139TMC2    H2 2168   4.584   2.084  13.578  0.1091 -0.6591  1.7862
  139TMC2    C7 2169   4.360   1.962  13.579  0.0846 -0.3910  0.1306
  139TMC2    C8 2170   0.092   2.003  13.631 -0.0298  0.8886 -0.0030
  139TMC2    O1 2171   4.356   2.080  13.609  0.2670  0.3428 -0.5591
  139TMC2    O2 2172   0.083   2.113  13.684  0.0656  0.3561 -0.0039
  139TMC2    O5 2173   0.207   1.945  13.591  0.1291 -0.1446  0.0043
  139TMC2    H5 2174   0.200   1.858  13.547  1.3415 -0.1605 -0.1637
  140MPD2     C 2175   4.378   1.327  13.667 -0.4058 -0.5615 -0.2950
  140MPD2    C1 2176   4.506   1.367  13.631  0.4964 -0.1060 -0.3564
  140MPD2    C2 2177   4.602   1.270  13.629 -0.7743  0.4004  0.7933
  140MPD2    C3 2178   4.572   1.133  13.645  0.1910 -0.5165  0.2034
  140MPD2    C4 2179   4.439   1.097  13.655 -0.7526 -0.2792  0.1852
  140MPD2    C5 2180   4.348   1.194  13.673 -0.0556  0.0246 -0.2349
  140MPD2     H 2181   4.705   1.297  13.608 -1.1046 -1.2864 -3.0314
  140MPD2    H1 2182   4.407   0.993  13.664 -0.5072 -0.4269 -0.6548
  140MPD2    H2 2183   4.304   1.403  13.688 -0.3764 -0.0006 -2.2188
  140MPD2    H3 2184   4.249   1.155  13.695 -0.5860  0.2160 -2.2739
  140MPD2     N 2185   4.679   1.043  13.630  0.2078  0.4888  0.0908
  140MPD2    H5 2186   0.030   1.093  13.614 -0.4144  2.4873  2.8442
  140MPD2    N1 2187   4.526   1.510  13.635  0.2335  0.1889  0.8051
  140MPD2    H7 2188   4.440   1.564  13.640 -0.3883 -0.8130  0.9910
  141TMC2    C1 2189   4.621   3.802  14.160 -0.7912 -0.2301 -0.5972
  141TMC2    C2 2190   4.490   3.786  14.135 -0.2030 -0.2389  0.1543
  141TMC2    C3 2191   4.402   3.841  14.226 -0.2959  0.7322  0.2253
  141TMC2    C4 2192   4.663   3.854  14.278 -0.4857 -0.1976 -0.4289
  141TMC2    C5 2193   4.579   3.913  14.370  0.1037  0.3773  0.1687
  141TMC2    C6 2194   4.446   3.908  14.339 -0.1168 -0.2186  0.1862
  141TMC2     C 2195   4.719   3.776  14.060  0.2660 -0.6830 -0.2468
  141TMC2     O 2196   0.084   3.840  14.055 -0.1995  0.0448  0.2045
  141TMC2     H 2197   4.452   3.741  14.044  0.9113 -0.3711 -0.2530
  141TMC2    H1 2198   0.032   3.853  14.302 -0.7283  4.3279  0.9765
  141TMC2    H2 2199   4.366   3.940  14.405 -0.0478 -0.7312  0.5112
  141TMC2    C7 2200   4.619   3.943  14.503  0.3025  0.8665 -0.3582
  141TMC2    C8 2201   4.274   3.778  14.232 -0.1884 -0.1105 -0.2562
  141TMC2    O1 2202   4.528   3.923  14.580 -0.4186  0.0384  0.1263
  141TMC2    O2 2203   4.182   3.816  14.302 -0.3815  1.1012  0.3063
  141TMC2    O5 2204   4.299   3.648  14.210 -0.3394  0.3998  0.7044
  141TMC2    H5 2205   4.365   3.622  14.142  0.1784  1.9798  0.6086
  142TMC2    C1 2206   2.910   1.519  10.411  0.9778 -0.0441 -0.2733
  142TMC2    C2 2207   2.948   1.497  10.286 -0.2485  0.5185 -0.3643
  142TMC2    C3 2208   2.965   1.609  10.204 -0.5634 -0.0957 -0.0517
  142TMC2    C4 2209   2.900   1.648  10.461 -0.0825  0.1271 -0.4300
  142TMC2    C5 2210   2.909   1.756  10.379 -0.2299  0.1849 -0.4145
  142TMC2    C6 2211   2.949   1.739  10.248 -0.6219  0.4920  0.2424
  142TMC2     C 2212   2.886   1.403  10.499 -0.1735 -0.3510 -0.0975
  142TMC2     O 2213   2.883   1.293  10.443  0.7424 -0.2573 -0.1827
  142TMC2     H 2214   2.957   1.397  10.245 -1.1997 -0.4813  1.8656
  142TMC2    H1 2215   2.892   1.667  10.567 -0.8491  0.1200 -0.4877
  142TMC2    H2 2216   2.947   1.822  10.178 -1.5227 -0.9131 -1.4076
  142TMC2    C7 2217   2.838   1.872  10.417  0.2720 -0.2294 -0.3076
  142TMC2    C8 2218   2.992   1.586  10.061 -0.6088 -0.4765 -0.2331
  142TMC2    O1 2219   2.745   1.866  10.495  0.4876 -0.2294 -0.1812
  142TMC2    O2 2220   3.008   1.679   9.987 -0.0624 -0.2055  0.2226
  142TMC2    O5 2221   2.916   1.481  10.025  0.2248 -0.1172 -0.1089
  142TMC2    H5 2222   2.865   1.431  10.093 -0.8563 -0.0912 -0.9191
  143MPD2     C 2223   2.694   1.198  10.926  0.2853 -0.5969  0.3836
  143MPD2    C1 2224   2.681   1.154  10.798  0.2026 -0.2953  0.5339
  143MPD2    C2 2225   2.739   1.223  10.693 -0.0690 -0.4474 -0.4742
  143MPD2    C3 2226   2.800   1.351  10.725  0.5449  0.2990  0.5806
  143MPD2    C4 2227   2.803   1.396  10.852  0.2040  0.0906 -0.4647
  143MPD2    C5 2228   2.749   1.318  10.955 -0.1853 -0.8083  0.3634
  143MPD2     H 2229   2.735   1.191  10.589 -0.5068 -1.0451 -0.2727
  143MPD2    H1 2230   2.842   1.492  10.885 -0.9506 -0.5078  2.6346
  143MPD2    H2 2231   2.676   1.131  11.010 -2.2527  0.1384  0.4357
  143MPD2    H3 2232   2.770   1.348  11.056 -0.4468  1.4922 -0.2533
  143MPD2     N 2233   2.852   1.436  10.628 -0.2553 -0.3227 -0.1947
  143MPD2    H5 2234   2.878   1.530  10.657 -0.9903 -0.4010  0.7198
  143MPD2    N1 2235   2.620   1.024  10.780 -0.7454 -0.2457  0.1521
  143MPD2    H7 2236   2.595   0.970  10.863 -0.7195  0.4779  0.6347
  144TMC2    C1 2237   0.545   1.273   0.785 -0.6867  0.4900  0.0819
  144TMC2    C2 2238   0.609   1.166   0.729 -0.2170 -0.4610  0.3539
  144TMC2    C3 2239   0.729   1.136   0.775  0.7988 -0.3362  0.2067
  144TMC2    C4 2240   0.593   1.336   0.893 -0.1589 -0.2625  0.0203
  144TMC2    C5 2241   0.721   1.308   0.931 -0.2517 -0.3990  0.1427
  144TMC2    C6 2242   0.793   1.207   0.876  0.5928  0.2602  0.4654
  144TMC2     C 2243   0.411   1.306   0.731 -0.3791  0.6192 -0.3077
  144TMC2     O 2244   0.344   1.215   0.688 -0.0656  0.1092 -0.8473
  144TMC2     H 2245   0.558   1.110   0.651 -0.1025 -0.5064  0.3125
  144TMC2    H1 2246   0.522   1.388   0.957  0.2860  0.2340  0.1104
  144TMC2    H2 2247   0.890   1.183   0.918  0.7586 -1.5417 -0.9955
  144TMC2    C7 2248   0.765   1.347   1.064 -0.3621 -0.2894 -0.2144
  144TMC2    C8 2249   0.766   1.003   0.748  0.1008  0.8814  0.0301
  144TMC2    O1 2250   0.858   1.280   1.106  0.0179  0.1682  0.7255
  144TMC2    O2 2251   0.686   0.908   0.739  0.3474  0.1044 -0.0542
  144TMC2    O5 2252   0.894   0.995   0.767  0.0299  0.1981 -0.1898
  144TMC2    H5 2253   0.934   1.081   0.742 -0.3687  0.5340  0.3316
  145MPD2     C 2254   0.053   1.657   0.614  0.2235 -0.0453  0.5023
  145MPD2    C1 2255   0.053   1.518   0.608  0.1079  0.1501 -0.4015
  145MPD2    C2 2256   0.156   1.446   0.659 -0.4159 -0.0609  0.5895
  145MPD2    C3 2257   0.273   1.507   0.717 -0.6141  0.7189  0.2886
  145MPD2    C4 2258   0.268   1.643   0.727  0.0440 -0.8010  0.6891
  145MPD2    C5 2259   0.163   1.717   0.674 -0.5985  0.2361 -0.5960
  145MPD2     H 2260   0.146   1.339   0.645  0.7985  0.0530 -1.1886
  145MPD2    H1 2261   0.344   1.694   0.785  0.1058  0.3285 -0.3989
  145MPD2    H2 2262   4.707   1.717   0.575 -0.5076 -0.1680  1.8588
  145MPD2    H3 2263   0.173   1.825   0.673 -1.6547  0.3608  2.2364
  145MPD2     N 2264   0.391   1.439   0.747 -0.7305 -0.7750  0.1871
  145MPD2    H5 2265   0.459   1.493   0.799  0.4773 -0.3612 -1.8136
  145MPD2    N1 2266   4.689   1.447   0.543 -0.7977 -0.3270 -0.4188
  145MPD2    H7 2267   4.707   1.349   0.524  2.1664 -0.0325  0.8508
  146TMC2    C1 2268   2.016   4.327  12.415 -0.6669 -0.0321 -0.1894
  146TMC2    C2 2269   1.946   4.327  12.299 -0.2085 -0.2248  0.3109
  146TMC2    C3 2270   2.008   4.272  12.195 -0.0818  0.0840  0.0177
  146TMC2    C4 2271   2.146   4.289  12.427  0.3678  0.2069  0.5997
  146TMC2    C5 2272   2.207   4.257  12.301  0.0223  0.3503 -0.1595
  146TMC2    C6 2273   2.139   4.247  12.180 -0.7889 -0.4318  0.0501
  146TMC2     C 2274   1.953   4.401  12.525  0.6163  0.3413  0.0250
  146TMC2     O 2275   1.880   4.493  12.498  0.4322  0.0716  0.5039
  146TMC2     H 2276   1.840   4.348  12.301 -0.1275  0.0899  1.3503
  146TMC2    H1 2277   2.202   4.285  12.520 -0.1413 -0.7352  0.8759
  146TMC2    H2 2278   2.178   4.202  12.089  0.7916  0.7280  0.1670
  146TMC2    C7 2279   2.342   4.199  12.301  0.0564 -0.2938 -0.0301
  146TMC2    C8 2280   1.926   4.220  12.082  0.5788  0.4168 -0.7363
  146TMC2    O1 2281   2.405   4.180  12.197  0.2163  0.2253 -0.0205
  146TMC2    O2 2282   1.947   4.127  12.006  0.0155 -0.1116 -0.2508
  146TMC2    O5 2283   1.808   4.291  12.087 -0.6417 -0.3176 -0.0431
  146TMC2    H5 2284   1.826   4.385  12.109  3.0595 -1.1883  0.6717
  147MPD2     C 2285   2.723   3.979  12.583  0.0344  0.2437  0.1700
  147MPD2    C1 2286   2.617   4.000  12.669 -0.4054  0.0404 -0.0617
  147MPD2    C2 2287   2.505   4.066  12.612  0.2167  0.3130 -0.3330
  147MPD2    C3 2288   2.496   4.091  12.478 -0.0293 -0.1313 -0.0798
  147MPD2    C4 2289   2.604   4.066  12.396 -0.8429 -0.5490  0.1093
  147MPD2    C5 2290   2.718   4.009  12.443  0.4967 -1.0918 -0.1436
  147MPD2     H 2291   2.423   4.093  12.679 -0.0238  1.8959 -1.2610
  147MPD2    H1 2292   2.611   4.073  12.288  0.6063 -2.1024  0.1042
  147MPD2    H2 2293   2.807   3.927  12.626 -0.0229  1.9235  2.3406
  147MPD2    H3 2294   2.801   3.985  12.377  1.1059  1.8036 -0.4391
  147MPD2     N 2295   2.376   4.153  12.431 -0.1009  0.2432 -0.7222
  147MPD2    H5 2296   2.305   4.176  12.499 -0.3090 -1.3136 -0.4329
  147MPD2    N1 2297   2.636   3.972  12.807 -0.2510  0.0221 -0.2973
  147MPD2    H7 2298   2.730   3.945  12.835 -0.7556 -0.4942  0.8985
  148TMC2    C1 2299   1.454   2.534  10.763  0.2245 -0.2208  0.0867
  148TMC2    C2 2300   1.442   2.635  10.851 -0.0905 -0.5191 -0.6646
  148TMC2    C3 2301   1.488   2.611  10.977  1.3376  0.0537 -0.1136
  148TMC2    C4 2302   1.494   2.409  10.801  0.3129 -0.2855  0.1054
  148TMC2    C5 2303   1.523   2.386  10.931 -0.1054  0.0515  0.1442
  148TMC2    C6 2304   1.528   2.491  11.020  0.0661 -0.0142  0.1551
  148TMC2     C 2305   1.404   2.557  10.630 -0.1582 -0.3258  0.3193
  148TMC2     O 2306   1.380   2.673  10.609  0.5230  0.9005 -0.5219
  148TMC2     H 2307   1.423   2.738  10.823  1.3561 -0.1140 -0.1946
  148TMC2    H1 2308   1.509   2.326  10.733 -0.7186 -1.6819  1.6012
  148TMC2    H2 2309   1.580   2.480  11.114 -1.1284 -2.1710  0.5548
  148TMC2    C7 2310   1.564   2.250  10.970 -0.2965 -0.2164  0.6458
  148TMC2    C8 2311   1.506   2.710  11.075 -0.2578 -0.1839  0.2547
  148TMC2    O1 2312   1.575   2.158  10.887 -0.5213  0.0781 -0.3164
  148TMC2    O2 2313   1.543   2.677  11.184 -0.4457  0.1958 -0.0999
  148TMC2    O5 2314   1.533   2.824  11.011  0.1212  0.3914  0.1540
  148TMC2    H5 2315   1.574   2.895  11.065 -0.9477  1.3611 -0.3189
  149MPD2     C 2316   1.366   2.566  10.328  0.5412 -0.5934  0.1166
  149MPD2    C1 2317   1.376   2.453  10.407 -0.2305 -0.6770  0.7329
  149MPD2    C2 2318   1.392   2.334  10.343 -0.1551  0.1458  0.0801
  149MPD2    C3 2319   1.388   2.322  10.211  0.0078 -0.2855  0.2330
  149MPD2    C4 2320   1.351   2.427  10.139  0.4279  0.2452  0.6178
  149MPD2    C5 2321   1.349   2.550  10.192 -0.8656  0.3147  0.5061
  149MPD2     H 2322   1.414   2.251  10.409  0.5841  0.0433 -0.2860
  149MPD2    H1 2323   1.322   2.419  10.035  2.0436  2.8216 -0.0437
  149MPD2    H2 2324   1.373   2.665  10.372 -1.9414 -0.7017  0.7526
  149MPD2    H3 2325   1.325   2.645  10.145 -1.6364 -0.2934 -0.3287
  149MPD2     N 2326   1.402   2.201  10.138  0.1646 -0.3565  0.4245
  149MPD2    H5 2327   1.384   2.218  10.039  0.0458 -0.2253  0.4682
  149MPD2    N1 2328   1.394   2.446  10.548 -0.3552  0.0026 -0.6200
  149MPD2    H7 2329   1.396   2.354  10.590  1.4546  1.2558  2.0799
  150TMC2    C1 2330   3.981   2.317  12.410  0.6988 -0.2970  0.2872
  150TMC2    C2 2331   3.917   2.390  12.308 -0.6052 -0.3415 -0.3456
  150TMC2    C3 2332   3.987   2.481  12.247 -0.3234  0.5807  0.1688
  150TMC2    C4 2333   4.111   2.336  12.441  0.0879  0.2512  0.0935
  150TMC2    C5 2334   4.186   2.426  12.365 -1.3724  0.3068 -0.6754
  150TMC2    C6 2335   4.127   2.490  12.260  0.1959  0.2615  0.4725
  150TMC2     C 2336   3.950   2.170  12.413  0.3474  0.3265  0.2570
  150TMC2     O 2337   4.048   2.094  12.419 -0.1783  0.5037  0.5998
  150TMC2     H 2338   3.817   2.362  12.277 -0.1380 -2.3564 -0.0758
  150TMC2    H1 2339   4.153   2.274  12.520 -0.2391  0.6948  0.6120
  150TMC2    H2 2340   4.179   2.574  12.215 -0.8913  0.1450 -1.0143
  150TMC2    C7 2341   4.329   2.424  12.361 -0.7257  0.0967 -0.3512
  150TMC2    C8 2342   3.930   2.541  12.132 -0.2787  0.4771 -0.5091
  150TMC2    O1 2343   4.391   2.500  12.289 -0.2487 -0.0761 -0.1246
  150TMC2    O2 2344   3.810   2.558  12.119  0.0027  0.1995 -0.1603
  150TMC2    O5 2345   4.025   2.599  12.052 -0.6191  0.0184 -0.1497
  150TMC2    H5 2346   4.115   2.563  12.067 -0.6997  0.3442  1.0531
  151MPD2     C 2347   3.657   1.766  12.284 -1.0926 -0.4204  0.6682
  151MPD2    C1 2348   3.576   1.876  12.274 -0.3609  0.0733 -0.4343
  151MPD2    C2 2349   3.630   2.003  12.322  0.3954 -0.1065 -0.0130
  151MPD2    C3 2350   3.760   2.010  12.365 -0.5907 -0.4766 -0.8194
  151MPD2    C4 2351   3.833   1.898  12.371  0.1484 -0.7727 -0.3450
  151MPD2    C5 2352   3.782   1.780  12.336 -0.4593  0.2744  0.0954
  151MPD2     H 2353   3.572   2.093  12.340  2.0539  0.5372  2.1292
  151MPD2    H1 2354   3.925   1.907  12.428 -0.4507 -1.1417  0.6955
  151MPD2    H2 2355   3.623   1.664  12.264 -0.4372 -0.4971 -0.0495
  151MPD2    H3 2356   3.843   1.691  12.351  0.2355  0.8879  0.9563
  151MPD2     N 2357   3.815   2.137  12.384 -0.0169 -0.3905  0.5932
  151MPD2    H5 2358   3.747   2.213  12.383 -0.4054 -0.7234  1.7189
  151MPD2    N1 2359   3.441   1.853  12.222  0.4596  0.0701  0.3183
  151MPD2    H7 2360   3.418   1.757  12.202 -0.5651  0.0600  1.5916
  152TMC2    C1 2361   3.706   1.757  12.659 -0.2631 -0.2372 -0.3476
  152TMC2    C2 2362   3.761   1.640  12.697  0.0329 -0.6745 -0.3128
  152TMC2    C3 2363   3.879   1.641  12.772  0.3565 -0.1026  0.2892
  152TMC2    C4 2364   3.772   1.878  12.677 -0.0692  0.2143  0.0973
  152TMC2    C5 2365   3.889   1.871  12.745 -0.3749 -0.1026  0.0270
  152TMC2    C6 2366   3.944   1.758  12.804  0.5037  0.0983  0.0593
  152TMC2     C 2367   3.558   1.773  12.655  0.6129 -0.3784 -0.3596
  152TMC2     O 2368   3.523   1.887  12.691  0.4652 -0.5237 -0.7533
  152TMC2     H 2369   3.694   1.555  12.691 -0.0276 -0.5807 -0.9667
  152TMC2    H1 2370   3.742   1.971  12.631 -1.2513 -0.8364 -1.2778
  152TMC2    H2 2371   4.032   1.757  12.868  0.0908 -2.1517  0.6162
  152TMC2    C7 2372   3.919   1.995  12.816  0.1713  0.6591 -1.1022
  152TMC2    C8 2373   3.895   1.525  12.862 -0.3596  0.9819 -0.4582
  152TMC2    O1 2374   3.829   2.054  12.875  0.2728 -0.1612 -0.0995
  152TMC2    O2 2375   3.947   1.546  12.970 -0.1125 -0.6696  0.4444
  152TMC2    O5 2376   3.919   1.427  12.776 -0.7496  0.1050 -0.5053
  152TMC2    H5 2377   3.907   1.459  12.684 -0.4812 -0.2701 -0.6723
  153MPD2     C 2378   3.313   1.572  12.473 -0.1001  0.4812  0.3278
  153MPD2    C1 2379   3.360   1.679  12.544  0.5566  0.3331  0.8129
  153MPD2    C2 2380   3.280   1.790  12.549 -0.7298 -0.5202  0.4014
  153MPD2    C3 2381   3.163   1.797  12.469  0.2635  0.3301 -0.1266
  153MPD2    C4 2382   3.117   1.685  12.411 -0.0814  0.1782  0.8403
  153MPD2    C5 2383   3.191   1.569  12.412 -0.1699 -0.4190 -0.3657
  153MPD2     H 2384   3.303   1.884  12.598 -1.0938  0.0223 -0.4722
  153MPD2    H1 2385   3.016   1.688  12.372 -0.8141 -1.5911  2.6760
  153MPD2    H2 2386   3.364   1.477  12.476  1.5271  1.2957 -1.4940
  153MPD2    H3 2387   3.136   1.484  12.373  0.2956 -0.3252 -1.2142
  153MPD2     N 2388   3.097   1.919  12.472  0.2016 -0.3767  0.0981
  153MPD2    H5 2389   3.133   2.001  12.518  1.9590  0.3701 -2.6314
  153MPD2    N1 2390   3.490   1.673  12.588 -0.0604 -0.1046 -0.1221
  153MPD2    H7 2391   3.546   1.589  12.576 -1.5165 -1.4546  2.5119
  154TMC2    C1 2392   0.094   2.553   0.704 -0.4397  0.2010 -0.0971
  154TMC2    C2 2393   0.198   2.481   0.763 -0.7986  0.0387  0.1610
  154TMC2    C3 2394   0.235   2.365   0.699 -0.4319  0.0723  0.0484
  154TMC2    C4 2395   0.045   2.522   0.577  0.0459  0.0863 -0.5645
  154TMC2    C5 2396   0.081   2.397   0.528 -0.2800  0.1698  0.8456
  154TMC2    C6 2397   0.177   2.317   0.589  0.3683 -0.2198  0.6021
  154TMC2     C 2398   0.037   2.660   0.786 -0.2803  0.2726 -0.1349
  154TMC2     O 2399   0.084   2.676   0.896  0.0752  0.2465  0.2881
  154TMC2     H 2400   0.245   2.500   0.859 -0.4153 -0.6656  0.1138
  154TMC2    H1 2401   4.700   2.581   0.535 -1.0212 -0.2794  0.9695
  154TMC2    H2 2402   0.201   2.218   0.551  1.6860  0.9730 -1.6905
  154TMC2    C7 2403   4.715   2.318   0.464 -0.3703 -0.0310  0.1394
  154TMC2    C8 2404   0.343   2.289   0.740 -0.4634 -0.1951 -0.0888
  154TMC2    O1 2405   4.696   2.206   0.514 -0.3772  0.2519  0.0469
  154TMC2    O2 2406   0.353   2.170   0.717 -0.6245 -0.3206 -0.0779
  154TMC2    O5 2407   0.446   2.369   0.764  0.3439 -0.1907 -0.5052
  154TMC2    H5 2408   0.423   2.464   0.765  0.8484 -0.0853  0.5227
  155MPD2     C 2409   4.468   2.851   0.778 -1.3889  0.6234 -0.2996
  155MPD2    C1 2410   4.600   2.833   0.805 -0.4613 -0.0606 -0.0193
  155MPD2    C2 2411   4.658   2.908   0.904 -0.2319  0.0228 -0.6837
  155MPD2    C3 2412   4.587   3.016   0.959  0.0413 -0.1653 -0.6708
  155MPD2    C4 2413   4.455   3.031   0.928 -0.1386  0.1032 -0.2032
  155MPD2    C5 2414   4.399   2.957   0.832  0.2706  0.2642  0.4135
  155MPD2     H 2415   0.023   2.897   0.942 -0.8285 -1.2789  0.5262
  155MPD2    H1 2416   4.392   3.106   0.975  0.9498  0.0290  1.3413
  155MPD2    H2 2417   4.421   2.792   0.700  0.0622  1.1637 -1.5864
  155MPD2    H3 2418   4.302   2.981   0.790  0.2158  0.1315  0.4661
  155MPD2     N 2419   4.652   3.098   1.054  0.9373  0.6713 -0.1407
  155MPD2    H5 2420   0.010   3.071   1.082  1.1002  0.8801 -0.4916
  155MPD2    N1 2421   4.668   2.726   0.738  0.1692 -0.7120  0.1536
  155MPD2    H7 2422   4.617   2.683   0.662  2.4277  3.7902 -3.9309
  156TMC2    C1 2423   4.297   4.228  11.331 -0.0329  0.3265 -0.7549
  156TMC2    C2 2424   4.208   4.128  11.301  0.0971  0.4368 -0.1082
  156TMC2    C3 2425   4.095   4.164  11.227 -0.4031 -0.0648 -0.1928
  156TMC2    C4 2426   4.260   4.360  11.314 -0.1065 -0.3394  0.0476
  156TMC2    C5 2427   4.132   4.390  11.272  0.1181 -0.5085  0.4148
  156TMC2    C6 2428   4.055   4.298  11.210  0.1719  0.8132 -0.9355
  156TMC2     C 2429   4.344   4.216  11.459  0.2847 -0.8058  0.1159
  156TMC2     O 2430   4.294   4.289  11.548  0.2682  0.9120 -0.6966
  156TMC2     H 2431   4.241   4.025  11.304 -1.3395 -0.1306 -3.3407
  156TMC2    H1 2432   4.317   4.432  11.372 -0.3191 -0.9811  1.0637
  156TMC2    H2 2433   3.963   4.327  11.161  0.4065  3.9414  0.4947
  156TMC2    C7 2434   4.073   4.505  11.331  0.2321 -0.1018  0.4912
  156TMC2    C8 2435   4.010   4.071  11.158 -0.3520 -0.1371  0.7691
  156TMC2    O1 2436   4.125   4.603  11.381  0.0339  0.1371  0.1589
  156TMC2    O2 2437   3.930   4.096  11.071  0.1831 -0.1383 -0.8728
  156TMC2    O5 2438   4.027   3.946  11.217 -0.9412  0.0781  0.5156
  156TMC2    H5 2439   4.070   3.956  11.304 -1.4557 -0.8194  0.8802
  157MPD2     C 2440   4.633   4.016  11.572  0.3981 -0.0163  0.0629
  157MPD2    C1 2441   4.512   4.083  11.585  0.2389  0.0087 -0.0579
  157MPD2    C2 2442   4.466   4.119  11.713  0.0083  0.2629 -0.8950
  157MPD2    C3 2443   4.554   4.113  11.824  0.1600  0.4904  0.2443
  157MPD2    C4 2444   4.679   4.059  11.806  0.5705 -0.4736  0.3300
  157MPD2    C5 2445   4.708   4.009  11.686 -0.1130  0.0380 -0.4862
  157MPD2     H 2446   4.366   4.159  11.726  0.3603  1.8598 -2.9724
  157MPD2    H1 2447   0.022   4.057  11.881 -0.8181  2.5167  1.9049
  157MPD2    H2 2448   4.671   3.990  11.474 -0.9968  1.5253 -0.9065
  157MPD2    H3 2449   0.076   3.983  11.670  0.6244  3.1539 -0.6889
  157MPD2     N 2450   4.510   4.153  11.954  0.0309  0.3689 -0.0152
  157MPD2    H5 2451   4.413   4.182  11.965 -0.6425 -1.5375 -0.7967
  157MPD2    N1 2452   4.439   4.110  11.471  0.2693 -0.2088 -0.0294
  157MPD2    H7 2453   4.474   4.076  11.382  2.4055 -1.1297  1.1643
  158TMC2    C1 2454   3.978   3.216  13.462  0.1566 -1.2171 -0.2985
  158TMC2    C2 2455   3.959   3.295  13.347  0.4345 -0.6045  0.2889
  158TMC2    C3 2456   3.833   3.324  13.320  1.0927 -0.2008  0.3186
  158TMC2    C4 2457   3.874   3.185  13.545 -0.5485 -0.5373 -0.4536
  158TMC2    C5 2458   3.749   3.220  13.504 -0.1757  0.2086  0.0474
  158TMC2    C6 2459   3.726   3.294  13.398  0.3094  0.8133  0.5326
  158TMC2     C 2460   4.114   3.186  13.489  0.1111 -0.1543  0.0777
  158TMC2     O 2461   4.195   3.209  13.402 -0.7436 -0.2251 -0.4589
  158TMC2     H 2462   4.038   3.306  13.273 -0.6571  2.4968 -0.4416
  158TMC2    H1 2463   3.890   3.121  13.631  2.3959  0.7424 -0.0566
  158TMC2    H2 2464   3.627   3.333  13.376 -0.7079 -1.4270  1.1331
  158TMC2    C7 2465   3.635   3.161  13.570  0.2182  0.1762 -0.1017
  158TMC2    C8 2466   3.802   3.411  13.209 -0.3827  0.2821 -0.1428
  158TMC2    O1 2467   3.530   3.176  13.504 -0.3525 -0.2852  0.3238
  158TMC2    O2 2468   3.693   3.443  13.167  0.5786  0.2131 -0.2354
  158TMC2    O5 2469   3.912   3.485  13.203  0.0474  0.1801  0.5860
  158TMC2    H5 2470   3.981   3.464  13.269 -0.1685  0.6943  0.9741
  159MPD2     C 2471   4.507   3.078  13.795  0.5484 -0.4718 -0.7478
  159MPD2    C1 2472   4.396   3.034  13.862 -0.4848 -0.0532  0.6280
  159MPD2    C2 2473   4.269   3.045  13.802  0.3976 -0.4027  0.0055
  159MPD2    C3 2474   4.261   3.104  13.668 -0.3663  0.3264 -0.6404
  159MPD2    C4 2475   4.374   3.165  13.618  0.5928  0.0904 -0.2832
  159MPD2    C5 2476   4.491   3.147  13.679  0.0871 -0.6985 -0.3296
  159MPD2     H 2477   4.179   3.009  13.851  0.2299 -0.6739 -0.5073
  159MPD2    H1 2478   4.378   3.230  13.531  1.8065 -2.1569 -1.9247
  159MPD2    H2 2479   4.605   3.073  13.840 -1.0279 -0.3311  2.7727
  159MPD2    H3 2480   4.566   3.200  13.622 -0.5250 -0.2769 -0.7356
  159MPD2     N 2481   4.137   3.132  13.612  0.3420 -0.1517 -0.1978
  159MPD2    H5 2482   4.063   3.103  13.676  0.7036 -0.4286  0.0951
  159MPD2    N1 2483   4.416   2.979  13.988  0.2619 -0.0966 -0.0737
  159MPD2    H7 2484   4.507   2.993  14.030  0.2924 -0.5438  0.0070
  160TMC2    C1 2485   3.493   1.374   1.646  0.4361 -0.1487  0.0713
  160TMC2    C2 2486   3.467   1.289   1.753  0.4527  0.0507 -0.4395
  160TMC2    C3 2487   3.553   1.303   1.855  0.3492  0.2952  0.2855
  160TMC2    C4 2488   3.588   1.474   1.642  0.1857 -0.1813 -0.4607
  160TMC2    C5 2489   3.673   1.486   1.749 -0.0127  0.6441 -0.0967
  160TMC2    C6 2490   3.653   1.398   1.853  0.1464  0.5492  0.6779
  160TMC2     C 2491   3.411   1.354   1.528 -0.3872 -0.6334 -0.2661
  160TMC2     O 2492   3.375   1.239   1.514 -0.0366 -0.3083 -0.3311
  160TMC2     H 2493   3.397   1.206   1.751 -1.1407  1.3372  1.5378
  160TMC2    H1 2494   3.589   1.536   1.553  0.0115 -1.9401 -1.6826
  160TMC2    H2 2495   3.729   1.393   1.931  2.0837  2.3675 -1.0831
  160TMC2    C7 2496   3.815   1.513   1.716 -0.1232  0.1060  0.1214
  160TMC2    C8 2497   3.582   1.208   1.962  0.3133 -0.0167 -0.7592
  160TMC2    O1 2498   3.896   1.476   1.801 -0.0193 -0.0109 -0.2015
  160TMC2    O2 2499   3.691   1.167   2.000  0.0041 -1.2143 -0.9150
  160TMC2    O5 2500   3.465   1.159   1.997 -0.2485 -0.1257 -0.1502
  160TMC2    H5 2501   3.396   1.228   1.984 -0.0888  0.1003  0.1917
  161MPD2     C 2502   3.240   1.365   1.268  0.4552 -0.1527 -0.3359
  161MPD2    C1 2503   3.298   1.472   1.337  0.6698  0.4814 -0.3751
  161MPD2    C2 2504   3.294   1.600   1.268  0.2557 -0.6083  0.2676
  161MPD2    C3 2505   3.240   1.621   1.141 -0.4449  0.4077  0.5443
  161MPD2    C4 2506   3.189   1.512   1.081 -0.3404 -0.0981 -0.1992
  161MPD2    C5 2507   3.180   1.395   1.143 -0.7261 -0.4478 -1.1139
  161MPD2     H 2508   3.346   1.679   1.319  0.5085 -0.3644 -0.3603
  161MPD2    H1 2509   3.139   1.511   0.985 -0.8293  0.4282  0.0535
  161MPD2    H2 2510   3.240   1.264   1.308 -0.1482 -0.1141 -0.2444
  161MPD2    H3 2511   3.138   1.310   1.090  2.5618  0.8890 -5.8495
  161MPD2     N 2512   3.245   1.741   1.066  0.8656  0.4696 -0.0196
  161MPD2    H5 2513   3.199   1.731   0.976 -0.6734 -1.4733  0.9840
  161MPD2    N1 2514   3.375   1.464   1.457 -0.3768 -0.1693 -0.3034
  161MPD2    H7 2515   3.398   1.556   1.495 -1.1570 -1.0705  2.3018
  162TMC2    C1 2516   1.776   3.722   1.181  0.5672 -0.3117  0.1949
  162TMC2    C2 2517   1.675   3.794   1.237 -0.1734 -0.7631 -0.0627
  162TMC2    C3 2518   1.688   3.809   1.373  0.0079  0.1933 -0.0681
  162TMC2    C4 2519   1.874   3.656   1.250 -0.2425  0.8342 -0.2497
  162TMC2    C5 2520   1.869   3.666   1.388  0.3709 -0.1202 -0.2599
  162TMC2    C6 2521   1.780   3.748   1.458 -0.2198  0.4311  0.0467
  162TMC2     C 2522   1.775   3.704   1.039 -0.1411 -0.1672  0.0989
  162TMC2     O 2523   1.880   3.657   0.991  0.5719 -0.3827  0.4596
  162TMC2     H 2524   1.609   3.863   1.185  0.0157  1.0098  2.0568
  162TMC2    H1 2525   1.926   3.577   1.198  0.3761 -0.3689  2.1900
  162TMC2    H2 2526   1.800   3.776   1.560 -1.7638 -0.8860  0.6978
  162TMC2    C7 2527   1.997   3.639   1.450 -0.4269 -0.1160  0.2840
  162TMC2    C8 2528   1.599   3.904   1.427 -0.0084  0.0040 -0.1997
  162TMC2    O1 2529   2.010   3.671   1.568 -0.4305 -0.2975 -0.2949
  162TMC2    O2 2530   1.533   3.983   1.356 -0.1607 -0.5682 -0.4747
  162TMC2    O5 2531   1.571   3.868   1.553  0.7376 -0.4978  0.2286
  162TMC2    H5 2532   1.620   3.787   1.579  0.4782 -0.3974  1.0305
  163MPD2     C 2533   1.554   3.744   0.567 -0.0353  0.3821 -0.1479
  163MPD2    C1 2534   1.681   3.706   0.602 -0.9767 -0.5647  0.3097
  163MPD2    C2 2535   1.720   3.710   0.741  0.2308 -0.6778  0.3493
  163MPD2    C3 2536   1.629   3.732   0.841  0.5184  0.1503  0.5502
  163MPD2    C4 2537   1.506   3.771   0.804 -0.0830  0.9973  0.3157
  163MPD2    C5 2538   1.471   3.774   0.674  0.4658  0.2003  0.4283
  163MPD2     H 2539   1.824   3.693   0.768  0.3578  0.1170  0.3539
  163MPD2    H1 2540   1.436   3.799   0.881 -1.4326  2.0092 -1.2916
  163MPD2    H2 2541   1.526   3.735   0.463  1.2709 -1.0046 -0.3754
  163MPD2    H3 2542   1.371   3.810   0.655  0.7661  0.1191 -1.3202
  163MPD2     N 2543   1.652   3.730   0.983  0.0333  0.1055 -0.2143
  163MPD2    H5 2544   1.579   3.762   1.046  0.6073 -0.8096  0.9147
  163MPD2    N1 2545   1.769   3.675   0.499 -0.3657  0.3021  0.5352
  163MPD2    H7 2546   1.745   3.699   0.403 -0.6966 -3.6410 -0.3725
  164TMC2    C1 2547   2.570   2.602  10.993 -0.9405  0.8756 -0.4612
  164TMC2    C2 2548   2.679   2.686  11.018  0.3198 -0.4306 -0.5410
  164TMC2    C3 2549   2.660   2.820  11.025 -0.3167  0.2768  0.5446
  164TMC2    C4 2550   2.438   2.643  10.997 -0.6675 -0.7807 -0.0624
  164TMC2    C5 2551   2.428   2.785  11.012 -0.2305  0.3647  0.4414
  164TMC2    C6 2552   2.532   2.869  11.018  0.1091  0.3033 -0.1386
  164TMC2     C 2553   2.588   2.464  10.966 -0.0166  0.2569 -0.2983
  164TMC2     O 2554   2.509   2.384  11.009 -0.4763 -0.6641 -0.2450
  164TMC2     H 2555   2.776   2.638  11.016  0.6329  0.2683 -1.9269
  164TMC2    H1 2556   2.366   2.564  10.979 -1.4857 -0.8373  3.4271
  164TMC2    H2 2557   2.513   2.975  11.034 -1.3784 -0.1616  1.0932
  164TMC2    C7 2558   2.302   2.843  11.059 -0.1212 -0.3780 -0.8701
  164TMC2    C8 2559   2.777   2.911  11.017 -0.9764  0.2850 -0.1426
  164TMC2    O1 2560   2.301   2.964  11.069  0.4673 -0.2408 -0.5151
  164TMC2    O2 2561   2.769   3.027  11.057 -0.5539 -0.7447 -0.1188
  164TMC2    O5 2562   2.841   2.866  10.911  0.4896  0.6457  0.3390
  164TMC2    H5 2563   2.817   2.784  10.865 -1.0040  1.0402  0.4197
  165TMC2    C1 2564   4.008   0.538   1.620  0.5339 -0.2997  0.1372
  165TMC2    C2 2565   4.128   0.493   1.666 -0.3675 -0.3756 -0.4403
  165TMC2    C3 2566   4.244   0.550   1.623 -0.5895  0.5209  0.0775
  165TMC2    C4 2567   4.006   0.647   1.535  0.0408 -0.3496  0.3457
  165TMC2    C5 2568   4.126   0.706   1.497 -0.8723  0.2845 -0.5741
  165TMC2    C6 2569   4.245   0.651   1.532  0.5814  0.9342  0.2220
  165TMC2     C 2570   3.892   0.477   1.686  0.5066  0.7089  0.1796
  165TMC2     O 2571   3.896   0.361   1.728 -0.0729  0.4218  0.0114
  165TMC2     H 2572   4.124   0.409   1.735 -1.4775 -0.0683 -0.1280
  165TMC2    H1 2573   3.915   0.674   1.483  0.4792  2.7594  1.1577
  165TMC2    H2 2574   4.342   0.682   1.496  0.0800  1.0703 -1.0312
  165TMC2    C7 2575   4.129   0.830   1.427  0.2747  0.3330 -0.3031
  165TMC2    C8 2576   4.349   0.457   1.619  0.4736  0.7972  0.4362
  165TMC2    O1 2577   4.220   0.845   1.348  0.2307  0.4678 -0.1961
  165TMC2    O2 2578   4.450   0.477   1.682 -0.3825  0.5391 -0.0348
  165TMC2    O5 2579   4.310   0.332   1.583  0.2909 -0.1559 -0.0979
  165TMC2    H5 2580   4.227   0.332   1.530  0.3364 -1.1803 -0.1797
  166MPD2     C 2581   3.387   0.480   1.818 -0.3673  0.4769 -0.4010
  166MPD2    C1 2582   3.478   0.378   1.806  0.0064  0.1700  0.0100
  166MPD2    C2 2583   3.603   0.406   1.761  0.8317 -0.5602  0.1994
  166MPD2    C3 2584   3.648   0.534   1.724 -0.1671  0.3408  0.1465
  166MPD2    C4 2585   3.554   0.630   1.726  0.4557  0.1885 -0.5180
  166MPD2    C5 2586   3.431   0.604   1.777 -0.5644  0.5417  0.5775
  166MPD2     H 2587   3.671   0.321   1.759  0.0768 -1.1605 -0.2762
  166MPD2    H1 2588   3.569   0.731   1.690  0.5771  0.3938  0.1075
  166MPD2    H2 2589   3.288   0.462   1.858 -1.0446  3.0969 -0.9047
  166MPD2    H3 2590   3.357   0.684   1.775  0.6164  1.6355 -0.0244
  166MPD2     N 2591   3.782   0.564   1.687 -0.1186  0.2418  0.2315
  166MPD2    H5 2592   3.809   0.661   1.680 -1.1285  0.4229 -0.9931
  166MPD2    N1 2593   3.435   0.248   1.852 -0.5950  0.4551 -0.0608
  166MPD2    H7 2594   3.345   0.244   1.900  0.4874  0.0747  1.9291
  167TMC2    C1 2595   1.977   3.360  12.602 -0.6542  0.1906 -0.0724
  167TMC2    C2 2596   2.109   3.397  12.597 -0.5126 -0.6706  0.1429
  167TMC2    C3 2597   2.204   3.296  12.593 -0.2890  0.2842 -0.1384
  167TMC2    C4 2598   1.936   3.231  12.608  0.0150  0.7058 -0.2582
  167TMC2    C5 2599   2.036   3.135  12.601 -0.5469 -0.2516  0.2696
  167TMC2    C6 2600   2.167   3.160  12.595 -0.2614  0.7126  0.3838
  167TMC2     C 2601   1.882   3.469  12.579  0.4340 -0.2333 -0.9243
  167TMC2     O 2602   1.922   3.582  12.597  0.1262  0.0090 -0.2118
  167TMC2     H 2603   2.137   3.502  12.601  0.6012 -0.9894  0.7331
  167TMC2    H1 2604   1.832   3.200  12.606 -0.1059  1.1299 -0.6073
  167TMC2    H2 2605   2.237   3.077  12.599  1.1657  1.8308 -1.3297
  167TMC2    C7 2606   1.996   2.997  12.615 -0.0957 -0.5297 -0.2317
  167TMC2    C8 2607   2.339   3.332  12.596 -0.4011 -0.3536  0.5039
  167TMC2    O1 2608   1.890   2.972  12.673 -0.1518 -0.4289  0.6970
  167TMC2    O2 2609   2.427   3.258  12.628 -0.5338  0.0962  0.0568
  167TMC2    O5 2610   2.359   3.441  12.521 -0.1957  0.5816 -0.2294
  167TMC2    H5 2611   2.276   3.472  12.480 -2.4642 -1.6655  2.6799
  168MPD2     C 2612   1.633   3.628  12.524 -0.1320 -0.1374  0.4759
  168MPD2    C1 2613   1.662   3.507  12.467  0.5075 -0.0747  0.0397
  168MPD2    C2 2614   1.583   3.462  12.363 -0.1379 -0.6271  0.0897
  168MPD2    C3 2615   1.472   3.528  12.315  0.2566 -0.1120 -0.4170
  168MPD2    C4 2616   1.449   3.647  12.370  0.3174 -0.4527  0.2432
  168MPD2    C5 2617   1.523   3.695  12.471 -0.2432 -0.3186 -0.9066
  168MPD2     H 2618   1.616   3.367  12.322  3.4273  0.9455 -0.6876
  168MPD2    H1 2619   1.379   3.713  12.320  1.5761  0.6884 -0.0174
  168MPD2    H2 2620   1.688   3.661  12.611  1.6162 -0.6612 -0.4329
  168MPD2    H3 2621   1.514   3.801  12.492 -0.7419 -0.1688 -1.8758
  168MPD2     N 2622   1.397   3.491  12.202 -0.4035  0.1234  0.3504
  168MPD2    H5 2623   1.330   3.556  12.162  1.7792  1.5497 -1.0342
  168MPD2    N1 2624   1.776   3.425  12.502  0.0001  0.4576  0.3994
  168MPD2    H7 2625   1.772   3.328  12.471 -1.5567  0.7279 -0.2223
  169MPD1     C 2626   3.537   1.870   8.541  0.2801  0.8631 -0.6043
  169MPD1    C1 2627   3.660   1.897   8.498  0.0533  0.3174  0.0796
  169MPD1    C2 2628   3.754   1.946   8.586  0.0306 -0.0271 -0.5152
  169MPD1    C3 2629   3.717   1.959   8.713 -0.3246 -0.1717  0.1928
  169MPD1    C4 2630   3.590   1.934   8.757 -0.8015  0.3031  0.5039
  169MPD1    C5 2631   3.503   1.878   8.671 -0.0374 -0.0071 -0.0324
  169MPD1     H 2632   3.854   1.969   8.554  0.8776  0.4185  2.4056
  169MPD1    H1 2633   3.566   1.939   8.862  0.6677  0.3516  0.8463
  169MPD1    H2 2634   3.453   1.844   8.477  0.6405 -0.4572 -0.5270
  169MPD1    H3 2635   3.402   1.864   8.706 -0.3409  1.1264 -0.4604
  169MPD1     N 2636   3.826   1.995   8.802  0.0983 -0.0054  0.4839
  169MPD1    H5 2637   3.916   2.011   8.758 -0.5869  2.7828  0.1302
  169MPD1    N1 2638   3.681   1.896   8.362 -0.0352 -0.3591  0.1864
  169MPD1    H6 2639   3.630   1.836   8.297  0.9872 -0.8708 -0.1459
  169MPD1    H7 2640   3.779   1.893   8.336 -0.1795  1.6666 -0.6343
  170MPD1     C 2641   2.580   0.147  12.190  1.0395  0.2381 -1.2972
  170MPD1    C1 2642   2.467   0.221  12.225  0.3508 -0.3956 -0.1219
  170MPD1    C2 2643   2.440   0.252  12.361  0.7558 -0.3270  0.9734
  170MPD1    C3 2644   2.527   0.205  12.461 -0.6656 -0.2228  0.4273
  170MPD1    C4 2645   2.632   0.123  12.428  1.0235 -0.7750 -0.4990
  170MPD1    C5 2646   2.656   0.092  12.293  0.1176  0.2677  0.1430
  170MPD1     H 2647   2.359   0.318  12.390 -1.8032 -0.7597 -5.1470
  170MPD1    H1 2648   2.706   0.094  12.501  0.9647 -1.6219 -0.7720
  170MPD1    H2 2649   2.608   0.130  12.087 -1.0198 -0.6356 -1.7116
  170MPD1    H3 2650   2.741   0.033  12.261  0.7750  1.1379  0.2914
  170MPD1     N 2651   2.494   0.238  12.594 -0.6784  0.0161 -0.1445
  170MPD1    H5 2652   2.409   0.290  12.607 -0.3985  0.8384 -1.6020
  170MPD1    N1 2653   2.398   0.286  12.117 -0.2980 -0.3114  0.1772
  170MPD1    H6 2654   2.404   0.239  12.028  1.3914  0.4438 -0.0953
  170MPD1    H7 2655   2.297   0.292  12.133 -0.1927  1.7638  0.1448
  171MPD1     C 2656   0.479   2.101  15.684 -0.3794 -0.0771 -0.0750
  171MPD1    C1 2657   0.463   2.028  15.799 -0.6166 -0.3152  0.4919
  171MPD1    C2 2658   0.573   1.957  15.844 -0.1762  0.0639 -0.1333
  171MPD1    C3 2659   0.697   1.974  15.786 -0.6400  0.2916 -0.0624
  171MPD1    C4 2660   0.711   2.055  15.674  0.2707  0.9112 -0.4333
  171MPD1    C5 2661   0.603   2.109  15.624  0.0386 -0.1639  1.2282
  171MPD1     H 2662   0.572   1.897  15.934 -1.0236  1.1764  0.5992
  171MPD1    H1 2663   0.801   2.051  15.614 -0.4724 -1.8473 -1.4038
  171MPD1    H2 2664   0.397   2.160  15.643 -1.1885 -0.8935  0.3596
  171MPD1    H3 2665   0.604   2.162  15.529 -3.1421 -0.0064  1.2697
  171MPD1     N 2666   0.817   1.902  15.829  0.4323  0.2085 -0.0515
  171MPD1    H5 2667   0.902   1.915  15.776 -0.1361 -0.2547 -1.0938
  171MPD1    N1 2668   0.338   2.014  15.859  0.3785  0.5410 -0.1848
  171MPD1    H6 2669   0.281   2.097  15.848 -2.0061 -1.4294 -2.8924
  171MPD1    H7 2670   0.326   1.982  15.955  0.0365  1.0068 -0.0737
  172MPD1     C 2671   4.566   0.739   0.283  0.5805  0.8275 -0.8155
  172MPD1    C1 2672   4.547   0.843   0.370  0.2008 -0.0987 -0.4266
  172MPD1    C2 2673   4.646   0.946   0.373  1.1691  0.7662 -0.1215
  172MPD1    C3 2674   0.036   0.939   0.312 -0.5597 -0.2896  0.3846
  172MPD1    C4 2675   0.056   0.820   0.233  0.1244 -0.0121  0.1169
  172MPD1    C5 2676   4.691   0.726   0.225  0.4350 -0.3782 -0.1578
  172MPD1     H 2677   4.619   1.029   0.437 -0.0156  1.1346 -1.0970
  172MPD1    H1 2678   0.148   0.803   0.178 -0.1916 -1.3594 -0.0072
  172MPD1    H2 2679   4.489   0.665   0.264  1.3920  0.4570 -2.6555
  172MPD1    H3 2680   4.718   0.639   0.166 -2.1568 -1.2077 -0.1221
  172MPD1     N 2681   0.143   1.023   0.336  0.6573  0.5407 -0.7754
  172MPD1    H5 2682   0.219   1.005   0.270 -0.3527 -1.6457 -1.3237
  172MPD1    N1 2683   4.420   0.868   0.415  0.4356 -0.0442  0.1135
  172MPD1    H6 2684   4.372   0.780   0.430 -0.2774  0.1256 -1.1293
  172MPD1    H7 2685   4.415   0.926   0.499  0.2238 -0.8614  0.6583
  173MPD1     C 2686   1.463   1.246  13.517  0.1808  0.5503  0.0304
  173MPD1    C1 2687   1.364   1.234  13.612  0.3873  0.1587  0.2372
  173MPD1    C2 2688   1.386   1.129  13.703  0.0527 -0.7125  0.4582
  173MPD1    C3 2689   1.508   1.063  13.714 -0.2887 -0.1555  0.3360
  173MPD1    C4 2690   1.610   1.092  13.627  0.2633 -0.1403  0.4767
  173MPD1    C5 2691   1.582   1.178  13.523  0.0069  0.1759 -0.4340
  173MPD1     H 2692   1.305   1.106  13.772 -1.2727  1.8551 -0.2484
  173MPD1    H1 2693   1.713   1.057  13.627  0.3800  0.1954  0.7843
  173MPD1    H2 2694   1.449   1.315  13.435 -2.5144 -2.1392 -1.7685
  173MPD1    H3 2695   1.661   1.194  13.450  0.5420 -1.3851 -0.1923
  173MPD1     N 2696   1.523   0.969  13.826  0.0455  0.1986  0.2834
  173MPD1    H5 2697   1.461   0.967  13.907 -0.2550  1.9707  0.1083
  173MPD1    N1 2698   1.242   1.294  13.600 -0.1086 -0.1053 -0.4049
  173MPD1    H6 2699   1.193   1.330  13.682 -0.7389 -0.4550 -0.6276
  173MPD1    H7 2700   1.259   1.382  13.552  0.0655  0.2094  0.2240
  174MPD1     C 2701   2.163   0.183  13.852  0.1861  0.0370  0.0963
  174MPD1    C1 2702   2.111   0.181  13.979 -0.4141 -0.4419  0.6229
  174MPD1    C2 2703   2.053   0.297  14.016 -0.0329  0.7827 -0.3131
  174MPD1    C3 2704   1.995   0.382  13.917  0.2729  0.3357  0.7576
  174MPD1    C4 2705   2.027   0.360  13.786  0.2223  0.0457 -0.2300
  174MPD1    C5 2706   2.118   0.270  13.757 -0.2828 -0.2090 -0.8187
  174MPD1     H 2707   2.022   0.307  14.119 -2.4676  1.8379 -1.1599
  174MPD1    H1 2708   1.998   0.430  13.708 -0.2930  1.7051  1.4531
  174MPD1    H2 2709   2.239   0.115  13.814  0.6777  0.5623  0.1441
  174MPD1    H3 2710   2.146   0.263  13.652  1.0656  2.7630 -0.6639
  174MPD1     N 2711   1.912   0.495  13.945 -0.0273 -0.1322  0.1802
  174MPD1    H5 2712   1.888   0.546  13.860 -0.6225 -2.0799 -0.8022
  174MPD1    N1 2713   2.179   0.103  14.073 -0.2833  0.3359 -0.2575
  174MPD1    H6 2714   2.207   0.011  14.039 -0.6085  0.9135 -2.1125
  174MPD1    H7 2715   2.127   0.098  14.160 -1.1601 -1.6925 -0.9016
  175MPD1     C 2716   4.407   2.686  15.497 -0.3553 -0.1907 -0.2357
  175MPD1    C1 2717   4.528   2.632  15.521  0.6445 -0.1284 -0.6587
  175MPD1    C2 2718   4.538   2.552  15.637  0.4877  0.3086  0.3549
  175MPD1    C3 2719   4.429   2.533  15.716 -0.1930 -0.0903  0.3662
  175MPD1    C4 2720   4.309   2.589  15.686 -1.0794  0.3705 -1.2705
  175MPD1    C5 2721   4.299   2.666  15.578  0.0252 -0.9474  0.1897
  175MPD1     H 2722   4.634   2.505  15.654  1.5684  2.3952  0.0112
  175MPD1    H1 2723   4.218   2.569  15.742 -1.0507  0.2117 -1.2808
  175MPD1    H2 2724   4.396   2.764  15.422  2.2167 -0.2769 -0.7018
  175MPD1    H3 2725   4.209   2.722  15.557  0.5126  0.0447  0.7419
  175MPD1     N 2726   4.431   2.451  15.831  0.4130  0.0653 -0.2489
  175MPD1    H5 2727   4.351   2.457  15.894  0.2008  2.1286 -0.7148
  175MPD1    N1 2728   4.642   2.669  15.445 -0.4884 -0.1707  0.1058
  175MPD1    H6 2729   4.611   2.692  15.351  3.3093 -0.3723 -1.2195
  175MPD1    H7 2730   4.712   2.595  15.436  0.7220  0.7077  2.3361
  176MPD1     C 2731   1.731   4.025   0.363 -0.0013 -0.5801 -0.1235
  176MPD1    C1 2732   1.614   4.075   0.323 -0.1680 -0.5093 -0.3558
  176MPD1    C2 2733   1.613   4.133   0.194  0.8352 -0.0171 -0.9607
  176MPD1    C3 2734   1.728   4.144   0.114  0.1240 -0.2169 -0.9092
  176MPD1    C4 2735   1.848   4.091   0.162  0.2983 -0.3927  0.4739
  176MPD1    C5 2736   1.844   4.035   0.287 -0.3534 -0.8652 -0.2256
  176MPD1     H 2737   1.520   4.182   0.166  0.5255  0.1504  0.3272
  176MPD1    H1 2738   1.942   4.093   0.108  0.4437 -2.2762  0.6475
  176MPD1    H2 2739   1.750   3.967   0.453  0.4696 -2.2639 -1.3107
  176MPD1    H3 2740   1.932   3.982   0.321  0.4882  0.6271 -0.0742
  176MPD1     N 2741   1.716   4.198  17.721 -0.0962  0.1020 -0.0321
  176MPD1    H5 2742   1.619   4.217  17.696  0.5725  1.0391 -1.9365
  176MPD1    N1 2743   1.498   4.058   0.398  0.0880 -0.0326 -0.0031
  176MPD1    H6 2744   1.429   4.132   0.386  1.1100  0.5883 -1.9500
  176MPD1    H7 2745   1.514   4.039   0.497 -1.6678 -1.6175 -0.0307
  177MPD1     C 2746   0.565   4.128   9.130 -0.5439  0.6226  0.2017
  177MPD1    C1 2747   0.437   4.157   9.174 -0.2700  0.1655 -0.1195
  177MPD1    C2 2748   0.354   4.060   9.217 -0.3584  0.5068 -1.1014
  177MPD1    C3 2749   0.402   3.928   9.214 -0.0378  0.4434 -0.1603
  177MPD1    C4 2750   0.534   3.900   9.187 -0.2661 -0.4571  0.1976
  177MPD1    C5 2751   0.613   4.000   9.144 -0.5698 -0.0333 -0.3368
  177MPD1     H 2752   0.252   4.089   9.238 -0.6316  0.2459 -2.0465
  177MPD1    H1 2753   0.579   3.802   9.195 -1.1162 -0.9470 -1.0993
  177MPD1    H2 2754   0.635   4.210   9.112 -2.3781  1.4902 -2.9628
  177MPD1    H3 2755   0.721   3.987   9.137 -0.4090  0.3580  1.2135
  177MPD1     N 2756   0.308   3.823   9.243 -0.1418 -0.1234  0.1453
  177MPD1    H5 2757   0.217   3.856   9.271 -0.7912  0.4927 -2.6368
  177MPD1    N1 2758   0.378   4.286   9.155  0.0967  0.4030 -0.1500
  177MPD1    H6 2759   0.440   4.366   9.161 -0.1111  0.7741 -3.0174
  177MPD1    H7 2760   0.286   4.294   9.196 -0.0337  1.1213 -0.5819
  178MPD1     C 2761   2.604   4.283   0.280 -0.0668  0.0748 -0.4864
  178MPD1    C1 2762   2.733   4.275   0.232 -0.9886 -0.6699  0.5055
  178MPD1    C2 2763   2.776   4.377   0.146  0.0498 -0.4662 -0.8938
  178MPD1    C3 2764   2.674   4.466   0.096 -0.1882  0.4566  0.2785
  178MPD1    C4 2765   2.540   4.464   0.136 -0.2962  0.1045  0.0539
  178MPD1    C5 2766   2.508   4.365   0.222 -0.0263  0.1425  1.0080
  178MPD1     H 2767   2.880   4.385   0.114 -0.0019  0.4620 -0.8369
  178MPD1    H1 2768   2.464   4.534   0.104  1.6124  1.0845 -2.3324
  178MPD1    H2 2769   2.562   4.228   0.363 -2.1759 -1.7387 -2.7905
  178MPD1    H3 2770   2.405   4.355   0.252 -0.5376  0.9198 -0.4906
  178MPD1     N 2771   2.709   4.568   0.006 -0.2078  0.4688 -0.1440
  178MPD1    H5 2772   2.632   4.598  17.689 -0.4130 -0.9870 -0.6051
  178MPD1    N1 2773   2.836   4.193   0.290 -0.3225  0.5730  0.2280
  178MPD1    H6 2774   2.804   4.101   0.318 -0.6408  0.8775  0.8642
  178MPD1    H7 2775   2.924   4.188   0.238 -0.3191  0.6554  0.2259
  179MPD1     C 2776   2.489   3.110  15.116 -0.7942 -0.4035  0.3473
  179MPD1    C1 2777   2.374   3.058  15.066  0.2095  0.0499  0.0464
  179MPD1    C2 2778   2.297   2.982  15.154 -0.8511  0.0078  0.2375
  179MPD1    C3 2779   2.316   2.966  15.285 -0.2570  0.4569  0.0140
  179MPD1    C4 2780   2.427   3.035  15.336 -0.6537  0.3450 -0.6687
  179MPD1    C5 2781   2.512   3.099  15.249  0.1259 -0.1276 -0.0883
  179MPD1     H 2782   2.213   2.935  15.104 -0.4699  1.1178 -1.4379
  179MPD1    H1 2783   2.452   3.024  15.441  0.3523  2.3791 -0.6921
  179MPD1    H2 2784   2.565   3.150  15.049  0.9377 -0.6910  2.1513
  179MPD1    H3 2785   2.594   3.149  15.300 -1.1686  0.3189  1.5782
  179MPD1     N 2786   2.230   2.885  15.363 -0.1670 -0.5453 -0.0677
  179MPD1    H5 2787   2.252   2.878  15.462  0.4752 -0.2780 -0.1919
  179MPD1    N1 2788   2.364   3.038  14.927 -0.7351 -0.4773  0.7454
  179MPD1    H6 2789   2.271   3.024  14.888 -0.6039  0.6963  0.0122
  179MPD1    H7 2790   2.403   3.118  14.879 -0.1573 -0.6029  0.9943
  180MPD1     C 2791   1.864   4.535  14.747 -0.8794  0.1604  0.1294
  180MPD1    C1 2792   1.972   4.488  14.678  0.4514  0.2270  0.5068
  180MPD1    C2 2793   1.960   4.376  14.600 -0.1194  0.3113 -0.6900
  180MPD1    C3 2794   1.834   4.318  14.584 -0.7417 -0.0002  0.0430
  180MPD1    C4 2795   1.728   4.379  14.647  0.1732  0.4192  0.6612
  180MPD1    C5 2796   1.739   4.482  14.732 -0.2133  0.1761  0.4695
  180MPD1     H 2797   2.052   4.333  14.561 -0.0105  0.8047 -0.9862
  180MPD1    H1 2798   1.631   4.331  14.643  0.2998  0.1619  0.7141
  180MPD1    H2 2799   1.885   4.618  14.813 -2.0021 -0.4185  1.2093
  180MPD1    H3 2800   1.653   4.505  14.793  0.1755 -1.6890  1.7450
  180MPD1     N 2801   1.825   4.196  14.510  0.7949  0.7544  0.0846
  180MPD1    H5 2802   1.910   4.153  14.476  0.6431 -0.9004  1.7938
  180MPD1    N1 2803   2.100   4.547  14.700 -0.2761  0.6634 -0.1566
  180MPD1    H6 2804   2.151   4.555  14.612  1.0089  0.9928  0.6101
  180MPD1    H7 2805   2.092   4.642  14.736  0.5320  1.0819 -1.0758
  181MPD1     C 2806   3.359   1.639   8.961  0.6862  0.2878  0.0142
  181MPD1    C1 2807   3.397   1.504   8.930  0.3354  0.3025  0.1245
  181MPD1    C2 2808   3.522   1.460   8.960 -0.2770  0.1764 -0.0069
  181MPD1    C3 2809   3.608   1.551   9.026  0.3211  0.7528  0.6166
  181MPD1    C4 2810   3.571   1.675   9.058  0.2686 -0.3103 -0.3901
  181MPD1    C5 2811   3.444   1.719   9.031  0.5537  0.5102  1.1800
  181MPD1     H 2812   3.552   1.357   8.941 -2.4716 -0.4685  0.1001
  181MPD1    H1 2813   3.647   1.741   9.099 -2.1334 -0.4377  4.3529
  181MPD1    H2 2814   3.258   1.676   8.942  0.4398 -0.9227 -1.0429
  181MPD1    H3 2815   3.420   1.824   9.025  2.5512  0.8571 -0.8265
  181MPD1     N 2816   3.735   1.512   9.075  0.1287 -0.3240  0.0855
  181MPD1    H5 2817   3.798   1.579   9.119 -1.2046  1.2783 -0.4499
  181MPD1    N1 2818   3.315   1.418   8.861 -0.1484  0.3592 -0.0277
  181MPD1    H6 2819   3.333   1.318   8.873  0.2814  0.2637 -1.4380
  181MPD1    H7 2820   3.214   1.426   8.870 -0.4292 -2.9599 -0.1654
  182MPD1     C 2821   0.136   0.271   1.501  0.0045  0.5993  0.6018
  182MPD1    C1 2822   0.118   0.205   1.381  0.3331  0.2271 -0.3834
  182MPD1    C2 2823   0.016   0.255   1.294 -0.6408 -0.3544  0.4309
  182MPD1    C3 2824   4.673   0.361   1.323  0.0927  0.3280  0.1222
  182MPD1    C4 2825   4.701   0.427   1.435 -0.2952 -0.9760  0.1194
  182MPD1    C5 2826   0.066   0.385   1.520 -0.1369 -0.2123  0.1265
  182MPD1     H 2827   0.009   0.214   1.195  0.4299  0.1592  0.1433
  182MPD1    H1 2828   4.649   0.519   1.460  0.2662 -0.7407  0.4370
  182MPD1    H2 2829   0.204   0.229   1.575 -0.1629 -0.0239  0.4041
  182MPD1    H3 2830   0.090   0.443   1.609 -0.6808  0.9996 -0.5118
  182MPD1     N 2831   4.558   0.397   1.254  0.0563  0.0077 -0.1207
  182MPD1    H5 2832   4.523   0.491   1.269  0.4699  0.3077 -1.0088
  182MPD1    N1 2833   0.211   0.121   1.324  0.0790 -0.0385 -0.0644
  182MPD1    H6 2834   0.169   0.058   1.256 -1.7466  0.2178  0.8477
  182MPD1    H7 2835   0.273   0.067   1.385 -0.4027 -0.3657  0.1321
  183MPD1     C 2836   0.931   0.816  10.248  0.4644  0.2153  0.1331
  183MPD1    C1 2837   0.799   0.861  10.255  0.0516 -0.2082  0.3609
  183MPD1    C2 2838   0.703   0.790  10.187  0.3715 -0.1618 -0.4214
  183MPD1    C3 2839   0.749   0.690  10.097 -0.0518 -0.1022 -0.0727
  183MPD1    C4 2840   0.883   0.663  10.086 -0.1531 -0.0264 -0.7050
  183MPD1    C5 2841   0.971   0.718  10.167 -0.5327 -0.6818  0.3530
  183MPD1     H 2842   0.597   0.796  10.206  0.6366 -0.0205  0.9850
  183MPD1    H1 2843   0.925   0.585  10.024 -0.4010 -0.5263 -0.2403
  183MPD1    H2 2844   1.004   0.860  10.315  0.7291 -1.7911  1.1394
  183MPD1    H3 2845   1.077   0.697  10.174 -0.2215  0.4801 -0.7768
  183MPD1     N 2846   0.654   0.632  10.007 -0.0425  0.2243 -0.1785
  183MPD1    H5 2847   0.563   0.676   9.997  0.7696  1.9704  0.2692
  183MPD1    N1 2848   0.759   0.961  10.354  0.5324  0.4612  0.1395
  183MPD1    H6 2849   0.833   1.030  10.367 -0.6256  1.8062 -0.4273
  183MPD1    H7 2850   0.672   1.011  10.339 -0.5296 -1.7460 -1.0332
  184MPD1     C 2851   4.395   2.733  10.194 -0.3079  0.0367  0.2104
  184MPD1    C1 2852   4.516   2.794  10.161 -0.1877  0.9254  0.0172
  184MPD1    C2 2853   4.509   2.920  10.107  0.3810  0.5166  0.4315
  184MPD1    C3 2854   4.394   3.000  10.093  0.5930 -1.0426  0.1139
  184MPD1    C4 2855   4.282   2.934  10.132 -0.7076  0.6330 -0.1725
  184MPD1    C5 2856   4.278   2.807  10.178  0.3435 -0.9379  0.6580
  184MPD1     H 2857   4.601   2.971  10.080  1.1549 -1.8400 -1.2793
  184MPD1    H1 2858   4.189   2.983  10.108 -0.0565  1.8136 -0.2729
  184MPD1    H2 2859   4.390   2.631  10.230  0.6567 -0.9042 -2.2943
  184MPD1    H3 2860   4.177   2.780  10.204 -0.4686  1.0257 -0.5080
  184MPD1     N 2861   4.393   3.138  10.058 -0.1107 -0.3949 -0.2543
  184MPD1    H5 2862   4.308   3.194  10.057 -0.4996 -0.9878 -0.6839
  184MPD1    N1 2863   4.640   2.728  10.150 -0.2384 -0.1999 -0.0756
  184MPD1    H6 2864   4.670   2.659  10.218 -1.1150 -1.2956 -0.8010
  184MPD1    H7 2865   4.711   2.800  10.163  0.0189 -0.4893  0.1153
  185MPD1     C 2866   3.745   3.660   9.917 -0.1538 -0.9011  0.2324
  185MPD1    C1 2867   3.854   3.739   9.871  0.2585  0.9273 -0.5135
  185MPD1    C2 2868   3.978   3.685   9.860 -0.1829  0.8466 -0.3110
  185MPD1    C3 2869   4.000   3.554   9.886  0.1298 -0.9602 -0.2930
  185MPD1    C4 2870   3.895   3.470   9.914  0.7470 -0.2379 -0.4985
  185MPD1    C5 2871   3.768   3.522   9.921  0.4239 -0.3418 -1.0673
  185MPD1     H 2872   4.058   3.750   9.826  0.8073 -1.4764 -2.4434
  185MPD1    H1 2873   3.903   3.367   9.944  3.6416  0.0500 -0.2683
  185MPD1    H2 2874   3.650   3.705   9.946 -0.5583 -0.0095 -2.4311
  185MPD1    H3 2875   3.691   3.458   9.963  1.0496 -1.6662 -1.9502
  185MPD1     N 2876   4.130   3.499   9.889 -0.0310  0.3814  0.0589
  185MPD1    H5 2877   4.144   3.399   9.902 -0.4870  0.2268 -0.6080
  185MPD1    N1 2878   3.843   3.881   9.858 -0.1327  0.4635  0.0225
  185MPD1    H6 2879   3.898   3.918   9.781  1.5110  0.4318  1.1742
  185MPD1    H7 2880   3.748   3.905   9.832  0.0836  1.8153  0.4767
  186MPD1     C 2881   3.138   3.049  15.848 -0.1844 -0.1131  0.7077
  186MPD1    C1 2882   3.066   2.958  15.924 -0.3445  0.5964 -0.2285
  186MPD1    C2 2883   3.021   3.001  16.049  0.6744 -0.4362 -0.2384
  186MPD1    C3 2884   3.057   3.128  16.094  0.2085  0.1584 -0.3453
  186MPD1    C4 2885   3.118   3.215  16.011  0.1654 -0.2425  0.3175
  186MPD1    C5 2886   3.156   3.180  15.890  0.3937  0.8562  0.6787
  186MPD1     H 2887   2.977   2.936  16.123  1.6238 -2.6066 -1.5822
  186MPD1    H1 2888   3.132   3.318  16.042 -0.6140 -0.8184  2.5510
  186MPD1    H2 2889   3.178   3.012  15.755 -3.1876  1.0547 -1.0531
  186MPD1    H3 2890   3.212   3.246  15.824 -1.5843  0.0462 -1.8065
  186MPD1     N 2891   3.007   3.177  16.223  0.9624  0.6779 -0.7180
  186MPD1    H5 2892   3.045   3.263  16.260  3.0565  0.6778 -2.8827
  186MPD1    N1 2893   3.044   2.820  15.882  0.5330 -0.2739  0.2793
  186MPD1    H6 2894   2.966   2.774  15.929  1.2687 -0.2191  1.5575
  186MPD1    H7 2895   3.020   2.814  15.783  1.4732  1.1654 -0.0348
  187MPD1     C 2896   1.923   0.238   0.419 -0.7832 -0.5177 -0.4242
  187MPD1    C1 2897   1.896   0.124   0.344  0.4541 -0.6941  0.1513
  187MPD1    C2 2898   1.893   0.143   0.206  0.5863  0.1747  0.6721
  187MPD1    C3 2899   1.958   0.245   0.144  0.4320 -0.1392  0.2642
  187MPD1    C4 2900   2.002   0.350   0.220  0.3723  0.8987 -0.0021
  187MPD1    C5 2901   1.971   0.346   0.354 -0.2848  0.1906  0.3358
  187MPD1     H 2902   1.858   0.059   0.147  0.6013  1.0593 -0.5742
  187MPD1    H1 2903   2.062   0.435   0.188 -0.9612  2.0314  0.4936
  187MPD1    H2 2904   1.896   0.240   0.524  1.2614 -1.0611  0.1085
  187MPD1    H3 2905   2.011   0.427   0.414 -1.6101 -1.5108  3.4681
  187MPD1     N 2906   1.954   0.262   0.003  0.1525  0.7429  0.3989
  187MPD1    H5 2907   1.998   0.348  17.713  2.9677 -0.7638  0.1646
  187MPD1    N1 2908   1.825   0.020   0.405  0.0254 -0.3191 -0.2223
  187MPD1    H6 2909   1.854   4.731   0.500 -2.4390  0.8720  0.8621
  187MPD1    H7 2910   1.834   4.671   0.351  0.4816  0.2582 -1.0549
  188MPD1     C 2911   1.605   3.837  10.943  0.1762  0.5688  0.7372
  188MPD1    C1 2912   1.507   3.783  10.862  0.2812  0.4979 -0.5643
  188MPD1    C2 2913   1.541   3.684  10.770 -0.6553  0.5691  0.7097
  188MPD1    C3 2914   1.676   3.656  10.751 -0.8372 -0.5733  0.3099
  188MPD1    C4 2915   1.768   3.702  10.835  0.1317 -1.2328 -0.0467
  188MPD1    C5 2916   1.728   3.782  10.937 -0.2053 -0.2973  0.2340
  188MPD1     H 2917   1.463   3.650  10.703  1.2016  0.4493 -1.3894
  188MPD1    H1 2918   1.872   3.685  10.808  1.0827  2.4915  1.3494
  188MPD1    H2 2919   1.583   3.903  11.027 -0.3433  0.2607  0.8434
  188MPD1    H3 2920   1.801   3.824  11.005 -0.4548  1.1577 -0.3752
  188MPD1     N 2921   1.719   3.566  10.658  0.0908  0.3162  0.1937
  188MPD1    H5 2922   1.807   3.519  10.680  0.3890  0.6554 -0.2739
  188MPD1    N1 2923   1.375   3.833  10.882 -0.0948  0.3268 -0.0780
  188MPD1    H6 2924   1.357   3.877  10.973  1.3778 -0.9402  0.8076
  188MPD1    H7 2925   1.311   3.755  10.868 -1.3855  0.9452  2.3112
  189MPD1     C 2926   3.465   0.923   0.585  0.3858 -0.2905 -0.8276
  189MPD1    C1 2927   3.397   0.861   0.486 -0.3893  0.9092  0.0277
  189MPD1    C2 2928   3.327   0.948   0.401  0.0956 -0.0632 -0.4423
  189MPD1    C3 2929   3.323   1.090   0.414  0.3340  0.5514 -0.1953
  189MPD1    C4 2930   3.401   1.140   0.510 -0.3847 -0.0430 -0.6782
  189MPD1    C5 2931   3.468   1.058   0.599  0.3152 -0.1375  0.0522
  189MPD1     H 2932   3.269   0.894   0.327  0.9754  0.4946 -1.5375
  189MPD1    H1 2933   3.411   1.244   0.540 -0.6172 -0.7878  2.0081
  189MPD1    H2 2934   3.525   0.864   0.653  1.2174  0.9056 -0.5187
  189MPD1    H3 2935   3.524   1.106   0.678  2.8676  0.0162 -1.8494
  189MPD1     N 2936   3.235   1.163   0.326 -0.8062  1.1165 -0.2479
  189MPD1    H5 2937   3.165   1.114   0.272 -0.1497 -0.0293 -0.0744
  189MPD1    N1 2938   3.374   0.725   0.499  1.0122 -0.0333 -0.1722
  189MPD1    H6 2939   3.450   0.678   0.546  2.0872  1.1352 -0.7512
  189MPD1    H7 2940   3.348   0.677   0.413 -1.3311 -1.8470  1.5443
  190MPD1     C 2941   2.218   0.120  15.270 -0.6026 -0.3811 -0.2782
  190MPD1    C1 2942   2.339   0.066  15.232 -0.3417  0.4205  0.2217
  190MPD1    C2 2943   2.400   4.724  15.329  0.0247  0.0854 -0.2341
  190MPD1    C3 2944   2.341   4.679  15.441  0.3260  0.0225  0.7113
  190MPD1    C4 2945   2.209   4.722  15.465  0.1996  0.6383 -0.1569
  190MPD1    C5 2946   2.155   0.079  15.386  0.7685  0.6395 -0.0122
  190MPD1     H 2947   2.505   4.702  15.309 -0.1734 -0.3653 -0.7827
  190MPD1    H1 2948   2.149   4.701  15.553  1.2637  0.7210  0.5821
  190MPD1    H2 2949   2.155   0.193  15.222 -0.3883  1.2050  1.8791
  190MPD1    H3 2950   2.055   0.113  15.411 -0.2254 -2.6286  0.4934
  190MPD1     N 2951   2.421   4.593  15.533 -0.5290  1.0010  0.0889
  190MPD1    H5 2952   2.517   4.574  15.505 -0.4970 -0.0298  0.9069
  190MPD1    N1 2953   2.406   0.124  15.126  0.4079  0.4765  0.0138
  190MPD1    H6 2954   2.336   0.154  15.059 -0.6949  1.6897  1.7043
  190MPD1    H7 2955   2.479   0.069  15.080  0.1070 -1.7739  2.2055
  191MPD1     C 2956   1.409   0.836  12.032 -0.5160  0.3413  0.4836
  191MPD1    C1 2957   1.522   0.851  12.107  0.8029 -0.0405 -0.0991
  191MPD1    C2 2958   1.614   0.941  12.061 -0.6793 -0.6328  0.4178
  191MPD1    C3 2959   1.617   0.998  11.936  0.1478 -0.1083  0.1502
  191MPD1    C4 2960   1.490   0.991  11.870  0.0923 -0.0078 -0.1523
  191MPD1    C5 2961   1.390   0.915  11.920 -0.4754  0.2417 -0.7865
  191MPD1     H 2962   1.699   0.955  12.127  1.3960 -2.0701 -1.9607
  191MPD1    H1 2963   1.474   1.038  11.774 -0.7937 -0.3572 -0.1770
  191MPD1    H2 2964   1.338   0.763  12.071 -0.2550 -0.2365 -0.1298
  191MPD1    H3 2965   1.301   0.915  11.859 -0.1449 -1.3061 -1.2555
  191MPD1     N 2966   1.727   1.065  11.890  0.2081 -0.5013 -0.0425
  191MPD1    H5 2967   1.803   1.081  11.956  1.4415 -1.1782 -1.2958
  191MPD1    N1 2968   1.536   0.778  12.224 -0.2335  0.1087 -0.0727
  191MPD1    H6 2969   1.633   0.746  12.228  0.4878  2.3478  0.5567
  191MPD1    H7 2970   1.480   0.694  12.240  1.8280 -0.9998  1.3738
  192MPD1     C 2971   2.006   1.281  10.912  0.0979 -0.1466 -0.3644
  192MPD1    C1 2972   2.033   1.386  10.987  0.6419  0.8281 -0.1941
  192MPD1    C2 2973   2.004   1.378  11.122 -0.2542  0.0071 -0.5273
  192MPD1    C3 2974   1.933   1.276  11.180  0.1744  0.1966 -1.0364
  192MPD1    C4 2975   1.903   1.173  11.100 -0.2487 -0.4913  0.6664
  192MPD1    C5 2976   1.933   1.175  10.963 -0.7837 -0.0780 -0.8243
  192MPD1     H 2977   2.045   1.455  11.186 -0.4476 -1.1597  1.0007
  192MPD1    H1 2978   1.846   1.090  11.142  1.8214 -0.2940  3.8541
  192MPD1    H2 2979   2.029   1.290  10.807  0.9279 -1.9219 -0.3333
  192MPD1    H3 2980   1.910   1.087  10.905 -0.7674 -0.8958  0.4255
  192MPD1     N 2981   1.903   1.275  11.317  0.3044  0.2026 -0.2915
  192MPD1    H5 2982   1.853   1.190  11.343 -0.3245  0.6721  0.0299
  192MPD1    N1 2983   2.110   1.490  10.933 -0.3397 -0.1029 -0.1628
  192MPD1    H6 2984   2.121   1.572  10.993  2.2129 -1.8965  1.8120
  192MPD1    H7 2985   2.088   1.510  10.836 -0.2692  0.3537 -0.0832
  193MPD1     C 2986   1.038   1.727  16.235  0.1930 -0.1907  0.0811
  193MPD1    C1 2987   0.980   1.844  16.261  0.3373  0.2782 -0.5827
  193MPD1    C2 2988   1.052   1.960  16.302  0.0368 -0.5229  0.0851
  193MPD1    C3 2989   1.187   1.938  16.326  0.3883 -0.1950  0.2498
  193MPD1    C4 2990   1.248   1.817  16.302 -0.1100  0.6247  0.1964
  193MPD1    C5 2991   1.174   1.712  16.252 -0.3129  0.6187 -0.2267
  193MPD1     H 2992   1.010   2.060  16.305 -1.6672 -1.2090 -1.0814
  193MPD1    H1 2993   1.352   1.793  16.316  0.1701  0.2489 -2.6328
  193MPD1    H2 2994   0.984   1.642  16.194 -1.1706 -0.1331  1.7297
  193MPD1    H3 2995   1.213   1.614  16.229  0.2122  0.7518  0.1167
  193MPD1     N 2996   1.281   2.035  16.374  0.1435  0.1749  0.1863
  193MPD1    H5 2997   1.375   2.000  16.386  0.5468  1.0592 -0.4797
  193MPD1    N1 2998   0.837   1.848  16.276  0.5666 -0.4531 -0.2676
  193MPD1    H6 2999   0.786   1.770  16.236  0.8598 -0.8288  0.0809
  193MPD1    H7 3000   0.804   1.940  16.249  0.7422 -0.7432 -1.4522
  194MPD1     C 3001   3.420   4.021  17.702 -0.3969 -0.1009  0.3239
  194MPD1    C1 3002   3.495   3.955   0.056  0.1188  0.3222 -0.0325
  194MPD1    C2 3003   3.624   3.922   0.025  0.0331  0.4294 -0.2496
  194MPD1    C3 3004   3.677   3.935  17.637 -0.2264 -0.2848 -0.7868
  194MPD1    C4 3005   3.589   3.980  17.537 -0.5374 -0.5546  0.2482
  194MPD1    C5 3006   3.459   4.016  17.575 -0.4559 -0.2973 -0.7359
  194MPD1     H 3007   3.676   3.869   0.104 -0.9894  1.2069  0.9541
  194MPD1    H1 3008   3.627   3.983  17.435 -0.4656  0.0666  0.2920
  194MPD1    H2 3009   3.323   4.058  17.733  1.3427  3.3343  1.7055
  194MPD1    H3 3010   3.386   4.043  17.499 -1.1574 -0.8454 -0.2547
  194MPD1     N 3011   3.800   3.886  17.597 -0.3304 -0.0305 -0.2770
  194MPD1    H5 3012   3.817   3.877  17.497 -1.6511 -1.3808 -0.3978
  194MPD1    N1 3013   3.460   3.958   0.193 -0.4487 -0.3795 -0.0253
  194MPD1    H6 3014   3.510   3.891   0.250  0.2601 -0.3337 -0.5870
  194MPD1    H7 3015   3.358   3.957   0.204 -0.7091 -2.9664 -2.7636
  195MPD1     C 3016   1.998   0.794   0.106 -0.1588 -0.5319 -0.3622
  195MPD1    C1 3017   1.958   0.768  17.720  0.6391 -0.2905 -0.2708
  195MPD1    C2 3018   1.853   0.680  17.695  0.1440 -0.7780  0.0961
  195MPD1    C3 3019   1.774   0.632   0.050 -0.2858 -0.2358 -0.9263
  195MPD1    C4 3020   1.808   0.681   0.174 -0.0596 -0.5116 -0.5336
  195MPD1    C5 3021   1.916   0.758   0.206 -0.2264  0.1939  0.2760
  195MPD1     H 3022   1.827   0.652  17.593 -0.4890 -0.2675  0.1180
  195MPD1    H1 3023   1.746   0.643   0.254 -1.2779  0.1673 -1.1467
  195MPD1    H2 3024   2.085   0.853   0.136 -1.0393  1.0804 -0.9885
  195MPD1    H3 3025   1.942   0.795   0.304 -1.9436 -0.8332  1.1031
  195MPD1     N 3026   1.663   0.542   0.041  0.5008 -0.6902  0.2452
  195MPD1    H5 3027   1.617   0.502   0.121 -0.7347 -0.4426 -0.3488
  195MPD1    N1 3028   2.042   0.800  17.612 -0.3795 -0.3171  0.1775
  195MPD1    H6 3029   1.997   0.809  17.521 -2.0723 -0.8390  0.9622
  195MPD1    H7 3030   2.114   0.872  17.617  0.2168 -0.8177 -0.9535
  196MPD1     C 3031   4.702   4.137   0.473  0.3133 -0.5354  0.5274
  196MPD1    C1 3032   4.708   4.227   0.371 -0.0496 -0.3139  0.4022
  196MPD1    C2 3033   0.086   4.309   0.381  0.1646  0.1232 -0.0151
  196MPD1    C3 3034   0.166   4.316   0.492  0.2189  1.0066  0.7487
  196MPD1    C4 3035   0.158   4.218   0.587  0.3608 -0.4353 -0.9934
  196MPD1    C5 3036   0.063   4.123   0.571 -0.1003  0.4745 -0.2882
  196MPD1     H 3037   0.095   4.384   0.303 -0.4394  1.6411  1.3774
  196MPD1    H1 3038   0.228   4.220   0.669  2.4279  0.6649 -2.7968
  196MPD1    H2 3039   4.621   4.066   0.467 -1.5371  1.4911  1.4566
  196MPD1    H3 3040   0.055   4.056   0.656  0.9681  0.2617 -0.3537
  196MPD1     N 3041   0.249   4.424   0.516  0.1827  0.0781  0.1853
  196MPD1    H5 3042   0.296   4.414   0.606 -0.4602 -1.0878  0.3923
  196MPD1    N1 3043   4.647   4.211   0.246 -0.7360  0.4779  0.2203
  196MPD1    H6 3044   4.554   4.170   0.255 -0.5757 -0.3452 -1.8667
  196MPD1    H7 3045   4.642   4.309   0.219  4.2386  1.6548  3.5583
  197MPD1     C 3046   4.330   1.723  17.549 -0.1650  0.9307 -0.1575
  197MPD1    C1 3047   4.463   1.682  17.562 -0.9878  0.7808 -0.3989
  197MPD1    C2 3048   4.549   1.767  17.499 -0.6752 -0.7996 -0.3529
  197MPD1    C3 3049   4.518   1.864  17.402  0.0302  1.1913  0.2116
  197MPD1    C4 3050   4.384   1.889  17.376 -0.4855 -0.2058  0.0103
  197MPD1    C5 3051   4.293   1.824  17.456 -0.7987  0.6394  0.5587
  197MPD1     H 3052   4.654   1.741  17.500 -0.8046 -1.4292 -2.0070
  197MPD1    H1 3053   4.357   1.969  17.307  0.8716  1.0392  0.9274
  197MPD1    H2 3054   4.260   1.660  17.603 -0.0044  0.7773 -0.1278
  197MPD1    H3 3055   4.186   1.845  17.450 -0.9018 -0.0604  0.0302
  197MPD1     N 3056   4.613   1.934  17.325 -0.3891 -0.6665 -0.1845
  197MPD1    H5 3057   4.580   1.983  17.243 -1.0732 -1.5954 -0.4672
  197MPD1    N1 3058   4.502   1.588  17.658 -0.0644  0.1657  0.1888
  197MPD1    H6 3059   4.429   1.517  17.665 -1.7424  1.6985 -1.9703
  197MPD1    H7 3060   4.591   1.541  17.643  1.6074  3.1453  0.9011
  198MPD1     C 3061   2.035   0.893  15.572 -0.9395 -0.2184 -0.0731
  198MPD1    C1 3062   2.058   0.882  15.701 -0.2735 -1.0190  0.0120
  198MPD1    C2 3063   2.192   0.864  15.737  0.3773 -0.5861  0.5963
  198MPD1    C3 3064   2.283   0.833  15.644 -0.0580  0.6411  0.0140
  198MPD1    C4 3065   2.242   0.820  15.511 -0.3051  0.7653 -0.2182
  198MPD1    C5 3066   2.113   0.847  15.478  0.4844 -0.0972  0.4949
  198MPD1     H 3067   2.228   0.876  15.839  0.1542  0.5174  0.5389
  198MPD1    H1 3068   2.302   0.775  15.433 -1.0130  0.1927 -0.4238
  198MPD1    H2 3069   1.935   0.918  15.538 -1.5009 -0.4224  1.4426
  198MPD1    H3 3070   2.080   0.851  15.375 -0.7145 -1.3804  0.8174
  198MPD1     N 3071   2.412   0.806  15.688 -0.2952  0.0412  0.0484
  198MPD1    H5 3072   2.427   0.811  15.788 -0.3580 -0.1993  0.0688
  198MPD1    N1 3073   1.959   0.914  15.796 -0.3687  0.0121 -0.4605
  198MPD1    H6 3074   1.976   0.871  15.887  0.2413 -0.3313 -0.7351
  198MPD1    H7 3075   1.872   0.878  15.757 -0.0085  0.2955 -1.5003
  199MPD1     C 3076   4.139   1.684  10.567 -0.1815 -0.2425  0.2133
  199MPD1    C1 3077   4.050   1.580  10.542 -0.7335 -0.4565  0.1659
  199MPD1    C2 3078   4.005   1.572  10.415 -0.3047 -0.1228 -0.5949
  199MPD1    C3 3079   4.053   1.648  10.304  0.3031  0.2105 -0.0158
  199MPD1    C4 3080   4.142   1.743  10.334  0.5862 -0.1868 -0.1824
  199MPD1    C5 3081   4.188   1.759  10.464 -0.6462 -0.9242 -0.1384
  199MPD1     H 3082   3.931   1.495  10.396 -0.8736  0.4097 -0.5393
  199MPD1    H1 3083   4.191   1.801  10.256  0.9563 -1.4003 -0.8466
  199MPD1    H2 3084   4.182   1.695  10.666  2.1414 -4.0226 -0.3604
  199MPD1    H3 3085   4.265   1.833  10.483  0.0985 -1.3792 -1.3578
  199MPD1     N 3086   4.007   1.642  10.170 -0.1110 -0.2195  0.4797
  199MPD1    H5 3087   4.029   1.714  10.102  1.5438  0.1478  1.4159
  199MPD1    N1 3088   3.981   1.515  10.651  0.0687  0.2362  0.1498
  199MPD1    H6 3089   3.960   1.421  10.618  1.4839  0.0753 -0.2669
  199MPD1    H7 3090   4.047   1.508  10.729  0.5618  1.3195 -0.1746
  200MPD1     C 3091   3.346   2.025  16.108  0.7490  0.5645 -0.6722
  200MPD1    C1 3092   3.403   1.897  16.092 -0.3105 -0.4551  0.3542
  200MPD1    C2 3093   3.444   1.860  15.960 -0.7935  0.1186 -0.4627
  200MPD1    C3 3094   3.418   1.939  15.855  0.1939  0.3970 -0.1248
  200MPD1    C4 3095   3.354   2.056  15.871  0.3694  0.0073 -0.0937
  200MPD1    C5 3096   3.308   2.094  15.991 -1.0134  0.1509  0.0107
  200MPD1     H 3097   3.487   1.760  15.950 -3.2119 -0.9398 -0.2720
  200MPD1    H1 3098   3.327   2.118  15.786 -0.7542  1.9522  1.6666
  200MPD1    H2 3099   3.310   2.066  16.202 -1.3394  0.8534 -1.5853
  200MPD1    H3 3100   3.252   2.187  15.998 -2.7577 -0.8320 -1.1316
  200MPD1     N 3101   3.463   1.898  15.727 -0.4699 -0.8438 -0.5876
  200MPD1    H5 3102   3.492   1.801  15.729  0.8622 -0.4462 -0.4927
  200MPD1    N1 3103   3.450   1.824  16.199  0.0565 -0.1965 -0.2866
  200MPD1    H6 3104   3.470   1.730  16.167 -0.9995 -0.0857 -1.2603
  200MPD1    H7 3105   3.384   1.820  16.277  0.5650 -1.4314  0.0746
  201MPD1     C 3106   0.281   0.301  13.459  0.1582  0.0192 -0.5408
  201MPD1    C1 3107   0.415   0.311  13.490 -0.4651  0.5481 -0.3617
  201MPD1    C2 3108   0.510   0.258  13.411  0.2973  0.6874  0.2360
  201MPD1    C3 3109   0.474   0.171  13.309 -0.5829 -1.1523  0.2446
  201MPD1    C4 3110   0.343   0.138  13.294  0.2681 -0.7849  0.6264
  201MPD1    C5 3111   0.247   0.198  13.378  0.2831 -0.0382  0.2507
  201MPD1     H 3112   0.615   0.276  13.433  0.5970  1.1874 -1.6427
  201MPD1    H1 3113   0.310   0.064  13.222 -1.1715  1.5513 -1.1170
  201MPD1    H2 3114   0.213   0.364  13.516 -0.3530  0.0033 -1.1333
  201MPD1    H3 3115   0.142   0.172  13.369  0.1131  1.3607 -1.9173
  201MPD1     N 3116   0.574   0.124  13.220  0.2652  0.3281  0.4263
  201MPD1    H5 3117   0.663   0.175  13.219  0.1602  0.4857 -1.4369
  201MPD1    N1 3118   0.450   0.408  13.586  0.0921  1.2112 -0.7556
  201MPD1    H6 3119   0.535   0.379  13.634  0.5426  1.6360 -1.2882
  201MPD1    H7 3120   0.380   0.431  13.656  0.3540 -2.0546  0.5615
  202MPD1     C 3121   1.412   4.483  10.750  0.6693  0.1524 -0.3944
  202MPD1    C1 3122   1.307   4.554  10.705 -0.6195 -0.5949 -0.2618
  202MPD1    C2 3123   1.241   4.508  10.591 -0.0963  0.0058  0.6053
  202MPD1    C3 3124   1.288   4.411  10.505  0.2651  0.3959  0.4595
  202MPD1    C4 3125   1.402   4.349  10.549  0.1356 -0.0929 -0.2872
  202MPD1    C5 3126   1.460   4.376  10.668  0.3400 -0.1985 -0.1004
  202MPD1     H 3127   1.139   4.545  10.583  0.1716  0.6065 -0.0299
  202MPD1    H1 3128   1.454   4.274  10.491 -0.2643  0.0213 -0.7911
  202MPD1    H2 3129   1.470   4.507  10.839 -0.0120 -0.3084  0.1771
  202MPD1    H3 3130   1.547   4.321  10.704  0.4367 -1.9020 -2.9615
  202MPD1     N 3131   1.216   4.352  10.396 -0.0854 -0.3762  0.1271
  202MPD1    H5 3132   1.266   4.276  10.350  0.4567  0.3060 -0.4266
  202MPD1    N1 3133   1.232   4.620  10.797 -0.2428  0.8128 -0.3114
  202MPD1    H6 3134   1.288   4.680  10.857  0.8931  1.7401 -2.3077
  202MPD1    H7 3135   1.144   4.662  10.768 -1.0703 -0.4204  0.4121
  203MPD1     C 3136   4.237   0.751  12.301 -0.4983  0.0883 -0.2998
  203MPD1    C1 3137   4.169   0.656  12.239  0.1204  0.0470 -0.0022
  203MPD1    C2 3138   4.210   0.526  12.276 -0.1804 -0.1542 -0.1116
  203MPD1    C3 3139   4.296   0.504  12.387 -0.2098  0.2012 -0.2128
  203MPD1    C4 3140   4.345   0.614  12.452  0.1376 -0.3076 -0.6271
  203MPD1    C5 3141   4.327   0.740  12.409 -0.2403 -0.4730  0.2430
  203MPD1     H 3142   4.155   0.443  12.233  1.0239 -0.4378 -1.1166
  203MPD1    H1 3143   4.394   0.599  12.548  2.4909 -0.5316 -1.8745
  203MPD1    H2 3144   4.206   0.853  12.280 -2.0834 -0.2255  0.5068
  203MPD1    H3 3145   4.368   0.827  12.460  2.3805 -2.3418  1.2994
  203MPD1     N 3146   4.328   0.369  12.419  0.2586  0.8904 -0.0552
  203MPD1    H5 3147   4.292   0.298  12.356 -0.7768  1.3264  0.0529
  203MPD1    N1 3148   4.079   0.684  12.140 -0.4456  0.7851 -0.2119
  203MPD1    H6 3149   4.005   0.615  12.152  0.4129 -0.5439 -2.5975
  203MPD1    H7 3150   4.026   0.770  12.148  1.5575  2.0299 -0.5060
  204MPD1     C 3151   4.051   3.008  17.640 -0.4143  0.3068  0.0285
  204MPD1    C1 3152   4.098   2.994  17.513  0.6589  0.3333 -0.6502
  204MPD1    C2 3153   4.123   2.865  17.467  0.2720 -0.0330  0.3783
  204MPD1    C3 3154   4.075   2.755  17.544  0.4454  0.5218 -0.1506
  204MPD1    C4 3155   4.017   2.779  17.669  0.2712 -0.2051  0.1002
  204MPD1    C5 3156   4.005   2.909  17.719 -0.2645  0.1837  0.8247
  204MPD1     H 3157   4.175   2.849  17.373 -0.8710 -1.0149 -0.0935
  204MPD1    H1 3158   3.980   2.703  17.737  2.2049  0.2823  1.7201
  204MPD1    H2 3159   4.031   3.109  17.675 -2.3976  0.7655 -2.4282
  204MPD1    H3 3160   3.959   2.933   0.071 -0.8457  1.5588  0.1942
  204MPD1     N 3161   4.080   2.624  17.487  0.1786  0.1987  0.0822
  204MPD1    H5 3162   4.123   2.606  17.396  0.0286  0.7187 -0.0905
  204MPD1    N1 3163   4.152   3.109  17.446  0.4674  1.1246 -0.1491
  204MPD1    H6 3164   4.159   3.099  17.345 -0.4811  0.9570 -0.2016
  204MPD1    H7 3165   4.095   3.192  17.460 -0.8465 -0.0852  1.5792
  205MPD1     C 3166   3.973   1.060   0.648 -0.0248 -0.9182  0.4478
  205MPD1    C1 3167   3.995   1.188   0.614  0.4371 -0.2915 -0.0567
  205MPD1    C2 3168   3.927   1.241   0.504 -0.1739  0.6200  1.1888
  205MPD1    C3 3169   3.842   1.157   0.429 -0.8404  0.4223 -0.4499
  205MPD1    C4 3170   3.819   1.028   0.477 -0.4817 -0.9716  0.0193
  205MPD1    C5 3171   3.874   0.982   0.596  0.0664  0.2005  1.0324
  205MPD1     H 3172   3.963   1.334   0.463 -0.3709  0.1299 -0.1189
  205MPD1    H1 3173   3.753   0.963   0.422  0.1191 -1.4876 -0.0849
  205MPD1    H2 3174   4.023   1.016   0.734 -0.1871  0.8605  1.4393
  205MPD1    H3 3175   3.869   0.877   0.625 -0.2355 -0.2960 -0.8699
  205MPD1     N 3176   3.793   1.187   0.302  0.0598 -0.0867 -0.4251
  205MPD1    H5 3177   3.734   1.119   0.254 -1.0200  0.3763  0.2428
  205MPD1    N1 3178   4.109   1.246   0.671  0.8072 -0.3235  0.4838
  205MPD1    H6 3179   4.121   1.221   0.769  0.8653 -1.6609  0.1385
  205MPD1    H7 3180   4.093   1.346   0.681 -2.4326 -0.8519  0.5656
  206MPD1     C 3181   4.480   2.829  16.729 -0.3395  0.7296  0.5546
  206MPD1    C1 3182   4.466   2.947  16.798  0.1491  0.0499 -1.0373
  206MPD1    C2 3183   4.372   3.044  16.755 -0.4746  0.5405 -0.3850
  206MPD1    C3 3184   4.292   3.017  16.640  0.1446  0.3714 -0.3908
  206MPD1    C4 3185   4.307   2.891  16.583  0.1988  0.1900 -0.2508
  206MPD1    C5 3186   4.392   2.805  16.625 -1.3428  0.9820  0.0956
  206MPD1     H 3187   4.364   3.135  16.813  0.9723  0.6219 -0.3301
  206MPD1    H1 3188   4.258   2.872  16.488 -2.8431 -2.4354  1.8475
  206MPD1    H2 3189   4.552   2.758  16.767  0.3089  1.3843  0.5382
  206MPD1    H3 3190   4.397   2.709  16.573  1.2851  0.6448  0.9919
  206MPD1     N 3191   4.209   3.112  16.580 -0.6873 -0.1616 -0.2546
  206MPD1    H5 3192   4.169   3.074  16.495 -0.0354 -0.7835 -0.2870
  206MPD1    N1 3193   4.539   2.970  16.910  0.4419  1.3352 -0.9536
  206MPD1    H6 3194   4.576   2.887  16.958  0.2130  1.3534 -0.7469
  206MPD1    H7 3195   4.483   3.013  16.983  2.4223  2.8846 -0.3494
  207MPD1     C 3196   2.267   0.272  10.056  0.3183 -0.0247  0.2254
  207MPD1    C1 3197   2.311   0.401  10.029 -0.1498 -0.3042 -0.6193
  207MPD1    C2 3198   2.345   0.485  10.137 -0.4261 -0.0391 -0.3436
  207MPD1    C3 3199   2.357   0.430  10.263  0.4179  0.0364 -0.1352
  207MPD1    C4 3200   2.309   0.300  10.287  0.3550  0.3888 -0.0162
  207MPD1    C5 3201   2.260   0.222  10.182 -0.7708  0.1745  0.0098
  207MPD1     H 3202   2.365   0.589  10.113 -1.0750  0.1761  0.0423
  207MPD1    H1 3203   2.312   0.252  10.384  1.3037  1.5903  0.5541
  207MPD1    H2 3204   2.234   0.209   9.974  1.2631  1.3101 -1.1551
  207MPD1    H3 3205   2.232   0.120  10.201  3.0767 -1.0078 -0.6957
  207MPD1     N 3206   2.389   0.503  10.376  0.1106  0.3687 -0.5937
  207MPD1    H5 3207   2.392   0.448  10.461 -0.9872 -1.3064 -1.6299
  207MPD1    N1 3208   2.275   0.463   9.907 -0.2207  0.4435 -0.4384
  207MPD1    H6 3209   2.343   0.536   9.889  0.1622  0.0616 -0.5430
  207MPD1    H7 3210   2.294   0.396   9.833  0.0243 -0.9087  0.8400
  208MPD1     C 3211   3.720   4.257  17.343 -0.1669 -0.3296 -0.3209
  208MPD1    C1 3212   3.604   4.316  17.388  0.3588  0.4178 -0.0309
  208MPD1    C2 3213   3.618   4.431  17.456  1.1944  0.4956  0.5296
  208MPD1    C3 3214   3.742   4.490  17.491 -0.7748 -0.9426 -0.0831
  208MPD1    C4 3215   3.852   4.419  17.457 -0.6847 -0.0325  0.4952
  208MPD1    C5 3216   3.843   4.304  17.386 -0.0272  0.2855 -0.5146
  208MPD1     H 3217   3.532   4.493  17.478 -0.7736 -1.2331 -2.3506
  208MPD1    H1 3218   3.952   4.452  17.480 -0.7245  0.8229 -0.5563
  208MPD1    H2 3219   3.723   4.169  17.280  3.8585 -0.6061  0.2704
  208MPD1    H3 3220   3.934   4.249  17.361 -1.6017 -1.2863 -2.7351
  208MPD1     N 3221   3.744   4.607  17.570 -0.0048 -0.2479 -0.6735
  208MPD1    H5 3222   3.659   4.659  17.589 -0.1118 -0.1291 -1.4469
  208MPD1    N1 3223   3.476   4.287  17.329 -0.7466  0.5996 -0.1445
  208MPD1    H6 3224   3.469   4.189  17.303 -1.0730 -0.0823  2.4660
  208MPD1    H7 3225   3.400   4.303  17.395 -1.3943 -0.1036 -0.7214
  209MPD1     C 3226   1.868   4.426  10.671 -0.4276 -0.2563 -0.7300
  209MPD1    C1 3227   1.866   4.561  10.643  0.0062  0.2409  0.2691
  209MPD1    C2 3228   1.812   4.648  10.738 -0.4958  0.1256  0.3023
  209MPD1    C3 3229   1.773   4.608  10.868  0.4820  0.4897 -0.1715
  209MPD1    C4 3230   1.795   4.475  10.896  0.0010 -0.1833  0.0921
  209MPD1    C5 3231   1.835   4.392  10.797  0.6092 -0.2679 -0.2795
  209MPD1     H 3232   1.797   0.014  10.703 -0.7021  0.5765  1.7203
  209MPD1    H1 3233   1.766   4.430  10.990 -0.4932 -0.2958 -0.1156
  209MPD1    H2 3234   1.892   4.354  10.594  1.3708  1.1842 -1.5159
  209MPD1    H3 3235   1.851   4.291  10.833  2.6837 -0.0452 -0.5174
  209MPD1     N 3236   1.747   4.710  10.965 -0.5416 -0.2753 -0.0397
  209MPD1    H5 3237   1.724   0.064  10.925 -0.2480  0.0157  0.4366
  209MPD1    N1 3238   1.876   4.612  10.513 -0.0083 -0.0314  0.2277
  209MPD1    H6 3239   1.914   4.706  10.522  0.5290 -0.2782  0.5363
  209MPD1    H7 3240   1.936   4.552  10.457 -0.5234 -0.9698  0.6876
  210MPD1     C 3241   1.487   0.012  11.943  0.5719  0.9734 -0.5268
  210MPD1    C1 3242   1.444   0.122  11.883  0.2569 -0.9859 -0.6064
  210MPD1    C2 3243   1.502   0.161  11.762  0.3345 -0.5518  0.0439
  210MPD1    C3 3244   1.583   0.074  11.689  1.0648  0.7582  0.6660
  210MPD1    C4 3245   1.618   4.692  11.756  0.0379  0.5530 -0.0666
  210MPD1    C5 3246   1.577   4.664  11.879 -0.6795  0.0761 -0.5735
  210MPD1     H 3247   1.468   0.254  11.718  0.9567 -1.2365 -1.8833
  210MPD1    H1 3248   1.682   4.620  11.707 -0.4666 -0.5605  0.9062
  210MPD1    H2 3249   1.445   4.728  12.041  1.1458 -0.7244 -0.6172
  210MPD1    H3 3250   1.611   4.575  11.930  1.9481  0.4348 -1.7126
  210MPD1     N 3251   1.634   0.096  11.562 -0.2468 -0.0622 -0.7109
  210MPD1    H5 3252   1.690   0.025  11.514  0.9391  0.2225  0.2577
  210MPD1    N1 3253   1.359   0.206  11.953 -0.5444 -0.2008  0.2822
  210MPD1    H6 3254   1.311   0.267  11.887 -3.0504  1.1962  3.3856
  210MPD1    H7 3255   1.287   0.164  12.011 -0.7559  0.2315  0.3269
  211MPD1     C 3256   4.307   0.427  17.166 -0.2941 -0.1447  0.7467
  211MPD1    C1 3257   4.258   0.433  17.038 -0.1614  0.1163  0.1855
  211MPD1    C2 3258   4.233   0.550  16.971  0.0400  0.0751  0.0927
  211MPD1    C3 3259   4.249   0.670  17.037  0.2145  0.0595 -0.3059
  211MPD1    C4 3260   4.302   0.671  17.168 -0.1812  0.3003 -0.0527
  211MPD1    C5 3261   4.321   0.556  17.230 -0.5995  0.6457  0.6643
  211MPD1     H 3262   4.191   0.548  16.871 -0.7051 -0.9154  0.4296
  211MPD1    H1 3263   4.326   0.766  17.215 -2.6165  1.3386 -0.8896
  211MPD1    H2 3264   4.311   0.331  17.215 -1.4540 -0.9288 -0.6835
  211MPD1    H3 3265   4.366   0.552  17.329 -0.9033  1.4643  0.8319
  211MPD1     N 3266   4.202   0.789  16.976 -0.3850  0.3979 -0.1293
  211MPD1    H5 3267   4.141   0.779  16.896 -0.3261 -0.2629 -0.0947
  211MPD1    N1 3268   4.231   0.308  16.979  0.2984 -1.0433 -0.0292
  211MPD1    H6 3269   4.298   0.241  17.017 -0.0190  1.0126  4.1233
  211MPD1    H7 3270   4.259   0.310  16.881 -1.6926  0.1049 -0.5778
  212MPD1     C 3271   3.703   3.841  16.577 -0.0927 -0.0978  0.3353
  212MPD1    C1 3272   3.686   3.865  16.708 -0.4867 -0.1362  0.4977
  212MPD1    C2 3273   3.595   3.784  16.778  0.1219 -0.5085  0.2483
  212MPD1    C3 3274   3.552   3.666  16.722  0.3470  0.3296  0.3627
  212MPD1    C4 3275   3.591   3.635  16.589 -0.2014  0.4633 -0.0706
  212MPD1    C5 3276   3.656   3.732  16.515 -0.3017 -0.2466 -0.3668
  212MPD1     H 3277   3.560   3.809  16.877 -1.3959 -1.6293 -0.0028
  212MPD1    H1 3278   3.557   3.543  16.543  1.8757 -0.0136 -0.6688
  212MPD1    H2 3279   3.756   3.914  16.516 -1.0663 -0.0286 -0.4338
  212MPD1    H3 3280   3.666   3.714  16.409 -0.6053  0.5604 -0.5350
  212MPD1     N 3281   3.461   3.574  16.790  0.0224 -0.0485  0.1451
  212MPD1    H5 3282   3.414   3.502  16.736  0.5848 -0.6613  0.4763
  212MPD1    N1 3283   3.724   3.982  16.768 -0.1080 -0.0615 -0.3949
  212MPD1    H6 3284   3.727   3.977  16.870 -1.9192  0.1395 -0.3397
  212MPD1    H7 3285   3.814   4.009  16.727  0.7993 -2.6789 -0.0934
  213MPD1     C 3286   1.825   4.022  14.806 -1.0708 -0.7327  0.5491
  213MPD1    C1 3287   1.892   4.127  14.870  0.2616  0.4124  0.3019
  213MPD1    C2 3288   1.821   4.187  14.972 -0.0247  0.3117 -0.2751
  213MPD1    C3 3289   1.684   4.186  14.978 -0.2019  0.5327  0.1918
  213MPD1    C4 3290   1.619   4.121  14.876 -0.0961  0.0521 -0.3311
  213MPD1    C5 3291   1.688   4.033  14.797 -0.3257 -0.4051 -0.2233
  213MPD1     H 3292   1.875   4.249  15.043  1.0892  0.8807 -1.6328
  213MPD1    H1 3293   1.512   4.118  14.861 -0.3648  0.3389  1.4955
  213MPD1    H2 3294   1.884   3.954  14.746 -0.6012 -1.4072  1.7753
  213MPD1    H3 3295   1.625   3.969  14.735  0.4224 -0.1896 -1.2115
  213MPD1     N 3296   1.618   4.265  15.080 -0.2822  0.2152 -0.2328
  213MPD1    H5 3297   1.664   4.343  15.125  2.5291 -1.7131  0.1880
  213MPD1    N1 3298   2.029   4.108  14.878  0.4107 -0.0767  0.6055
  213MPD1    H6 3299   2.080   4.189  14.913 -1.0488  0.7974  0.7176
  213MPD1    H7 3300   2.058   4.085  14.783 -1.1694  0.4856 -0.0214
  214MPD1     C 3301   0.627   4.339  15.185  0.0556 -0.2385  0.8011
  214MPD1    C1 3302   0.675   4.433  15.094 -0.5012 -0.2860 -0.0097
  214MPD1    C2 3303   0.815   4.462  15.100  0.0861  0.2724 -0.8546
  214MPD1    C3 3304   0.896   4.393  15.182  0.3597 -1.1199 -0.4654
  214MPD1    C4 3305   0.842   4.304  15.268 -0.5824  0.3566  0.1230
  214MPD1    C5 3306   0.711   4.273  15.265 -0.2081 -0.9137  0.4198
  214MPD1     H 3307   0.847   4.528  15.020 -1.0943  0.3275 -1.2793
  214MPD1    H1 3308   0.901   4.261  15.348 -1.3475  1.6516  1.3875
  214MPD1    H2 3309   0.521   4.339  15.208 -0.3701  2.0065 -1.1535
  214MPD1    H3 3310   0.677   4.211  15.347 -1.1799  1.0370  1.4831
  214MPD1     N 3311   1.038   4.413  15.168 -0.8551  0.0349  0.1240
  214MPD1    H5 3312   1.098   4.348  15.217 -0.4356  0.8731  0.7234
  214MPD1    N1 3313   0.585   4.513  15.017  0.5529 -0.2308  0.6818
  214MPD1    H6 3314   0.504   4.467  14.977 -0.0877  1.4106  0.0934
  214MPD1    H7 3315   0.632   4.548  14.933 -0.0515  0.1934  0.5218
  215MPD1     C 3316   0.328   0.485  11.190  0.0386  0.0096 -0.7075
  215MPD1    C1 3317   0.395   0.602  11.161  0.1412  0.4044 -0.6047
  215MPD1    C2 3318   0.506   0.634  11.232 -0.1277 -0.5251 -0.6626
  215MPD1    C3 3319   0.564   0.544  11.312  0.7830 -0.4908  0.1725
  215MPD1    C4 3320   0.501   0.420  11.338 -0.7808 -0.5385 -1.0105
  215MPD1    C5 3321   0.377   0.403  11.286 -0.0355 -0.0717 -0.3737
  215MPD1     H 3322   0.551   0.732  11.219  0.3738 -0.5310  0.9854
  215MPD1    H1 3323   0.544   0.354  11.413 -2.9747 -0.1416  0.5944
  215MPD1    H2 3324   0.240   0.446  11.140 -1.1455  0.6827  0.8488
  215MPD1    H3 3325   0.321   0.312  11.302  2.8113 -1.7268  0.2472
  215MPD1     N 3326   0.693   0.578  11.365  0.5167  0.1044 -0.2907
  215MPD1    H5 3327   0.733   0.669  11.346  0.2590  0.0131 -1.2578
  215MPD1    N1 3328   0.324   0.702  11.090 -0.4778  0.6055 -0.8799
  215MPD1    H6 3329   0.385   0.775  11.052 -0.2791  0.8931 -0.0060
  215MPD1    H7 3330   0.279   0.664  11.007 -0.4111  0.5553 -0.8938
  216MPD1     C 3331   2.593   3.942   0.233 -0.0696  0.2778  0.3713
  216MPD1    C1 3332   2.646   3.875   0.335 -0.7242 -0.3627  0.7027
  216MPD1    C2 3333   2.770   3.818   0.312 -0.4643  0.1882 -0.0958
  216MPD1    C3 3334   2.837   3.839   0.195 -0.0356  0.2331  0.2658
  216MPD1    C4 3335   2.787   3.915   0.093  0.3369 -0.3110  0.4172
  216MPD1    C5 3336   2.662   3.964   0.114 -1.0903 -0.4492 -0.2159
  216MPD1     H 3337   2.809   3.748   0.384  1.5905 -0.1127 -1.4960
  216MPD1    H1 3338   2.844   3.935   0.003  0.6508  0.0723  0.6989
  216MPD1    H2 3339   2.500   3.994   0.253 -0.0210  0.2029  0.7863
  216MPD1    H3 3340   2.627   4.029   0.035 -0.4680  0.7535  0.5110
  216MPD1     N 3341   2.957   3.765   0.181 -0.1857 -0.1443  0.2078
  216MPD1    H5 3342   2.972   3.696   0.254 -1.0603  2.5644  2.9760
  216MPD1    N1 3343   2.590   3.882   0.466 -0.2118  0.0950 -0.4462
  216MPD1    H6 3344   2.612   3.796   0.516  2.1912  1.2139  0.4273
  216MPD1    H7 3345   2.489   3.886   0.456 -0.3293 -1.3368  0.2298
  217MPD1     C 3346   4.433   3.588   8.874  0.2907  0.6112  0.3526
  217MPD1    C1 3347   4.321   3.664   8.898  0.1269 -0.4656  0.6429
  217MPD1    C2 3348   4.320   3.779   8.973 -0.3307 -0.2221  0.0598
  217MPD1    C3 3349   4.433   3.808   9.057 -0.0291 -0.7426 -0.2023
  217MPD1    C4 3350   4.546   3.726   9.041  0.4219  0.2506  0.2355
  217MPD1    C5 3351   4.542   3.613   8.952 -0.1381  0.0330 -0.1002
  217MPD1     H 3352   4.240   3.851   8.964 -2.3112 -2.2281  1.8937
  217MPD1    H1 3353   4.632   3.744   9.104  1.9129  0.2724 -1.7837
  217MPD1    H2 3354   4.444   3.510   8.800 -0.3130  2.1688 -1.3579
  217MPD1    H3 3355   4.625   3.544   8.954 -0.8807 -0.8777 -0.5254
  217MPD1     N 3356   4.439   3.904   9.161 -0.0222 -0.1883  0.1523
  217MPD1    H5 3357   4.524   3.906   9.216  0.3612 -1.6002 -0.3805
  217MPD1    N1 3358   4.206   3.637   8.819  0.7116 -0.3959  0.4553
  217MPD1    H6 3359   4.185   3.538   8.802  1.1189 -0.4989  0.5373
  217MPD1    H7 3360   4.123   3.689   8.846  0.3097 -1.1503  0.6849
  218MPD1     C 3361   1.741   1.257  12.509  0.6624  0.2872 -0.4163
  218MPD1    C1 3362   1.675   1.196  12.399  0.1074 -0.0512  0.6680
  218MPD1    C2 3363   1.648   1.069  12.427 -0.5526 -0.2376  0.4649
  218MPD1    C3 3364   1.652   1.012  12.550 -0.0397 -0.4701 -0.3561
  218MPD1    C4 3365   1.699   1.081  12.659  0.2946 -0.4698 -0.1962
  218MPD1    C5 3366   1.756   1.201  12.632  0.0529 -0.0619  0.5392
  218MPD1     H 3367   1.609   1.006  12.347  1.3349 -0.3381 -0.3664
  218MPD1    H1 3368   1.684   1.044  12.760  0.0826 -1.2045 -0.4983
  218MPD1    H2 3369   1.770   1.361  12.512 -1.8508  0.9348  2.6999
  218MPD1    H3 3370   1.800   1.259  12.712  3.5481  0.9919 -2.1468
  218MPD1     N 3371   1.605   0.874  12.551 -0.6744  0.2386 -0.1037
  218MPD1    H5 3372   1.588   0.842  12.457  3.2261  1.0921 -1.1215
  218MPD1    N1 3373   1.658   1.253  12.272 -0.2236  0.2952  0.1260
  218MPD1    H6 3374   1.663   1.355  12.265  0.7789  0.2580  0.3297
  218MPD1    H7 3375   1.566   1.224  12.241 -0.1116  0.4193 -0.3301
  219MPD1     C 3376   1.005   0.193  12.156  0.4218  0.1496  0.2335
  219MPD1    C1 3377   1.077   0.300  12.109 -0.3765 -0.3281 -0.5111
  219MPD1    C2 3378   1.169   0.360  12.198 -0.0404 -0.0027 -0.2179
  219MPD1    C3 3379   1.190   0.310  12.320 -0.6179 -0.4550  0.4821
  219MPD1    C4 3380   1.107   0.204  12.370  0.6329  0.5586  0.5686
  219MPD1    C5 3381   1.019   0.142  12.284  0.1298  0.3898 -0.4918
  219MPD1     H 3382   1.231   0.440  12.159 -0.9136  0.5916 -0.3760
  219MPD1    H1 3383   1.122   0.156  12.466  0.8410 -3.1243 -1.2771
  219MPD1    H2 3384   0.938   0.139  12.090 -0.1150 -0.9550  1.7008
  219MPD1    H3 3385   0.970   0.052  12.321  0.0216  0.2900 -0.8826
  219MPD1     N 3386   1.286   0.363  12.409 -0.0687 -0.1417  0.2512
  219MPD1    H5 3387   1.279   0.318  12.499 -2.8630 -0.0974  0.0492
  219MPD1    N1 3388   1.048   0.344  11.981 -0.7541  0.9113  0.0158
  219MPD1    H6 3389   1.001   0.267  11.934 -1.0549 -0.2218  2.1639
  219MPD1    H7 3390   1.117   0.396  11.928 -0.9899  0.4636 -0.7205
  220MPD1     C 3391   1.527   4.502  10.079 -0.6038  0.5761 -0.2238
  220MPD1    C1 3392   1.546   4.538  10.213 -0.0971 -0.2798  0.3293
  220MPD1    C2 3393   1.442   4.610  10.273  0.5319 -0.1851  0.7343
  220MPD1    C3 3394   1.341   4.666  10.196 -0.8802 -0.0565 -0.9895
  220MPD1    C4 3395   1.329   4.631  10.062  0.7285  0.2192 -0.6117
  220MPD1    C5 3396   1.420   4.539  10.007  0.3698  0.2560 -0.1496
  220MPD1     H 3397   1.438   4.622  10.381  1.9985 -1.8993  0.9749
  220MPD1    H1 3398   1.253   4.665   9.992 -0.4777  0.5942  0.8835
  220MPD1    H2 3399   1.591   4.434  10.024  1.9125  2.2015  0.7111
  220MPD1    H3 3400   1.409   4.510   9.903 -1.8853 -1.5299  0.5727
  220MPD1     N 3401   1.257   0.025  10.251 -0.3432  0.1664 -0.0470
  220MPD1    H5 3402   1.277   0.053  10.347  1.5721  1.6109 -0.8635
  220MPD1    N1 3403   1.643   4.473  10.296  0.0830 -0.0508 -0.3153
  220MPD1    H6 3404   1.676   4.537  10.369 -0.9746  1.5353 -1.2309
  220MPD1    H7 3405   1.724   4.441  10.244  1.7160 -0.4315  2.4917
  221MPD1     C 3406   3.330   0.697  16.319  1.1613  0.5066  0.6298
  221MPD1    C1 3407   3.309   0.562  16.327 -0.0607  0.1350  0.4118
  221MPD1    C2 3408   3.402   0.484  16.383 -0.4308 -0.1749  0.6148
  221MPD1    C3 3409   3.537   0.524  16.400 -0.2089  0.5947  0.0308
  221MPD1    C4 3410   3.564   0.659  16.388 -0.3876  0.4602 -0.6726
  221MPD1    C5 3411   3.458   0.745  16.355  0.8557  0.2841  0.4571
  221MPD1     H 3412   3.376   0.384  16.415 -1.2353 -0.7454 -1.8136
  221MPD1    H1 3413   3.661   0.705  16.401  0.6384 -1.5997 -1.0018
  221MPD1    H2 3414   3.248   0.763  16.292  1.0053  0.1303  0.1854
  221MPD1    H3 3415   3.471   0.853  16.360 -0.0966  0.3524  1.4526
  221MPD1     N 3416   3.646   0.439  16.437 -1.2608 -0.1041 -0.0002
  221MPD1    H5 3417   3.737   0.481  16.451 -1.6600  0.3774  1.1586
  221MPD1    N1 3418   3.183   0.506  16.296 -0.0318  0.5616 -0.0445
  221MPD1    H6 3419   3.188   0.406  16.274 -1.5830 -0.1256  2.7087
  221MPD1    H7 3420   3.154   0.547  16.207 -0.2575 -1.6537 -0.9990
  222MPD1     C 3421   4.227   3.791  16.985  0.5367 -0.1675 -0.3937
  222MPD1    C1 3422   4.111   3.854  17.029 -0.0823  0.1466 -0.2355
  222MPD1    C2 3423   4.115   3.903  17.154  0.0611 -0.4212  0.3130
  222MPD1    C3 3424   4.212   3.860  17.245  0.7578  0.2398  0.4671
  222MPD1    C4 3425   4.317   3.780  17.198 -0.2088 -0.1814  0.0429
  222MPD1    C5 3426   4.317   3.742  17.071  0.7448 -0.5353 -0.1148
  222MPD1     H 3427   4.040   3.975  17.184  0.2310 -0.2296  0.2735
  222MPD1    H1 3428   4.386   3.742  17.272 -1.3361 -3.5228 -0.6388
  222MPD1    H2 3429   4.229   3.743  16.888 -2.2194  0.3644 -0.7057
  222MPD1    H3 3430   4.395   3.672  17.043  3.0039  1.1636  1.9823
  222MPD1     N 3431   4.233   3.920  17.373  0.0811 -0.5142 -0.2011
  222MPD1    H5 3432   4.327   3.910  17.408  0.8508  1.2640 -1.7489
  222MPD1    N1 3433   4.022   3.904  16.934 -0.1441  0.9183  0.3056
  222MPD1    H6 3434   3.930   3.917  16.976  0.9610  0.6582  2.7970
  222MPD1    H7 3435   4.008   3.840  16.856  0.0324  1.1173  0.1106
  223MPD1     C 3436   4.584   3.724   0.500 -0.0744  0.1145 -0.3586
  223MPD1    C1 3437   4.457   3.761   0.527  1.1748  1.0390  0.7514
  223MPD1    C2 3438   4.399   3.846   0.439  0.0430 -1.1399  0.0032
  223MPD1    C3 3439   4.456   3.867   0.313  0.1265  0.3939 -0.7322
  223MPD1    C4 3440   4.582   3.823   0.289  0.8555  0.0525  0.0331
  223MPD1    C5 3441   4.645   3.744   0.380 -0.1303 -0.4883  0.2443
  223MPD1     H 3442   4.301   3.888   0.459  1.3459  1.4456  0.9285
  223MPD1    H1 3443   4.635   3.847   0.198  0.8591  0.6052  0.1826
  223MPD1    H2 3444   4.644   3.676   0.577 -2.1183 -0.8520  0.6299
  223MPD1    H3 3445   0.011   3.712   0.365 -0.4735 -0.5129 -1.9861
  223MPD1     N 3446   4.376   3.942   0.220  0.6650 -0.0113  0.3516
  223MPD1    H5 3447   4.293   3.980   0.264  0.2384  0.7330 -1.1012
  223MPD1    N1 3448   4.403   3.748   0.661  0.7102  0.4879 -0.7190
  223MPD1    H6 3449   4.430   3.653   0.686  0.5391  0.2496 -1.4339
  223MPD1    H7 3450   4.302   3.752   0.654  0.5511  0.3260  1.5533
  224MPD1     C 3451   3.773   0.150   9.604  0.0995 -0.2953  0.3821
  224MPD1    C1 3452   3.857   0.099   9.503 -0.1405  0.3155  0.5856
  224MPD1    C2 3453   3.979   0.160   9.483 -0.3139  0.0782 -0.6245
  224MPD1    C3 3454   4.022   0.263   9.564 -0.5408  0.1541  0.5983
  224MPD1    C4 3455   3.947   0.303   9.669  0.2361 -0.0514  0.3079
  224MPD1    C5 3456   3.827   0.245   9.690  0.1793 -0.4278  0.1036
  224MPD1     H 3457   4.036   0.135   9.394  2.7472 -0.6045  1.4961
  224MPD1    H1 3458   3.986   0.378   9.737  3.5628 -0.5596 -1.0342
  224MPD1    H2 3459   3.680   0.100   9.629  0.9745 -1.6783  0.9347
  224MPD1    H3 3460   3.774   0.278   9.778  0.8794 -0.6681  0.6178
  224MPD1     N 3461   4.145   0.331   9.536  0.0097  0.3264  0.5102
  224MPD1    H5 3462   4.159   0.418   9.587 -0.0639  0.5017  0.2346
  224MPD1    N1 3463   3.816   4.727   9.421  0.3944  0.6524 -0.2211
  224MPD1    H6 3464   3.892   4.662   9.403 -2.0317 -1.8981 -1.2187
  224MPD1    H7 3465   3.740   4.678   9.467  0.5990 -2.1531 -2.8334
  225MPD1     C 3466   1.536   1.426  11.841  0.0158 -0.0094 -0.1615
  225MPD1    C1 3467   1.435   1.368  11.767  0.1735 -0.4352 -0.7096
  225MPD1    C2 3468   1.326   1.320  11.842 -0.0889 -0.7552 -0.0802
  225MPD1    C3 3469   1.308   1.353  11.978  0.0979 -0.6041  0.1929
  225MPD1    C4 3470   1.410   1.424  12.044 -0.1632  0.2640  0.0488
  225MPD1    C5 3471   1.521   1.461  11.974 -0.2700 -0.7964 -0.3603
  225MPD1     H 3472   1.244   1.269  11.792 -0.9085 -1.3765  1.9065
  225MPD1    H1 3473   1.406   1.459  12.146  0.5754 -0.0427  0.1809
  225MPD1    H2 3474   1.624   1.465  11.791  0.8138 -2.1917 -0.4672
  225MPD1    H3 3475   1.610   1.503  12.021  0.0752 -1.6256 -0.2785
  225MPD1     N 3476   1.190   1.316  12.051  0.0894  0.5110 -0.4261
  225MPD1    H5 3477   1.196   1.353  12.145  0.3877  0.1099 -0.2873
  225MPD1    N1 3478   1.458   1.324  11.636  0.4342 -0.0946  0.2452
  225MPD1    H6 3479   1.529   1.378  11.586  1.0015 -1.2345 -0.1689
  225MPD1    H7 3480   1.373   1.329  11.580 -1.2891 -3.4019  2.6116
  226MPD1     C 3481   0.691   1.311   9.764  0.1812 -0.5198  0.1137
  226MPD1    C1 3482   0.608   1.227   9.833 -0.0734  0.0498  0.1915
  226MPD1    C2 3483   0.481   1.252   9.820  0.1694 -0.7064  0.3404
  226MPD1    C3 3484   0.421   1.328   9.718 -0.0695 -0.1051  1.1850
  226MPD1    C4 3485   0.510   1.411   9.650 -0.5072 -0.0720  0.0844
  226MPD1    C5 3486   0.648   1.393   9.667  0.2755 -0.0371 -0.4020
  226MPD1     H 3487   0.421   1.200   9.893  0.9798 -1.9331  0.1184
  226MPD1    H1 3488   0.476   1.479   9.572 -1.6652  0.7020  1.2746
  226MPD1    H2 3489   0.797   1.304   9.786  0.5568  2.5663 -0.6453
  226MPD1    H3 3490   0.718   1.454   9.611  0.7905 -0.0315  0.2449
  226MPD1     N 3491   0.285   1.314   9.697  0.4789 -0.1168 -0.6787
  226MPD1    H5 3492   0.245   1.232   9.742  0.8875 -0.5442 -1.0890
  226MPD1    N1 3493   0.649   1.151   9.944 -0.2734 -0.1978  0.0583
  226MPD1    H6 3494   0.584   1.078   9.972  0.6268 -1.0569 -0.0963
  226MPD1    H7 3495   0.739   1.106   9.928  0.0943  0.1056  1.2759
  227MPD1     C 3496   4.312   1.979   9.391 -0.0379 -0.0579  0.0321
  227MPD1    C1 3497   4.403   1.984   9.498  0.2961  0.5545 -0.0751
  227MPD1    C2 3498   4.465   1.868   9.543 -0.6491  0.9219  0.3712
  227MPD1    C3 3499   4.434   1.755   9.480  0.5177 -0.0074  0.0334
  227MPD1    C4 3500   4.335   1.747   9.382  0.6034 -0.3194 -0.3765
  227MPD1    C5 3501   4.269   1.860   9.341 -0.2798 -0.4088  0.7668
  227MPD1     H 3502   4.536   1.870   9.625 -1.5772  0.1894  1.2034
  227MPD1    H1 3503   4.313   1.655   9.328  0.8377 -1.0900  0.8576
  227MPD1    H2 3504   4.277   2.069   9.343  0.0303  0.4368  0.9064
  227MPD1    H3 3505   4.207   1.856   9.252  0.1754  0.1677  0.4336
  227MPD1     N 3506   4.501   1.637   9.525 -0.0769 -0.0858  0.3717
  227MPD1    H5 3507   4.551   1.647   9.613 -1.4968  0.1821  1.1543
  227MPD1    N1 3508   4.454   2.115   9.535 -0.0757  0.5697 -0.3284
  227MPD1    H6 3509   4.386   2.189   9.515 -2.3568 -1.0377  1.4776
  227MPD1    H7 3510   4.488   2.109   9.631 -0.6423  0.5984 -0.1260
  228MPD1     C 3511   3.316   3.611  13.137 -0.2972  0.1773 -0.0807
  228MPD1    C1 3512   3.277   3.651  13.013 -0.2580 -0.7693  0.3854
  228MPD1    C2 3513   3.166   3.726  13.011  0.0727 -0.4908  0.4021
  228MPD1    C3 3514   3.088   3.753  13.125  0.3459  0.6626  0.1068
  228MPD1    C4 3515   3.133   3.712  13.252 -0.2987 -0.1212 -0.1789
  228MPD1    C5 3516   3.254   3.644  13.251 -0.3191  0.1861  0.5692
  228MPD1     H 3517   3.144   3.769  12.913  1.4060  0.8299  0.6686
  228MPD1    H1 3518   3.073   3.716  13.343  1.0554 -0.5092  0.7360
  228MPD1    H2 3519   3.409   3.557  13.153 -0.1071  0.0429 -1.6308
  228MPD1    H3 3520   3.283   3.609  13.349 -0.3751 -0.6040  0.3034
  228MPD1     N 3521   2.970   3.835  13.119 -0.1668  0.2817 -0.6143
  228MPD1    H5 3522   2.941   3.867  13.027 -0.1032  1.1653 -0.3188
  228MPD1    N1 3523   3.364   3.641  12.904 -0.1383  0.1939 -0.1310
  228MPD1    H6 3524   3.423   3.558  12.907  0.6596  0.5960 -4.0489
  228MPD1    H7 3525   3.315   3.642  12.815  0.0982 -1.1314 -0.2781
  229MPD1     C 3526   2.235   3.173  14.199 -0.2243  0.6428  0.8266
  229MPD1    C1 3527   2.291   3.245  14.309  1.0100  0.4918 -0.3890
  229MPD1    C2 3528   2.388   3.189  14.392  0.1650  1.1792  0.3437
  229MPD1    C3 3529   2.443   3.075  14.359  0.1161 -0.3460 -0.5637
  229MPD1    C4 3530   2.387   3.001  14.256 -0.0113  0.4859 -0.7306
  229MPD1    C5 3531   2.283   3.053  14.171  1.0744 -0.0971 -0.2830
  229MPD1     H 3532   2.418   3.245  14.480 -0.1108 -0.9234  1.7721
  229MPD1    H1 3533   2.419   2.899  14.242  0.3051  0.4778  0.0672
  229MPD1    H2 3534   2.166   3.214  14.126  0.3367 -0.7453 -0.4970
  229MPD1    H3 3535   2.232   2.992  14.098  1.7882  0.3560 -1.1675
  229MPD1     N 3536   2.547   3.012  14.435 -0.5465 -0.0520 -0.0035
  229MPD1    H5 3537   2.574   2.915  14.420 -4.2614 -1.1426  0.4526
  229MPD1    N1 3538   2.269   3.386  14.319 -0.2501 -0.7156  0.2374
  229MPD1    H6 3539   2.275   3.420  14.415  1.4581  0.6538 -0.3566
  229MPD1    H7 3540   2.179   3.410  14.277 -0.4713  0.9734  1.6642
  230MPD1     C 3541   2.997   2.953  15.418  0.6294 -0.0875 -0.1736
  230MPD1    C1 3542   3.031   2.839  15.349  0.5952 -0.3927  0.3056
  230MPD1    C2 3543   2.965   2.818  15.232 -0.4156  0.2735 -0.4124
  230MPD1    C3 3544   2.882   2.916  15.175 -0.2161  0.0433 -0.2706
  230MPD1    C4 3545   2.855   3.033  15.243  0.3723  0.4200  0.3707
  230MPD1    C5 3546   2.913   3.052  15.366  0.0935 -0.0231 -0.1326
  230MPD1     H 3547   2.972   2.730  15.169  0.3130  0.0222  0.0220
  230MPD1    H1 3548   2.803   3.115  15.195 -0.9879  0.2177  1.4735
  230MPD1    H2 3549   3.045   2.968  15.515 -1.0162  0.6579  0.5216
  230MPD1    H3 3550   2.906   3.146  15.420  0.0954 -1.4660  2.3727
  230MPD1     N 3551   2.842   2.887  15.041  0.0578  0.1410  0.4902
  230MPD1    H5 3552   2.862   2.793  15.010  2.1003 -0.1641  2.6481
  230MPD1    N1 3553   3.105   2.739  15.407  0.4424 -0.0806 -0.1361
  230MPD1    H6 3554   3.190   2.762  15.457  1.1001  0.4143 -1.4754
  230MPD1    H7 3555   3.136   2.669  15.340 -0.1352  0.5713 -1.0837
  231MPD1     C 3556   0.742   0.047  15.514  0.0692 -0.4410  0.1633
  231MPD1    C1 3557   0.760   4.698  15.412  0.2341 -0.4092  0.3914
  231MPD1    C2 3558   0.834   0.010  15.301  0.4801 -0.1943 -0.0465
  231MPD1    C3 3559   0.915   0.125  15.304  0.0041 -0.2579  0.5217
  231MPD1    C4 3560   0.886   0.205  15.413 -1.1630  0.5170  0.0473
  231MPD1    C5 3561   0.805   0.167  15.516  0.7611  0.2559  1.1937
  231MPD1     H 3562   0.846   4.675  15.220 -0.4297 -0.3391 -0.0467
  231MPD1    H1 3563   0.933   0.303  15.419 -1.5698  0.6582  0.8375
  231MPD1    H2 3564   0.688   0.026  15.605 -0.3849 -1.2962 -0.2970
  231MPD1    H3 3565   0.794   0.228  15.605  0.1990 -1.5451  2.3498
  231MPD1     N 3566   1.000   0.170  15.193  0.5786 -0.3840 -0.0030
  231MPD1    H5 3567   1.008   0.110  15.111 -0.0521  1.5100 -1.4545
  231MPD1    N1 3568   0.670   4.589  15.397  0.1704  0.0663  0.1783
  231MPD1    H6 3569   0.647   4.547  15.487 -0.4213  1.5403  0.7249
  231MPD1    H7 3570   0.710   4.522  15.332  1.3574 -0.8344  1.8346
  232MPD1     C 3571   2.712   2.784   0.378 -0.4119  0.6735  0.1978
  232MPD1    C1 3572   2.748   2.678   0.293 -0.0061  0.1180  0.1764
  232MPD1    C2 3573   2.668   2.662   0.179  0.5657  0.6332 -0.5015
  232MPD1    C3 3574   2.560   2.742   0.144  0.0941 -0.0635 -0.4488
  232MPD1    C4 3575   2.522   2.832   0.240 -0.7473 -0.2318 -0.5032
  232MPD1    C5 3576   2.593   2.852   0.352 -0.6899 -0.6442 -0.2774
  232MPD1     H 3577   2.700   2.582   0.113 -2.5422  0.3853 -1.7284
  232MPD1    H1 3578   2.434   2.894   0.225 -0.1603  0.9503  0.8555
  232MPD1    H2 3579   2.772   2.813   0.464  0.6483 -2.9374  0.6517
  232MPD1    H3 3580   2.566   2.928   0.424  0.1883 -0.8961  0.3279
  232MPD1     N 3581   2.488   2.709   0.028 -0.3554 -0.0898 -0.4580
  232MPD1    H5 3582   2.514   2.624  17.721 -1.7214 -0.2017 -1.0050
  232MPD1    N1 3583   2.839   2.578   0.331  0.1477  0.2967  0.4231
  232MPD1    H6 3584   2.929   2.616   0.362  0.9144 -1.1320 -0.0526
  232MPD1    H7 3585   2.859   2.532   0.242 -0.4722 -1.1123  1.0074
  233MPD1     C 3586   3.392   0.045   0.624 -0.2841 -0.8975 -0.2683
  233MPD1    C1 3587   3.470   4.683   0.672  0.4916 -0.2960  0.5166
  233MPD1    C2 3588   3.502   4.693   0.808 -0.4660 -0.0614 -0.2451
  233MPD1    C3 3589   3.466   0.062   0.889 -0.1617 -0.3431 -0.1699
  233MPD1    C4 3590   3.390   0.164   0.834 -0.4352 -0.1330  0.0131
  233MPD1    C5 3591   3.349   0.148   0.704 -0.1391  0.1185  0.0624
  233MPD1     H 3592   3.557   4.609   0.848 -0.8304 -0.4368 -0.5345
  233MPD1    H1 3593   3.357   0.248   0.893  0.3874  0.6317 -0.6207
  233MPD1    H2 3594   3.347   0.038   0.525  1.5433 -0.0781 -1.1665
  233MPD1    H3 3595   3.276   0.215   0.660  0.8183  0.9628 -0.2604
  233MPD1     N 3596   3.483   0.072   1.028  0.7521  0.8725 -0.4178
  233MPD1    H5 3597   3.449   0.152   1.081 -0.3193 -0.1849  0.4981
  233MPD1    N1 3598   3.493   4.563   0.602 -0.8648 -0.0569  0.0767
  233MPD1    H6 3599   3.581   4.519   0.628 -0.6446  0.1471 -0.3325
  233MPD1    H7 3600   3.481   4.576   0.502 -0.6018 -0.1942  0.0274
  234MPD1     C 3601   1.205   4.109   9.869  1.0014  0.4940 -0.1522
  234MPD1    C1 3602   1.105   4.044   9.795 -0.5205 -0.4080 -0.6075
  234MPD1    C2 3603   1.001   4.124   9.749  0.4893  0.9338 -0.5776
  234MPD1    C3 3604   0.987   4.258   9.792 -0.1483 -0.3832  0.1936
  234MPD1    C4 3605   1.086   4.316   9.872  0.7588 -0.5456 -0.2690
  234MPD1    C5 3606   1.186   4.239   9.915  0.1587 -0.2305 -0.2234
  234MPD1     H 3607   0.923   4.072   9.694  1.0941 -0.1591 -0.3920
  234MPD1    H1 3608   1.068   4.413   9.917 -0.7269 -1.0919  0.3078
  234MPD1    H2 3609   1.290   4.049   9.899  0.9371 -0.0544 -1.0567
  234MPD1    H3 3610   1.266   4.290   9.966 -0.1249  1.0072 -1.0087
  234MPD1     N 3611   0.879   4.331   9.756  0.5338  0.0016  0.2769
  234MPD1    H5 3612   0.818   4.283   9.690 -0.5511 -2.6080  3.1451
  234MPD1    N1 3613   1.128   3.921   9.730  0.0540  0.0467 -0.6671
  234MPD1    H6 3614   1.047   3.863   9.711 -2.0214  1.6042  3.6011
  234MPD1    H7 3615   1.182   3.858   9.789 -1.0552 -1.0715 -0.8531
  235MPD1     C 3616   2.219   1.282  11.966  0.1841  0.3327  0.2175
  235MPD1    C1 3617   2.272   1.391  11.913  0.0007 -0.5602  0.0980
  235MPD1    C2 3618   2.286   1.400  11.774  0.0989 -0.0343  0.0387
  235MPD1    C3 3619   2.253   1.298  11.685  0.0369 -0.6105  0.3139
  235MPD1    C4 3620   2.204   1.183  11.749 -0.2159 -0.1766  0.3660
  235MPD1    C5 3621   2.187   1.175  11.885  0.4427  0.4542  0.1957
  235MPD1     H 3622   2.335   1.490  11.739  0.6047  0.1216  1.1498
  235MPD1    H1 3623   2.169   1.099  11.691 -0.0769  1.1038 -1.5691
  235MPD1    H2 3624   2.206   1.276  12.074  1.6346  2.6704  0.5313
  235MPD1    H3 3625   2.147   1.088  11.936  0.0322  0.4343 -0.1611
  235MPD1     N 3626   2.269   1.313  11.543  0.7666 -0.5699  0.0171
  235MPD1    H5 3627   2.282   1.411  11.520 -0.3208 -0.5059 -0.3250
  235MPD1    N1 3628   2.339   1.482  11.991  0.2884 -0.1595 -0.2964
  235MPD1    H6 3629   2.343   1.575  11.950  2.3195 -0.6679 -1.2576
  235MPD1    H7 3630   2.297   1.503  12.082  0.2506 -0.2812 -0.2855
  236MPD1     C 3631   1.304   1.355  10.649  0.1642  0.0978 -0.0440
  236MPD1    C1 3632   1.271   1.315  10.522  0.2299 -0.1065  0.8103
  236MPD1    C2 3633   1.295   1.409  10.422 -0.1751  0.2532 -0.1381
  236MPD1    C3 3634   1.353   1.532  10.446  0.2438 -0.1862 -0.3173
  236MPD1    C4 3635   1.398   1.564  10.570 -0.0013  0.5857 -0.3018
  236MPD1    C5 3636   1.369   1.471  10.669 -0.4837 -1.0339  0.3018
  236MPD1     H 3637   1.273   1.384  10.319  1.2151  2.1501 -0.9049
  236MPD1    H1 3638   1.434   1.665  10.588  3.7129  0.0238 -4.6635
  236MPD1    H2 3639   1.288   1.286  10.732  0.1470 -1.4686 -1.3432
  236MPD1    H3 3640   1.413   1.490  10.766  2.1198 -0.6660 -0.9383
  236MPD1     N 3641   1.359   1.631  10.344 -0.1717  0.2961  0.0430
  236MPD1    H5 3642   1.385   1.724  10.376  0.4436  0.5937 -1.3054
  236MPD1    N1 3643   1.197   1.201  10.493 -0.3495  0.6089  0.0169
  236MPD1    H6 3644   1.233   1.160  10.407  0.2170 -2.0210  1.4783
  236MPD1    H7 3645   1.206   1.134  10.569 -2.5982 -2.1929 -2.1972
  237MPD1     C 3646   1.256   2.047  15.160  0.3883  0.4828 -0.2689
  237MPD1    C1 3647   1.198   1.992  15.050 -0.3933  0.7347 -0.4823
  237MPD1    C2 3648   1.136   1.866  15.056 -0.0495  0.0336 -0.1500
  237MPD1    C3 3649   1.127   1.799  15.172  0.3714 -0.0591 -0.0916
  237MPD1    C4 3650   1.182   1.858  15.282  0.1403  0.1799 -0.3199
  237MPD1    C5 3651   1.241   1.983  15.277  0.6171 -0.5304  0.6060
  237MPD1     H 3652   1.091   1.825  14.966  1.1560  2.8161 -1.9902
  237MPD1    H1 3653   1.182   1.810  15.379 -0.8006 -1.1431 -0.9727
  237MPD1    H2 3654   1.319   2.134  15.147  1.4603 -0.4681 -1.4890
  237MPD1    H3 3655   1.281   2.025  15.369  1.4179  2.9917 -1.3683
  237MPD1     N 3656   1.049   1.685  15.191 -0.3487 -0.3920  0.5094
  237MPD1    H5 3657   1.046   1.648  15.286 -1.2680 -0.8810  0.2905
  237MPD1    N1 3658   1.225   2.052  14.919 -0.2882 -0.0068  0.0972
  237MPD1    H6 3659   1.166   2.024  14.842 -2.3254  2.4844  0.7345
  237MPD1    H7 3660   1.240   2.153  14.918 -0.7676  0.0615  0.1371
  238MPD1     C 3661   2.770   0.401  14.766  0.4320  0.0994 -0.2209
  238MPD1    C1 3662   2.742   0.343  14.890 -0.3899  0.3354 -0.1789
  238MPD1    C2 3663   2.701   0.217  14.895 -0.6119 -0.0483  0.9215
  238MPD1    C3 3664   2.672   0.150  14.778 -1.1278 -0.4617 -0.4602
  238MPD1    C4 3665   2.706   0.200  14.656  0.1774 -0.7421 -0.1445
  238MPD1    C5 3666   2.758   0.328  14.654  0.1068 -0.3159  0.5129
  238MPD1     H 3667   2.664   0.179  14.989  1.1035  1.4191  2.1854
  238MPD1    H1 3668   2.696   0.146  14.563 -2.0381  0.3464 -0.5241
  238MPD1    H2 3669   2.806   0.504  14.762 -0.1838  0.4057  1.7914
  238MPD1    H3 3670   2.782   0.382  14.564  2.8969  1.0348  2.0707
  238MPD1     N 3671   2.613   0.021  14.768  0.0280 -0.4365  0.5578
  238MPD1    H5 3672   2.584   4.726  14.676  1.4503 -0.1253  0.0049
  238MPD1    N1 3673   2.756   0.420  14.999 -0.2298 -0.5514  0.4941
  238MPD1    H6 3674   2.694   0.397  15.076 -1.4346 -1.3471 -0.7219
  238MPD1    H7 3675   2.735   0.515  14.968 -0.4755 -0.1862  1.7736
  239MPD1     C 3676   2.805   0.869  14.277 -0.3179  0.0630 -0.4797
  239MPD1    C1 3677   2.752   0.950  14.370  0.3880 -0.2281 -0.0890
  239MPD1    C2 3678   2.624   0.990  14.360 -0.3286 -0.0751  0.3451
  239MPD1    C3 3679   2.552   0.963  14.248  0.1411 -0.4005  0.4317
  239MPD1    C4 3680   2.605   0.885  14.149  0.9091 -0.4788  1.2578
  239MPD1    C5 3681   2.729   0.828  14.170 -0.0234  0.3942 -0.3980
  239MPD1     H 3682   2.584   1.052  14.439 -1.6983  0.1681 -0.5359
  239MPD1    H1 3683   2.541   0.853  14.067  1.2812  2.1098 -0.0718
  239MPD1    H2 3684   2.907   0.834  14.269 -0.2187 -0.4284  2.6350
  239MPD1    H3 3685   2.767   0.750  14.105  4.0917  1.9618  0.1103
  239MPD1     N 3686   2.417   1.006  14.229  0.4588 -0.5803 -0.0152
  239MPD1    H5 3687   2.378   0.993  14.136 -0.9642 -1.5600  0.7281
  239MPD1    N1 3688   2.835   1.001  14.471 -0.0277  0.1846 -0.0876
  239MPD1    H6 3689   2.780   1.041  14.547  1.5295  0.0529  1.1159
  239MPD1    H7 3690   2.890   0.925  14.512  0.3152  0.3740 -0.2028
  240MPD1     C 3691   2.257   0.605  13.698 -0.1210 -0.2602  0.6316
  240MPD1    C1 3692   2.338   0.520  13.776  0.5039  0.0602 -0.9967
  240MPD1    C2 3693   2.334   0.518  13.914 -0.3807 -0.2311  0.4150
  240MPD1    C3 3694   2.250   0.609  13.977  0.2032 -0.2041 -0.5018
  240MPD1    C4 3695   2.176   0.696  13.903  0.1342  0.0911  0.4231
  240MPD1    C5 3696   2.178   0.697  13.767  0.2948  1.0378 -0.8591
  240MPD1     H 3697   2.402   0.453  13.968  2.1084  2.2600  0.2924
  240MPD1    H1 3698   2.113   0.766  13.956  1.6901  1.1778  0.8559
  240MPD1    H2 3699   2.261   0.605  13.590 -3.7590  0.2233  0.4844
  240MPD1    H3 3700   2.109   0.765  13.719 -2.8415 -0.6986  1.1242
  240MPD1     N 3701   2.234   0.599  14.118  0.1360 -0.3843  0.0835
  240MPD1    H5 3702   2.278   0.516  14.156  0.7754  0.1652  0.5520
  240MPD1    N1 3703   2.446   0.451  13.705  0.6564  0.0716 -0.0335
  240MPD1    H6 3704   2.472   0.364  13.751  3.0898 -0.4335 -2.3568
  240MPD1    H7 3705   2.404   0.436  13.613  0.6761 -2.7892  0.4186
  241MPD1     C 3706   2.200   0.932  15.138  0.1846  0.1671  0.0238
  241MPD1    C1 3707   2.075   0.942  15.075 -0.1180 -0.5628  0.8053
  241MPD1    C2 3708   2.079   0.912  14.936  0.5992 -0.0165  0.3636
  241MPD1    C3 3709   2.187   0.850  14.872 -0.1836 -0.1906  0.0046
  241MPD1    C4 3710   2.303   0.827  14.945  0.6608  0.1937 -0.4019
  241MPD1    C5 3711   2.311   0.876  15.075  0.1117 -0.2028  0.7315
  241MPD1     H 3712   1.989   0.926  14.878  0.6171  0.0339  0.3485
  241MPD1    H1 3713   2.382   0.771  14.897  1.3006  0.8659 -0.1290
  241MPD1    H2 3714   2.218   0.954  15.243 -3.3538  0.7734  0.5267
  241MPD1    H3 3715   2.398   0.859  15.137 -0.5253 -0.0191  1.6736
  241MPD1     N 3716   2.184   0.785  14.749 -0.1879  0.6009  0.2825
  241MPD1    H5 3717   2.256   0.715  14.739  0.8982  1.4064  2.3584
  241MPD1    N1 3718   1.968   1.003  15.136 -0.1593  0.1131 -0.6153
  241MPD1    H6 3719   1.883   0.977  15.087 -1.0907  0.2659  0.9224
  241MPD1    H7 3720   1.967   0.983  15.236 -0.7765 -2.1749 -1.0789
  242MPD1     C 3721   1.864   3.514  15.782  0.3703  0.1477  0.3907
  242MPD1    C1 3722   1.913   3.634  15.736 -0.0801 -0.3612  0.0443
  242MPD1    C2 3723   1.965   3.634  15.601 -0.9348 -0.4045 -0.0762
  242MPD1    C3 3724   1.934   3.534  15.511  0.3163 -0.0123 -1.1296
  242MPD1    C4 3725   1.856   3.428  15.556 -0.0404  0.5124 -0.8095
  242MPD1    C5 3726   1.836   3.415  15.693 -0.1750  0.5362 -0.7021
  242MPD1     H 3727   2.021   3.721  15.569 -0.0327 -0.9205  0.0960
  242MPD1    H1 3728   1.827   3.343  15.494  0.1547 -0.8034  0.8846
  242MPD1    H2 3729   1.829   3.500  15.884  1.2849 -2.6186  0.3252
  242MPD1    H3 3730   1.782   3.330  15.733  1.2555 -0.4156 -0.8038
  242MPD1     N 3731   1.970   3.534  15.371  0.0273  0.2771 -0.2786
  242MPD1    H5 3732   1.929   3.465  15.309  0.0821  0.0870 -0.1032
  242MPD1    N1 3733   1.937   3.735  15.835 -0.0013  0.3925  0.1043
  242MPD1    H6 3734   1.942   3.825  15.789  1.7714  0.0409 -0.4162
  242MPD1    H7 3735   1.859   3.735  15.899  0.4607  0.5173  0.6626
  243MPD1     C 3736   3.638   3.595  17.468 -0.0168 -0.4969  0.1206
  243MPD1    C1 3737   3.619   3.581  17.335  0.2873 -0.0439 -0.0967
  243MPD1    C2 3738   3.654   3.466  17.267  0.3922  0.1296 -0.5895
  243MPD1    C3 3739   3.713   3.368  17.343  0.1039  0.2730  0.7312
  243MPD1    C4 3740   3.740   3.386  17.476  0.1062  0.3529 -0.2025
  243MPD1    C5 3741   3.701   3.498  17.542 -0.2644  0.3127  0.0494
  243MPD1     H 3742   3.626   3.448  17.164  2.0360 -1.8221 -0.7073
  243MPD1    H1 3743   3.774   3.303  17.537 -2.1910 -0.6936 -0.3821
  243MPD1    H2 3744   3.614   3.686  17.522 -1.4105 -1.9362  1.9418
  243MPD1    H3 3745   3.718   3.512  17.648  1.4562 -1.3946 -0.0018
  243MPD1     N 3746   3.747   3.247  17.272 -0.2507 -0.1861 -0.3816
  243MPD1    H5 3747   3.726   3.247  17.173  0.1115  2.0082 -0.4718
  243MPD1    N1 3748   3.562   3.684  17.258 -0.3609 -0.2877  0.1828
  243MPD1    H6 3749   3.531   3.669  17.162 -1.2908  0.3833  0.3783
  243MPD1    H7 3750   3.486   3.723  17.313  0.5512  1.3155  0.3208
  244MPD1     C 3751   3.605   2.363  17.641 -0.4043 -0.2792  0.4411
  244MPD1    C1 3752   3.631   2.490  17.695  0.2842  0.1952 -0.3409
  244MPD1    C2 3753   3.678   2.588  17.613  0.4341 -0.0420  0.3229
  244MPD1    C3 3754   3.696   2.562  17.480  0.0303  0.3809  0.3784
  244MPD1    C4 3755   3.681   2.438  17.428  0.6617  0.1709 -0.7198
  244MPD1    C5 3756   3.644   2.335  17.515 -0.0538 -0.2466  0.5106
  244MPD1     H 3757   3.688   2.691  17.646  0.5355  0.7512 -2.2182
  244MPD1    H1 3758   3.707   2.402  17.329  2.3042  0.0511 -0.2458
  244MPD1    H2 3759   3.555   2.287  17.700 -0.5999  1.1617  2.1342
  244MPD1    H3 3760   3.641   2.236  17.471 -0.4935  0.0296 -0.0678
  244MPD1     N 3761   3.732   2.672  17.396 -0.7867  0.0232 -0.0681
  244MPD1    H5 3762   3.736   2.768  17.430  1.4066  0.1290 -0.6019
  244MPD1    N1 3763   3.575   2.528   0.072 -0.1574  0.1155 -0.5957
  244MPD1    H6 3764   3.616   2.611   0.115  1.8085 -0.7774 -0.7715
  244MPD1    H7 3765   3.548   2.458   0.141 -0.7032  1.4481  0.5390
  245MPD1     C 3766   0.530   2.222  13.318 -0.5288  0.3300 -0.2086
  245MPD1    C1 3767   0.517   2.265  13.451  0.8775  0.6136  0.0445
  245MPD1    C2 3768   0.573   2.384  13.485 -0.5102  0.1999  0.2588
  245MPD1    C3 3769   0.662   2.453  13.398 -0.1273 -0.5302 -0.0195
  245MPD1    C4 3770   0.686   2.393  13.270  0.0475  0.0327 -0.1958
  245MPD1    C5 3771   0.617   2.281  13.233 -0.4648 -0.3318 -0.3836
  245MPD1     H 3772   0.548   2.424  13.583 -2.6544 -1.6855  0.4912
  245MPD1    H1 3773   0.760   2.428  13.200  1.5549 -1.5657  0.6034
  245MPD1    H2 3774   0.481   2.132  13.283  0.0061  0.5485 -1.5328
  245MPD1    H3 3775   0.657   2.220  13.152 -0.6603 -0.3871 -0.4385
  245MPD1     N 3776   0.723   2.572  13.438  1.2312 -0.2506 -0.3674
  245MPD1    H5 3777   0.712   2.592  13.537 -0.8760  0.0864 -0.6737
  245MPD1    N1 3778   0.435   2.201  13.548  0.1841  0.3024 -0.4703
  245MPD1    H6 3779   0.420   2.104  13.523  1.3926  0.0904 -0.3522
  245MPD1    H7 3780   0.483   2.208  13.638 -0.0864  1.5883 -0.4290
  246MPD1     C 3781   1.736   4.138  10.514  0.3023 -0.4601 -0.6134
  246MPD1    C1 3782   1.729   4.100  10.381  0.0963 -0.5272 -0.0520
  246MPD1    C2 3783   1.791   3.976  10.350  0.0054 -0.6184  0.1004
  246MPD1    C3 3784   1.862   3.902  10.445  0.5279 -0.2401  0.0700
  246MPD1    C4 3785   1.861   3.948  10.580  0.1371 -0.1301 -0.0866
  246MPD1    C5 3786   1.814   4.074  10.612 -0.5736 -0.1969  0.5347
  246MPD1     H 3787   1.782   3.935  10.250  0.7116  2.2419 -1.1213
  246MPD1    H1 3788   1.926   3.895  10.648 -0.1180 -2.5300 -1.6683
  246MPD1    H2 3789   1.676   4.225  10.538  0.5859 -0.1719 -0.9393
  246MPD1    H3 3790   1.798   4.104  10.715  0.1567  2.2854 -0.0756
  246MPD1     N 3791   1.917   3.779  10.403 -0.4612  0.5456 -0.2144
  246MPD1    H5 3792   1.905   3.758  10.305 -2.6185  0.4153  0.0841
  246MPD1    N1 3793   1.635   4.169  10.303  0.4819 -0.3956 -0.0494
  246MPD1    H6 3794   1.649   4.154  10.204 -2.2647  0.3558 -0.5480
  246MPD1    H7 3795   1.630   4.268  10.324  1.7093 -0.3891  0.2321
  247MPD1     C 3796   0.328   3.531  16.662 -0.2113  0.1063  0.0113
  247MPD1    C1 3797   0.292   3.431  16.743  0.1331 -0.6403 -1.1589
  247MPD1    C2 3798   0.275   3.302  16.689  0.0871  0.0617 -0.0297
  247MPD1    C3 3799   0.289   3.280  16.552 -0.0609 -0.5470 -0.2965
  247MPD1    C4 3800   0.332   3.393  16.469 -0.6292 -0.2213  0.3025
  247MPD1    C5 3801   0.356   3.517  16.530  0.5505  0.5801  0.3811
  247MPD1     H 3802   0.263   3.221  16.759  1.6057 -0.3964 -0.2901
  247MPD1    H1 3803   0.361   3.377  16.365 -0.6387  1.4145  0.0429
  247MPD1    H2 3804   0.338   3.632  16.700  0.8487 -0.3630  0.9903
  247MPD1    H3 3805   0.401   3.596  16.472 -0.6976  3.2539  3.0808
  247MPD1     N 3806   0.274   3.154  16.491  0.3517 -0.0890 -0.1178
  247MPD1    H5 3807   0.304   3.147  16.394 -3.7477  1.5446 -1.5099
  247MPD1    N1 3808   0.263   3.446  16.879  0.5167  0.1941 -0.0596
  247MPD1    H6 3809   0.246   3.544  16.900 -0.2259 -0.5338  2.8124
  247MPD1    H7 3810   0.184   3.390  16.911 -0.4961  1.1333 -0.9368
  248MPD1     C 3811   4.285   2.332   0.190 -0.1325  0.1308  0.2400
  248MPD1    C1 3812   4.353   2.444   0.167  0.2884 -0.3204  0.4487
  248MPD1    C2 3813   4.468   2.469   0.233 -0.2321 -0.0426  0.4361
  248MPD1    C3 3814   4.520   2.382   0.324  0.0780 -0.2966 -0.2119
  248MPD1    C4 3815   4.447   2.265   0.351 -0.1401 -0.0631 -0.4386
  248MPD1    C5 3816   4.333   2.251   0.287 -0.1527  0.1438 -0.9227
  248MPD1     H 3817   4.520   2.558   0.199 -1.7592  0.1140 -1.5130
  248MPD1    H1 3818   4.470   2.186   0.422 -1.3551 -0.1700 -0.1556
  248MPD1    H2 3819   4.188   2.313   0.145  0.2064  2.1258 -1.3163
  248MPD1    H3 3820   4.282   2.159   0.313  1.7573 -0.5318  0.4480
  248MPD1     N 3821   4.650   2.400   0.375  0.1185  0.0532  0.2002
  248MPD1    H5 3822   4.691   2.488   0.347 -0.0933  0.1858  0.3063
  248MPD1    N1 3823   4.281   2.549   0.107  0.1907 -0.1688 -0.7371
  248MPD1    H6 3824   4.340   2.621   0.066  0.4299  1.4567  2.3986
  248MPD1    H7 3825   4.204   2.527   0.045 -0.2286 -0.7772  0.0086
  249MPD1     C 3826   1.914   0.350  11.735 -0.4999  0.5313 -0.4922
  249MPD1    C1 3827   1.976   0.462  11.698  0.0537  0.0597  0.1495
  249MPD1    C2 3828   2.054   0.466  11.583 -0.3292 -0.0679  0.6152
  249MPD1    C3 3829   2.045   0.361  11.488 -0.0428 -1.0253 -0.2344
  249MPD1    C4 3830   1.990   0.242  11.535 -0.0953 -0.3435 -0.1631
  249MPD1    C5 3831   1.929   0.240  11.654  0.6874  0.4955  0.1360
  249MPD1     H 3832   2.126   0.544  11.562  0.2458 -0.8990 -0.4881
  249MPD1    H1 3833   1.995   0.148  11.483  1.1426 -0.7352  0.6707
  249MPD1    H2 3834   1.863   0.336  11.830 -1.2178 -0.3811 -1.0107
  249MPD1    H3 3835   1.882   0.145  11.678  1.3838 -0.1547 -1.0767
  249MPD1     N 3836   2.117   0.362  11.367 -0.7791 -0.1503  0.5040
  249MPD1    H5 3837   2.163   0.450  11.346  0.1764  0.0065  3.2494
  249MPD1    N1 3838   1.989   0.563  11.804  0.6866 -0.5113 -0.4964
  249MPD1    H6 3839   1.998   0.658  11.770  0.4968  0.3270  1.7958
  249MPD1    H7 3840   1.917   0.550  11.876  0.6113  1.7566 -0.1744
  250MPD2     C 3841   4.356   0.240  13.018  1.5400  0.3288 -0.2736
  250MPD2    C1 3842   4.233   0.297  13.029 -0.4497 -0.1692 -0.4586
  250MPD2    C2 3843   4.121   0.232  12.998 -0.1589 -0.5103  0.4993
  250MPD2    C3 3844   4.132   0.097  12.954 -0.9199 -0.1456 -0.0368
  250MPD2    C4 3845   4.253   0.034  12.956 -0.1244  0.7425 -0.6916
  250MPD2    C5 3846   4.360   0.108  12.979  0.0597  0.4096  0.5022
  250MPD2     H 3847   4.028   0.287  13.007 -1.7191 -3.6480  3.2495
  250MPD2    H1 3848   4.271   4.664  12.940 -0.1909  0.7892 -1.0626
  250MPD2    H2 3849   4.448   0.283  13.056  1.0928 -1.0233  2.2975
  250MPD2    H3 3850   4.456   0.058  12.981  0.1573  0.6350  1.7769
  250MPD2     N 3851   4.019   0.019  12.931 -0.1872 -0.5063  0.4623
  250MPD2    H5 3852   4.026   4.657  12.905 -0.3584  0.5268 -3.5943
  250MPD2    N1 3853   4.226   0.423  13.086 -0.2091  0.1976  0.5042
  250MPD2    H7 3854   4.310   0.479  13.077 -2.1701  2.5803 -3.1224
  251TMC3    C1 3855   4.141   0.618  13.193 -0.0456 -0.2892  0.0927
  251TMC3    C2 3856   4.035   0.686  13.240 -0.0152 -0.5385 -0.4651
  251TMC3    C3 3857   4.055   0.809  13.295 -0.3344 -0.7192 -0.5518
  251TMC3    C4 3858   4.260   0.686  13.185  0.5208 -0.2096 -0.5864
  251TMC3    C5 3859   4.268   0.819  13.234 -0.6182  0.6392 -0.2705
  251TMC3    C6 3860   4.165   0.884  13.293 -0.3550 -0.4593 -0.1064
  251TMC3     C 3861   4.116   0.491  13.133  0.0319 -0.1815 -0.0986
  251TMC3     O 3862   4.000   0.452  13.134 -0.1448  0.2904 -0.2849
  251TMC3     H 3863   3.940   0.634  13.252 -0.6091  0.8326  0.6999
  251TMC3    H1 3864   4.351   0.633  13.159  0.5074  0.4126 -1.9396
  251TMC3    H2 3865   4.165   0.977  13.349  2.8853 -0.5687  0.0480
  251TMC3    C7 3866   4.398   0.877  13.218  0.4881 -0.5415 -0.1656
  251TMC3    C8 3867   3.939   0.879  13.329  0.0719  0.1785 -0.9615
  251TMC3    O1 3868   4.490   0.815  13.158 -0.1350 -0.2990  0.1917
  251TMC3    O2 3869   3.832   0.852  13.279 -0.2829 -0.5336 -0.7553
  252TMC3    C1 3870   3.930   2.072   8.984  0.8675  0.1778 -0.3673
  252TMC3    C2 3871   4.052   2.030   8.932 -0.3981  0.2310 -0.5973
  252TMC3    C3 3872   4.164   2.079   8.980 -0.6339 -0.2288  0.1468
  252TMC3    C4 3873   3.926   2.142   9.107 -0.6112 -0.0058 -0.1711
  252TMC3    C5 3874   4.043   2.197   9.145  0.2974  0.2503  0.0406
  252TMC3    C6 3875   4.156   2.178   9.073 -0.2572 -0.1504  0.3420
  252TMC3     C 3876   3.815   2.019   8.937 -0.1257 -0.2502  0.4717
  252TMC3     O 3877   3.720   2.003   9.019 -0.1884  0.3199  0.6546
  252TMC3     H 3878   4.052   1.953   8.856  1.4515  1.1383 -1.5255
  252TMC3    H1 3879   3.827   2.155   9.148 -0.6899 -0.5393 -0.1813
  252TMC3    H2 3880   4.243   2.232   9.108 -0.1730  0.4844 -0.8394
  252TMC3    C7 3881   4.059   2.231   9.286 -0.3239  0.8069  0.1920
  252TMC3    C8 3882   4.288   2.004   8.961 -0.5531 -0.2850 -0.1766
  252TMC3    O1 3883   4.152   2.303   9.305 -0.1291  0.2138  0.4373
  252TMC3    O2 3884   4.293   1.927   8.870 -0.3066 -0.1136 -0.8341
  253MPD2     C 3885   0.667   1.765  15.287 -0.4663 -0.1021 -0.0828
  253MPD2    C1 3886   0.538   1.711  15.287 -0.3469 -0.3618 -0.4945
  253MPD2    C2 3887   0.480   1.684  15.409 -0.4734 -0.6768  0.2110
  253MPD2    C3 3888   0.541   1.708  15.528  0.5432 -0.1367  0.1679
  253MPD2    C4 3889   0.678   1.740  15.524 -0.0650  0.0577  0.2407
  253MPD2    C5 3890   0.742   1.776  15.405  0.4818 -0.6198 -0.1283
  253MPD2     H 3891   0.375   1.660  15.419 -0.4635 -1.5214 -1.7948
  253MPD2    H1 3892   0.731   1.766  15.615 -2.6257 -0.0426  1.7820
  253MPD2    H2 3893   0.716   1.791  15.194 -0.7445  3.1033  0.6698
  253MPD2    H3 3894   0.838   1.827  15.408  1.3232 -2.1210 -1.4683
  253MPD2     N 3895   0.478   1.693  15.655  0.6433 -0.0052  0.0187
  253MPD2    H5 3896   0.532   1.722  15.736  0.9069 -2.4432  0.7291
  253MPD2    N1 3897   0.459   1.709  15.174  0.0340  0.4668 -0.8512
  253MPD2    H7 3898   0.368   1.668  15.189  0.6180 -0.1527  0.9759
  254TMC3    C1 3899   0.301   1.673  15.813 -0.0201 -0.1644  0.1184
  254TMC3    C2 3900   0.166   1.688  15.820 -1.0525 -0.1921  0.0368
  254TMC3    C3 3901   0.112   1.704  15.946 -0.4458 -0.1396  0.3821
  254TMC3    C4 3902   0.385   1.662  15.927  0.2807 -0.1862 -1.1129
  254TMC3    C5 3903   0.318   1.668  16.047  0.5572 -0.1795 -0.5270
  254TMC3    C6 3904   0.187   1.701  16.058  0.0857 -0.0923 -0.2551
  254TMC3     C 3905   0.350   1.644  15.675  0.1116  0.4958  0.1010
  254TMC3     O 3906   0.255   1.626  15.592 -0.1517 -0.0872 -0.1275
  254TMC3     H 3907   0.096   1.681  15.738 -0.8267  1.7060 -0.3339
  254TMC3    H1 3908   0.483   1.622  15.907  0.4884  0.4200 -1.2986
  254TMC3    H2 3909   0.135   1.722  16.151 -0.1329  0.5717 -0.5240
  254TMC3    C7 3910   0.378   1.606  16.162 -0.0664 -0.7034 -0.2827
  254TMC3    C8 3911   4.710   1.759  15.961  0.4170  0.1433  1.3016
  254TMC3    O1 3912   0.305   1.595  16.265  0.6023  0.1806  0.1224
  254TMC3    O2 3913   4.653   1.737  16.067  0.4111 -0.0622  0.2047
  255MPD2     C 3914   3.235   2.923  10.306 -0.7518  0.1813  0.4208
  255MPD2    C1 3915   3.266   3.049  10.350  0.3698 -0.2108  0.2437
  255MPD2    C2 3916   3.403   3.078  10.357 -0.1910  0.2784  0.3741
  255MPD2    C3 3917   3.497   2.980  10.346  0.1713 -0.3044  0.4573
  255MPD2    C4 3918   3.467   2.850  10.325 -0.8607  0.7179 -0.5142
  255MPD2    C5 3919   3.331   2.822  10.300  0.9071  0.2686 -0.7944
  255MPD2     H 3920   3.444   3.175  10.384 -0.4694  1.0356 -1.9156
  255MPD2    H1 3921   3.542   2.773  10.314 -1.8206 -0.4142  0.8099
  255MPD2    H2 3922   3.134   2.906  10.270 -0.7889  0.5015  0.3697
  255MPD2    H3 3923   3.293   2.732  10.253  0.9839  0.4636 -1.2303
  255MPD2     N 3924   3.632   3.024  10.362 -0.0120  0.5175 -0.1289
  255MPD2    H5 3925   3.651   3.122  10.381 -0.7654  0.5382  0.5475
  255MPD2    N1 3926   3.160   3.135  10.380 -0.3291  0.3456  0.3514
  255MPD2    H7 3927   3.066   3.097  10.377  0.2053 -0.7893 -1.4839
  256TMC3    C1 3928   3.049   3.339  10.397  0.3127  0.2480 -0.2391
  256TMC3    C2 3929   3.064   3.444  10.310  0.7888  0.1375 -0.2290
  256TMC3    C3 3930   3.003   3.445  10.186 -0.0499  0.1230 -0.7146
  256TMC3    C4 3931   2.936   3.257  10.386  0.0787  0.3804 -0.1833
  256TMC3    C5 3932   2.874   3.267  10.267 -0.5860 -0.0804 -0.2979
  256TMC3    C6 3933   2.913   3.345  10.161  0.0702  0.0581 -0.7995
  256TMC3     C 3934   3.177   3.266  10.397 -0.3245  0.4771 -0.3417
  256TMC3     O 3935   3.277   3.336  10.392  0.3040 -0.0571  0.0872
  256TMC3     H 3936   3.147   3.513  10.321  2.2919 -1.5509 -1.0065
  256TMC3    H1 3937   2.911   3.187  10.465  0.4187 -0.3411 -0.7155
  256TMC3    H2 3938   2.893   3.332  10.055 -2.1899 -2.1104 -0.0960
  256TMC3    C7 3939   2.831   3.131  10.227  0.6148 -0.4480  0.2081
  256TMC3    C8 3940   3.092   3.483  10.081  0.6405  0.6221  0.8577
  256TMC3    O1 3941   2.864   3.036  10.296 -0.5838 -0.0398  0.0826
  256TMC3    O2 3942   3.088   3.425   9.976 -0.5878  0.3303  0.5057
  257MPD2     C 3943   1.942   0.762  12.789  0.1145 -0.2156 -0.4826
  257MPD2    C1 3944   2.055   0.831  12.825 -1.0832  0.5672  0.0325
  257MPD2    C2 3945   2.174   0.764  12.858  0.2233 -0.0940  0.3192
  257MPD2    C3 3946   2.177   0.626  12.852 -0.0919 -0.3133 -0.4447
  257MPD2    C4 3947   2.063   0.559  12.815 -0.4201 -0.5660  0.0984
  257MPD2    C5 3948   1.949   0.625  12.772  0.8920  0.5959 -0.1465
  257MPD2     H 3949   2.263   0.819  12.887 -0.1789  0.2191  0.9708
  257MPD2    H1 3950   2.072   0.451  12.815  0.1226 -0.5211 -0.0386
  257MPD2    H2 3951   1.846   0.808  12.774  0.5404 -0.4311 -3.8523
  257MPD2    H3 3952   1.860   0.575  12.736 -0.9217  1.5666  3.0031
  257MPD2     N 3953   2.282   0.549  12.885  0.6437  0.2998 -0.2319
  257MPD2    H5 3954   2.271   0.449  12.876 -1.7388  0.6519 -1.3896
  257MPD2    N1 3955   2.049   0.969  12.815 -0.4042  0.1937  1.0076
  257MPD2    H7 3956   1.970   1.007  12.763  0.5550 -0.7716 -1.1564
  258TMC3    C1 3957   2.506   0.479  12.923  0.8421 -0.4484 -0.4638
  258TMC3    C2 3958   2.489   0.398  12.815 -0.2077  0.4075 -0.9135
  258TMC3    C3 3959   2.524   0.269  12.826 -0.0056 -0.5299  0.4456
  258TMC3    C4 3960   2.547   0.432  13.046 -0.0336 -0.5363 -0.3939
  258TMC3    C5 3961   2.561   0.298  13.059 -0.5637  0.0129 -0.1759
  258TMC3    C6 3962   2.558   0.214  12.947 -0.3313  0.3814 -0.1500
  258TMC3     C 3963   2.407   0.589  12.926 -0.1218 -0.4099  0.5689
  258TMC3     O 3964   2.449   0.700  12.953 -0.3058 -0.8030  0.2359
  258TMC3     H 3965   2.451   0.434  12.720 -0.1585 -0.2463 -1.1857
  258TMC3    H1 3966   2.545   0.502  13.128 -1.5911  0.9752 -1.7174
  258TMC3    H2 3967   2.562   0.106  12.950 -4.1890  0.2415 -0.3386
  258TMC3    C7 3968   2.533   0.232  13.184  0.2743 -0.0111 -0.2249
  258TMC3    C8 3969   2.560   0.193  12.707  0.1190  0.6327  0.6890
  258TMC3    O1 3970   2.455   0.141  13.182 -0.5043 -0.3029  0.0003
  258TMC3    O2 3971   2.638   0.095  12.717  0.0252  0.3669 -0.7457
  259MPD2     C 3972   1.977   2.901   0.669 -0.0461  0.1859  0.1928
  259MPD2    C1 3973   1.904   2.786   0.664  0.3553  0.6732 -0.2200
  259MPD2    C2 3974   1.812   2.773   0.566  0.0420 -0.3989 -0.2732
  259MPD2    C3 3975   1.793   2.877   0.481 -0.4778  0.4185 -0.0865
  259MPD2    C4 3976   1.860   2.997   0.491  0.2203  0.3446  0.5456
  259MPD2    C5 3977   1.958   3.005   0.584 -0.5072  0.0967  0.6987
  259MPD2     H 3978   1.760   2.681   0.546  2.7503 -2.1262  0.5865
  259MPD2    H1 3979   1.846   3.074   0.416 -1.3512  0.7370  1.2271
  259MPD2    H2 3980   2.049   2.915   0.749  1.1414  1.6604 -1.1439
  259MPD2    H3 3981   2.026   3.090   0.583 -0.0048 -0.3081  0.2364
  259MPD2     N 3982   1.702   2.850   0.379  0.1160  0.0198 -0.2917
  259MPD2    H5 3983   1.694   2.752   0.356  0.5808 -0.5216  1.8300
  259MPD2    N1 3984   1.936   2.685   0.753  0.2715 -0.1897 -0.6846
  259MPD2    H7 3985   2.014   2.706   0.814  0.0274 -0.8060 -0.1577
  260TMC3    C1 3986   1.570   2.889   0.190  0.1664  0.2460 -0.4695
  260TMC3    C2 3987   1.545   2.987   0.095 -0.5558  0.4620  0.1442
  260TMC3    C3 3988   1.509   2.942  17.714 -0.1667 -0.1833 -0.2526
  260TMC3    C4 3989   1.539   2.762   0.169 -1.6464 -0.1369  0.3495
  260TMC3    C5 3990   1.485   2.723   0.045 -0.3440 -0.0976 -0.0112
  260TMC3    C6 3991   1.484   2.810  17.684  0.3966 -0.8212  0.0381
  260TMC3     C 3992   1.639   2.947   0.301  0.4106 -1.0457  0.0771
  260TMC3     O 3993   1.637   3.069   0.315  0.0542  0.1243  0.0087
  260TMC3     H 3994   1.583   3.088   0.095  1.5096 -0.3290  1.5405
  260TMC3    H1 3995   1.559   2.685   0.243 -2.8453 -0.4034  0.3976
  260TMC3    H2 3996   1.462   2.790  17.580 -2.0771 -0.4514  0.4948
  260TMC3    C7 3997   1.477   2.583   0.012 -0.3273  0.4101 -0.0219
  260TMC3    C8 3998   1.570   3.027  17.613 -0.4333 -0.3516  0.3977
  260TMC3    O1 3999   1.464   2.560  17.633 -0.4680  0.0139  0.5568
  260TMC3    O2 4000   1.544   3.146  17.608 -0.0296  0.2146  0.0933
  261MPD2     C 4001   3.488   0.093  12.323  0.6113  0.2187  0.7303
  261MPD2    C1 4002   3.544   0.163  12.428  0.4570 -0.2508 -0.4386
  261MPD2    C2 4003   3.564   0.299  12.409 -0.0726 -0.2734  0.3637
  261MPD2    C3 4004   3.522   0.362  12.299 -0.0511  0.3581  0.7574
  261MPD2    C4 4005   3.454   0.294  12.202  0.4043 -0.6555  0.4393
  261MPD2    C5 4006   3.436   0.160  12.217 -1.0295  0.6806  0.3268
  261MPD2     H 4007   3.602   0.352  12.496  0.4710  0.5717 -0.3941
  261MPD2    H1 4008   3.416   0.354  12.121  3.0971  1.2284  0.5521
  261MPD2    H2 4009   3.462   4.724  12.335  1.6417 -0.1276 -0.0899
  261MPD2    H3 4010   3.375   0.110  12.143  2.0733 -1.8743 -0.5109
  261MPD2     N 4011   3.537   0.506  12.300 -0.2631  0.8056 -0.2913
  261MPD2    H5 4012   3.597   0.535  12.377 -0.7332  2.9995 -0.7583
  261MPD2    N1 4013   3.608   0.099  12.538  0.0930  0.0216  0.1708
  261MPD2    H7 4014   3.662   0.155  12.603 -0.4574 -1.1745  1.6317
  262TMC3    C1 4015   3.525   0.739  12.264  0.7395 -0.4695  0.4063
  262TMC3    C2 4016   3.456   0.833  12.200 -0.6762  0.6647 -0.0565
  262TMC3    C3 4017   3.510   0.961  12.199 -0.1457 -0.1121 -0.6373
  262TMC3    C4 4018   3.658   0.749  12.289 -0.0515 -0.4657  0.1462
  262TMC3    C5 4019   3.712   0.875  12.270 -0.0695 -0.3932 -0.6401
  262TMC3    C6 4020   3.640   0.982  12.231  0.6396 -0.2557  0.5379
  262TMC3     C 4021   3.482   0.607  12.223  0.7531  0.6932 -0.0105
  262TMC3     O 4022   3.401   0.597  12.134 -0.3006 -0.4560  0.0737
  262TMC3     H 4023   3.354   0.809  12.172 -0.2325 -1.4508  0.1173
  262TMC3    H1 4024   3.717   0.677  12.344  0.4631 -0.0576  0.1306
  262TMC3    H2 4025   3.677   1.083  12.242 -0.4613  0.3437 -1.3505
  262TMC3    C7 4026   3.837   0.897  12.340 -0.3884  0.4417  0.2664
  262TMC3    C8 4027   3.425   1.077  12.184 -0.6820 -0.2084 -0.4185
  262TMC3    O1 4028   3.878   0.812  12.424  0.1584 -0.4211 -0.3681
  262TMC3    O2 4029   3.493   1.177  12.176  0.2066  0.5807  0.4681
  263MPD2     C 4030   4.271   0.299  11.626  0.3819 -0.6196  0.2267
  263MPD2    C1 4031   4.303   0.252  11.504 -0.1089 -0.2465 -0.5860
  263MPD2    C2 4032   4.301   0.333  11.393  0.7959  0.2703  0.6756
  263MPD2    C3 4033   4.270   0.465  11.406  0.0312 -0.2028 -0.1923
  263MPD2    C4 4034   4.224   0.508  11.530  0.6512  0.1639 -0.1801
  263MPD2    C5 4035   4.219   0.425  11.638  0.2026  0.9333 -0.4672
  263MPD2     H 4036   4.326   0.296  11.295 -1.8869  0.0780  0.0699
  263MPD2    H1 4037   4.176   0.604  11.543 -0.8644 -0.6206  0.0004
  263MPD2    H2 4038   4.282   0.244  11.719  1.3934 -0.1024  0.4131
  263MPD2    H3 4039   4.201   0.459  11.740 -2.9182  0.9353 -1.0210
  263MPD2     N 4040   4.268   0.546  11.294  0.2578  0.0023  1.1629
  263MPD2    H5 4041   4.267   0.495  11.206  1.6002 -1.8613  2.2257
  263MPD2    N1 4042   4.344   0.119  11.503 -0.0072 -0.3138  0.1500
  263MPD2    H7 4043   4.343   0.072  11.593 -2.2267  2.5642  1.6195
  264TMC3    C1 4044   4.215   0.740  11.177  0.9569  0.5540 -0.1446
  264TMC3    C2 4045   4.140   0.855  11.179  0.0925 -0.4653 -0.2532
  264TMC3    C3 4046   4.092   0.901  11.062 -0.1090  0.3896  0.3556
  264TMC3    C4 4047   4.248   0.676  11.062 -0.0458  0.1241  0.0886
  264TMC3    C5 4048   4.187   0.724  10.943  0.1740 -0.1286  0.5459
  264TMC3    C6 4049   4.104   0.834  10.942  0.7558 -0.1482 -0.6684
  264TMC3     C 4050   4.251   0.682  11.298  0.6725  0.2541 -0.1200
  264TMC3     O 4051   4.249   0.758  11.391 -0.3870  0.0140  0.5136
  264TMC3     H 4052   4.150   0.916  11.268 -1.2320 -1.3612  0.5053
  264TMC3    H1 4053   4.331   0.606  11.054  1.4907  1.9918 -0.5114
  264TMC3    H2 4054   4.052   0.872  10.855 -0.9310 -2.3655 -0.6458
  264TMC3    C7 4055   4.236   0.673  10.818 -0.2735  0.6524  0.2582
  264TMC3    C8 4056   3.983   1.002  11.078  0.1526  0.3101  0.3115
  264TMC3    O1 4057   4.284   0.561  10.826  0.4403  0.1255 -0.0949
  264TMC3    O2 4058   3.943   1.061  10.982  0.2868 -0.4140  0.1129
  265MPD2     C 4059   1.191   1.140  15.883 -0.4911  0.3583  0.0376
  265MPD2    C1 4060   1.235   1.222  15.781 -0.2188 -0.3552 -0.6964
  265MPD2    C2 4061   1.319   1.180  15.678  0.0539 -0.4694  0.8493
  265MPD2    C3 4062   1.352   1.042  15.679 -0.1503  0.0143 -0.7680
  265MPD2    C4 4063   1.316   0.957  15.781 -0.7406 -0.0680 -0.0079
  265MPD2    C5 4064   1.236   1.006  15.883  0.1135 -0.2362  0.2263
  265MPD2     H 4065   1.350   1.249  15.600 -0.6008 -1.3848 -0.2160
  265MPD2    H1 4066   1.346   0.852  15.780 -0.1943  0.1541 -4.2376
  265MPD2    H2 4067   1.135   1.173  15.970  0.2875  1.7569  0.0062
  265MPD2    H3 4068   1.205   0.936  15.959  0.8479  0.5708  1.2745
  265MPD2     N 4069   1.415   0.991  15.564  0.1373  0.0047  0.0707
  265MPD2    H5 4070   1.425   0.890  15.571  2.8328  0.3959  1.5846
  265MPD2    N1 4071   1.199   1.360  15.786 -0.0309 -0.0259 -0.1654
  265MPD2    H7 4072   1.254   1.428  15.735 -2.3089  1.1437 -1.0745
  266TMC3    C1 4073   1.076   1.554  15.843  0.1401 -0.1930 -0.3422
  266TMC3    C2 4074   1.194   1.627  15.853  1.0439  0.8444  0.5860
  266TMC3    C3 4075   1.179   1.751  15.902 -0.2335  0.5159  0.2856
  266TMC3    C4 4076   0.959   1.606  15.889  0.3342 -0.6877 -0.4008
  266TMC3    C5 4077   0.948   1.738  15.912  0.3628  0.5767  0.2513
  266TMC3    C6 4078   1.061   1.812  15.931  0.7706 -0.4364 -0.5845
  266TMC3     C 4079   1.094   1.411  15.859  0.4371  0.3043  0.1542
  266TMC3     O 4080   1.001   1.345  15.908 -0.7027  0.0823 -0.1515
  266TMC3     H 4081   1.290   1.581  15.833  0.5933 -0.4634  1.3880
  266TMC3    H1 4082   0.872   1.541  15.891  0.4801 -0.8265  1.9115
  266TMC3    H2 4083   1.052   1.910  15.975  3.2131 -1.1343  1.4430
  266TMC3    C7 4084   0.818   1.797  15.920 -0.1407 -0.2327  0.3294
  266TMC3    C8 4085   1.303   1.807  15.957 -0.4196  0.2134  0.5412
  266TMC3    O1 4086   0.726   1.729  15.956 -0.5085  0.7063  0.0616
  266TMC3    O2 4087   1.392   1.726  15.974  0.3023  0.1124 -0.2199
  267MPD2     C 4088   3.366   3.341   0.786 -0.3388 -0.4626 -0.4308
  267MPD2    C1 4089   3.482   3.365   0.705  0.1421  0.4445 -0.2426
  267MPD2    C2 4090   3.460   3.425   0.580  0.1925 -0.2269  0.2414
  267MPD2    C3 4091   3.331   3.461   0.533 -0.0109 -0.2155 -0.3653
  267MPD2    C4 4092   3.225   3.441   0.619  0.0155 -0.2706  0.1485
  267MPD2    C5 4093   3.245   3.391   0.746 -0.4615  0.2513  0.2892
  267MPD2     H 4094   3.542   3.458   0.518  0.3529 -1.2780 -0.1072
  267MPD2    H1 4095   3.123   3.471   0.598  0.3800 -0.0289 -1.2444
  267MPD2    H2 4096   3.367   3.301   0.887 -0.9313  0.6561  0.0172
  267MPD2    H3 4097   3.157   3.392   0.810 -0.9081 -1.6007 -0.3012
  267MPD2     N 4098   3.300   3.521   0.412  0.1884  0.2165  0.3575
  267MPD2    H5 4099   3.200   3.528   0.393  0.1347 -4.4654 -1.2398
  267MPD2    N1 4100   3.611   3.317   0.735 -0.1217  0.4101  0.2857
  267MPD2    H7 4101   3.621   3.268   0.824  2.7813 -1.0373 -0.8467
  268TMC3    C1 4102   3.844   3.292   0.738  0.5159  0.1409  0.5539
  268TMC3    C2 4103   3.961   3.355   0.702 -0.3224 -0.1732 -0.5833
  268TMC3    C3 4104   4.088   3.316   0.757 -0.0684 -0.0280  0.2714
  268TMC3    C4 4105   3.849   3.185   0.827 -0.2516  0.2564  0.3944
  268TMC3    C5 4106   3.967   3.153   0.890 -0.2979 -0.5753  0.2667
  268TMC3    C6 4107   4.086   3.213   0.851 -0.3308  0.3677  0.8788
  268TMC3     C 4108   3.732   3.353   0.678  0.0346 -0.4000  0.3608
  268TMC3     O 4109   3.751   3.423   0.580  0.5243  0.0387 -0.4074
  268TMC3     H 4110   3.950   3.444   0.641 -0.6170  0.2848  0.1402
  268TMC3    H1 4111   3.750   3.154   0.857 -0.3010 -0.4994 -0.5467
  268TMC3    H2 4112   4.182   3.180   0.890  0.1590  1.2889  0.4603
  268TMC3    C7 4113   3.976   3.042   0.972  0.7526 -0.2143  0.4298
  268TMC3    C8 4114   4.212   3.351   0.691 -0.0613  0.0318 -0.0471
  268TMC3    O1 4115   4.085   2.984   0.964  0.1140  0.1459  0.4504
  268TMC3    O2 4116   4.317   3.289   0.719  0.2282 -0.0294  0.0759
  269MPD2     C 4117   4.453   2.059  15.343 -0.0065  0.1963  0.2353
  269MPD2    C1 4118   4.320   2.044  15.327  0.1046  0.9115 -0.0137
  269MPD2    C2 4119   4.269   2.151  15.254  0.3234 -0.3216 -0.2899
  269MPD2    C3 4120   4.338   2.264  15.203 -0.0228  0.5826  0.1648
  269MPD2    C4 4121   4.473   2.279  15.226  0.1448 -0.7502 -0.1040
  269MPD2    C5 4122   4.525   2.173  15.301  0.0869 -0.3785 -0.6430
  269MPD2     H 4123   4.167   2.151  15.218  0.2164 -0.9666  0.0094
  269MPD2    H1 4124   4.530   2.361  15.183  1.6436 -1.1520  1.0864
  269MPD2    H2 4125   4.504   1.984  15.402  0.3482  0.9584  0.9075
  269MPD2    H3 4126   4.631   2.165  15.321 -0.7171 -2.5525  2.8453
  269MPD2     N 4127   4.257   2.364  15.141  0.4849  0.3400 -0.9279
  269MPD2    H5 4128   4.158   2.350  15.124  0.6066 -0.7474 -0.7357
  269MPD2    N1 4129   4.248   1.935  15.376 -0.8660 -0.3449  0.6134
  269MPD2    H7 4130   4.301   1.868  15.431  0.1396  0.5556  0.7496
  270TMC3    C1 4131   4.073   1.806  15.469 -0.2752 -0.5860 -0.8313
  270TMC3    C2 4132   3.948   1.757  15.444 -0.1533 -0.6895  0.7417
  270TMC3    C3 4133   3.894   1.656  15.520 -0.4799 -0.5941  0.4677
  270TMC3    C4 4134   4.135   1.785  15.586 -0.3610  0.2337  0.5381
  270TMC3    C5 4135   4.084   1.687  15.663 -0.3325  0.6908  0.0427
  270TMC3    C6 4136   3.970   1.620  15.629  0.7127 -0.1493  0.2316
  270TMC3     C 4137   4.114   1.920  15.379  0.3752  0.2984 -0.0773
  270TMC3     O 4138   4.034   1.972  15.306  0.5598  0.6392  0.3705
  270TMC3     H 4139   3.898   1.787  15.353 -2.4470 -0.6553  1.9797
  270TMC3    H1 4140   4.236   1.820  15.607 -0.0617 -0.5665  0.4386
  270TMC3    H2 4141   3.930   1.542  15.692 -1.4934  2.3159  1.8851
  270TMC3    C7 4142   4.175   1.623  15.753 -0.4164 -1.2187  0.5208
  270TMC3    C8 4143   3.844   1.553  15.438  0.6128  0.0532 -0.4957
  270TMC3    O1 4144   4.290   1.609  15.721 -0.3734  0.1475  0.2867
  270TMC3    O2 4145   3.879   1.560  15.321  0.4061 -0.3837 -0.5567
  271MPD2     C 4146   3.069   0.846  14.028  0.2125  0.0149  0.8208
  271MPD2    C1 4147   3.046   0.966  14.091 -0.1141  0.0956 -0.8266
  271MPD2    C2 4148   2.968   1.061  14.030 -0.4766  0.4382 -0.3594
  271MPD2    C3 4149   2.901   1.030  13.917  0.1408  0.6671  0.5637
  271MPD2    C4 4150   2.911   0.901  13.865 -1.2098 -0.2926 -0.1474
  271MPD2    C5 4151   3.006   0.810  13.910  0.4691 -0.2288  0.2659
  271MPD2     H 4152   2.960   1.157  14.080 -1.3538  0.3983 -0.4256
  271MPD2    H1 4153   2.869   0.880  13.768 -1.0321  0.3154 -0.3585
  271MPD2    H2 4154   3.141   0.778  14.071  0.6549 -0.2069 -0.2598
  271MPD2    H3 4155   3.026   0.717  13.860  0.6216 -0.8058  1.4078
  271MPD2     N 4156   2.827   1.126  13.843 -0.7806 -1.1311  0.6479
  271MPD2    H5 4157   2.780   1.082  13.764 -0.4349  0.7561 -0.6271
  271MPD2    N1 4158   3.107   1.007  14.215  0.3896 -0.2672  0.3127
  271MPD2    H7 4159   3.076   1.099  14.245  2.1727 -0.5826  3.1263
  272TMC3    C1 4160   3.274   1.013  14.387  0.0241 -0.0493  0.2269
  272TMC3    C2 4161   3.359   0.938  14.465  0.1343 -0.1410 -0.3242
  272TMC3    C3 4162   3.455   1.013  14.524  0.5332 -0.0632 -0.0122
  272TMC3    C4 4163   3.284   1.147  14.371  0.2480  0.3532 -0.6322
  272TMC3    C5 4164   3.384   1.214  14.432 -0.1936  0.2538 -0.3010
  272TMC3    C6 4165   3.466   1.147  14.510 -0.4426  0.3632 -0.6088
  272TMC3     C 4166   3.191   0.936  14.299 -0.1817 -0.2352 -0.4704
  272TMC3     O 4167   3.205   0.810  14.291  0.5710  0.3605 -0.0342
  272TMC3     H 4168   3.358   0.830  14.471 -0.2255 -0.1620 -0.8346
  272TMC3    H1 4169   3.206   1.205  14.321 -1.2327 -0.9704  0.1359
  272TMC3    H2 4170   3.561   1.185  14.546 -0.8843 -2.4360  3.5739
  272TMC3    C7 4171   3.393   1.357  14.406 -0.5584  0.2995  0.2672
  272TMC3    C8 4172   3.577   0.943  14.509  0.3626  0.5129 -0.0387
  272TMC3    O1 4173   3.339   1.394  14.303 -0.0222  0.3796 -0.7063
  272TMC3    O2 4174   3.591   0.894  14.395  0.2707  0.2782  0.0501
  273MPD2     C 4175   4.730   3.377  11.465 -0.6440  0.4432 -0.0448
  273MPD2    C1 4176   0.045   3.501  11.461  0.7543  0.2928 -0.4217
  273MPD2    C2 4177   0.044   3.566  11.337  0.3391 -0.3324 -0.1108
  273MPD2    C3 4178   4.735   3.510  11.223 -1.1108 -0.0221  0.8748
  273MPD2    C4 4179   4.694   3.383  11.222  0.3379 -0.0703 -0.5322
  273MPD2    C5 4180   4.691   3.315  11.347  0.9460  0.9707  0.1090
  273MPD2     H 4181   0.092   3.663  11.337  2.5569 -1.4338  1.8098
  273MPD2    H1 4182   4.672   3.326  11.132  1.4983 -2.1804  0.5098
  273MPD2    H2 4183   4.721   3.318  11.555  1.8133 -0.3538 -0.3298
  273MPD2    H3 4184   4.640   3.219  11.345 -1.9291  2.5034  0.1975
  273MPD2     N 4185   4.733   3.570  11.090 -0.0411 -0.2144 -0.5196
  273MPD2    H5 4186   4.682   3.522  11.016  2.1115 -0.6273 -1.7383
  273MPD2    N1 4187   0.113   3.547  11.576 -0.3973  0.4983  0.4485
  273MPD2    H7 4188   0.107   3.484  11.656  0.0134  1.0303  0.9030
  274TMC3    C1 4189   0.051   3.728  10.926 -0.1140  0.2551  0.8958
  274TMC3    C2 4190   4.666   3.727  10.866 -0.0860  0.3157 -0.0533
  274TMC3    C3 4191   4.646   3.825  10.769  0.4020 -0.6115  0.1298
  274TMC3    C4 4192   0.142   3.828  10.905 -0.3314  0.9524 -0.0806
  274TMC3    C5 4193   0.107   3.936  10.834  0.3977  0.1451  0.3531
  274TMC3    C6 4194   0.001   3.927  10.746  0.1028  0.0763 -0.4799
  274TMC3     C 4195   0.062   3.688  11.064  1.0571 -0.0848 -0.3699
  274TMC3     O 4196   0.090   3.782  11.134 -0.1425 -0.2064  0.0613
  274TMC3     H 4197   4.590   3.654  10.889  0.8012  0.0026  1.8879
  274TMC3    H1 4198   0.236   3.843  10.957  0.2615  0.5868 -1.0524
  274TMC3    H2 4199   4.705   4.021  10.702  0.7331  0.2881 -0.4918
  274TMC3    C7 4200   0.092   4.052  10.915  0.1817 -0.0985  0.5364
  274TMC3    C8 4201   4.532   3.822  10.674 -0.9815 -0.5408 -0.0399
  274TMC3    O1 4202   4.723   4.065  10.977 -0.3421 -0.0590 -0.3893
  274TMC3    O2 4203   4.437   3.743  10.693  0.7650 -0.3744  0.2436
  275MPD2     C 4204   0.413   1.859  14.594 -0.3198 -0.5357 -0.1586
  275MPD2    C1 4205   0.358   1.959  14.514  0.1994  0.4000  0.0106
  275MPD2    C2 4206   0.251   1.930  14.430 -0.3396 -0.5602  0.0084
  275MPD2    C3 4207   0.180   1.811  14.435  0.0362 -0.4919 -0.4256
  275MPD2    C4 4208   0.239   1.714  14.520 -0.2399  0.6238  0.3457
  275MPD2    C5 4209   0.352   1.738  14.593  0.3606 -0.4147  0.3070
  275MPD2     H 4210   0.206   2.017  14.383  1.0834  0.2962  0.2125
  275MPD2    H1 4211   0.191   1.617  14.531  0.0149  0.7677  2.9105
  275MPD2    H2 4212   0.509   1.870  14.643 -0.0167 -1.9805 -0.4259
  275MPD2    H3 4213   0.398   1.661  14.653  1.2082  0.4330  0.7484
  275MPD2     N 4214   0.057   1.787  14.367  0.1035 -0.0010  0.0089
  275MPD2    H5 4215   0.013   1.698  14.390  0.4174 -0.1544  0.0043
  275MPD2    N1 4216   0.405   2.094  14.521  0.4540 -0.0489 -0.3730
  275MPD2    H7 4217   0.353   2.169  14.477  0.8501  1.7938  2.2679
  276TMC3    C1 4218   0.534   2.279  14.577 -0.4273  0.3660  0.7805
  276TMC3    C2 4219   0.425   2.352  14.533 -0.2827 -0.2612 -0.0321
  276TMC3    C3 4220   0.405   2.465  14.601 -0.0062  0.3156 -0.1078
  276TMC3    C4 4221   0.635   2.335  14.653 -0.0006  0.5227 -0.3091
  276TMC3    C5 4222   0.607   2.454  14.709 -0.0811  0.6196 -0.6071
  276TMC3    C6 4223   0.489   2.520  14.691  0.7481  0.1812 -0.0032
  276TMC3     C 4224   0.514   2.135  14.591 -0.7053  0.3142 -0.8334
  276TMC3     O 4225   0.608   2.071  14.634  0.4774 -0.0382 -0.0342
  276TMC3     H 4226   0.357   2.311  14.459  1.3970 -3.4214  0.1920
  276TMC3    H1 4227   0.729   2.286  14.679  1.7493  3.0774 -1.7509
  276TMC3    H2 4228   0.459   2.617  14.731  1.8691  0.2804  0.5920
  276TMC3    C7 4229   0.680   2.513  14.817 -0.1752 -0.1367  0.0220
  276TMC3    C8 4230   0.311   2.566  14.550  0.0517 -0.2347 -0.3660
  276TMC3    O1 4231   0.608   2.572  14.897  0.6037  0.5271 -0.4053
  276TMC3    O2 4232   0.361   2.676  14.531  0.6531  0.3387 -0.6604
  277MPD2     C 4233   1.851   1.116  13.052  0.5928  0.9621  0.4279
  277MPD2    C1 4234   1.721   1.149  13.071  0.6563 -0.3264  0.3337
  277MPD2    C2 4235   1.657   1.073  13.169 -0.3810 -0.5151 -0.8103
  277MPD2    C3 4236   1.714   0.974  13.234  0.5634 -0.4694 -0.4200
  277MPD2    C4 4237   1.850   0.952  13.223  0.1811  0.8925  0.5675
  277MPD2    C5 4238   1.916   1.017  13.121 -0.3813 -0.8834  0.3263
  277MPD2     H 4239   1.551   1.089  13.184 -0.1926 -1.7503  1.9532
  277MPD2    H1 4240   1.898   0.866  13.270  0.9977 -0.1464 -2.1628
  277MPD2    H2 4241   1.912   1.171  12.981  1.1571  1.1088  1.0199
  277MPD2    H3 4242   2.021   0.995  13.106 -0.6135  0.0014 -2.6325
  277MPD2     N 4243   1.633   0.892  13.321  0.0477  0.1255 -0.3204
  277MPD2    H5 4244   1.538   0.922  13.337 -1.0869 -3.0179 -1.1391
  277MPD2    N1 4245   1.661   1.256  13.000 -1.0130  0.2211 -0.0986
  277MPD2    H7 4246   1.726   1.317  12.952 -0.9476 -1.4237 -2.1107
  278TMC3    C1 4247   1.559   0.718  13.453  0.0173 -0.5853  0.8264
  278TMC3    C2 4248   1.569   0.580  13.456  0.3412 -0.0733  0.1183
  278TMC3    C3 4249   1.448   0.521  13.490 -0.5474  0.8458 -0.6076
  278TMC3    C4 4250   1.454   0.790  13.497  0.3643  0.2294 -0.4203
  278TMC3    C5 4251   1.343   0.724  13.542 -0.5045  0.1492  0.4444
  278TMC3    C6 4252   1.334   0.588  13.540  0.7448  0.2979  0.1333
  278TMC3     C 4253   1.665   0.772  13.384  0.5343  0.4618 -0.9062
  278TMC3     O 4254   1.765   0.700  13.369  0.0694  0.4101  0.2807
  278TMC3     H 4255   1.653   0.515  13.434  0.3843  0.0815 -0.1694
  278TMC3    H1 4256   1.474   0.896  13.510  3.9097 -0.1968 -2.3995
  278TMC3    H2 4257   1.254   0.533  13.588  1.6839 -2.2266 -1.1893
  278TMC3    C7 4258   1.223   0.812  13.549  0.3005  0.1097  0.2672
  278TMC3    C8 4259   1.449   0.376  13.489  0.1161 -0.7585  0.1996
  278TMC3    O1 4260   1.230   0.902  13.468  0.0106 -0.8557  0.1492
  278TMC3    O2 4261   1.555   0.318  13.518 -0.1971 -0.1903 -0.0389
  279MPD2     C 4262   0.780   0.798   0.408 -0.3058  0.0154  0.3028
  279MPD2    C1 4263   0.741   0.913   0.345 -0.5496  0.3160 -0.0130
  279MPD2    C2 4264   0.791   0.940   0.227  0.1611 -0.0659 -0.5176
  279MPD2    C3 4265   0.893   0.859   0.174  0.9088 -0.0412 -0.1685
  279MPD2    C4 4266   0.949   0.750   0.247  0.7414  0.5914 -0.1642
  279MPD2    C5 4267   0.882   0.722   0.360 -0.3170  0.4471 -0.1441
  279MPD2     H 4268   0.740   1.009   0.161  0.7874  0.4413 -0.4723
  279MPD2    H1 4269   1.026   0.685   0.209  0.2797 -0.1930  0.2548
  279MPD2    H2 4270   0.731   0.769   0.500  1.0263  2.1565  1.6780
  279MPD2    H3 4271   0.916   0.642   0.426 -4.2439 -1.5564 -0.5376
  279MPD2     N 4272   0.942   0.902   0.047 -0.1547  0.4715  0.0038
  279MPD2    H5 4273   0.895   0.976  17.740  0.6402  0.4458 -0.7960
  279MPD2    N1 4274   0.640   0.996   0.400 -0.1713 -0.2980  0.2112
  279MPD2    H7 4275   0.577   0.949   0.464  0.2694 -0.5673  0.4464
  280TMC3    C1 4276   0.508   1.198   0.391 -0.1545 -0.2321  0.6965
  280TMC3    C2 4277   0.396   1.126   0.390 -0.4240  0.3710 -0.3297
  280TMC3    C3 4278   0.280   1.203   0.383  0.7805 -0.5335  0.2823
  280TMC3    C4 4279   0.521   1.334   0.393 -0.5376 -0.4730  0.1234
  280TMC3    C5 4280   0.404   1.400   0.373 -0.7763 -0.2412 -0.2825
  280TMC3    C6 4281   0.284   1.334   0.372 -0.5467 -0.1846  0.3648
  280TMC3     C 4282   0.630   1.131   0.359 -0.8582  0.0071 -0.7026
  280TMC3     O 4283   0.718   1.191   0.303  0.3424  0.0153  0.2418
  280TMC3     H 4284   0.392   1.018   0.390  2.2599  0.2662  3.8173
  280TMC3    H1 4285   0.615   1.389   0.390 -1.1805  0.7290  1.8096
  280TMC3    H2 4286   0.193   1.392   0.376  0.8587  2.0781 -0.6435
  280TMC3    C7 4287   0.404   1.540   0.392 -0.1278  0.1019  0.0983
  280TMC3    C8 4288   0.146   1.139   0.406  0.0193  1.1342 -0.0226
  280TMC3    O1 4289   0.512   1.579   0.441  0.6340 -0.1019  0.0742
  280TMC3    O2 4290   0.051   1.191   0.464  0.3206  0.2820 -0.7101
  281TMC3    C1 4291   0.057   0.844  13.582  0.3681  0.4774  0.3721
  281TMC3    C2 4292   0.104   0.918  13.477 -0.1131 -0.2293  0.2055
  281TMC3    C3 4293   0.117   0.849  13.356  0.1540 -0.5762  0.7005
  281TMC3    C4 4294   0.035   0.708  13.567  0.2644  0.4141 -0.6239
  281TMC3    C5 4295   0.040   0.644  13.445 -0.3152 -0.1639 -0.6144
  281TMC3    C6 4296   0.092   0.713  13.337  0.4461 -0.0789 -0.4128
  281TMC3     C 4297   4.673   0.908  13.637 -0.0209  0.1263 -0.6051
  281TMC3     O 4298   4.578   0.839  13.665 -0.2869  0.2213  0.1120
  281TMC3     H 4299   0.141   1.019  13.489  2.3422 -1.2657  1.4426
  281TMC3    H1 4300   0.008   0.648  13.654  3.4527  0.6340  0.5238
  281TMC3    H2 4301   0.092   0.662  13.241 -2.7144 -0.2141 -0.3471
  281TMC3    C7 4302   4.675   0.553  13.424  0.8329 -0.3399  0.2204
  281TMC3    C8 4303   0.186   0.909  13.244 -0.1832  0.2613 -0.3592
  281TMC3    O1 4304   4.695   0.458  13.347  0.8291 -0.5960 -0.2689
  281TMC3    O2 4305   0.285   0.851  13.209  0.0567  0.2446  0.1442
  282MPD2     C 4306   1.596   2.902  15.110 -0.1860  0.2418 -0.1951
  282MPD2    C1 4307   1.467   2.933  15.148 -0.7097  0.3658  0.3000
  282MPD2    C2 4308   1.376   2.957  15.043  0.1176  0.4262  0.4158
  282MPD2    C3 4309   1.410   2.943  14.908  0.0360  0.5371  0.3999
  282MPD2    C4 4310   1.540   2.902  14.880 -0.8421 -0.9423  0.5649
  282MPD2    C5 4311   1.630   2.877  14.979  0.2588  0.3195  0.5380
  282MPD2     H 4312   1.274   2.993  15.054  0.1010  0.6271 -0.3747
  282MPD2    H1 4313   1.571   2.888  14.778  1.0694  0.1109  1.0123
  282MPD2    H2 4314   1.675   2.896  15.184  0.9635  0.3214 -1.4272
  282MPD2    H3 4315   1.734   2.855  14.957  0.4643  1.5235  0.3064
  282MPD2     N 4316   1.320   2.980  14.807 -0.3014  0.7775  1.2250
  282MPD2    H5 4317   1.230   3.021  14.832 -0.6940  0.8591 -0.3057
  282MPD2    N1 4318   1.431   2.937  15.286  0.2285 -0.4110  0.6554
  282MPD2    H7 4319   1.507   2.945  15.353  0.8555  0.8595 -0.1994
  283TMC3    C1 4320   1.297   2.938  15.477 -0.2519 -0.2219  0.5310
  283TMC3    C2 4321   1.371   3.026  15.556  0.1511  0.5754 -0.2613
  283TMC3    C3 4322   1.362   3.017  15.688  0.4171  0.0117  0.2721
  283TMC3    C4 4323   1.219   2.853  15.543 -0.4143  0.0409 -0.0809
  283TMC3    C5 4324   1.210   2.847  15.680  0.4653 -0.0447 -1.0796
  283TMC3    C6 4325   1.283   2.928  15.759  0.0384  0.6844  0.2584
  283TMC3     C 4326   1.304   2.927  15.327 -0.3486  0.7515 -0.1495
  283TMC3     O 4327   1.197   2.906  15.272 -0.2540 -0.1801  0.1679
  283TMC3     H 4328   1.438   3.089  15.500  0.8296 -0.5082 -0.6745
  283TMC3    H1 4329   1.151   2.790  15.486 -0.1838  0.5877 -0.9579
  283TMC3    H2 4330   1.263   2.952  15.862 -1.8160  0.0704  0.0408
  283TMC3    C7 4331   1.081   2.799  15.736  0.2371 -0.0822  0.0815
  283TMC3    C8 4332   1.412   3.137  15.760 -0.3292 -0.2260 -0.5179
  283TMC3    O1 4333   1.034   2.882  15.807  0.0511 -0.0593 -0.1896
  283TMC3    O2 4334   1.417   3.122  15.884  0.5761  0.0558 -0.0256
  284MPD2     C 4335   4.287   1.630  12.418  0.5232 -0.1060 -0.0645
  284MPD2    C1 4336   4.354   1.727  12.350 -0.2373  0.2357 -0.5502
  284MPD2    C2 4337   4.488   1.725  12.344  0.4635  0.1806 -0.0006
  284MPD2    C3 4338   4.560   1.628  12.406 -0.0832 -0.5215 -0.0955
  284MPD2    C4 4339   4.494   1.538  12.483 -0.7257  0.0672 -0.9224
  284MPD2    C5 4340   4.356   1.536  12.489  0.2784 -0.5357 -0.3982
  284MPD2     H 4341   4.533   1.798  12.279  0.9385  0.4146  0.5912
  284MPD2    H1 4342   4.539   1.459  12.542 -0.7805  1.3026  0.7531
  284MPD2    H2 4343   4.179   1.623  12.421  0.3745  1.9099 -1.1364
  284MPD2    H3 4344   4.307   1.460  12.550 -1.6747  0.5815 -0.6118
  284MPD2     N 4345   4.706   1.619  12.399 -0.0586 -0.5140 -0.2664
  284MPD2    H5 4346   0.005   1.539  12.452 -1.2039 -0.8973 -0.1039
  284MPD2    N1 4347   4.288   1.824  12.266 -0.5834  0.0399  0.1742
  284MPD2    H7 4348   4.356   1.889  12.226 -2.1445  0.2621 -2.1196
  285TMC3    C1 4349   4.122   1.932  12.142 -0.5342  0.2440  0.6036
  285TMC3    C2 4350   4.007   1.916  12.074  0.3287 -0.0959 -0.2077
  285TMC3    C3 4351   3.953   2.014  11.993 -0.2791  0.0999 -0.0775
  285TMC3    C4 4352   4.184   2.049  12.150 -0.5133  0.1379 -0.3038
  285TMC3    C5 4353   4.133   2.138  12.067  0.5001  0.0242 -0.0438
  285TMC3    C6 4354   4.024   2.126  11.982  0.5724  0.7335  0.0639
  285TMC3     C 4355   4.155   1.831  12.240 -0.1677  0.4281  0.0611
  285TMC3     O 4356   4.067   1.746  12.260 -0.0324 -0.8317  0.6730
  285TMC3     H 4357   3.970   1.814  12.074 -1.3986  0.5139  2.4760
  285TMC3    H1 4358   4.276   2.059  12.206 -1.0841 -0.6631  0.7757
  285TMC3    H2 4359   3.993   2.206  11.915 -0.6241  0.9249  0.8473
  285TMC3    C7 4360   4.211   2.259  12.045  0.3051  0.7141  0.7274
  285TMC3    C8 4361   3.887   1.977  11.868  0.3077  0.4996  0.0637
  285TMC3    O1 4362   4.149   2.352  12.003  0.0809  0.5313 -0.3764
  285TMC3    O2 4363   3.904   1.866  11.815 -0.0032  0.0948  0.2610
  286MPD2     C 4364   0.167   1.352   1.532 -0.6488  0.0298  0.0479
  286MPD2    C1 4365   0.082   1.310   1.432 -0.3487 -0.5777  0.3706
  286MPD2    C2 4366   0.093   1.184   1.384  0.3423 -0.0254 -0.2516
  286MPD2    C3 4367   0.196   1.093   1.425 -0.7732 -0.2312  0.0179
  286MPD2    C4 4368   0.277   1.132   1.532 -0.0674  0.3653  0.2474
  286MPD2    C5 4369   0.271   1.265   1.574 -0.0366  0.4640 -0.9101
  286MPD2     H 4370   0.029   1.148   1.305 -0.9370 -0.9820  1.2303
  286MPD2    H1 4371   0.365   1.077   1.563 -2.1689 -1.1614  3.4993
  286MPD2    H2 4372   0.163   1.448   1.583  0.4778 -0.1563  0.5015
  286MPD2    H3 4373   0.353   1.299   1.636 -1.6592  1.7531  0.5271
  286MPD2     N 4374   0.211   0.963   1.388  0.2420  0.2435  0.4077
  286MPD2    H5 4375   0.286   0.913   1.436 -1.2845 -0.4691  2.0523
  286MPD2    N1 4376   4.706   1.386   1.398  0.1764  0.2873 -0.0803
  286MPD2    H7 4377   4.633   1.348   1.338 -0.6287 -0.2231  1.2148
  287TMC3    C1 4378   0.193   0.752   1.272 -0.7188 -0.2661 -0.1848
  287TMC3    C2 4379   0.121   0.691   1.175 -0.2579  0.4857  0.1167
  287TMC3    C3 4380   0.142   0.564   1.142  0.2158  0.5400  0.7071
  287TMC3    C4 4381   0.295   0.693   1.329  0.1430 -0.3864 -0.0484
  287TMC3    C5 4382   0.325   0.565   1.294 -0.5176 -0.0926 -0.3369
  287TMC3    C6 4383   0.251   0.502   1.196 -0.5426  0.0497 -0.9510
  287TMC3     C 4384   0.146   0.895   1.297  0.0933  1.2538  0.6038
  287TMC3     O 4385   0.093   0.944   1.197  0.0645  0.4672  0.8446
  287TMC3     H 4386   0.039   0.745   1.131 -1.9143 -2.7766 -0.8250
  287TMC3    H1 4387   0.352   0.741   1.407 -1.2578  1.0474  0.1046
  287TMC3    H2 4388   0.278   0.400   1.172  1.0479  0.6139 -1.5763
  287TMC3    C7 4389   0.455   0.522   1.328  0.1858 -0.0923 -0.3447
  287TMC3    C8 4390   0.079   0.503   1.028 -0.2285 -0.0741 -0.0074
  287TMC3    O1 4391   0.494   0.561   1.436 -0.8099  0.0719 -0.1483
  287TMC3    O2 4392   0.132   0.400   0.991  0.0241  0.2508 -0.2740
  288TMC3    C1 4393   1.778   0.646  14.068  0.1081  0.3471 -0.4371
  288TMC3    C2 4394   1.745   0.710  14.185 -0.2342 -0.7328  0.1304
  288TMC3    C3 4395   1.655   0.810  14.185 -0.4809 -0.1232  0.2839
  288TMC3    C4 4396   1.721   0.690  13.952  0.3376 -0.4428  0.1059
  288TMC3    C5 4397   1.641   0.800  13.949  0.3246  0.2870 -0.7265
  288TMC3    C6 4398   1.610   0.863  14.065  0.2160 -0.2929 -0.6279
  288TMC3     C 4399   1.874   0.538  14.069 -0.0512  0.4808  0.2644
  288TMC3     O 4400   1.899   0.497  14.189  0.0987  0.4638  0.2509
  288TMC3     H 4401   1.809   0.683  14.268  0.4392  1.4802  0.3357
  288TMC3    H1 4402   1.757   0.653  13.857 -0.9635  0.0906 -0.5901
  288TMC3    H2 4403   1.547   0.951  14.064  1.4605  0.6046 -1.0727
  288TMC3    C7 4404   1.621   0.871  13.825  1.0499 -0.4487 -0.5906
  288TMC3    C8 4405   1.612   0.875  14.312  0.0060 -0.4476 -0.2573
  288TMC3    O1 4406   1.689   0.844  13.730  0.4313  0.1679  0.7154
  288TMC3    O2 4407   1.571   0.992  14.300 -0.1783 -0.7582 -0.1568
  289MPD2     C 4408   2.108   0.030  14.358  0.7240 -0.0029  0.8824
  289MPD2    C1 4409   2.024   0.121  14.416  0.2720 -0.2331  0.2707
  289MPD2    C2 4410   1.892   0.098  14.431  0.8302 -0.1684 -0.0047
  289MPD2    C3 4411   1.842   4.712  14.397 -0.2530 -0.2650  0.4266
  289MPD2    C4 4412   1.923   4.620  14.330  1.0358 -0.3081 -0.0636
  289MPD2    C5 4413   2.056   4.651  14.306 -0.0248 -0.6497 -0.0542
  289MPD2     H 4414   1.826   0.173  14.472  0.4206 -0.5518  0.0360
  289MPD2    H1 4415   1.888   4.526  14.289 -0.1545  0.5253 -0.9723
  289MPD2    H2 4416   2.211   0.059  14.342 -0.1440  2.7512  0.2251
  289MPD2    H3 4417   2.115   4.570  14.265 -0.3054 -0.5212 -0.7120
  289MPD2     N 4418   1.708   4.659  14.405 -0.3283 -0.5802  0.1138
  289MPD2    H5 4419   1.698   4.568  14.360 -0.3592 -0.6875  0.3415
  289MPD2    N1 4420   2.084   0.245  14.442  0.1174  0.5228  0.4672
  289MPD2    H7 4421   2.176   0.263  14.403  0.2557 -0.2640  0.4284
  290TMC3    C1 4422   1.472   4.683  14.396  0.5174  0.1611 -0.2634
  290TMC3    C2 4423   1.406   0.035  14.318 -0.6719  0.0818  1.2001
  290TMC3    C3 4424   1.293   4.720  14.257  0.2164  0.0908 -0.1990
  290TMC3    C4 4425   1.447   4.551  14.409 -0.6694 -0.0151 -0.1091
  290TMC3    C5 4426   1.336   4.501  14.343  0.9678  0.2124 -0.0568
  290TMC3    C6 4427   1.253   4.586  14.277 -0.2122  0.6033 -0.2281
  290TMC3     C 4428   1.598   0.002  14.443 -0.2440  0.4132 -1.2881
  290TMC3     O 4429   1.592   0.115  14.481  0.5733 -0.1224  0.0270
  290TMC3     H 4430   1.437   0.137  14.300 -0.8280 -0.0268  0.2824
  290TMC3    H1 4431   1.515   4.491  14.469  0.2121 -0.0476 -1.1328
  290TMC3    H2 4432   1.158   4.545  14.245 -0.6644  0.8104  0.8574
  290TMC3    C7 4433   1.254   4.410  14.423  0.3645 -0.1039  0.5916
  290TMC3    C8 4434   1.201   0.067  14.189  0.1289  0.1425  0.2345
  290TMC3    O1 4435   1.141   4.456  14.451 -0.3813  0.1013 -0.2722
  290TMC3    O2 4436   1.119   0.007  14.118 -0.0508 -0.1658 -0.2807
  291MPD2     C 4437   0.780   0.099   0.303 -0.4245  0.4016 -0.2587
  291MPD2    C1 4438   0.913   0.053   0.304 -0.5445 -0.0191  0.8579
  291MPD2    C2 4439   1.019   0.135   0.265  0.0454  0.2151 -0.1407
  291MPD2    C3 4440   0.989   0.254   0.214 -0.2819 -0.3339 -0.0188
  291MPD2    C4 4441   0.856   0.303   0.216  0.2848  0.0901 -1.2161
  291MPD2    C5 4442   0.756   0.227   0.265 -0.0520 -0.4193 -0.1411
  291MPD2     H 4443   1.124   0.108   0.267  0.1358  0.5758 -0.0224
  291MPD2    H1 4444   0.830   0.405   0.189  0.5122  1.0279  2.1043
  291MPD2    H2 4445   0.692   0.040   0.325 -0.4473 -0.5405 -2.8570
  291MPD2    H3 4446   0.653   0.261   0.265  0.6333  1.6456 -0.4216
  291MPD2     N 4447   1.084   0.333   0.151  0.2058  0.5767 -0.3331
  291MPD2    H5 4448   1.037   0.399   0.090 -1.0369 -0.7398 -0.7782
  291MPD2    N1 4449   0.951   4.662   0.354  0.2256  0.4258 -0.1905
  291MPD2    H7 4450   1.047   4.644   0.383  1.2400  1.2148 -3.1290
  292TMC3    C1 4451   0.935   4.438   0.412  0.0923  0.7779  0.0546
  292TMC3    C2 4452   1.072   4.436   0.441 -0.4705  0.0326  0.0162
  292TMC3    C3 4453   1.135   4.315   0.427 -0.6116 -0.2082 -0.0649
  292TMC3    C4 4454   0.864   4.328   0.361 -0.2034  0.2509 -0.2572
  292TMC3    C5 4455   0.932   4.208   0.357  0.7890  0.1374  0.6964
  292TMC3    C6 4456   1.069   4.200   0.395  0.0784  0.4311  1.4445
  292TMC3     C 4457   0.867   4.561   0.372  0.5137  0.1222  0.0294
  292TMC3     O 4458   0.755   4.551   0.322 -0.2235  0.2729  0.0651
  292TMC3     H 4459   1.124   4.519   0.489  1.2682 -2.3344  2.2057
  292TMC3    H1 4460   0.756   4.328   0.361 -0.1966 -2.2505  1.4777
  292TMC3    H2 4461   1.122   4.106   0.378 -2.4756 -1.0980  2.0098
  292TMC3    C7 4462   0.871   4.083   0.313 -0.2404  0.6659  0.8384
  292TMC3    C8 4463   1.255   4.295   0.511 -0.1951  0.2984  0.8285
  292TMC3    O1 4464   0.940   4.003   0.251 -0.1065  0.5105  0.6556
  292TMC3    O2 4465   1.362   4.289   0.452  0.1153  0.7388  0.1053
  293MPD2     C 4466   2.472   1.208  12.580  0.2322  0.0817  0.2410
  293MPD2    C1 4467   2.417   1.080  12.602 -0.4227  0.3442 -0.5091
  293MPD2    C2 4468   2.455   1.014  12.714 -0.0742  0.3289  0.1966
  293MPD2    C3 4469   2.546   1.064  12.807 -0.2319  0.0998 -0.4202
  293MPD2    C4 4470   2.606   1.185  12.778  0.1322 -0.1782 -0.1951
  293MPD2    C5 4471   2.566   1.259  12.667  0.1080 -0.0966  0.4841
  293MPD2     H 4472   2.422   0.912  12.732 -0.4002  0.4502  0.2859
  293MPD2    H1 4473   2.675   1.229  12.849 -1.2495  2.3819 -0.4335
  293MPD2    H2 4474   2.451   1.271  12.494  1.8215  0.0717 -0.1597
  293MPD2    H3 4475   2.607   1.358  12.652 -1.0663  0.4696  1.1127
  293MPD2     N 4476   2.569   0.988  12.927  0.2721 -0.2332 -0.5412
  293MPD2    H5 4477   2.498   0.916  12.935 -2.3942  2.3083 -1.0837
  293MPD2    N1 4478   2.324   1.030  12.504 -0.2405  0.4696  0.3347
  293MPD2    H7 4479   2.306   1.089  12.423  0.0666 -2.0203 -1.5717
  294TMC3    C1 4480   2.162   0.890  12.393  0.3692  0.0955  0.4701
  294TMC3    C2 4481   2.040   0.831  12.423 -0.6973 -0.1594  0.1224
  294TMC3    C3 4482   1.966   0.790  12.312 -0.1622  0.3726 -0.3454
  294TMC3    C4 4483   2.214   0.902  12.270 -0.5269 -0.5434 -0.1358
  294TMC3    C5 4484   2.130   0.872  12.165 -0.2026 -0.2022  0.2441
  294TMC3    C6 4485   2.007   0.809  12.185 -0.3574 -0.3716 -1.4037
  294TMC3     C 4486   2.253   0.910  12.507  1.2127  0.1818 -0.0809
  294TMC3     O 4487   2.261   0.816  12.583  0.0678 -0.0742 -0.4389
  294TMC3     H 4488   2.001   0.824  12.524  2.5110 -0.7437  1.3265
  294TMC3    H1 4489   2.304   0.956  12.242 -0.7294 -0.8878 -1.4600
  294TMC3    H2 4490   1.953   0.749  12.112 -1.3875 -2.0398  0.7116
  294TMC3    C7 4491   2.189   0.828  12.043  0.0530  0.6634 -0.1643
  294TMC3    C8 4492   1.880   0.680  12.336  0.1794  0.1077  0.1867
  294TMC3    O1 4493   2.121   0.826  11.941  0.0044 -0.0551  0.3224
  294TMC3    O2 4494   1.762   0.698  12.354 -0.5034  0.6411  0.1848
  295MPD2     C 4495   3.928   0.042   1.092  0.8077 -0.2119  0.1231
  295MPD2    C1 4496   3.914   4.682   0.995 -0.4223  0.0445 -0.1545
  295MPD2    C2 4497   3.950   4.556   1.027  0.0400  0.2084 -0.4027
  295MPD2    C3 4498   4.008   4.523   1.155  0.4821 -1.1288  0.3194
  295MPD2    C4 4499   4.029   4.624   1.243 -0.0194  0.5114 -1.1137
  295MPD2    C5 4500   3.984   0.014   1.212  0.1057  0.2019 -0.0887
  295MPD2     H 4501   3.946   4.483   0.947  0.8084 -0.2106 -0.0537
  295MPD2    H1 4502   4.080   4.613   1.338 -0.2000 -0.5448 -1.1319
  295MPD2    H2 4503   3.882   0.139   1.077  0.0348 -0.5840  0.0825
  295MPD2    H3 4504   3.993   0.088   1.291 -1.5374 -0.5153  0.7776
  295MPD2     N 4505   4.036   4.390   1.194 -0.0535 -0.0370 -0.1547
  295MPD2    H5 4506   4.061   4.377   1.292  2.1797  1.3086 -0.5312
  295MPD2    N1 4507   3.870   4.716   0.858 -0.2177 -0.2383  0.5134
  295MPD2    H7 4508   3.840   4.637   0.801  1.6828 -0.4591 -0.1995
  296TMC3    C1 4509   4.003   4.159   1.187  0.3895  0.0278  0.1307
  296TMC3    C2 4510   3.972   4.154   1.324 -0.1197 -0.1711 -0.1380
  296TMC3    C3 4511   3.971   4.032   1.386 -0.5151 -1.3426 -0.5278
  296TMC3    C4 4512   4.026   4.042   1.128  0.4826 -1.0722 -0.0894
  296TMC3    C5 4513   4.008   3.921   1.189  0.1644 -0.3900  0.1087
  296TMC3    C6 4514   3.984   3.910   1.321  0.1623 -0.1915  0.1362
  296TMC3     C 4515   4.010   4.282   1.111  0.4713  0.7429  0.9933
  296TMC3     O 4516   3.990   4.268   0.993 -0.0049 -0.3795 -0.3493
  296TMC3     H 4517   3.945   4.247   1.372 -0.3632 -0.1640 -0.2885
  296TMC3    H1 4518   4.036   4.040   1.020 -0.1443  2.2883 -0.2258
  296TMC3    H2 4519   3.977   3.821   1.382  0.6716 -1.4453 -1.6339
  296TMC3    C7 4520   4.056   3.793   1.123  0.0551 -0.1256 -0.2805
  296TMC3    C8 4521   3.979   4.029   1.535  0.2755 -0.3579 -0.2100
  296TMC3    O1 4522   4.141   3.809   1.039  0.2681 -0.1614 -0.1586
  296TMC3    O2 4523   4.032   3.932   1.592 -0.1233 -0.5767 -0.5806
  297MPD2     C 4524   0.191   1.952  16.293 -0.6012  0.0182 -0.1095
  297MPD2    C1 4525   0.168   2.066  16.215 -0.3116  0.0663  0.2370
  297MPD2    C2 4526   0.278   2.127  16.173  0.2566 -0.5771 -0.0247
  297MPD2    C3 4527   0.410   2.095  16.212 -0.3427 -0.4412 -0.0314
  297MPD2    C4 4528   0.434   1.979  16.279 -0.1450  0.1724  0.6479
  297MPD2    C5 4529   0.317   1.913  16.323 -0.3546  0.1827  0.5451
  297MPD2     H 4530   0.265   2.226  16.131 -0.9008 -0.7424 -0.0710
  297MPD2    H1 4531   0.533   1.939  16.297 -0.2263 -0.8982 -1.2940
  297MPD2    H2 4532   0.104   1.900  16.332 -0.1441 -0.9743 -0.4027
  297MPD2    H3 4533   0.332   1.824  16.384 -1.6911 -0.4189 -0.0008
  297MPD2     N 4534   0.510   2.181  16.167  0.0957 -0.0948  0.0759
  297MPD2    H5 4535   0.472   2.255  16.109  0.5653 -0.2901 -0.4753
  297MPD2    N1 4536   0.043   2.110  16.173 -0.1004 -0.0371  0.0592
  297MPD2    H7 4537   0.030   2.190  16.112  1.0056  0.2336  0.1704
  298TMC3    C1 4538   4.548   2.134  16.153 -0.1463  0.0191  0.6621
  298TMC3    C2 4539   4.569   2.187  16.036 -0.1410 -0.5168  0.0695
  298TMC3    C3 4540   4.480   2.284  15.984  0.2180  0.1974  0.2916
  298TMC3    C4 4541   4.448   2.172  16.234 -0.7318  0.2201  0.6923
  298TMC3    C5 4542   4.360   2.272  16.187  0.6281  0.1917  0.3508
  298TMC3    C6 4543   4.365   2.328  16.057  0.4246 -0.0159  0.9894
  298TMC3     C 4544   4.661   2.060  16.217  0.1402 -0.1700  0.1590
  298TMC3     O 4545   4.625   1.975  16.293  0.5952  0.0096 -0.3647
  298TMC3     H 4546   4.646   2.151  15.969  1.4213  0.6055  1.2817
  298TMC3    H1 4547   4.438   2.139  16.336  0.8118 -1.0672  0.4336
  298TMC3    H2 4548   4.301   2.413  16.038  0.6006 -0.1797 -0.2881
  298TMC3    C7 4549   4.286   2.340  16.291 -0.1176  0.0324 -0.1020
  298TMC3    C8 4550   4.525   2.354  15.865  0.1612 -0.4246 -0.4174
  298TMC3    O1 4551   4.342   2.365  16.399 -0.2087 -0.3390  0.5238
  298TMC3    O2 4552   4.610   2.310  15.790 -0.0965  0.0179  0.2330
  299MPD2     C 4553   0.522   0.676  10.466 -0.1174 -0.6271 -0.6552
  299MPD2    C1 4554   0.479   0.730  10.586  0.2490 -0.4526  0.8494
  299MPD2    C2 4555   0.343   0.738  10.619 -0.3045  0.5607  0.8140
  299MPD2    C3 4556   0.244   0.695  10.527  0.0567  0.6993  0.3806
  299MPD2    C4 4557   0.291   0.636  10.413 -0.7106  0.0773 -0.3151
  299MPD2    C5 4558   0.426   0.635  10.381  0.0795 -0.6851  0.4901
  299MPD2     H 4559   0.317   0.789  10.711 -1.6503  0.5368  0.4534
  299MPD2    H1 4560   0.226   0.585  10.344  0.2702 -2.9327  0.9678
  299MPD2    H2 4561   0.624   0.672  10.430 -0.5022 -0.8127 -1.7428
  299MPD2    H3 4562   0.459   0.589  10.289  1.0250 -1.6933  1.3344
  299MPD2     N 4563   0.100   0.703  10.549 -0.6448 -0.2108  0.3002
  299MPD2    H5 4564   0.036   0.667  10.479  0.7939 -0.5904 -0.8150
  299MPD2    N1 4565   0.586   0.772  10.667 -0.2713 -0.2129  0.0025
  299MPD2    H7 4566   0.679   0.776  10.627  1.0623  0.0950  3.1922
  300TMC3    C1 4567   4.639   0.761  10.662  0.1981 -0.0319 -0.2759
  300TMC3    C2 4568   4.612   0.832  10.545 -0.2305 -0.0925  0.3420
  300TMC3    C3 4569   4.558   0.961  10.555  0.5883  0.2325  0.1717
  300TMC3    C4 4570   4.581   0.800  10.775  0.2348  0.3186  0.1174
  300TMC3    C5 4571   4.529   0.924  10.783  0.0253 -0.8272 -0.2832
  300TMC3    C6 4572   4.521   1.007  10.680 -0.7927  0.4022  0.2529
  300TMC3     C 4573   0.045   0.749  10.666  0.9783 -0.0632  0.5421
  300TMC3     O 4574   0.093   0.777  10.774  0.0265  0.2933 -0.0371
  300TMC3     H 4575   4.652   0.798  10.451 -2.2841  0.2483 -0.6397
  300TMC3    H1 4576   4.591   0.740  10.865 -3.2641  0.4363  0.5849
  300TMC3    H2 4577   4.507   1.115  10.684  0.4554  0.5768 -0.3482
  300TMC3    C7 4578   4.481   0.959  10.913  0.2768  0.1615 -0.8158
  300TMC3    C8 4579   4.591   1.053  10.456  0.2747 -0.7024 -0.4309
  300TMC3    O1 4580   4.510   0.881  11.002 -0.3162  0.5551 -0.8533
  300TMC3    O2 4581   4.641   1.166  10.489 -0.4103  0.1112  0.1979
  301MPD2     C 4582   3.300   2.742   1.308  0.6446  0.9890  0.1906
  301MPD2    C1 4583   3.275   2.720   1.178  0.0977 -0.0127  0.4624
  301MPD2    C2 4584   3.299   2.601   1.111 -1.0867 -0.1938  0.1928
  301MPD2    C3 4585   3.339   2.495   1.181 -0.4572 -0.1798  0.0059
  301MPD2    C4 4586   3.369   2.511   1.313  0.3631  0.3654 -0.1795
  301MPD2    C5 4587   3.347   2.636   1.379  0.6055 -0.3074  0.0387
  301MPD2     H 4588   3.273   2.601   1.006  0.3432  1.2577 -0.1554
  301MPD2    H1 4589   3.400   2.422   1.366 -0.1894  0.0114 -0.4475
  301MPD2    H2 4590   3.280   2.835   1.360 -0.1792  1.1395 -0.4034
  301MPD2    H3 4591   3.371   2.639   1.484 -0.8126 -0.1666  0.3596
  301MPD2     N 4592   3.347   2.358   1.122 -0.6667  0.8446  0.4699
  301MPD2    H5 4593   3.367   2.284   1.188  1.5160  0.8698 -0.1404
  301MPD2    N1 4594   3.215   2.816   1.097 -0.6774  0.3162  0.4703
  301MPD2    H7 4595   3.214   2.797   0.998 -4.4640 -0.8261  0.7482
  302TMC3    C1 4596   3.294   2.193   0.954 -0.0277  0.1216  0.2688
  302TMC3    C2 4597   3.316   2.094   1.043 -0.2271 -0.1059  0.2735
  302TMC3    C3 4598   3.291   1.963   1.006  1.0016 -0.0007 -0.0106
  302TMC3    C4 4599   3.241   2.173   0.835  0.2998 -0.8115 -0.2676
  302TMC3    C5 4600   3.215   2.042   0.803 -0.3961 -0.0215  0.8656
  302TMC3    C6 4601   3.235   1.932   0.882  0.1482 -0.2369  0.0360
  302TMC3     C 4602   3.333   2.329   0.986 -0.4885  0.4661 -0.0165
  302TMC3     O 4603   3.336   2.399   0.886  0.0259 -0.3543 -0.0461
  302TMC3     H 4604   3.361   2.104   1.141 -0.5069 -0.5671  0.4515
  302TMC3    H1 4605   3.225   2.249   0.760 -0.3528 -1.3430 -0.6673
  302TMC3    H2 4606   3.212   1.837   0.835 -0.5298 -0.0415 -0.0292
  302TMC3    C7 4607   3.154   2.022   0.672 -0.6020 -0.1034  0.1418
  302TMC3    C8 4608   3.295   1.866   1.108 -0.2305 -0.5559 -0.6116
  302TMC3    O1 4609   3.180   1.918   0.611 -0.4169  0.1554  0.3370
  302TMC3    O2 4610   3.325   1.899   1.223 -0.7465 -0.7122 -0.4299
  303MPD2     C 4611   3.130   1.002  10.923 -0.5153 -0.0144 -0.2193
  303MPD2    C1 4612   3.214   0.911  10.872 -0.5927 -0.3919  0.6411
  303MPD2    C2 4613   3.205   0.891  10.736  0.1642 -0.2968 -0.2477
  303MPD2    C3 4614   3.108   0.947  10.657 -0.1792  0.6955  0.5677
  303MPD2    C4 4615   3.032   1.052  10.716  0.5357 -0.5931 -0.0153
  303MPD2    C5 4616   3.046   1.084  10.849  0.6907 -0.4345 -0.1428
  303MPD2     H 4617   3.270   0.817  10.692  0.1074 -1.3354  1.4320
  303MPD2    H1 4618   2.957   1.110  10.665  1.4321 -0.9083 -1.6821
  303MPD2    H2 4619   3.145   1.020  11.028  0.6049  0.8419 -0.5215
  303MPD2    H3 4620   2.998   1.167  10.898 -1.6480 -3.1315  2.1576
  303MPD2     N 4621   3.078   0.907  10.523 -0.2699  0.3789  0.5589
  303MPD2    H5 4622   2.990   0.940  10.486  0.0827  1.3856  0.6186
  303MPD2    N1 4623   3.302   0.840  10.957 -0.2240 -0.4868  1.0241
  303MPD2    H7 4624   3.281   0.848  11.056 -0.2600  0.3053  0.9517
  304TMC3    C1 4625   3.431   0.661  11.030  0.0383  0.6468 -1.7164
  304TMC3    C2 4626   3.338   0.621  11.126 -0.5979  0.2125 -0.0867
  304TMC3    C3 4627   3.366   0.502  11.180 -0.7526  0.2965 -0.5605
  304TMC3    C4 4628   3.542   0.583  10.993  0.2941  0.0948  0.7520
  304TMC3    C5 4629   3.562   0.467  11.054  0.1555  0.3114  0.4832
  304TMC3    C6 4630   3.474   0.424  11.149  0.4511 -0.8079 -0.4298
  304TMC3     C 4631   3.391   0.745  10.921  0.4065  0.2688 -0.4333
  304TMC3     O 4632   3.443   0.727  10.812 -0.4293 -0.2145  0.3316
  304TMC3     H 4633   3.256   0.683  11.161 -1.5538 -1.0867 -0.0166
  304TMC3    H1 4634   3.592   0.593  10.898  0.9299  1.1894  1.2060
  304TMC3    H2 4635   3.499   0.328  11.192 -1.3397 -0.2946  1.7769
  304TMC3    C7 4636   3.597   0.361  10.952 -0.2900 -0.2254  0.0015
  304TMC3    C8 4637   3.255   0.411  11.180  0.0458 -0.4041  0.5326
  304TMC3    O1 4638   3.686   0.377  10.874 -0.0371  0.4709 -1.3508
  304TMC3    O2 4639   3.276   0.297  11.137 -0.8790  0.8658  0.3592
  305MPD2     C 4640   1.403   3.112  13.802 -0.4531 -0.6265  0.4025
  305MPD2    C1 4641   1.510   3.024  13.793 -0.2486 -0.5928  0.5367
  305MPD2    C2 4642   1.543   2.971  13.667 -0.0811  0.3823 -0.0243
  305MPD2    C3 4643   1.466   3.004  13.561  0.2066  0.6374  0.1871
  305MPD2    C4 4644   1.342   3.072  13.572 -0.1676 -1.0779  0.1647
  305MPD2    C5 4645   1.325   3.136  13.692  0.3791  1.2810  0.3244
  305MPD2     H 4646   1.630   2.907  13.658  0.8016  1.3391  1.7108
  305MPD2    H1 4647   1.275   3.085  13.488 -0.7287  2.7938  1.1902
  305MPD2    H2 4648   1.387   3.188  13.878 -0.5057  1.8577 -2.0852
  305MPD2    H3 4649   1.237   3.196  13.707 -0.1552  0.3236  1.0143
  305MPD2     N 4650   1.508   2.968  13.430  0.1310  0.1891 -0.8331
  305MPD2    H5 4651   1.437   2.980  13.358 -0.2547  0.2251 -0.4465
  305MPD2    N1 4652   1.593   3.024  13.908 -0.1920 -0.1668 -0.4948
  305MPD2    H7 4653   1.577   3.094  13.980  1.5278 -1.1624  0.8535
  306TMC3    C1 4654   1.722   2.925  14.073  0.2031  0.2443  0.6966
  306TMC3    C2 4655   1.851   2.879  14.100 -0.2773 -0.0509  0.6722
  306TMC3    C3 4656   1.895   2.903  14.227  0.8758  0.5093 -0.1352
  306TMC3    C4 4657   1.646   2.990  14.167 -0.2601  0.0419 -1.1039
  306TMC3    C5 4658   1.697   3.013  14.299  0.5685  0.5330 -0.3493
  306TMC3    C6 4659   1.824   2.970  14.322  0.3260 -0.2435  0.2664
  306TMC3     C 4660   1.683   2.921  13.936  0.2697  0.1316 -0.4565
  306TMC3     O 4661   1.705   2.824  13.869 -0.0789 -0.1207  0.5215
  306TMC3     H 4662   1.910   2.828  14.024 -1.4734 -1.5705  0.7590
  306TMC3    H1 4663   1.544   3.009  14.136  0.1676  1.3935 -1.7046
  306TMC3    H2 4664   1.853   2.954  14.426 -0.1728 -1.6531  0.1925
  306TMC3    C7 4665   1.628   3.092  14.402 -0.5049 -0.4927 -0.0843
  306TMC3    C8 4666   2.025   2.844  14.265 -0.1351 -0.1124  0.1975
  306TMC3    O1 4667   1.505   3.083  14.407  0.9212 -0.7170 -0.3250
  306TMC3    O2 4668   2.059   2.748  14.200  0.1015 -0.0349 -0.3435
  307MPD2     C 4669   4.453   1.344   0.901  0.4163  0.1249  0.0449
  307MPD2    C1 4670   4.379   1.458   0.918  0.0358 -0.2303  0.0035
  307MPD2    C2 4671   4.245   1.452   0.949 -0.3724  0.4534  0.0775
  307MPD2    C3 4672   4.185   1.328   0.968 -0.2189 -0.8129  0.0075
  307MPD2    C4 4673   4.258   1.218   0.953 -0.0864  0.1038  0.0219
  307MPD2    C5 4674   4.387   1.225   0.912 -0.0834  0.1276 -0.6801
  307MPD2     H 4675   4.188   1.544   0.951 -1.6842 -0.3525  0.1173
  307MPD2    H1 4676   4.213   1.119   0.955  0.0871  0.0225 -0.1452
  307MPD2    H2 4677   4.556   1.337   0.867 -0.5695 -5.4253 -1.8073
  307MPD2    H3 4678   4.441   1.133   0.890  0.5349  0.0126  1.3583
  307MPD2     N 4679   4.051   1.330   1.009 -0.3126  0.3186  0.1427
  307MPD2    H5 4680   4.010   1.416   1.045  2.2249  1.4803  0.2489
  307MPD2    N1 4681   4.438   1.590   0.912  0.3890 -0.8390  0.2390
  307MPD2    H7 4682   4.377   1.667   0.886  0.5101 -0.8133  0.0304
  308TMC3    C1 4683   3.599   1.265   0.993 -0.6062 -0.2812  0.8761
  308TMC3    C2 4684   3.579   1.374   1.071  0.2721 -0.0706  0.2714
  308TMC3    C3 4685   3.685   1.425   1.137 -0.7625 -0.4607  0.0221
  308TMC3    C4 4686   3.724   1.209   0.983 -0.4076 -0.2570  0.6046
  308TMC3    C5 4687   3.833   1.267   1.054 -0.3534  0.0834 -0.2524
  308TMC3    C6 4688   3.817   1.382   1.128 -0.3667  0.2513  0.5652
  308TMC3     C 4689   3.480   1.196   0.945 -0.4660  0.0682 -0.2153
  308TMC3     O 4690   3.472   1.077   0.940 -0.2762  0.0905 -0.2837
  308TMC3     H 4691   3.483   1.413   1.102 -0.2941  0.0139 -1.5992
  308TMC3    H1 4692   3.750   1.125   0.919 -0.5554 -0.5897  0.9831
  308TMC3    H2 4693   3.889   1.428   1.196 -0.7912  0.5608  0.8077
  308TMC3    C7 4694   3.968   1.222   1.024 -0.1708 -0.4346  0.4810
  308TMC3    C8 4695   3.667   1.555   1.205  0.1170  0.4237  0.2024
  308TMC3    O1 4696   3.988   1.105   0.996  0.0233  0.1847  0.4016
  308TMC3    O2 4697   3.712   1.566   1.315 -1.0971 -0.6054 -0.4129
  309MPD2     C 4698   3.389   2.135  17.319  0.9630  0.0206 -0.4482
  309MPD2    C1 4699   3.350   2.108  17.187 -0.4796 -0.8516 -0.6100
  309MPD2    C2 4700   3.223   2.056  17.162  0.3624  0.8775  0.2065
  309MPD2    C3 4701   3.139   2.031  17.272 -0.3609  0.0282 -0.2186
  309MPD2    C4 4702   3.177   2.060  17.401  0.7357 -0.2804  0.4248
  309MPD2    C5 4703   3.303   2.114  17.422  0.3656 -0.0190  0.6420
  309MPD2     H 4704   3.198   2.032  17.060 -0.7665 -2.7359  1.3268
  309MPD2    H1 4705   3.103   2.050  17.480 -0.0604 -1.0386 -0.4209
  309MPD2    H2 4706   3.471   2.202  17.341 -0.8846  1.3717  2.3577
  309MPD2    H3 4707   3.335   2.157  17.517 -0.2118 -0.8083  1.1962
  309MPD2     N 4708   3.013   1.971  17.251  0.2210  0.3283  0.1881
  309MPD2    H5 4709   2.952   1.955  17.331 -2.2318  1.2234 -1.5192
  309MPD2    N1 4710   3.430   2.138  17.070 -0.4908 -0.8320 -0.0796
  309MPD2    H7 4711   3.387   2.120  16.979  0.0772 -0.1514 -0.4828
  310TMC3    C1 4712   3.621   2.158  16.935 -0.1117 -0.6489  0.5156
  310TMC3    C2 4713   3.530   2.182  16.829  0.1963 -0.3504 -0.0278
  310TMC3    C3 4714   3.576   2.160  16.709  0.4607 -0.2371 -0.7344
  310TMC3    C4 4715   3.741   2.097  16.925 -0.1477  0.1259  0.3996
  310TMC3    C5 4716   3.779   2.064  16.799  0.3098 -0.5005  0.9703
  310TMC3    C6 4717   3.693   2.086  16.689 -0.0746  0.0687  1.1379
  310TMC3     C 4718   3.565   2.177  17.067  0.3629  0.2941  0.5846
  310TMC3     O 4719   3.644   2.183  17.161  0.5457  0.0849  0.1888
  310TMC3     H 4720   3.435   2.233  16.831 -0.1392 -1.0005  0.4638
  310TMC3    H1 4721   3.801   2.079  17.013 -0.7530 -1.4174  0.4900
  310TMC3    H2 4722   3.724   2.043  16.594 -0.0275  0.6849  0.8744
  310TMC3    C7 4723   3.882   1.963  16.782  0.0125 -0.2873 -0.0212
  310TMC3    C8 4724   3.483   2.190  16.601  1.0617  0.1390 -0.1358
  310TMC3    O1 4725   3.850   1.864  16.711  0.1824 -0.0390 -0.6028
  310TMC3    O2 4726   3.367   2.205  16.624  0.2463 -0.2658  0.0499
  311MPD2     C 4727   0.731   2.195  12.793 -0.8514 -0.2604  0.2797
  311MPD2    C1 4728   0.696   2.330  12.805  0.1111 -0.0927 -1.3498
  311MPD2    C2 4729   0.576   2.362  12.873 -0.4317 -0.0643 -0.7182
  311MPD2    C3 4730   0.483   2.272  12.903  0.1835 -0.7035  0.5544
  311MPD2    C4 4731   0.523   2.135  12.887 -0.0612 -0.5985  0.6995
  311MPD2    C5 4732   0.641   2.096  12.836 -0.4295  0.0204  0.1685
  311MPD2     H 4733   0.558   2.469  12.881  0.7925  0.1995 -1.5614
  311MPD2    H1 4734   0.452   2.060  12.920 -0.8451  1.0509  2.7593
  311MPD2    H2 4735   0.824   2.155  12.753  0.2379  1.4586  1.0939
  311MPD2    H3 4736   0.660   1.989  12.831 -0.0630  0.1148 -0.5887
  311MPD2     N 4737   0.355   2.309  12.951  0.0472  0.2085 -0.1022
  311MPD2    H5 4738   0.336   2.409  12.939  0.3164  0.0504 -1.8172
  311MPD2    N1 4739   0.786   2.435  12.770  0.6436  0.0119  0.3363
  311MPD2    H7 4740   0.768   2.525  12.812  0.7867  0.0045  0.4130
  312TMC3    C1 4741   0.122   2.310  12.984  0.0914 -0.4083  0.6091
  312TMC3    C2 4742   0.005   2.251  12.943 -0.4603 -0.3933 -0.7894
  312TMC3    C3 4743   4.631   2.334  12.934 -0.1519  0.5622 -0.0162
  312TMC3    C4 4744   0.123   2.447  13.022 -0.1898 -0.5016 -0.4825
  312TMC3    C5 4745   0.005   2.521  13.032 -0.3561 -0.6238  0.1256
  312TMC3    C6 4746   4.626   2.458  12.986  0.2996 -0.3303  0.1328
  312TMC3     C 4747   0.244   2.229  12.961  0.1352 -0.1812 -0.5912
  312TMC3     O 4748   0.235   2.107  12.935 -0.1224  0.6436 -0.0683
  312TMC3     H 4749   4.732   2.146  12.920  0.6599 -1.0492  1.7587
  312TMC3    H1 4750   0.212   2.482  13.073 -0.3291  2.1316 -2.0496
  312TMC3    H2 4751   4.527   2.504  12.992  1.0407  1.7859 -3.7885
  312TMC3    C7 4752   4.734   2.664  13.056  0.3481  0.3373 -0.2154
  312TMC3    C8 4753   4.508   2.265  12.902 -0.4137 -0.2761 -0.4255
  312TMC3    O1 4754   4.632   2.722  13.023 -0.4385 -0.0400  0.3064
  312TMC3    O2 4755   4.493   2.154  12.953  0.4199 -0.0315 -0.8337
  313MPD2     C 4756   4.670   1.628  10.918 -0.6856 -0.2567 -0.7483
  313MPD2    C1 4757   4.649   1.697  10.804 -0.3328 -0.2854 -0.1650
  313MPD2    C2 4758   4.579   1.638  10.695 -0.3688  1.3513  0.6262
  313MPD2    C3 4759   4.525   1.515  10.709 -0.4185  0.2570  0.4541
  313MPD2    C4 4760   4.553   1.444  10.820 -0.0149  0.1705 -0.2018
  313MPD2    C5 4761   4.632   1.494  10.919 -0.0551 -0.0973  0.2916
  313MPD2     H 4762   4.575   1.682  10.596  0.2839  1.1298  0.5013
  313MPD2    H1 4763   4.507   1.347  10.835  1.3549 -0.7052 -1.6820
  313MPD2    H2 4764   4.728   1.679  10.994 -2.2249  2.1812 -1.1850
  313MPD2    H3 4765   4.647   1.451  11.017  2.5709 -1.0818 -0.5385
  313MPD2     N 4766   4.449   1.461  10.602  0.6849 -0.1731 -0.1325
  313MPD2    H5 4767   4.453   1.512  10.514 -0.9717 -0.3594 -0.3124
  313MPD2    N1 4768   4.717   1.816  10.779  0.0026 -0.2466 -0.3039
  313MPD2    H7 4769   4.694   1.846  10.685 -0.5741 -2.5692 -0.8792
  314TMC3    C1 4770   0.118   2.010  10.801  0.1112  0.4732 -0.1195
  314TMC3    C2 4771   0.200   2.092  10.878 -1.3384 -0.1236 -0.3330
  314TMC3    C3 4772   0.217   2.220  10.843  0.2025  0.3953  0.5034
  314TMC3    C4 4773   0.060   2.048  10.683 -0.0388 -0.1765  0.7317
  314TMC3    C5 4774   0.102   2.172  10.647  0.2909 -0.1066  0.5056
  314TMC3    C6 4775   0.172   2.263  10.721 -0.2613 -0.7199 -0.5280
  314TMC3     C 4776   0.066   1.891  10.863  0.0091 -0.0449 -0.9787
  314TMC3     O 4777   0.093   1.862  10.980 -0.6534 -0.0523  0.1209
  314TMC3     H 4778   0.247   2.053  10.967 -1.3843  1.2118  0.2662
  314TMC3    H1 4779   0.012   1.986  10.608  1.9746 -1.5307  0.5727
  314TMC3    H2 4780   0.185   2.366  10.689 -0.1067 -0.7934 -0.7052
  314TMC3    C7 4781   0.036   2.228  10.533 -0.0042 -0.1128 -0.0471
  314TMC3    C8 4782   0.272   2.325  10.931  0.1710 -1.1792 -0.4862
  314TMC3    O1 4783   0.003   2.343  10.529  0.7810  0.1488  0.3489
  314TMC3    O2 4784   0.329   2.410  10.864 -0.4886 -0.3729 -0.1300
  315MPD2     C 4785   4.052   1.648   0.165  0.2728 -0.5183  0.1903
  315MPD2    C1 4786   4.186   1.638   0.200 -0.0109  0.0528 -0.6246
  315MPD2    C2 4787   4.270   1.738   0.177  0.0610  0.2828 -0.3367
  315MPD2    C3 4788   4.237   1.844   0.097 -0.0072  0.9235  0.6902
  315MPD2    C4 4789   4.111   1.853   0.044  0.6147  0.3374  0.3423
  315MPD2    C5 4790   4.017   1.754   0.084 -0.1286  0.2586 -0.0568
  315MPD2     H 4791   4.375   1.724   0.202 -0.5819 -0.8549  1.6940
  315MPD2    H1 4792   4.089   1.937  17.721  1.8815  1.0445  0.8108
  315MPD2    H2 4793   3.966   1.591   0.198  0.4418  0.0637  1.6689
  315MPD2    H3 4794   3.913   1.764   0.054  0.0753 -0.4088 -0.9974
  315MPD2     N 4795   4.338   1.930   0.069 -0.3310  0.2921 -0.1403
  315MPD2    H5 4796   4.428   1.895   0.098 -0.5723 -0.1650  0.0541
  315MPD2    N1 4797   4.232   1.539   0.289  0.3584  0.2638 -0.0125
  315MPD2    H7 4798   4.323   1.556   0.331  0.5297  0.1097 -0.3162
  316TMC3    C1 4799   4.459   2.106  17.717 -0.4463 -0.2242  0.1870
  316TMC3    C2 4800   4.556   2.091   0.066 -0.4905 -0.2614  0.2627
  316TMC3    C3 4801   4.679   2.137   0.036  0.0369 -0.1558 -0.3582
  316TMC3    C4 4802   4.476   2.185  17.603  0.1654  0.2787  0.9366
  316TMC3    C5 4803   4.608   2.221  17.573 -0.3882 -0.1610 -0.2956
  316TMC3    C6 4804   4.711   2.190  17.658  0.7033  0.4558  0.4637
  316TMC3     C 4805   4.334   2.036  17.730  0.3071 -0.8091  0.8291
  316TMC3     O 4806   4.239   2.093  17.680 -0.3023 -0.5833 -0.4248
  316TMC3     H 4807   4.554   2.038   0.161 -0.7001  0.4475  0.6566
  316TMC3    H1 4808   4.395   2.186  17.530  1.8746 -4.6300 -1.0607
  316TMC3    H2 4809   0.078   2.206  17.627  1.0157 -0.8220  0.8391
  316TMC3    C7 4810   4.643   2.258  17.441 -0.4949 -1.0426  0.6120
  316TMC3    C8 4811   0.063   2.109   0.119 -0.0362 -0.0425 -0.0348
  316TMC3    O1 4812   0.025   2.243  17.408  0.1524 -0.5930  0.6499
  316TMC3    O2 4813   0.143   2.203   0.104  0.5249 -0.0187 -0.6999
  317MPD2     C 4814   1.849   4.501  12.788  0.0659  0.1657  0.0109
  317MPD2    C1 4815   1.933   4.393  12.773  0.1074 -0.2987 -0.1935
  317MPD2    C2 4816   1.966   4.316  12.877 -0.8582 -0.4507  0.0137
  317MPD2    C3 4817   1.944   4.352  13.005 -0.2485 -0.4392 -0.4941
  317MPD2    C4 4818   1.866   4.465  13.026  0.3361 -0.1222 -0.2953
  317MPD2    C5 4819   1.813   4.528  12.921  0.6594  0.2388 -0.9486
  317MPD2     H 4820   2.035   4.234  12.863 -0.1832  0.1592 -0.2298
  317MPD2    H1 4821   1.835   4.505  13.122 -0.3642  1.3281 -1.1273
  317MPD2    H2 4822   1.804   4.551  12.703  0.6121  0.0053 -0.3764
  317MPD2    H3 4823   1.765   4.621  12.951  1.6942  0.5843 -0.3773
  317MPD2     N 4824   1.988   4.266  13.115 -0.5047 -0.2724  0.2204
  317MPD2    H5 4825   2.042   4.183  13.092  0.5354  0.7900 -1.1380
  317MPD2    N1 4826   1.978   4.347  12.650 -0.9817 -0.2495 -0.1042
  317MPD2    H7 4827   2.042   4.269  12.647 -0.1845  0.3628  0.8127
  318TMC3    C1 4828   1.967   4.164  13.321 -0.5022  0.3463  0.3676
  318TMC3    C2 4829   1.930   4.051  13.252  0.0925  1.0312 -0.1114
  318TMC3    C3 4830   1.953   3.931  13.314 -0.4260 -0.5998  0.4550
  318TMC3    C4 4831   2.025   4.164  13.445  0.6810  0.0799 -0.3566
  318TMC3    C5 4832   2.070   4.040  13.486  0.2015  0.2743  0.0687
  318TMC3    C6 4833   2.031   3.929  13.427 -0.4084 -0.2967  0.2167
  318TMC3     C 4834   1.952   4.285  13.248 -0.5597  0.2894 -0.0440
  318TMC3     O 4835   1.903   4.374  13.319  0.3561  0.0247 -0.1690
  318TMC3     H 4836   1.867   4.062  13.165 -1.5483 -0.1391  0.9257
  318TMC3    H1 4837   2.048   4.254  13.500  0.6156  0.2365 -0.5845
  318TMC3    H2 4838   2.054   3.833  13.472 -0.6480 -0.0137  0.9414
  318TMC3    C7 4839   2.148   4.049  13.603 -0.3598 -0.5120 -0.0292
  318TMC3    C8 4840   1.931   3.802  13.242  0.4045 -0.1492  0.3799
  318TMC3    O1 4841   2.124   4.149  13.673 -0.6477 -0.1794 -0.2744
  318TMC3    O2 4842   1.988   3.704  13.291  0.0934 -0.0734 -0.3553
  319MPD2     C 4843   2.495   1.465  16.733  0.0219 -0.3574  0.4114
  319MPD2    C1 4844   2.549   1.348  16.687  0.7802  0.7216 -0.9458
  319MPD2    C2 4845   2.486   1.277  16.590  0.1242  0.4549  0.7797
  319MPD2    C3 4846   2.369   1.323  16.528 -0.5547 -0.4971  0.4034
  319MPD2    C4 4847   2.322   1.446  16.572  0.1475  0.2884  0.0964
  319MPD2    C5 4848   2.372   1.512  16.683  0.4972 -0.4376  0.0607
  319MPD2     H 4849   2.535   1.186  16.556 -1.2697  0.0714 -0.2014
  319MPD2    H1 4850   2.238   1.498  16.527 -0.2072 -1.1598 -0.9211
  319MPD2    H2 4851   2.535   1.527  16.812 -0.7830 -0.2176  0.7122
  319MPD2    H3 4852   2.331   1.607  16.715 -0.2187 -0.3015 -1.2528
  319MPD2     N 4853   2.297   1.252  16.426 -0.3629 -0.4943  0.1527
  319MPD2    H5 4854   2.203   1.290  16.421  0.3848  1.0785 -1.6093
  319MPD2    N1 4855   2.659   1.291  16.744  0.1265 -0.0466 -0.1416
  319MPD2    H7 4856   2.682   1.199  16.707  1.2303 -1.1189  3.2229
  320TMC3    C1 4857   2.251   1.115  16.253 -0.0599  0.1749  0.5689
  320TMC3    C2 4858   2.171   1.204  16.192 -0.4528  0.3062  0.6012
  320TMC3    C3 4859   2.064   1.158  16.116  0.4640 -0.2648  0.3292
  320TMC3    C4 4860   2.242   0.979  16.227  0.1005 -0.0665 -0.3052
  320TMC3    C5 4861   2.144   0.939  16.140 -0.0794 -0.6828  0.1835
  320TMC3    C6 4862   2.049   1.027  16.087 -0.7718  0.0572  0.0814
  320TMC3     C 4863   2.345   1.152  16.353 -0.1123 -0.2882 -0.3184
  320TMC3     O 4864   2.446   1.080  16.358 -0.1506 -0.4219  0.3453
  320TMC3     H 4865   2.180   1.310  16.216 -1.2925  0.5441 -0.0996
  320TMC3    H1 4866   2.316   0.916  16.274  1.6485  1.8401 -0.1850
  320TMC3    H2 4867   1.959   0.991  16.040  0.2855 -0.0089 -1.9081
  320TMC3    C7 4868   2.117   0.800  16.119  0.5956  0.4662 -0.7180
  320TMC3    C8 4869   2.003   1.264  16.035 -0.5427 -0.6323 -0.2648
  320TMC3    O1 4870   2.072   0.766  16.006 -0.5263 -0.7815 -0.5713
  320TMC3    O2 4871   1.988   1.367  16.094  0.6032  0.6911 -0.4924
  321TMC3    C1 4872   2.874   1.280  16.837  0.4758 -0.3290 -0.0848
  321TMC3    C2 4873   2.880   1.144  16.814 -0.4522 -0.1135 -0.1287
  321TMC3    C3 4874   2.999   1.088  16.835 -0.1387 -1.1049  0.0137
  321TMC3    C4 4875   2.985   1.351  16.879  0.2824  0.2732 -0.0404
  321TMC3    C5 4876   3.104   1.287  16.882  0.4643 -0.3186 -0.5181
  321TMC3    C6 4877   3.116   1.159  16.840 -0.1638 -0.2174 -0.6817
  321TMC3     C 4878   2.749   1.360  16.818 -0.7520  0.2322  0.1331
  321TMC3     O 4879   2.749   1.479  16.853 -0.1221 -0.2365  0.1966
  321TMC3     H 4880   2.790   1.087  16.834  0.7323 -1.4839  1.3704
  321TMC3    H1 4881   2.981   1.459  16.889 -0.5384  0.5422 -3.1058
  321TMC3    H2 4882   3.208   1.103  16.841  0.3775  0.7050  0.3964
  321TMC3    C7 4883   3.174   1.299  17.008  0.7521  0.1135 -0.1101
  321TMC3    C8 4884   3.005   0.952  16.885 -0.1969  0.4547  0.1145
  321TMC3    O1 4885   3.221   1.190  17.038  0.4648  0.3439  0.1033
  321TMC3    O2 4886   2.907   0.884  16.871  0.2401  0.3054  0.5244
  322MPD2     C 4887   1.670   2.350  13.382 -0.0993 -0.2762  0.7204
  322MPD2    C1 4888   1.661   2.302  13.509  0.3106 -0.1530  0.3108
  322MPD2    C2 4889   1.643   2.167  13.523  0.1273 -0.3796  0.2807
  322MPD2    C3 4890   1.625   2.080  13.417 -0.6934 -0.4835  0.1316
  322MPD2    C4 4891   1.622   2.133  13.290  0.0962 -0.1422 -0.3963
  322MPD2    C5 4892   1.645   2.272  13.274  0.3562 -0.4126  0.4325
  322MPD2     H 4893   1.639   2.124  13.622 -0.4219 -3.0003 -0.8681
  322MPD2    H1 4894   1.613   2.083  13.194 -0.5319 -1.0928  0.1655
  322MPD2    H2 4895   1.698   2.453  13.363  0.9318 -0.3896  1.5820
  322MPD2    H3 4896   1.642   2.326  13.180 -0.0016  1.8218  1.7310
  322MPD2     N 4897   1.600   1.941  13.445  0.1855 -0.0427 -0.4027
  322MPD2    H5 4898   1.595   1.912  13.542  3.7433 -1.2788 -0.6233
  322MPD2    N1 4899   1.685   2.389  13.621 -0.2413  0.2354  0.1468
  322MPD2    H7 4900   1.681   2.354  13.716  1.3479 -1.2622 -0.3285
  323TMC3    C1 4901   1.792   2.587  13.717 -0.1955  0.3731  0.6745
  323TMC3    C2 4902   1.886   2.679  13.680 -0.2851  0.0595  0.0639
  323TMC3    C3 4903   2.004   2.684  13.751 -0.0391  0.1852 -0.4965
  323TMC3    C4 4904   1.817   2.515  13.826 -0.8097 -0.1116  0.4747
  323TMC3    C5 4905   1.925   2.541  13.909  0.4357  0.1169  0.3880
  323TMC3    C6 4906   2.021   2.627  13.870  0.2093  0.7595  0.2585
  323TMC3     C 4907   1.712   2.529  13.608 -0.6210  0.3013 -0.8801
  323TMC3     O 4908   1.673   2.609  13.523  0.3738  0.6083  0.1246
  323TMC3     H 4909   1.875   2.725  13.582 -1.8553  1.0719  0.7231
  323TMC3    H1 4910   1.737   2.453  13.865  0.9300 -0.7093  3.0841
  323TMC3    H2 4911   2.106   2.657  13.929  0.1465 -0.0161  0.7489
  323TMC3    C7 4912   1.974   2.430  13.983 -0.6687 -0.6100  0.1916
  323TMC3    C8 4913   2.116   2.643  13.671  0.2045 -0.1138 -0.3717
  323TMC3    O1 4914   1.975   2.322  13.924  0.3812  0.1461 -0.5285
  323TMC3    O2 4915   2.207   2.585  13.729 -0.7312  0.4194 -0.2352
  324MPD2     C 4916   3.445   3.117  14.109  0.1274 -0.1126 -0.0379
  324MPD2    C1 4917   3.409   3.244  14.161 -0.0697  0.5829 -0.1821
  324MPD2    C2 4918   3.285   3.256  14.215 -0.5010 -0.1893  0.2275
  324MPD2    C3 4919   3.189   3.153  14.207 -0.6486  0.6098  0.2055
  324MPD2    C4 4920   3.222   3.041  14.136 -0.2214 -0.4198  0.0519
  324MPD2    C5 4921   3.351   3.022  14.086  0.9621  0.3457 -0.3639
  324MPD2     H 4922   3.253   3.350  14.258 -0.0438  0.7153 -1.4202
  324MPD2    H1 4923   3.155   2.958  14.119 -1.7289  0.9675 -0.7475
  324MPD2    H2 4924   3.546   3.105  14.070  0.8934  2.6614  1.0946
  324MPD2    H3 4925   3.366   2.926  14.037 -0.6153  0.4163 -1.0004
  324MPD2     N 4926   3.055   3.164  14.246  0.4756 -0.2184 -0.2963
  324MPD2    H5 4927   2.995   3.086  14.221  0.7507 -0.9064  1.1922
  324MPD2    N1 4928   3.499   3.353  14.167  0.3721  0.9347 -0.8403
  324MPD2    H7 4929   3.463   3.440  14.206 -0.3524 -0.2446  1.1018
  325TMC3    C1 4930   2.856   3.282  14.270 -0.7200  0.3492 -0.4756
  325TMC3    C2 4931   2.805   3.220  14.163 -0.3745  0.7433  0.1037
  325TMC3    C3 4932   2.678   3.262  14.125  0.3392 -0.1381 -0.1986
  325TMC3    C4 4933   2.802   3.389  14.328  0.0367 -0.5850 -0.1783
  325TMC3    C5 4934   2.689   3.436  14.273 -0.1333 -0.4535  0.2752
  325TMC3    C6 4935   2.631   3.381  14.165  0.3641 -1.1404  0.0085
  325TMC3     C 4936   2.994   3.278  14.291 -0.4432 -0.5663  0.2348
  325TMC3     O 4937   3.048   3.388  14.312 -0.1974  0.5622 -0.6299
  325TMC3     H 4938   2.837   3.121  14.134 -0.0405  1.0130 -0.4566
  325TMC3    H1 4939   2.857   3.449  14.399 -0.6704  0.1062 -0.2250
  325TMC3    H2 4940   2.544   3.431  14.124  0.5582 -2.0046 -1.4335
  325TMC3    C7 4941   2.647   3.567  14.302 -0.8511  0.0281  0.4431
  325TMC3    C8 4942   2.620   3.200  14.008  0.1659 -0.1347 -0.5429
  325TMC3    O1 4943   2.732   3.642  14.346 -0.6812  0.4966 -0.1075
  325TMC3    O2 4944   2.693   3.112  13.964  0.0642  0.6401 -0.1327
  326MPD2     C 4945   4.204   3.816  10.947  0.3298 -0.0027  0.6320
  326MPD2    C1 4946   4.157   3.933  10.904 -0.1615  0.7725  0.6533
  326MPD2    C2 4947   4.239   4.040  10.927  1.1405 -0.3039  0.3199
  326MPD2    C3 4948   4.360   4.038  10.985  0.2152 -0.6160 -0.3127
  326MPD2    C4 4949   4.414   3.921  11.016  0.0416  0.4211  0.1737
  326MPD2    C5 4950   4.333   3.810  11.000 -0.6820  0.2415  0.3695
  326MPD2     H 4951   4.200   4.137  10.898 -0.1381 -0.9879 -0.2971
  326MPD2    H1 4952   4.517   3.903  11.046 -0.2547 -2.3097 -0.4021
  326MPD2    H2 4953   4.153   3.720  10.954 -1.6881  1.2209  2.7269
  326MPD2    H3 4954   4.370   3.713  11.030 -1.8232  0.3343  2.0916
  326MPD2     N 4955   4.447   4.146  10.999 -0.4543  0.1162  0.2065
  326MPD2    H5 4956   4.547   4.126  11.003 -0.1197  1.8293  0.4332
  326MPD2    N1 4957   4.033   3.958  10.841  0.5479 -0.4435  0.3991
  326MPD2    H7 4958   4.017   4.057  10.827 -0.9635 -0.8345 -0.6413
  327TMC3    C1 4959   3.855   3.934  10.704 -0.2881 -0.7642  0.1122
  327TMC3    C2 4960   3.809   4.053  10.764  0.1440  0.1998 -0.4674
  327TMC3    C3 4961   3.789   4.156  10.671  0.0645  0.5004 -0.1972
  327TMC3    C4 4962   3.871   3.923  10.570  0.6264  0.4963  0.0676
  327TMC3    C5 4963   3.856   4.034  10.496  0.1180 -0.1529 -0.3733
  327TMC3    C6 4964   3.797   4.146  10.536  0.9811 -0.3329 -0.0012
  327TMC3     C 4965   3.956   3.865  10.780  0.6168 -0.3450 -0.1587
  327TMC3     O 4966   3.981   3.746  10.765 -0.1272  0.6770  0.1387
  327TMC3     H 4967   3.813   4.068  10.871  0.7353 -0.3364 -0.4113
  327TMC3    H1 4968   3.913   3.830  10.534  2.6584  1.1623  0.7412
  327TMC3    H2 4969   3.804   4.238  10.479  1.5628 -0.2602  0.1917
  327TMC3    C7 4970   3.977   4.065  10.424  0.3962 -0.2139  0.4785
  327TMC3    C8 4971   3.759   4.290  10.717  0.3632  0.1199  0.0977
  327TMC3    O1 4972   3.985   4.171  10.360  0.0384  0.0944 -0.0053
  327TMC3    O2 4973   3.763   4.386  10.637  0.0946 -0.4200 -0.1846
  328MPD2     C 4974   2.209   4.594  17.245 -0.6463  0.7064  0.4516
  328MPD2    C1 4975   2.092   4.553  17.186 -0.7347  0.1966 -0.2566
  328MPD2    C2 4976   2.026   4.632  17.087  0.1760  0.0311  0.3579
  328MPD2    C3 4977   2.085   0.008  17.036  0.1794  0.4312 -0.1644
  328MPD2    C4 4978   2.204   0.054  17.100  0.8146  0.6913  0.2411
  328MPD2    C5 4979   2.265   4.707  17.193 -0.2933  0.5616  0.2692
  328MPD2     H 4980   1.923   4.613  17.057  0.0933 -0.9154  1.2067
  328MPD2    H1 4981   2.249   0.144  17.059 -0.9280  0.4008 -2.2757
  328MPD2    H2 4982   2.261   4.547  17.328  1.2180 -2.8632 -2.7086
  328MPD2    H3 4983   2.359   0.013  17.226 -0.9739  0.9320  1.7539
  328MPD2     N 4984   2.014   0.101  16.951 -0.1392  0.1710 -0.1511
  328MPD2    H5 4985   2.052   0.195  16.956 -1.8532  0.7960  1.7232
  328MPD2    N1 4986   2.025   4.440  17.242  0.2525  0.3980  0.1516
  328MPD2    H7 4987   2.068   4.394  17.322  0.0952  1.4269  0.8292
  329TMC3    C1 4988   1.850   4.279  17.280 -0.3256 -0.3158  0.4037
  329TMC3    C2 4989   1.730   4.231  17.234  0.1872 -0.0213 -0.1798
  329TMC3    C3 4990   1.624   4.223  17.325 -0.2738 -0.2234 -0.1142
  329TMC3    C4 4991   1.878   4.297  17.411 -0.1228  0.4277 -0.0240
  329TMC3    C5 4992   1.779   4.267  17.497  0.2760  0.9850  0.3979
  329TMC3    C6 4993   1.653   4.236  17.459 -0.3282 -0.2289 -0.4192
  329TMC3     C 4994   1.915   4.373  17.184 -1.0258  0.0077  0.0046
  329TMC3     O 4995   1.857   4.388  17.078  0.4016  0.2150 -0.3402
  329TMC3     H 4996   1.712   4.227  17.127 -1.4335 -0.2501  0.0975
  329TMC3    H1 4997   1.972   4.330  17.455 -1.7356  2.1024  2.2048
  329TMC3    H2 4998   1.577   4.203  17.528 -1.5776 -0.7830 -2.0751
  329TMC3    C7 4999   1.817   4.204  17.628  0.2839  1.3144 -1.0891
  329TMC3    C8 5000   1.510   4.293  17.278 -0.1952  0.1950 -0.3250
  329TMC3    O1 5001   1.940   4.182  17.650  0.5498  0.2384 -0.2522
  329TMC3    O2 5002   1.447   4.244  17.190 -0.1511  0.2802 -0.5034
  330TMC3    C1 5003   4.716   3.614   9.353  0.1098  0.8999 -0.6382
  330TMC3    C2 5004   4.727   3.494   9.417  0.1233  0.0564  0.7585
  330TMC3    C3 5005   0.118   3.438   9.412  0.4783  0.4969 -0.1788
  330TMC3    C4 5006   0.084   3.674   9.283 -0.6130  0.5638 -0.2168
  330TMC3    C5 5007   0.206   3.609   9.280 -0.8281  0.0470  0.0097
  330TMC3    C6 5008   0.218   3.480   9.334  0.2343  0.3536 -0.3655
  330TMC3     C 5009   4.611   3.709   9.398  0.7346 -0.1634 -0.6833
  330TMC3     O 5010   4.625   3.828   9.372 -0.3096 -0.1828  0.0393
  330TMC3     H 5011   4.657   3.461   9.492  1.0309 -1.1303  1.0850
  330TMC3    H1 5012   0.068   3.773   9.242  0.5523  1.7844  2.2617
  330TMC3    H2 5013   0.312   3.427   9.330  0.8987  1.4689  0.2407
  330TMC3    C7 5014   0.327   3.682   9.245  0.0693  0.8852 -0.1131
  330TMC3    C8 5015   0.152   3.325   9.498 -0.7448 -0.3697 -0.0886
  330TMC3    O1 5016   0.422   3.609   9.242 -0.0490  0.3249 -0.1003
  330TMC3    O2 5017   0.271   3.292   9.497 -0.3426 -0.5297 -0.0573
  331MPD2     C 5018   3.408   2.753  12.736  0.1952  0.4725  0.2078
  331MPD2    C1 5019   3.315   2.788  12.636  0.7347  0.9234  0.2962
  331MPD2    C2 5020   3.213   2.700  12.608  0.8618 -0.3261  0.1391
  331MPD2    C3 5021   3.204   2.578  12.672 -0.2931 -0.1268 -1.1485
  331MPD2    C4 5022   3.292   2.548  12.773 -0.2317  0.4121 -0.5809
  331MPD2    C5 5023   3.390   2.638  12.805  1.2338  0.4585  0.4954
  331MPD2     H 5024   3.143   2.716  12.527  1.3236  0.7631 -0.0374
  331MPD2    H1 5025   3.277   2.463  12.838 -0.2039  0.3028 -0.7165
  331MPD2    H2 5026   3.479   2.826  12.772 -1.0927  0.9794  1.7219
  331MPD2    H3 5027   3.451   2.604  12.887  0.3087 -0.2460  0.8991
  331MPD2     N 5028   3.120   2.475  12.611  0.4664 -0.4077  0.2172
  331MPD2    H5 5029   3.069   2.501  12.527  0.0484  1.4506  1.0458
  331MPD2    N1 5030   3.336   2.915  12.569 -0.3291 -0.1448 -0.0210
  331MPD2    H7 5031   3.414   2.974  12.596  0.8973 -1.1279 -1.3646
  332TMC3    C1 5032   2.996   2.274  12.567  0.8933 -0.5469  0.5144
  332TMC3    C2 5033   2.931   2.356  12.480 -0.4862 -0.0464 -0.0763
  332TMC3    C3 5034   2.874   2.298  12.369  0.1029  0.1956 -0.7390
  332TMC3    C4 5035   3.003   2.138  12.558 -1.0359 -0.7243  0.4652
  332TMC3    C5 5036   2.943   2.089  12.443 -0.2740 -0.0304  0.6748
  332TMC3    C6 5037   2.886   2.168  12.350  0.1848  0.0650  0.4816
  332TMC3     C 5038   3.101   2.342  12.648  0.5772  0.3394 -0.4204
  332TMC3     O 5039   3.154   2.270  12.735 -0.2839 -0.2618  0.2746
  332TMC3     H 5040   2.920   2.460  12.507  3.1519  0.8903 -2.1677
  332TMC3    H1 5041   3.046   2.082  12.640  1.2321 -0.5499 -0.6128
  332TMC3    H2 5042   2.841   2.110  12.270 -0.2194 -0.0064  0.7616
  332TMC3    C7 5043   2.979   1.951  12.412 -0.3753 -0.7058  0.1751
  332TMC3    C8 5044   2.786   2.385  12.296  0.1111 -0.0608 -0.9776
  332TMC3    O1 5045   2.914   1.884  12.331 -0.3896 -0.0876 -0.1649
  332TMC3    O2 5046   2.772   2.365  12.180  0.2067  0.4087 -0.6430
  333MPD2     C 5047   3.067   2.685  11.099  0.0910 -0.2413 -0.2481
  333MPD2    C1 5048   3.100   2.597  10.997  0.0973  0.7186 -0.6124
  333MPD2    C2 5049   3.080   2.460  11.018 -0.3773 -0.2373  0.0005
  333MPD2    C3 5050   3.002   2.416  11.124 -0.0448  0.8394 -0.7498
  333MPD2    C4 5051   2.954   2.509  11.213 -0.3882 -0.0050  0.5120
  333MPD2    C5 5052   2.991   2.637  11.207  0.0294  0.0852  0.3873
  333MPD2     H 5053   3.121   2.385  10.952  0.4320  0.0361  0.1905
  333MPD2    H1 5054   2.898   2.482  11.302  0.3239 -1.4514  0.5320
  333MPD2    H2 5055   3.093   2.790  11.100 -0.1862 -0.1669 -1.3213
  333MPD2    H3 5056   2.954   2.706  11.282 -2.7848  2.3605 -3.1013
  333MPD2     N 5057   2.973   2.274  11.119  0.4064  0.0580  0.0791
  333MPD2    H5 5058   3.025   2.222  11.049 -0.5941  0.4993 -1.0052
  333MPD2    N1 5059   3.171   2.651  10.889  0.4566 -0.3360 -0.2840
  333MPD2    H7 5060   3.198   2.748  10.901 -1.4012  0.0705  0.5896
  334TMC3    C1 5061   3.307   2.652  10.685  0.7815  0.2500  0.4527
  334TMC3    C2 5062   3.422   2.588  10.653  0.1684  0.1588  0.0262
  334TMC3    C3 5063   3.529   2.667  10.623 -0.4295  0.1113 -0.0992
  334TMC3    C4 5064   3.288   2.789  10.692 -0.4317 -0.5489 -0.1025
  334TMC3    C5 5065   3.403   2.863  10.680  0.2577  0.2023  0.0047
  334TMC3    C6 5066   3.523   2.803  10.643  0.0867  0.1602 -0.1249
  334TMC3     C 5067   3.226   2.577  10.779  0.9416  0.3375  0.3222
  334TMC3     O 5068   3.227   2.458  10.764  0.4526  0.1612 -0.0909
  334TMC3     H 5069   3.428   2.480  10.649 -0.5533  0.2096 -2.4809
  334TMC3    H1 5070   3.193   2.825  10.729 -0.0972  0.0302  0.1896
  334TMC3    H2 5071   3.609   2.861  10.611 -0.0404  0.9055  0.8741
  334TMC3    C7 5072   3.396   3.011  10.681 -0.6984  0.3073 -1.1943
  334TMC3    C8 5073   3.662   2.598  10.627  0.0080  0.6127  0.1619
  334TMC3    O1 5074   3.509   3.056  10.667  0.3014 -0.2723  0.1426
  334TMC3    O2 5075   3.651   2.481  10.653  0.4228  0.1497 -0.0624
  335TMC3    C1 5076   2.857   4.703  17.627 -0.2056 -0.0958 -0.0264
  335TMC3    C2 5077   2.783   4.690  17.513  0.1117  0.4307  0.1625
  335TMC3    C3 5078   2.843   4.729  17.398 -0.7069  0.0148 -0.5127
  335TMC3    C4 5079   2.983   0.022  17.626 -0.4023 -0.2215 -0.6946
  335TMC3    C5 5080   3.035   0.065  17.512 -0.4108 -0.6047 -1.4318
  335TMC3    C6 5081   2.965   0.046  17.395 -0.5973  0.8024 -0.4977
  335TMC3     C 5082   2.831   4.619  17.737 -0.3984 -0.4181  0.2220
  335TMC3     O 5083   2.927   4.608   0.073  0.4464  0.7667 -0.4485
  335TMC3     H 5084   2.675   4.678  17.522 -0.3366  2.2026 -2.8012
  335TMC3    H1 5085   3.048   0.042  17.709 -0.7643  0.8932 -0.6845
  335TMC3    H2 5086   3.016   0.071  17.303  0.8983  1.4900  0.5093
  335TMC3    C7 5087   3.176   0.071  17.491  0.0616  0.4152 -0.0445
  335TMC3    C8 5088   2.778   4.691  17.274  0.3251  0.2038 -0.0467
  335TMC3    O1 5089   3.246   4.729  17.553 -0.2368  0.0307  0.2345
  335TMC3    O2 5090   2.823   0.007  17.172  0.0386 -0.7948 -0.3005
  336MPD2     C 5091   2.418   2.497  15.931  0.6201 -0.3459  0.1108
  336MPD2    C1 5092   2.348   2.401  15.862 -0.4383 -0.3959 -0.6360
  336MPD2    C2 5093   2.364   2.275  15.909  0.2517  0.5654 -0.0768
  336MPD2    C3 5094   2.439   2.252  16.023 -0.9045 -0.0168  0.1529
  336MPD2    C4 5095   2.508   2.350  16.097  0.4404  0.0680 -0.0583
  336MPD2    C5 5096   2.495   2.473  16.047 -0.4249 -0.1870 -0.4194
  336MPD2     H 5097   2.302   2.194  15.874 -0.2205  0.0757  1.8478
  336MPD2    H1 5098   2.574   2.335  16.182  1.6591 -1.0375 -1.1908
  336MPD2    H2 5099   2.411   2.599  15.895  1.4559  0.8137  3.2410
  336MPD2    H3 5100   2.532   2.554  16.108  0.6086  0.5087 -1.9705
  336MPD2     N 5101   2.445   2.124  16.078 -0.0086  0.1790  0.1949
  336MPD2    H5 5102   2.488   2.112  16.169 -1.0152 -3.4852  0.2035
  336MPD2    N1 5103   2.253   2.418  15.757  0.6974  0.3515  0.1160
  336MPD2    H7 5104   2.225   2.332  15.712 -1.4470  2.3470 -2.3771
  337TMC3    C1 5105   2.154   2.562  15.587 -0.0026 -0.9624 -0.3731
  337TMC3    C2 5106   2.034   2.494  15.579  0.7035 -0.4455  0.7770
  337TMC3    C3 5107   1.949   2.541  15.489  0.3247 -0.0798  0.7128
  337TMC3    C4 5108   2.179   2.678  15.511  0.1076 -0.1826 -0.3244
  337TMC3    C5 5109   2.085   2.727  15.430 -0.0839 -0.3239 -0.1162
  337TMC3    C6 5110   1.971   2.649  15.412 -0.4686  0.3280  0.4664
  337TMC3     C 5111   2.241   2.545  15.698  0.2000  0.3639 -0.2259
  337TMC3     O 5112   2.264   2.655  15.744 -0.5334  0.1167 -0.0583
  337TMC3     H 5113   2.014   2.412  15.647 -0.0735  0.1664  1.2842
  337TMC3    H1 5114   2.276   2.725  15.518 -0.5578  0.9222  1.5783
  337TMC3    H2 5115   1.894   2.691  15.348 -1.0108 -2.3535 -0.6373
  337TMC3    C7 5116   2.124   2.812  15.322  0.3191 -0.5252  0.0602
  337TMC3    C8 5117   1.832   2.465  15.469 -0.4355  0.3895 -0.2917
  337TMC3    O1 5118   2.063   2.813  15.213  0.0538 -0.1291 -0.0379
  337TMC3    O2 5119   1.797   2.394  15.562 -0.4257 -0.0705 -1.0847
  338MPD2     C 5120   2.649   2.044   0.835 -0.0486 -0.1231 -0.1319
  338MPD2    C1 5121   2.599   2.014   0.709 -0.0807 -0.4882 -0.0154
  338MPD2    C2 5122   2.473   2.060   0.674 -0.2691  0.1972  0.6210
  338MPD2    C3 5123   2.390   2.131   0.757 -0.4728  0.0910  0.2913
  338MPD2    C4 5124   2.439   2.155   0.881 -0.4061  0.2251  0.1930
  338MPD2    C5 5125   2.562   2.110   0.914  0.2363  0.0738  0.5162
  338MPD2     H 5126   2.436   2.036   0.576 -0.4505 -0.8080  0.9286
  338MPD2    H1 5127   2.382   2.201   0.961 -1.0350  1.1012 -0.7494
  338MPD2    H2 5128   2.740   1.999   0.874  0.1591  2.4407  2.3314
  338MPD2    H3 5129   2.593   2.129   1.016  0.8048 -0.2588  0.4060
  338MPD2     N 5130   2.255   2.170   0.721  0.1900  0.1239  0.1920
  338MPD2    H5 5131   2.217   2.146   0.630 -1.5291  0.4139  0.8393
  338MPD2    N1 5132   2.666   1.934   0.619  0.1207  0.9786 -0.5038
  338MPD2    H7 5133   2.622   1.923   0.529 -0.1759  1.3773 -0.4059
  339TMC3    C1 5134   2.027   2.214   0.744  0.6163  0.3397  0.5125
  339TMC3    C2 5135   1.940   2.122   0.787 -0.3962  0.0589  1.2412
  339TMC3    C3 5136   1.849   2.077   0.697 -0.6098  0.1829  0.0738
  339TMC3    C4 5137   2.035   2.263   0.618  0.3496  0.6212  0.4798
  339TMC3    C5 5138   1.948   2.213   0.526  0.2496 -0.0761  0.2532
  339TMC3    C6 5139   1.854   2.120   0.564 -0.0829  0.0533 -0.5416
  339TMC3     C 5140   2.155   2.210   0.807 -0.2405  0.4212 -0.2702
  339TMC3     O 5141   2.157   2.245   0.925  0.2694 -0.3805  0.1470
  339TMC3     H 5142   1.943   2.095   0.892  2.3067 -0.7607  0.9533
  339TMC3    H1 5143   2.111   2.335   0.589  2.1189 -1.0723  0.8976
  339TMC3    H2 5144   1.786   2.065   0.499  0.5230 -1.3513  0.0005
  339TMC3    C7 5145   1.955   2.261   0.391 -0.1430 -0.0299 -0.0367
  339TMC3    C8 5146   1.775   1.955   0.727 -0.0070 -0.0300  0.3151
  339TMC3    O1 5147   2.013   2.373   0.378 -0.5329  0.2284  0.0725
  339TMC3    O2 5148   1.669   1.948   0.662  0.2138 -0.0097 -0.5816
  340MPD2     C 5149   2.640   2.806   9.881  0.3921  1.0405 -0.1189
  340MPD2    C1 5150   2.747   2.799   9.971  0.0627 -0.3302 -0.3930
  340MPD2    C2 5151   2.787   2.906  10.039 -0.1598  0.1724 -0.9059
  340MPD2    C3 5152   2.717   3.028  10.030  0.3340 -0.0583 -0.2078
  340MPD2    C4 5153   2.628   3.038   9.920 -0.0782 -0.1398  0.7994
  340MPD2    C5 5154   2.580   2.925   9.858 -0.3407  0.0548 -0.4577
  340MPD2     H 5155   2.879   2.901  10.096 -0.6101  1.3252 -0.0653
  340MPD2    H1 5156   2.577   3.129   9.893  0.0724  0.1109  1.3632
  340MPD2    H2 5157   2.593   2.718   9.838 -3.0149  2.2664  1.1166
  340MPD2    H3 5158   2.500   2.935   9.785 -2.0161 -0.5163  1.3089
  340MPD2     N 5159   2.754   3.139  10.109  0.3234 -0.5179 -0.5856
  340MPD2    H5 5160   2.725   3.229  10.074 -2.5824 -2.1868 -2.4985
  340MPD2    N1 5161   2.791   2.669  10.002 -0.7396  0.2871 -0.9093
  340MPD2    H7 5162   2.756   2.593   9.944 -3.0143  0.5478  0.1243
  341TMC3    C1 5163   2.930   2.495  10.056  0.6684  0.2431 -0.2350
  341TMC3    C2 5164   2.821   2.407  10.041  0.3136  0.1206 -0.0868
  341TMC3    C3 5165   2.852   2.283   9.988  0.4223 -0.4403  0.0288
  341TMC3    C4 5166   3.054   2.470  10.012  0.0670 -0.4267 -0.5310
  341TMC3    C5 5167   3.075   2.344   9.964  0.3816  0.0792  0.2077
  341TMC3    C6 5168   2.980   2.247   9.951 -0.5310  0.5548 -0.5246
  341TMC3     C 5169   2.895   2.635  10.088  0.3453 -0.1700  0.7961
  341TMC3     O 5170   2.974   2.702  10.159  0.7123 -0.1476 -0.3413
  341TMC3     H 5171   2.719   2.441  10.058  0.0546 -0.6036 -0.1972
  341TMC3    H1 5172   3.130   2.542  10.040 -0.5521  0.3442 -0.8352
  341TMC3    H2 5173   3.006   2.151   9.910  1.0779  0.1810  1.3705
  341TMC3    C7 5174   3.188   2.351   9.870  0.4121 -0.2438  0.2540
  341TMC3    C8 5175   2.738   2.188   9.992 -0.7561  0.5540  0.0847
  341TMC3    O1 5176   3.277   2.435   9.890  0.1233 -0.1391 -0.4716
  341TMC3    O2 5177   2.627   2.223  10.023  0.1288 -0.2704 -0.4073
  342MPD2     C 5178   0.470   2.638   0.086  0.8185 -0.2225  0.7175
  342MPD2    C1 5179   0.580   2.656   0.006  0.4073  0.7479 -0.2432
  342MPD2    C2 5180   0.634   2.791  17.738 -0.1203  1.2432 -0.2876
  342MPD2    C3 5181   0.564   2.893   0.060  0.5034  0.2850 -0.3988
  342MPD2    C4 5182   0.444   2.878   0.118  0.2699  0.0238 -0.2994
  342MPD2    C5 5183   0.401   2.747   0.141 -0.1273 -0.4465  0.2135
  342MPD2     H 5184   0.714   2.802  17.666  1.0284 -1.3031  0.5914
  342MPD2    H1 5185   0.382   2.957   0.159  0.4911 -1.2113  2.4040
  342MPD2    H2 5186   0.431   2.538   0.105  1.1744 -0.5608 -0.3290
  342MPD2    H3 5187   0.309   2.728   0.196 -0.4387  0.4886  0.0182
  342MPD2     N 5188   0.609   3.025   0.047 -0.8464 -0.4551 -0.1902
  342MPD2    H5 5189   0.538   3.097   0.046  0.6492  1.0081 -1.1891
  342MPD2    N1 5190   0.649   2.558  17.672 -0.1676  0.0097 -0.2738
  342MPD2    H7 5191   0.735   2.588  17.627  0.4944 -1.8389 -0.2160
  343TMC3    C1 5192   0.692   2.364  17.546 -0.7254  0.2282 -0.2020
  343TMC3    C2 5193   0.780   2.437  17.475  0.8151 -0.0720  0.2152
  343TMC3    C3 5194   0.849   2.372  17.377  0.9474  1.1021 -0.2504
  343TMC3    C4 5195   0.664   2.232  17.521 -0.7472 -0.3937 -0.4336
  343TMC3    C5 5196   0.724   2.179  17.409  0.5562 -0.3083 -0.1041
  343TMC3    C6 5197   0.826   2.241  17.345  0.8303  0.1883  0.2331
  343TMC3     C 5198   0.606   2.429  17.646 -0.1923 -0.7678 -0.3461
  343TMC3     O 5199   0.508   2.364  17.684  0.3322  0.1199 -0.7618
  343TMC3     H 5200   0.789   2.545  17.485 -1.0416  0.1679 -0.7192
  343TMC3    H1 5201   0.589   2.174  17.574 -1.0353  1.1222  0.8277
  343TMC3    H2 5202   0.885   2.187  17.272 -1.2947 -0.7243 -0.8065
  343TMC3    C7 5203   0.658   2.061  17.357  0.0352 -0.0709 -0.3915
  343TMC3    C8 5204   0.953   2.450  17.319  0.1589  0.7925 -0.5423
  343TMC3    O1 5205   0.571   2.002  17.419  0.2967  0.5507  0.1074
  343TMC3    O2 5206   0.986   2.544  17.391 -0.0594 -0.5547 -0.1118
  344MPD2     C 5207   1.306   0.932  10.618 -0.2702  0.0506  0.3702
  344MPD2    C1 5208   1.271   0.993  10.737 -0.0544  0.7266 -0.0591
  344MPD2    C2 5209   1.370   1.063  10.811 -0.2171  0.1438  0.6207
  344MPD2    C3 5210   1.490   1.093  10.750  0.7317  0.2527  0.2687
  344MPD2    C4 5211   1.522   1.027  10.631 -0.0192  0.0193  0.3416
  344MPD2    C5 5212   1.431   0.944  10.573  0.0183 -0.6049  0.2721
  344MPD2     H 5213   1.347   1.098  10.911 -0.6981  0.3253  0.4426
  344MPD2    H1 5214   1.614   1.036  10.573 -0.2068 -0.9756 -0.1102
  344MPD2    H2 5215   1.239   0.868  10.562 -2.4581  1.7364  1.0830
  344MPD2    H3 5216   1.445   0.904  10.474  0.4228 -1.8502  0.8423
  344MPD2     N 5217   1.578   1.197  10.793  0.1570  0.5496 -0.3199
  344MPD2    H5 5218   1.667   1.206  10.746  0.6749  4.0172  1.3370
  344MPD2    N1 5219   1.138   0.990  10.786 -0.0129  0.1691 -0.8999
  344MPD2    H7 5220   1.122   1.047  10.868 -0.8432 -0.1101 -0.8643
  345TMC3    C1 5221   1.665   1.376  10.907 -0.2616  0.7211 -0.0915
  345TMC3    C2 5222   1.677   1.450  11.021 -0.0862 -0.2864 -0.0422
  345TMC3    C3 5223   1.747   1.570  11.023  0.0569  0.2570  0.1320
  345TMC3    C4 5224   1.704   1.435  10.787 -0.4712 -0.2672 -0.0139
  345TMC3    C5 5225   1.786   1.549  10.802  0.6183  0.7958  0.2170
  345TMC3    C6 5226   1.799   1.624  10.915  0.0314 -0.0882  0.9414
  345TMC3     C 5227   1.569   1.271  10.907 -0.1208 -0.5270  0.5615
  345TMC3     O 5228   1.470   1.284  10.980  0.2036 -0.8560  0.0539
  345TMC3     H 5229   1.653   1.405  11.117  0.4707  1.0765  0.7318
  345TMC3    H1 5230   1.695   1.384  10.693 -1.9978 -1.3268  0.7157
  345TMC3    H2 5231   1.860   1.713  10.918 -0.5306  0.2620  1.8652
  345TMC3    C7 5232   1.818   1.618  10.680  0.0718 -0.7945 -0.3902
  345TMC3    C8 5233   1.730   1.654  11.139 -0.4037 -0.0259  0.0804
  345TMC3    O1 5234   1.869   1.728  10.695 -0.3942 -0.5851 -0.1121
  345TMC3    O2 5235   1.690   1.602  11.244 -0.9131  0.4415 -0.4582
  346MPD2     C 5236   1.301   3.531  13.799  0.3475  0.1117 -0.2442
  346MPD2    C1 5237   1.438   3.499  13.790 -0.1773  0.3126  0.0101
  346MPD2    C2 5238   1.523   3.546  13.890 -0.4057 -0.4494  0.4322
  346MPD2    C3 5239   1.474   3.636  13.991  0.6304  0.9038 -0.8384
  346MPD2    C4 5240   1.340   3.677  13.984  0.0896 -0.1744  0.6209
  346MPD2    C5 5241   1.253   3.619  13.893  0.6384 -0.3904  0.0131
  346MPD2     H 5242   1.628   3.518  13.895 -0.0790  0.7454  0.3275
  346MPD2    H1 5243   1.289   3.737  14.059  0.2895  0.7301  0.0359
  346MPD2    H2 5244   1.232   3.486  13.729 -0.7849  1.6092 -0.0941
  346MPD2    H3 5245   1.146   3.636  13.887  0.3944 -2.1889 -0.8267
  346MPD2     N 5246   1.573   3.684  14.082  0.0253 -0.1896  0.2055
  346MPD2    H5 5247   1.669   3.653  14.078 -0.0085 -0.4131  0.9798
  346MPD2    N1 5248   1.475   3.424  13.676 -0.2427  0.4778 -0.3950
  346MPD2    H7 5249   1.394   3.420  13.615  2.2984  1.5386 -3.8354
  347TMC3    C1 5250   1.662   3.835  14.252  0.2042 -0.4298 -0.9788
  347TMC3    C2 5251   1.789   3.773  14.251 -0.2085  0.4938 -0.0383
  347TMC3    C3 5252   1.886   3.838  14.326  0.4047  0.0510  0.2998
  347TMC3    C4 5253   1.634   3.950  14.331  0.6555  0.5272 -0.6812
  347TMC3    C5 5254   1.736   4.001  14.412 -0.1522 -0.1436 -0.6651
  347TMC3    C6 5255   1.866   3.954  14.402 -0.6051  0.6696  0.1162
  347TMC3     C 5256   1.547   3.779  14.178 -0.2380  0.7081  0.3531
  347TMC3     O 5257   1.442   3.831  14.217 -0.2807  0.1306  0.4981
  347TMC3     H 5258   1.811   3.682  14.196  0.5581  0.7331 -0.1195
  347TMC3    H1 5259   1.539   4.002  14.339  0.1477 -0.2065 -1.8356
  347TMC3    H2 5260   1.939   3.993  14.472 -0.2180  1.3886 -0.6757
  347TMC3    C7 5261   1.710   4.126  14.482 -0.5064  0.3671 -0.6123
  347TMC3    C8 5262   2.022   3.783  14.311  0.2146 -0.7395  0.4185
  347TMC3    O1 5263   1.598   4.173  14.461 -0.1882  0.1430 -0.5148
  347TMC3    O2 5264   2.041   3.672  14.266 -0.0038 -0.2907  0.1093
  348MPD2     C 5265   0.781   3.313  12.135  0.6677 -0.0694 -0.8253
  348MPD2    C1 5266   0.758   3.243  12.019  0.0264  0.5771  0.8045
  348MPD2    C2 5267   0.746   3.315  11.896 -0.8104  0.2803  0.3317
  348MPD2    C3 5268   0.757   3.454  11.888 -0.7617 -0.3579 -0.0166
  348MPD2    C4 5269   0.781   3.523  12.006 -0.2231 -0.4679  0.1004
  348MPD2    C5 5270   0.794   3.452  12.127  0.1950  0.3058 -0.0876
  348MPD2     H 5271   0.715   3.264  11.806 -1.8166  3.2023 -0.9911
  348MPD2    H1 5272   0.795   3.630  12.011 -2.7157 -0.1360  0.2786
  348MPD2    H2 5273   0.806   3.268  12.230 -2.2793 -1.3899 -0.6765
  348MPD2    H3 5274   0.812   3.508  12.218 -1.4447 -0.2528  0.5767
  348MPD2     N 5275   0.740   3.521  11.758 -0.1864  0.1577 -0.3842
  348MPD2    H5 5276   0.706   3.467  11.679  0.4346 -2.6166  1.2605
  348MPD2    N1 5277   0.750   3.103  12.010  0.0536 -0.7113  0.2205
  348MPD2    H7 5278   0.713   3.065  11.924  0.9377 -1.9074  0.3710
  349TMC3    C1 5279   0.712   2.888  12.056  0.0557 -0.2717  1.0637
  349TMC3    C2 5280   0.710   2.790  12.157  0.3579 -0.9306 -0.4393
  349TMC3    C3 5281   0.656   2.671  12.129 -0.5265 -0.1154 -0.0644
  349TMC3    C4 5282   0.654   2.876  11.934  0.3539 -0.1341 -0.0554
  349TMC3    C5 5283   0.592   2.762  11.912 -0.7594 -0.7548  0.0685
  349TMC3    C6 5284   0.590   2.655  12.005  0.6952 -0.4304 -0.1195
  349TMC3     C 5285   0.766   3.011  12.105  0.3001 -0.4934  0.2600
  349TMC3     O 5286   0.804   3.026  12.221 -0.7485 -0.3550 -0.0522
  349TMC3     H 5287   0.782   2.798  12.238 -1.7917  0.0159  1.3582
  349TMC3    H1 5288   0.643   2.957  11.863  1.2834 -0.9196 -1.0841
  349TMC3    H2 5289   0.541   2.559  11.990 -1.6446  0.5437  1.2892
  349TMC3    C7 5290   0.486   2.765  11.821  0.5891 -0.3479  0.1458
  349TMC3    C8 5291   0.713   2.555  12.197 -0.0528 -0.6187  0.1589
  349TMC3    O1 5292   0.381   2.720  11.864  0.7402 -0.3456 -0.6099
  349TMC3    O2 5293   0.726   2.550  12.319 -0.0123 -0.1444 -0.3811
  350MPD2     C 5294   4.168   1.668   9.709  0.4647  0.3340  0.3077
  350MPD2    C1 5295   4.173   1.533   9.683 -0.8995 -0.2026 -0.0232
  350MPD2    C2 5296   4.220   1.444   9.788  0.0746 -0.3614 -0.2142
  350MPD2    C3 5297   4.258   1.498   9.908 -0.9663 -0.0759 -0.3292
  350MPD2    C4 5298   4.255   1.639   9.927  0.0384  0.1482  0.2572
  350MPD2    C5 5299   4.212   1.714   9.827 -0.0192  0.7763 -0.1678
  350MPD2     H 5300   4.215   1.337   9.773  1.7806 -0.5137  0.2745
  350MPD2    H1 5301   4.277   1.696  10.017 -0.6267  0.9458 -0.0850
  350MPD2    H2 5302   4.137   1.742   9.636 -1.0669 -0.3529  0.2728
  350MPD2    H3 5303   4.198   1.818   9.855  0.8634  0.7357  0.4041
  350MPD2     N 5304   4.286   1.414  10.016 -0.2860  0.0201 -0.1601
  350MPD2    H5 5305   4.256   1.317  10.011 -1.8820  0.4091  1.6882
  350MPD2    N1 5306   4.139   1.476   9.556 -0.1046 -0.5499  0.2627
  350MPD2    H7 5307   4.156   1.377   9.544  1.2434 -0.1089 -1.4337
  351TMC3    C1 5308   4.047   1.449   9.333  0.4421  0.2251  0.9661
  351TMC3    C2 5309   4.149   1.371   9.291  0.0842 -0.0188 -0.3633
  351TMC3    C3 5310   4.124   1.289   9.187 -0.2434 -0.7169  0.1432
  351TMC3    C4 5311   3.935   1.463   9.255  0.1280 -0.1733 -0.4077
  351TMC3    C5 5312   3.913   1.385   9.147 -0.7300 -0.6023  0.4014
  351TMC3    C6 5313   4.008   1.287   9.121  0.2051 -0.0573 -0.3720
  351TMC3     C 5314   4.069   1.532   9.455  0.4757  0.0844  0.3586
  351TMC3     O 5315   3.986   1.625   9.454 -0.2571  0.3346  0.2811
  351TMC3     H 5316   4.242   1.382   9.346  0.0740  0.6579 -0.4913
  351TMC3    H1 5317   3.850   1.515   9.299  0.6051  0.7209 -0.5517
  351TMC3    H2 5318   4.002   1.227   9.031 -0.0674 -0.8067  0.1464
  351TMC3    C7 5319   3.797   1.389   9.058  0.2905 -0.0586 -0.2286
  351TMC3    C8 5320   4.207   1.176   9.183 -1.1414  0.4558  0.0728
  351TMC3    O1 5321   3.778   1.296   8.983 -0.1955 -0.1170  0.1728
  351TMC3    O2 5322   4.166   1.066   9.144 -0.2889  0.3058 -0.0775
  352MPD2     C 5323   2.739   3.698   1.325 -0.7930  0.6669  0.0199
  352MPD2    C1 5324   2.684   3.648   1.206 -0.0401 -0.6144 -0.1512
  352MPD2    C2 5325   2.751   3.542   1.145 -0.0116  1.0223 -0.7753
  352MPD2    C3 5326   2.873   3.497   1.187 -0.4709 -0.2374 -0.9381
  352MPD2    C4 5327   2.929   3.551   1.304  0.8633  0.2324  0.2405
  352MPD2    C5 5328   2.853   3.645   1.377  0.7101 -0.1871  0.0749
  352MPD2     H 5329   2.700   3.478   1.075 -1.5001 -0.4764  1.6711
  352MPD2    H1 5330   3.025   3.517   1.339  0.7920  0.5302  0.7279
  352MPD2    H2 5331   2.690   3.778   1.379 -2.4694 -1.5334  1.7317
  352MPD2    H3 5332   2.895   3.688   1.467 -0.1039  1.4991 -0.3608
  352MPD2     N 5333   2.946   3.386   1.126  0.1789 -0.9932 -0.0097
  352MPD2    H5 5334   3.046   3.382   1.140  0.8619 -2.0444 -5.0044
  352MPD2    N1 5335   2.557   3.701   1.160  0.6186  0.1870  0.3854
  352MPD2    H7 5336   2.515   3.779   1.211  1.2473  0.6825  0.1558
  353TMC3    C1 5337   2.995   3.218   0.983  0.5694  0.3238  0.4297
  353TMC3    C2 5338   3.058   3.143   1.076  0.2627 -0.2302 -0.4466
  353TMC3    C3 5339   3.107   3.013   1.040 -0.8378  0.0754  0.4606
  353TMC3    C4 5340   2.967   3.167   0.858  0.2913 -0.1069  0.0267
  353TMC3    C5 5341   3.009   3.042   0.826  0.1224  0.1709  0.0177
  353TMC3    C6 5342   3.089   2.963   0.912 -0.1231  0.4468 -0.7024
  353TMC3     C 5343   2.892   3.304   1.032 -0.4090  0.0296 -0.2468
  353TMC3     O 5344   2.776   3.285   0.996  0.0601  0.3294 -0.2521
  353TMC3     H 5345   3.078   3.178   1.177 -0.9347 -0.1684 -0.2270
  353TMC3    H1 5346   2.911   3.226   0.786  1.0846  0.3660 -0.2045
  353TMC3    H2 5347   3.109   2.859   0.889 -1.6716 -0.3324  1.4278
  353TMC3    C7 5348   2.902   2.960   0.783  0.2635  0.6555 -0.3808
  353TMC3    C8 5349   3.166   2.934   1.145  0.5976 -0.3179  0.1184
  353TMC3    O1 5350   2.929   2.857   0.727  0.2988  0.0957 -0.5403
  353TMC3    O2 5351   3.137   2.970   1.259 -0.3787 -0.7029 -0.4275
  354TMC3    C1 5352   4.497   4.225  13.447  0.4647  0.3263 -0.4329
  354TMC3    C2 5353   4.548   4.352  13.435 -0.1760  0.0239  0.0158
  354TMC3    C3 5354   4.654   4.366  13.356 -0.6971 -0.8152 -0.2184
  354TMC3    C4 5355   4.533   4.121  13.363  0.5751 -0.1703 -0.7640
  354TMC3    C5 5356   4.636   4.135  13.274  0.3819 -0.2334 -0.0445
  354TMC3    C6 5357   4.696   4.262  13.273 -0.0995 -0.3327 -0.3865
  354TMC3     C 5358   4.386   4.210  13.543 -0.4375 -0.1001 -0.1030
  354TMC3     O 5359   4.386   4.292  13.633  0.0221 -1.0116 -0.0280
  354TMC3     H 5360   4.520   4.438  13.495 -0.6624 -0.9431  1.1722
  354TMC3    H1 5361   4.486   4.024  13.372  1.0016 -0.2376  0.6801
  354TMC3    H2 5362   0.051   4.281  13.219 -0.6061  1.3278 -0.6759
  354TMC3    C7 5363   4.613   4.073  13.150  0.0145 -0.0881 -0.2717
  354TMC3    C8 5364   4.710   4.498  13.333  0.6420 -0.0031 -0.5052
  354TMC3    O1 5365   4.510   4.011  13.140 -0.5336 -0.4703  0.2235
  354TMC3    O2 5366   4.683   4.583  13.411 -0.3889 -0.3506  0.1299
  355MPD2     C 5367   4.464   0.446  11.980 -0.0180 -0.3653 -0.4023
  355MPD2    C1 5368   4.556   0.405  11.886 -0.4962 -0.0689 -0.1512
  355MPD2    C2 5369   4.672   0.341  11.931 -0.2798 -0.1474 -0.5420
  355MPD2    C3 5370   4.700   0.330  12.063  0.0131 -0.8541  1.2178
  355MPD2    C4 5371   4.600   0.353  12.151 -0.3456 -0.0107  0.0533
  355MPD2    C5 5372   4.488   0.413  12.105  0.0285  0.1268 -0.1083
  355MPD2     H 5373   0.013   0.306  11.863  0.1992  0.4288 -0.3042
  355MPD2    H1 5374   4.614   0.329  12.255 -0.0250 -0.1853 -0.0313
  355MPD2    H2 5375   4.372   0.487  11.940  0.0930  1.1018  0.8343
  355MPD2    H3 5376   4.414   0.431  12.182  0.6433 -0.9519  0.7417
  355MPD2     N 5377   0.089   0.278  12.098  0.5352  0.4695  0.5000
  355MPD2    H5 5378   0.157   0.283  12.022 -0.9335  0.2260 -0.8296
  355MPD2    N1 5379   4.533   0.445  11.751 -1.2062 -0.2390  0.0744
  355MPD2    H7 5380   4.451   0.503  11.730  0.2713  1.2033 -1.7819
  356TMC3    C1 5381   0.283   0.218  12.230  0.2816  0.4385  0.5724
  356TMC3    C2 5382   0.317   0.230  12.101 -0.9247  0.6678 -0.7520
  356TMC3    C3 5383   0.374   0.344  12.066  0.3647  0.2218 -0.2773
  356TMC3    C4 5384   0.335   0.299  12.321 -0.0607  0.1449 -0.0904
  356TMC3    C5 5385   0.409   0.406  12.290  0.7830 -0.0297 -0.6862
  356TMC3    C6 5386   0.417   0.442  12.153  0.3931 -0.1574 -0.5739
  356TMC3     C 5387   0.136   0.252  12.228 -0.1727  0.6107 -0.5130
  356TMC3     O 5388   0.074   0.264  12.332 -0.1478 -0.4712 -0.5091
  356TMC3     H 5389   0.293   0.150  12.031 -1.6912 -0.0611  0.3431
  356TMC3    H1 5390   0.319   0.269  12.424 -0.2025  0.0693 -0.1343
  356TMC3    H2 5391   0.454   0.538  12.121  0.8472 -1.0778 -2.7925
  356TMC3    C7 5392   0.405   0.514  12.389  1.1919 -0.7165  0.1239
  356TMC3    C8 5393   0.350   0.388  11.930  0.4882  0.0649  0.7374
  356TMC3    O1 5394   0.341   0.499  12.494 -0.2543  0.6657  0.9448
  356TMC3    O2 5395   0.251   0.344  11.877 -0.4497  0.4570 -0.0281
  357MPD2     C 5396   3.821   0.791   1.215  0.4850  0.1518 -0.5141
  357MPD2    C1 5397   3.899   0.674   1.211 -0.9240 -0.0721 -0.1045
  357MPD2    C2 5398   3.837   0.554   1.252  0.8778  0.9455  0.0806
  357MPD2    C3 5399   3.706   0.548   1.296  0.8961  0.3050 -0.5231
  357MPD2    C4 5400   3.638   0.665   1.317 -0.1065  0.0598 -0.0530
  357MPD2    C5 5401   3.695   0.785   1.272 -0.1176 -0.2195 -0.1721
  357MPD2     H 5402   3.890   0.460   1.244 -2.0093 -0.7883  1.2854
  357MPD2    H1 5403   3.538   0.672   1.357  1.3726  0.7306  3.5296
  357MPD2    H2 5404   3.862   0.882   1.173  0.1670  0.7995  0.5888
  357MPD2    H3 5405   3.642   0.879   1.277  0.0018 -0.0661 -1.7520
  357MPD2     N 5406   3.651   0.425   1.340 -1.0264 -0.5998 -0.2404
  357MPD2    H5 5407   3.550   0.425   1.358 -1.2241 -1.1318 -1.3703
  357MPD2    N1 5408   4.028   0.666   1.149 -0.2614 -0.0273 -0.0408
  357MPD2    H7 5409   4.064   0.747   1.100 -0.6011  0.5810  0.7123
  358TMC3    C1 5410   4.230   0.556   1.070  0.3690 -0.1418 -0.0794
  358TMC3    C2 5411   4.191   0.506   0.954 -0.2995  0.0397  0.5760
  358TMC3    C3 5412   4.252   0.390   0.913 -0.2095 -1.2319 -0.0428
  358TMC3    C4 5413   4.330   0.494   1.142 -0.4380  0.0495 -0.1881
  358TMC3    C5 5414   4.391   0.382   1.098 -0.8572 -0.4742 -0.1189
  358TMC3    C6 5415   4.348   0.323   0.986  0.4264  0.1821 -0.3868
  358TMC3     C 5416   4.115   0.560   1.158  0.0850 -0.3031  0.0946
  358TMC3     O 5417   4.121   0.473   1.247  0.5005 -0.0604  0.4243
  358TMC3     H 5418   4.119   0.553   0.889  0.0690  0.0487  0.1674
  358TMC3    H1 5419   4.344   0.529   1.243  0.3785 -0.9941  0.0597
  358TMC3    H2 5420   4.403   0.245   0.934  0.5875  1.2696 -1.8615
  358TMC3    C7 5421   4.499   0.320   1.167 -0.6138 -0.1129  1.3523
  358TMC3    C8 5422   4.214   0.339   0.780  0.6640  0.0596  0.2983
  358TMC3    O1 5423   4.526   0.207   1.118 -0.0689  0.2779 -0.1720
  358TMC3    O2 5424   4.180   0.410   0.687  0.9152 -0.5637  0.1166
  359MPD2     C 5425   0.464   3.299  12.206 -0.1141 -0.9514  0.2163
  359MPD2    C1 5426   0.376   3.405  12.224  0.0218 -0.0176  0.0306
  359MPD2    C2 5427   0.306   3.410  12.343 -0.4525 -0.0137 -0.1637
  359MPD2    C3 5428   0.314   3.308  12.436  0.2785  0.7991  0.3107
  359MPD2    C4 5429   0.398   3.202  12.414 -0.0990  0.2994 -0.3185
  359MPD2    C5 5430   0.476   3.203  12.307 -1.5973 -1.1001  0.5098
  359MPD2     H 5431   0.229   3.484  12.366 -0.0362 -0.1909  1.7634
  359MPD2    H1 5432   0.396   3.117  12.481 -1.9807  0.6855  0.1283
  359MPD2    H2 5433   0.516   3.299  12.111 -1.4655  3.7164 -0.5280
  359MPD2    H3 5434   0.544   3.120  12.291  0.7285  1.4374 -2.9096
  359MPD2     N 5435   0.232   3.295  12.545  0.0686 -0.1961  0.1248
  359MPD2    H5 5436   0.221   3.199  12.577 -1.5208 -0.1429 -0.2482
  359MPD2    N1 5437   0.348   3.503  12.125  0.2273  0.1524  0.6665
  359MPD2    H7 5438   0.294   3.584  12.155 -0.8889 -0.5414  0.5007
  360TMC3    C1 5439   0.336   3.606  11.916 -0.0561 -0.4211 -0.6936
  360TMC3    C2 5440   0.364   3.730  11.957  0.4654  0.3347  0.3092
  360TMC3    C3 5441   0.353   3.824  11.859 -0.4073 -0.0495 -0.3381
  360TMC3    C4 5442   0.261   3.578  11.805 -0.0325  0.6812  0.0688
  360TMC3    C5 5443   0.225   3.686  11.725  0.8346  0.3987 -0.0570
  360TMC3    C6 5444   0.273   3.807  11.756 -0.3369 -0.4708 -0.3899
  360TMC3     C 5445   0.371   3.484  11.987 -1.0618  0.7589 -1.0752
  360TMC3     O 5446   0.402   3.384  11.925  0.1751 -0.3550  0.1221
  360TMC3     H 5447   0.433   3.749  12.038  0.8318 -1.8820  0.5196
  360TMC3    H1 5448   0.222   3.478  11.795 -3.1562  1.8459  0.6654
  360TMC3    H2 5449   0.258   3.890  11.688  0.3885  0.4785  0.5986
  360TMC3    C7 5450   0.159   3.675  11.596 -0.1912 -0.3491  0.1901
  360TMC3    C8 5451   0.399   3.960  11.887 -0.2296  0.2273  0.2637
  360TMC3    O1 5452   0.154   3.775  11.524 -0.6527 -0.0493  0.5342
  360TMC3    O2 5453   0.312   4.046  11.873  0.9052 -0.6139 -0.1386
  361MPD2     C 5454   1.629   3.062  16.329 -0.4734 -0.1882  0.8386
  361MPD2    C1 5455   1.619   3.117  16.459  0.3381 -0.0099  0.4061
  361MPD2    C2 5456   1.721   3.087  16.553 -0.4297  0.2176 -0.3850
  361MPD2    C3 5457   1.830   3.001  16.515  0.1114 -0.0226  0.1630
  361MPD2    C4 5458   1.840   2.967  16.382  0.3619  0.5542 -0.1964
  361MPD2    C5 5459   1.740   2.986  16.299 -0.1571 -0.7642  0.7729
  361MPD2     H 5460   1.713   3.129  16.653  0.7985 -0.2304 -0.1041
  361MPD2    H1 5461   1.930   2.917  16.346  0.3046 -0.0670  0.5282
  361MPD2    H2 5462   1.568   3.086  16.242  1.2310 -0.8121 -0.5111
  361MPD2    H3 5463   1.761   2.959  16.196 -1.4413 -0.4602  0.4306
  361MPD2     N 5464   1.934   2.969  16.608 -0.5749 -0.5531 -0.4678
  361MPD2    H5 5465   2.016   2.923  16.570 -0.7390 -1.3050  0.1094
  361MPD2    N1 5466   1.524   3.213  16.499  0.2594 -0.0286  0.0597
  361MPD2    H7 5467   1.517   3.230  16.599 -0.3659 -1.3984  0.2397
  362TMC3    C1 5468   1.350   3.374  16.482  0.1460 -0.3652  0.7290
  362TMC3    C2 5469   1.321   3.360  16.618 -0.3570 -0.1763  0.5194
  362TMC3    C3 5470   1.214   3.434  16.676 -0.5899  0.5644  0.5386
  362TMC3    C4 5471   1.268   3.450  16.405 -0.1191 -0.4220  0.2746
  362TMC3    C5 5472   1.154   3.516  16.455  0.5775  0.0156 -0.1744
  362TMC3    C6 5473   1.133   3.513  16.590  0.1449 -0.1595 -0.1392
  362TMC3     C 5474   1.435   3.280  16.413  0.0604  0.1661 -0.2325
  362TMC3     O 5475   1.430   3.282  16.287 -0.3052 -0.1307 -0.2042
  362TMC3     H 5476   1.390   3.310  16.684 -1.8223 -1.5789  0.9763
  362TMC3    H1 5477   1.274   3.450  16.297  0.1125  0.1236  0.2843
  362TMC3    H2 5478   1.058   3.576  16.636 -0.4846 -1.7801  1.0712
  362TMC3    C7 5479   1.116   3.637  16.388 -0.5413 -0.0072 -0.9087
  362TMC3    C8 5480   1.176   3.405  16.814 -0.0984 -0.4754 -0.2549
  362TMC3    O1 5481   1.121   3.741  16.449 -0.0521  0.5430 -0.4070
  362TMC3    O2 5482   1.221   3.299  16.858 -0.6083 -0.4813 -0.4478
  363TMC3    C1 5483   0.560   0.470   9.871  0.3175 -0.1509  0.0514
  363TMC3    C2 5484   0.532   0.339   9.895 -0.0732  0.0308  0.0915
  363TMC3    C3 5485   0.412   0.295   9.846  0.0919 -0.2054  0.8081
  363TMC3    C4 5486   0.475   0.559   9.815 -0.8266 -0.7608  0.3911
  363TMC3    C5 5487   0.359   0.505   9.766 -0.1149  0.5989  0.1190
  363TMC3    C6 5488   0.329   0.374   9.780 -0.3238  0.8277  0.2347
  363TMC3     C 5489   0.675   0.515   9.936 -0.3679 -0.2141 -0.0489
  363TMC3     O 5490   0.767   0.437   9.936 -0.1386 -0.5994  0.2571
  363TMC3     H 5491   0.608   0.278   9.941  0.0117 -0.2361 -0.4044
  363TMC3    H1 5492   0.512   0.660   9.794  0.8655 -1.4426  0.0522
  363TMC3    H2 5493   0.233   0.336   9.749 -0.3610  0.6145  0.6199
  363TMC3    C7 5494   0.257   0.602   9.725 -0.5347  0.4925  0.4764
  363TMC3    C8 5495   0.369   0.153   9.857 -0.4254 -0.4556 -0.0406
  363TMC3    O1 5496   0.298   0.716   9.713  0.7133 -0.2042  0.8169
  363TMC3    O2 5497   0.249   0.136   9.837 -0.0193 -0.1795 -0.0497
  364MPD2     C 5498   3.669   4.652  11.067  0.0320  0.9470  0.5824
  364MPD2    C1 5499   3.767   4.648  10.968 -0.1655 -0.9533 -0.0248
  364MPD2    C2 5500   3.769   4.534  10.885  0.0561 -0.3416 -0.2651
  364MPD2    C3 5501   3.704   4.415  10.921  0.4421 -0.0400 -0.9545
  364MPD2    C4 5502   3.629   4.417  11.030  0.3157  0.0303 -0.4541
  364MPD2    C5 5503   3.603   4.536  11.097 -0.0061 -0.6651 -0.0096
  364MPD2     H 5504   3.837   4.530  10.801  0.7184  0.5493  0.2301
  364MPD2    H1 5505   3.573   4.330  11.064 -0.5448  0.1364 -1.6058
  364MPD2    H2 5506   3.648   0.005  11.126  0.5182 -1.1738  3.9549
  364MPD2    H3 5507   3.537   4.542  11.183 -0.3070  0.7749 -0.3379
  364MPD2     N 5508   3.713   4.295  10.845 -0.4501  0.1504 -0.3410
  364MPD2    H5 5509   3.669   4.213  10.885  0.2593  0.2911  0.7514
  364MPD2    N1 5510   3.839   0.033  10.945  0.1266 -0.1633  0.7012
  364MPD2    H7 5511   3.807   0.119  10.988  0.2745 -0.5194  1.5181
  365TMC3    C1 5512   3.987   0.179  10.836 -0.4628  0.0277 -0.3317
  365TMC3    C2 5513   4.005   0.205  10.699  0.0805 -0.0364  0.8255
  365TMC3    C3 5514   4.007   0.334  10.659 -0.1282  0.0943 -0.0452
  365TMC3    C4 5515   3.976   0.279  10.925 -0.4671  0.5833 -0.5918
  365TMC3    C5 5516   3.983   0.413  10.883 -0.0868  0.2637 -0.1556
  365TMC3    C6 5517   3.992   0.440  10.752 -0.3411 -0.7155 -0.0628
  365TMC3     C 5518   3.955   0.041  10.870  0.2273  0.2377 -0.2367
  365TMC3     O 5519   4.002   4.694  10.798 -0.3244 -0.3714 -0.0708
  365TMC3     H 5520   4.028   0.125  10.630  0.8173  0.4302  0.5314
  365TMC3    H1 5521   3.977   0.251  11.029 -4.2271  0.0984 -0.7166
  365TMC3    H2 5522   4.001   0.539  10.707 -0.0916  0.6145  2.9393
  365TMC3    C7 5523   3.941   0.524  10.976 -0.8477  0.2689  0.1687
  365TMC3    C8 5524   3.954   0.362  10.526  1.0705  0.1692 -0.8957
  365TMC3    O1 5525   3.897   0.624  10.918 -0.5526  0.1591 -0.3918
  365TMC3    O2 5526   3.979   0.472  10.472 -0.2851 -0.3852 -0.0826
  366MPD2     C 5527   1.748   2.084  15.293 -0.1377  0.2518  0.3411
  366MPD2    C1 5528   1.881   2.046  15.290 -0.4454 -0.3722  0.0346
  366MPD2    C2 5529   1.914   1.911  15.308 -0.1905  0.4210 -0.6051
  366MPD2    C3 5530   1.814   1.816  15.318 -0.9968  0.2486  0.3094
  366MPD2    C4 5531   1.678   1.859  15.315 -0.2424  0.1638 -0.1264
  366MPD2    C5 5532   1.653   1.991  15.307  0.0359  0.2024  0.1369
  366MPD2     H 5533   2.015   1.872  15.317 -0.5033  0.2334  1.8839
  366MPD2    H1 5534   1.593   1.792  15.327 -0.1789  0.0427 -0.3584
  366MPD2    H2 5535   1.718   2.182  15.259  0.7956  0.5853  0.4773
  366MPD2    H3 5536   1.550   2.023  15.293  0.2394  0.3950 -0.8912
  366MPD2     N 5537   1.847   1.679  15.352 -0.4090  0.9374  0.1954
  366MPD2    H5 5538   1.945   1.665  15.375 -0.2851  0.9230 -0.3475
  366MPD2    N1 5539   1.984   2.135  15.276  0.4125  0.1111  0.0182
  366MPD2    H7 5540   2.074   2.104  15.313  1.0186 -0.2071 -1.6896
  367TMC3    C1 5541   2.101   2.315  15.175 -0.1844 -0.5605  0.2446
  367TMC3    C2 5542   2.192   2.333  15.277 -0.6125 -0.4968  0.6500
  367TMC3    C3 5543   2.287   2.427  15.260  0.4961  0.4520  0.6402
  367TMC3    C4 5544   2.108   2.390  15.060 -0.0870 -0.6840 -0.1659
  367TMC3    C5 5545   2.200   2.493  15.050  0.4848 -0.1157 -0.3621
  367TMC3    C6 5546   2.285   2.517  15.156 -0.0755  0.2250  0.3787
  367TMC3     C 5547   1.979   2.238  15.190 -0.1061  0.4884  0.6709
  367TMC3     O 5548   1.886   2.263  15.120 -0.2139  0.4567  0.1845
  367TMC3     H 5549   2.177   2.284  15.372 -2.6157 -2.1055 -0.4847
  367TMC3    H1 5550   2.038   2.369  14.981 -1.1650 -0.4964  0.7351
  367TMC3    H2 5551   2.354   2.601  15.151 -1.1632  1.1813  1.3968
  367TMC3    C7 5552   2.190   2.591  14.943  0.3721  0.0988 -0.2270
  367TMC3    C8 5553   2.378   2.446  15.375 -0.6043  0.8997 -0.8770
  367TMC3    O1 5554   2.253   2.697  14.948  0.3177 -0.2669  0.4450
  367TMC3    O2 5555   2.372   2.355  15.460 -0.2568 -0.2085 -0.0217
  368MPD2     C 5556   3.719   2.499  13.488  0.7589 -0.4102  0.6746
  368MPD2    C1 5557   3.771   2.623  13.478  0.5252 -0.0136 -0.8365
  368MPD2    C2 5558   3.903   2.640  13.502 -0.1049  0.5537  0.4064
  368MPD2    C3 5559   3.983   2.531  13.532 -0.5196 -0.2057  0.1424
  368MPD2    C4 5560   3.929   2.399  13.531 -0.1365 -0.1912 -0.1216
  368MPD2    C5 5561   3.790   2.385  13.517  0.3232  0.0344 -0.3423
  368MPD2     H 5562   3.957   2.733  13.487  0.8437 -0.5562 -3.1362
  368MPD2    H1 5563   3.990   2.311  13.547 -1.1645 -0.8528  0.1428
  368MPD2    H2 5564   3.612   2.489  13.473  0.5896  0.7599  1.1200
  368MPD2    H3 5565   3.753   2.284  13.512 -1.4332  0.5796  1.5882
  368MPD2     N 5566   4.124   2.538  13.539  0.0298  0.4940  0.2077
  368MPD2    H5 5567   4.174   2.450  13.528 -2.6429 -0.9504 -0.4794
  368MPD2    N1 5568   3.683   2.731  13.433  0.0596  0.6343 -0.2493
  368MPD2    H7 5569   3.585   2.710  13.419  0.3604  0.5229 -2.2067
  369TMC3    C1 5570   3.647   2.925  13.300 -0.4276 -0.1881  0.0427
  369TMC3    C2 5571   3.712   3.011  13.216 -0.5608 -0.1555  0.5027
  369TMC3    C3 5572   3.663   3.019  13.089  0.0316 -0.0396  1.2823
  369TMC3    C4 5573   3.528   2.865  13.262  0.5367 -0.5052  0.0615
  369TMC3    C5 5574   3.481   2.886  13.138  0.8786 -0.0360  0.0835
  369TMC3    C6 5575   3.546   2.962  13.047  0.2064 -0.1113 -0.0233
  369TMC3     C 5576   3.735   2.851  13.389  0.5482 -0.1129  0.3615
  369TMC3     O 5577   3.838   2.911  13.411  0.3933  0.2857  0.3961
  369TMC3     H 5578   3.802   3.062  13.248  0.0446 -0.7862 -0.1840
  369TMC3    H1 5579   3.467   2.811  13.333 -0.5407 -0.0743 -0.5327
  369TMC3    H2 5580   3.513   2.992  12.948 -0.6395 -0.5917  0.1082
  369TMC3    C7 5581   3.346   2.857  13.116 -0.0676 -0.1819 -0.2094
  369TMC3    C8 5582   3.733   3.097  12.990  0.1548  0.3157  0.5636
  369TMC3    O1 5583   3.297   2.787  13.204 -0.3652 -0.5398 -0.0321
  369TMC3    O2 5584   3.680   3.134  12.885  0.4355 -0.5638  0.0204
  370TMC3    C1 5585   3.061   4.153  16.339  0.3416 -0.0087 -0.2435
  370TMC3    C2 5586   2.978   4.091  16.427 -0.2740 -0.9151  0.1600
  370TMC3    C3 5587   2.931   3.963  16.411  0.7147 -0.1424  0.6280
  370TMC3    C4 5588   3.099   4.082  16.230 -0.1841 -0.3501 -0.4762
  370TMC3    C5 5589   3.063   3.949  16.213  0.2603  0.0100 -0.7891
  370TMC3    C6 5590   2.985   3.886  16.305 -0.1232 -0.1974 -1.1242
  370TMC3     C 5591   3.138   4.269  16.380 -0.8602 -0.7277  0.6169
  370TMC3     O 5592   3.135   4.300  16.496  0.2580  0.0649  0.4493
  370TMC3     H 5593   2.962   4.137  16.524 -2.0336  0.4831 -0.7856
  370TMC3    H1 5594   3.192   4.109  16.182 -0.3871  2.5025  0.6980
  370TMC3    H2 5595   2.942   3.787  16.291 -0.1630 -0.2830 -0.3965
  370TMC3    C7 5596   3.090   3.883  16.086 -0.2054  0.0566 -0.0974
  370TMC3    C8 5597   2.852   3.894  16.517 -0.3229 -0.1350  0.2312
  370TMC3    O1 5598   3.124   3.952  15.992 -0.1507  0.1497  0.5745
  370TMC3    O2 5599   2.849   3.775  16.501 -0.6485 -0.3784 -0.6711
  371TMC3    C1 5600   4.190   2.585  15.112 -0.6915 -0.1677 -0.0727
  371TMC3    C2 5601   4.078   2.538  15.188  0.5015  0.0051 -0.1974
  371TMC3    C3 5602   4.019   2.623  15.269 -0.0124  0.7392  0.3459
  371TMC3    C4 5603   4.231   2.716  15.110 -0.4175 -0.2806  0.1900
  371TMC3    C5 5604   4.172   2.795  15.198 -0.4810  0.6879 -0.1409
  371TMC3    C6 5605   4.079   2.748  15.286 -0.5331  0.7915 -0.2796
  371TMC3     C 5606   4.303   2.493  15.100  0.2346  0.1598  0.1292
  371TMC3     O 5607   4.415   2.546  15.095 -0.5372 -0.0772 -0.0963
  371TMC3     H 5608   4.034   2.440  15.173 -1.0148  0.5979  0.3425
  371TMC3    H1 5609   4.304   2.755  15.040  0.0824 -1.0844  0.2608
  371TMC3    H2 5610   4.029   2.818  15.352 -1.0822 -0.2022  0.3569
  371TMC3    C7 5611   4.201   2.943  15.173 -0.0183 -0.5831 -0.2871
  371TMC3    C8 5612   3.972   2.565  15.392 -0.0582  1.1490  0.8232
  371TMC3    O1 5613   4.109   3.021  15.196  0.1550 -0.4692  0.4480
  371TMC3    O2 5614   4.004   2.446  15.412 -0.2427  0.4077  0.1733
  372MPD2     C 5615   3.433   2.992  13.695 -0.5133  0.0668 -0.8500
  372MPD2    C1 5616   3.566   2.975  13.710  0.5134 -0.0011 -0.3899
  372MPD2    C2 5617   3.598   2.865  13.791 -0.3365  0.3769  0.3384
  372MPD2    C3 5618   3.508   2.776  13.842 -0.6078  0.3986 -0.4112
  372MPD2    C4 5619   3.372   2.796  13.814 -0.7192  0.1163  0.7264
  372MPD2    C5 5620   3.333   2.910  13.748 -0.0283 -1.0214 -0.0268
  372MPD2     H 5621   3.704   2.854  13.810 -0.3714  2.9328  2.1045
  372MPD2    H1 5622   3.298   2.723  13.845  0.3491 -1.4504 -0.4193
  372MPD2    H2 5623   3.390   3.073  13.637 -1.3688  0.2680  0.0613
  372MPD2    H3 5624   3.226   2.921  13.730  0.0549 -0.9447 -0.4881
  372MPD2     N 5625   3.560   2.652  13.884 -0.4048  0.6152  0.8205
  372MPD2    H5 5626   3.658   2.639  13.907 -0.3413 -0.2701  0.0444
  372MPD2    N1 5627   3.664   3.068  13.663  0.6888  0.0437 -0.4866
  372MPD2    H7 5628   3.759   3.063  13.701  0.8789  1.2123 -0.8158
  373TMC3    C1 5629   3.568   2.413  13.909 -0.3668 -0.7399 -0.2615
  373TMC3    C2 5630   3.653   2.434  14.023 -0.5101 -0.2772 -1.0030
  373TMC3    C3 5631   3.761   2.360  14.030 -0.0121 -0.3810 -0.4370
  373TMC3    C4 5632   3.598   2.331  13.807 -0.0382  0.6050  0.6569
  373TMC3    C5 5633   3.720   2.267  13.823  0.8509  0.2066 -0.8160
  373TMC3    C6 5634   3.796   2.270  13.935 -0.3926 -0.2044 -0.8070
  373TMC3     C 5635   3.492   2.530  13.870  0.5253  0.1714  0.5251
  373TMC3     O 5636   3.388   2.509  13.806 -0.0651 -0.2314  0.0974
  373TMC3     H 5637   3.622   2.499  14.104  2.4118  1.3298 -1.1637
  373TMC3    H1 5638   3.535   2.329  13.719  0.5962  1.9361  0.1761
  373TMC3    H2 5639   3.893   2.221  13.944 -0.2598  0.1895 -0.0684
  373TMC3    C7 5640   3.734   2.146  13.747 -0.4455 -0.0942 -0.0630
  373TMC3    C8 5641   3.844   2.381  14.148 -0.0523  0.3819 -0.3791
  373TMC3    O1 5642   3.640   2.100  13.682 -0.0264 -0.2239 -0.7834
  373TMC3    O2 5643   3.955   2.334  14.135  0.0826 -0.1788 -0.2111
  374TMC3    C1 5644   4.499   3.331   9.962  0.8975  0.3967  0.0204
  374TMC3    C2 5645   4.601   3.370   9.881 -0.3801  0.4399 -0.3145
  374TMC3    C3 5646   4.582   3.484   9.808 -0.2641  0.0442 -0.0552
  374TMC3    C4 5647   4.381   3.398   9.964  0.1919  0.6217  0.0996
  374TMC3    C5 5648   4.370   3.507   9.883 -0.0095 -0.2532 -0.2988
  374TMC3    C6 5649   4.472   3.552   9.806 -0.2707  0.1428  0.8792
  374TMC3     C 5650   4.511   3.209  10.034  0.4431 -0.4549  0.3081
  374TMC3     O 5651   4.623   3.177  10.059  0.5992  0.1217  0.1818
  374TMC3     H 5652   4.691   3.310   9.875  0.1348  1.1548  0.3781
  374TMC3    H1 5653   4.302   3.374  10.035  0.6362  0.5779  0.5751
  374TMC3    H2 5654   4.457   3.639   9.742  0.8248  0.8181  1.5586
  374TMC3    C7 5655   4.244   3.575   9.873 -0.7145 -0.2673 -0.3413
  374TMC3    C8 5656   4.698   3.566   9.775  0.1200  0.0855 -0.5617
  374TMC3    O1 5657   4.259   3.688   9.832  0.3430  0.6743  0.7999
  374TMC3    O2 5658   4.695   3.661   9.699 -0.7225 -0.0358  0.4669
  375MPD2     C 5659   4.383   4.326  17.211  1.2865  0.6476  0.5148
  375MPD2    C1 5660   4.301   4.329  17.094  0.4523 -0.2872 -0.3079
  375MPD2    C2 5661   4.340   4.253  16.988 -0.2758  0.0795 -0.2765
  375MPD2    C3 5662   4.438   4.159  16.997 -0.7491 -0.2054  0.5425
  375MPD2    C4 5663   4.506   4.150  17.112 -0.8224 -0.2776  0.6184
  375MPD2    C5 5664   4.471   4.225  17.223  0.2682 -0.2034  0.7985
  375MPD2     H 5665   4.280   4.264  16.899 -0.2270  0.0554 -0.3125
  375MPD2    H1 5666   4.581   4.072  17.119 -1.9293 -1.4576 -0.7613
  375MPD2    H2 5667   4.369   4.389  17.298  0.8999 -0.5625  1.3277
  375MPD2    H3 5668   4.530   4.203  17.312 -0.5365  0.5130  1.5140
  375MPD2     N 5669   4.456   4.055  16.906  0.3753  0.1674 -0.5362
  375MPD2    H5 5670   4.529   3.986  16.923  1.1372  0.9467 -0.6218
  375MPD2    N1 5671   4.187   4.406  17.077  0.5128  0.1435 -0.8574
  375MPD2    H7 5672   4.135   4.406  16.990 -0.1236 -0.3670 -0.4805
  376TMC3    C1 5673   4.466   3.976  16.680 -0.8080 -0.9214  0.1134
  376TMC3    C2 5674   4.601   3.939  16.679  0.5095  0.0541  0.4422
  376TMC3    C3 5675   4.674   3.919  16.563  0.2372  0.0701 -0.0423
  376TMC3    C4 5676   4.410   3.997  16.556  0.2383 -0.3153 -0.2998
  376TMC3    C5 5677   4.485   3.983  16.446 -0.2621  0.3989  0.8551
  376TMC3    C6 5678   4.614   3.949  16.443  0.6542 -0.0161 -0.4863
  376TMC3     C 5679   4.391   4.034  16.787 -0.1292  0.1264 -0.0437
  376TMC3     O 5680   4.282   4.083  16.754 -0.2442 -0.3797 -0.3180
  376TMC3     H 5681   4.651   3.956  16.774 -0.2931  1.1526  0.6720
  376TMC3    H1 5682   4.306   4.025  16.545  0.9471  1.8925 -1.4889
  376TMC3    H2 5683   4.678   3.922  16.360 -0.4207  1.6891 -1.8762
  376TMC3    C7 5684   4.447   4.077  16.344 -0.3154 -0.1454 -0.0246
  376TMC3    C8 5685   0.081   3.920  16.576  0.2025  0.2368  0.4091
  376TMC3    O1 5686   4.342   4.138  16.362  0.3877  0.1435  0.0624
  376TMC3    O2 5687   0.124   3.846  16.666 -0.1487 -0.0303  0.0929
  377MPD2     C 5688   3.148   3.398  12.801  0.0921  0.5203 -0.5464
  377MPD2    C1 5689   3.078   3.488  12.725  0.6930  0.2130 -0.5310
  377MPD2    C2 5690   2.939   3.506  12.749  0.0110  0.1937 -0.5184
  377MPD2    C3 5691   2.879   3.419  12.838  0.3150  0.0090  0.4028
  377MPD2    C4 5692   2.948   3.323  12.901  0.5729 -1.0864 -0.2293
  377MPD2    C5 5693   3.078   3.305  12.876  0.9103 -0.1866  0.1404
  377MPD2     H 5694   2.878   3.579  12.697 -0.7442 -1.5054 -2.0583
  377MPD2    H1 5695   2.893   3.258  12.969 -2.6271  1.0063 -0.8341
  377MPD2    H2 5696   3.254   3.391  12.785 -0.7968 -3.1010 -4.6025
  377MPD2    H3 5697   3.141   3.237  12.934 -0.9527 -3.3698 -1.6048
  377MPD2     N 5698   2.744   3.428  12.874 -0.2515  0.1843  0.5924
  377MPD2    H5 5699   2.712   3.339  12.910 -1.2237  0.0553 -0.5535
  377MPD2    N1 5700   3.150   3.565  12.629  0.1840 -0.2047 -0.1669
  377MPD2    H7 5701   3.250   3.548  12.618  0.5137  0.6938  1.4965
  378TMC3    C1 5702   3.197   3.909  12.307 -0.4190 -0.1126 -0.1678
  378TMC3    C2 5703   3.136   3.861  12.420 -0.6899  0.2863  0.1826
  378TMC3    C3 5704   3.177   3.736  12.464 -0.1359 -0.5452  0.4207
  378TMC3    C4 5705   3.285   3.834  12.236  0.3550  0.0794 -0.2391
  378TMC3    C5 5706   3.337   3.720  12.296  0.0893  0.7492  0.0474
  378TMC3    C6 5707   3.272   3.664  12.401  0.2457  0.4182  0.1199
  378TMC3     C 5708   3.142   4.034  12.255 -0.1428  0.0931  0.2959
  378TMC3     O 5709   3.019   4.050  12.262 -0.1493 -0.0988 -0.1221
  378TMC3     H 5710   3.049   3.913  12.459  0.2541  0.5479  1.9374
  378TMC3    H1 5711   3.296   3.860  12.131  0.6489 -0.1740 -0.2702
  378TMC3    H2 5712   3.322   3.580  12.448 -1.5079 -0.0416  1.1516
  378TMC3    C7 5713   3.424   3.638  12.211  0.5154  0.5072  0.5655
  378TMC3    C8 5714   3.098   3.680  12.567  0.0129 -0.1293 -0.3657
  378TMC3    O1 5715   3.527   3.594  12.260  0.5451  0.6283 -0.6316
  378TMC3    O2 5716   2.996   3.741  12.595 -0.0142 -0.1414  0.2567
  379MPD2     C 5717   3.435   2.404  16.128  0.3833 -0.1198 -0.2678
  379MPD2    C1 5718   3.343   2.354  16.214 -0.2800  0.4640  0.7156
  379MPD2    C2 5719   3.377   2.300  16.341  0.6778 -0.8956  0.5934
  379MPD2    C3 5720   3.511   2.278  16.371  0.5944  0.7636 -0.2762
  379MPD2    C4 5721   3.609   2.320  16.282  0.3462  0.3180 -0.7648
  379MPD2    C5 5722   3.567   2.379  16.158 -0.1462 -0.3087 -0.1114
  379MPD2     H 5723   3.303   2.268  16.414 -1.8226  1.3296 -1.0159
  379MPD2    H1 5724   3.717   2.315  16.292  0.3490  1.8017 -0.0920
  379MPD2    H2 5725   3.411   2.454  16.035  0.5888  0.2590 -0.1217
  379MPD2    H3 5726   3.640   2.430  16.097 -0.6527 -0.6711 -1.0201
  379MPD2     N 5727   3.561   2.226  16.491  0.0741 -0.1690  0.6354
  379MPD2    H5 5728   3.661   2.219  16.502  0.1391 -1.2032 -0.6949
  379MPD2    N1 5729   3.208   2.375  16.175 -0.1464  0.1787  0.5054
  379MPD2    H7 5730   3.193   2.406  16.079 -0.2323 -1.5455 -0.0465
  380TMC3    C1 5731   2.984   2.314  16.144 -0.6071  0.6817 -0.6380
  380TMC3    C2 5732   2.941   2.191  16.112  0.9765 -0.4458  0.3183
  380TMC3    C3 5733   2.861   2.168  16.007  0.3100 -0.6527 -0.7954
  380TMC3    C4 5734   2.956   2.417  16.056 -0.4253  0.5169  0.5091
  380TMC3    C5 5735   2.865   2.396  15.949  0.3916  0.8548  0.3152
  380TMC3    C6 5736   2.828   2.266  15.919  0.1493  0.4114  0.2859
  380TMC3     C 5737   3.098   2.316  16.231  0.3713  0.0329 -0.4012
  380TMC3     O 5738   3.086   2.238  16.329 -0.1450  0.0294 -0.0749
  380TMC3     H 5739   2.985   2.106  16.163 -0.7811 -2.2144 -1.1280
  380TMC3    H1 5740   2.996   2.515  16.081 -1.7449  1.6564 -1.8950
  380TMC3    H2 5741   2.757   2.249  15.839  0.3192 -0.2003  0.2697
  380TMC3    C7 5742   2.822   2.506  15.870 -0.1351 -0.5227 -0.1969
  380TMC3    C8 5743   2.867   2.039  15.954  0.5107  0.4555 -0.3709
  380TMC3    O1 5744   2.855   2.614  15.913 -0.0981  0.5086  0.4279
  380TMC3    O2 5745   2.843   1.949  16.032  0.4583 -0.2617 -0.5276
  381TMC3    C1 5746   2.928   3.170  16.438  0.7548  0.4574 -0.2995
  381TMC3    C2 5747   3.024   3.267  16.444  0.3539 -0.3955 -0.1693
  381TMC3    C3 5748   2.991   3.387  16.500 -0.0169  0.0506  0.3634
  381TMC3    C4 5749   2.801   3.193  16.482 -0.0079 -0.3881 -0.7100
  381TMC3    C5 5750   2.766   3.323  16.520 -0.1155  0.9837  0.2210
  381TMC3    C6 5751   2.860   3.423  16.522  0.4558  0.0885  0.2428
  381TMC3     C 5752   2.928   3.101  16.310 -0.2719  0.2943  0.2734
  381TMC3     O 5753   2.838   3.022  16.282  0.2151  0.1381  0.5295
  381TMC3     H 5754   3.129   3.249  16.423  0.4808  0.3886 -0.1967
  381TMC3    H1 5755   2.720   3.125  16.457 -0.3007 -0.4890  0.5057
  381TMC3    H2 5756   2.836   3.525  16.549  3.7165  1.1072 -0.7852
  381TMC3    C7 5757   2.624   3.356  16.505  0.2363 -0.1854 -0.2168
  381TMC3    C8 5758   3.087   3.489  16.457 -0.0681 -0.2354 -0.4322
  381TMC3    O1 5759   2.572   3.285  16.420 -0.5853  0.0737  0.0495
  381TMC3    O2 5760   3.139   3.458  16.350  0.1469 -0.2054 -0.0927
  382MPD2     C 5761   2.452   0.823  17.351  0.6848 -0.2990 -1.0765
  382MPD2    C1 5762   2.350   0.812  17.255 -0.0698  0.1147  1.5605
  382MPD2    C2 5763   2.260   0.708  17.269  0.8220  0.1089 -0.6144
  382MPD2    C3 5764   2.256   0.626  17.381  0.7698  0.3826  0.1795
  382MPD2    C4 5765   2.354   0.643  17.471  0.0909 -0.3792  0.1747
  382MPD2    C5 5766   2.457   0.734  17.453  0.1440 -0.0045  0.1024
  382MPD2     H 5767   2.193   0.696  17.185 -0.4770 -0.1688  0.4509
  382MPD2    H1 5768   2.348   0.596  17.569 -1.8181  0.2733  0.3599
  382MPD2    H2 5769   2.534   0.893  17.355 -0.2843  0.6867  1.3227
  382MPD2    H3 5770   2.528   0.757  17.533 -1.4648 -0.0903  1.5584
  382MPD2     N 5771   2.156   0.531  17.402  0.4329  0.3914  0.1724
  382MPD2    H5 5772   2.148   0.499  17.499  0.0344  1.9564  0.6502
  382MPD2    N1 5773   2.335   0.898  17.140  0.6617 -0.3751 -1.1141
  382MPD2    H7 5774   2.259   0.867  17.081  0.8500  1.0107 -2.1001
  383TMC3    C1 5775   1.959   0.408  17.375 -0.1129 -1.3703 -1.4022
  383TMC3    C2 5776   1.842   0.383  17.303 -0.6781  0.0083 -0.1823
  383TMC3    C3 5777   1.770   0.269  17.337  0.7219 -0.1057 -0.1004
  383TMC3    C4 5778   1.989   0.330  17.485 -0.6505 -0.1007 -0.0431
  383TMC3    C5 5779   1.903   0.235  17.525 -0.2544  0.5799 -0.3631
  383TMC3    C6 5780   1.795   0.200  17.449 -0.4429  0.3936 -0.6310
  383TMC3     C 5781   2.059   0.503  17.319  0.3249  0.5867  0.7080
  383TMC3     O 5782   2.034   0.522  17.201 -1.0337  0.9791 -0.1858
  383TMC3     H 5783   1.813   0.448  17.221  2.2126 -1.7053 -2.5347
  383TMC3    H1 5784   2.079   0.343  17.544  0.5929  1.3007 -2.2292
  383TMC3    H2 5785   1.729   0.123  17.488 -1.1695  0.9384 -0.7899
  383TMC3    C7 5786   1.907   0.174  17.658 -0.0116  0.5069 -0.2111
  383TMC3    C8 5787   1.654   0.228  17.258 -0.0132  0.5353  0.3800
  383TMC3    O1 5788   1.853   0.068  17.677 -0.3165 -0.0231  0.1630
  383TMC3    O2 5789   1.586   0.314  17.199 -0.2910  0.0170  0.2342
  384MPD2     C 5790   3.224   1.119  12.557  0.2755  0.5085 -0.3332
  384MPD2    C1 5791   3.316   1.204  12.611 -1.1376  0.0656  0.2571
  384MPD2    C2 5792   3.448   1.163  12.613 -0.4767  0.1607  0.1856
  384MPD2    C3 5793   3.478   1.030  12.588 -0.2246  0.6087 -0.3188
  384MPD2    C4 5794   3.376   0.939  12.551  0.1473  0.2144 -0.2570
  384MPD2    C5 5795   3.253   0.991  12.522  0.1889 -0.3292  0.1090
  384MPD2     H 5796   3.526   1.231  12.647 -0.0045  0.5279 -1.6280
  384MPD2    H1 5797   3.403   0.835  12.535  4.3330  1.2283  0.1804
  384MPD2    H2 5798   3.123   1.155  12.540 -0.2318 -1.9365 -2.5919
  384MPD2    H3 5799   3.176   0.926  12.482  0.7627 -1.5341  0.9742
  384MPD2     N 5800   3.610   0.984  12.606 -0.2203 -0.3781  0.6686
  384MPD2    H5 5801   3.636   0.886  12.602 -1.6971 -0.7180 -0.5204
  384MPD2    N1 5802   3.266   1.323  12.667  0.1812 -0.0211 -0.3831
  384MPD2    H7 5803   3.170   1.346  12.642 -0.0992  1.4253  2.0272
  385TMC3    C1 5804   3.832   0.997  12.679 -0.6267 -0.0719 -0.7036
  385TMC3    C2 5805   3.824   0.857  12.693 -0.2729  0.4208 -0.2481
  385TMC3    C3 5806   3.905   0.800  12.786  1.0511 -0.5628 -0.3264
  385TMC3    C4 5807   3.909   1.075  12.757  0.7653  0.0201 -0.3510
  385TMC3    C5 5808   3.968   1.014  12.866  0.5617 -0.5089 -0.5680
  385TMC3    C6 5809   3.975   0.879  12.876  0.5724 -0.3893 -0.3830
  385TMC3     C 5810   3.721   1.065  12.617  0.3809 -0.9597 -0.2275
  385TMC3     O 5811   3.735   1.186  12.611  0.7841  0.5601  0.2634
  385TMC3     H 5812   3.775   0.791  12.623  0.4149  0.8300 -1.1138
  385TMC3    H1 5813   3.906   1.182  12.742 -3.0485 -0.0162  0.2253
  385TMC3    H2 5814   4.027   0.841  12.963  1.7656 -0.1781 -1.0054
  385TMC3    C7 5815   3.949   1.085  12.994 -0.2108  0.3298 -0.3871
  385TMC3    C8 5816   3.948   0.662  12.765  0.4670 -0.7473  0.3368
  385TMC3    O1 5817   4.014   1.059  13.092 -0.2870 -0.3042 -0.3448
  385TMC3    O2 5818   3.991   0.603  12.863  0.1362 -0.5073  0.0949
  386TMC3    C1 5819   4.498   3.566  11.803  0.6028 -0.3828  0.2668
  386TMC3    C2 5820   4.473   3.566  11.669 -0.5626  0.5103  0.2318
  386TMC3    C3 5821   4.403   3.678  11.618  0.3328 -0.1638  0.8365
  386TMC3    C4 5822   4.473   3.666  11.889 -0.3431 -1.2712  0.7001
  386TMC3    C5 5823   4.391   3.764  11.838 -0.4546  0.7716 -0.2723
  386TMC3    C6 5824   4.361   3.776  11.705  0.5340  0.3768 -0.2762
  386TMC3     C 5825   4.596   3.472  11.849 -0.9272 -0.5491  0.1789
  386TMC3     O 5826   4.706   3.468  11.801  0.6594 -0.1785  0.5467
  386TMC3     H 5827   4.488   3.474  11.612 -1.0250 -1.6824  3.6951
  386TMC3    H1 5828   4.502   3.670  11.993  2.0786 -0.3751 -0.0032
  386TMC3    H2 5829   4.290   3.850  11.671 -1.2024 -1.0110  0.3260
  386TMC3    C7 5830   4.270   3.761  11.924 -0.0289  0.5573  0.5549
  386TMC3    C8 5831   4.305   3.647  11.518 -0.6954 -0.0692  0.0140
  386TMC3    O1 5832   4.291   3.735  12.043  0.3458 -0.0459 -0.0017
  386TMC3    O2 5833   4.188   3.673  11.539  0.1398  0.4187 -0.2936
  387MPD2     C 5834   1.506   2.962  10.007 -0.2443 -1.2749  0.1565
  387MPD2    C1 5835   1.618   2.956  10.086 -0.2448 -0.0028 -0.2446
  387MPD2    C2 5836   1.693   2.843  10.088  0.0964 -0.0627  0.0490
  387MPD2    C3 5837   1.647   2.725  10.029 -0.0693  0.7048 -0.6614
  387MPD2    C4 5838   1.538   2.724   9.953 -0.3650 -0.4290  0.2403
  387MPD2    C5 5839   1.467   2.842   9.946  0.4937  0.7236  0.4884
  387MPD2     H 5840   1.788   2.851  10.140 -0.5756  0.4296  1.2090
  387MPD2    H1 5841   1.517   2.632   9.899  0.3869 -0.8947  0.7497
  387MPD2    H2 5842   1.441   3.048   9.996 -0.7600 -1.7960 -0.9505
  387MPD2    H3 5843   1.373   2.845   9.891  0.9642  1.8894 -0.2551
  387MPD2     N 5844   1.736   2.615  10.055 -0.3078 -0.0861  0.0630
  387MPD2    H5 5845   1.803   2.627  10.129  0.7652  0.8214 -1.0621
  387MPD2    N1 5846   1.664   3.051  10.176  0.1757 -0.0079  0.8096
  387MPD2    H7 5847   1.751   3.030  10.225  0.1704 -0.1317  0.7669
  388TMC3    C1 5848   1.658   3.219  10.335  0.0865  0.0504  0.3097
  388TMC3    C2 5849   1.637   3.351  10.369 -0.6414 -0.4963 -0.4523
  388TMC3    C3 5850   1.686   3.397  10.491 -0.6117  0.5134 -0.1930
  388TMC3    C4 5851   1.723   3.135  10.419  0.3515  0.2528  0.2800
  388TMC3    C5 5852   1.778   3.189  10.533  0.1780 -0.1781 -0.1018
  388TMC3    C6 5853   1.759   3.319  10.570 -0.8388 -0.3167  0.4894
  388TMC3     C 5854   1.593   3.159  10.220  0.1107  0.6038  0.4211
  388TMC3     O 5855   1.512   3.230  10.161  0.2226 -0.0579 -0.5463
  388TMC3     H 5856   1.576   3.411  10.302 -1.3381 -1.5505 -0.7685
  388TMC3    H1 5857   1.698   3.030  10.423 -1.5171  0.6419 -1.0617
  388TMC3    H2 5858   1.821   3.351  10.654  0.8437 -0.5169 -0.6767
  388TMC3    C7 5859   1.838   3.102  10.633  0.4032 -0.3773 -0.2399
  388TMC3    C8 5860   1.645   3.522  10.551 -0.6437 -0.1057  0.4360
  388TMC3    O1 5861   1.837   3.128  10.753 -1.1269 -0.3299  0.4485
  388TMC3    O2 5862   1.557   3.586  10.500 -0.2541 -0.2527  0.0493
  389MPD2     C 5863   0.658   1.769  10.511 -0.7810 -0.0879 -0.1376
  389MPD2    C1 5864   0.569   1.668  10.498 -0.1981  0.2292 -0.0756
  389MPD2    C2 5865   0.520   1.614  10.613 -0.0925 -0.6485 -0.2442
  389MPD2    C3 5866   0.576   1.654  10.740  0.5872  0.5973 -0.8313
  389MPD2    C4 5867   0.672   1.752  10.742 -0.3860 -0.2417 -0.5745
  389MPD2    C5 5868   0.714   1.816  10.627  0.5773 -1.2449 -0.4530
  389MPD2     H 5869   0.438   1.543  10.615 -0.1950 -0.5232  0.0629
  389MPD2    H1 5870   0.724   1.785  10.831 -0.9604  1.1156 -0.7490
  389MPD2    H2 5871   0.686   1.824  10.421 -0.6990 -2.4380 -1.5552
  389MPD2    H3 5872   0.788   1.895  10.625 -0.9457  0.2156  1.0434
  389MPD2     N 5873   0.539   1.604  10.863 -0.1958  0.4969 -0.3347
  389MPD2    H5 5874   0.584   1.638  10.948  2.2901  0.1928 -1.5394
  389MPD2    N1 5875   0.521   1.648  10.372  0.0182 -0.2531 -0.8580
  389MPD2    H7 5876   0.562   1.704  10.298 -2.1307 -0.6956 -2.3865
  390TMC3    C1 5877   0.399   1.482  11.022 -0.5278 -0.2703 -0.1038
  390TMC3    C2 5878   0.270   1.454  11.051 -0.4319  0.4122 -0.3598
  390TMC3    C3 5879   0.231   1.448  11.178 -0.4715 -0.3886  1.0164
  390TMC3    C4 5880   0.493   1.507  11.124 -1.3197  0.1063  0.1610
  390TMC3    C5 5881   0.450   1.492  11.255  0.3687 -0.8199  0.9137
  390TMC3    C6 5882   0.317   1.463  11.286  0.8735 -0.3247  0.4858
  390TMC3     C 5883   0.425   1.522  10.887 -0.3451  0.6808 -0.8876
  390TMC3     O 5884   0.332   1.505  10.807 -0.3116  0.1936 -0.3635
  390TMC3     H 5885   0.192   1.433  10.980 -0.6491 -1.8203  0.5337
  390TMC3    H1 5886   0.599   1.527  11.111 -1.7870  2.4489 -0.0277
  390TMC3    H2 5887   0.283   1.441  11.387 -1.9154 -1.2257 -0.6611
  390TMC3    C7 5888   0.533   1.568  11.354 -0.6315 -0.2377 -0.1979
  390TMC3    C8 5889   0.104   1.374  11.201  0.4360 -0.5258 -0.4582
  390TMC3    O1 5890   0.598   1.659  11.305  0.3054 -0.3649 -0.3804
  390TMC3    O2 5891   0.082   1.281  11.126 -0.3810  0.4164  0.2043
  391MPD2     C 5892   0.331   3.364  11.240 -0.9831 -0.5838  0.1983
  391MPD2    C1 5893   0.398   3.482  11.232  1.3538  0.4388  0.2949
  391MPD2    C2 5894   0.407   3.547  11.107 -0.3665  0.1650  0.0073
  391MPD2    C3 5895   0.347   3.494  10.990  0.3037  0.2148 -0.1748
  391MPD2    C4 5896   0.286   3.372  11.006  0.1290 -0.6209 -0.7749
  391MPD2    C5 5897   0.276   3.312  11.128  0.4424 -0.0986 -0.0557
  391MPD2     H 5898   0.452   3.643  11.085 -0.8531 -0.2545 -2.8387
  391MPD2    H1 5899   0.252   3.322  10.916  0.1884  0.7381 -1.5480
  391MPD2    H2 5900   0.324   3.317  11.338  0.3305  1.6219  1.3577
  391MPD2    H3 5901   0.233   3.213  11.117  0.4470 -0.2754  1.4584
  391MPD2     N 5902   0.370   3.563  10.867 -0.3025  0.2431 -0.6933
  391MPD2    H5 5903   0.424   3.648  10.864 -1.2879  0.8467 -1.2217
  391MPD2    N1 5904   0.444   3.541  11.346  0.2040  0.3115 -0.1045
  391MPD2    H7 5905   0.440   3.486  11.431  0.6804  1.6650  0.8008
  392TMC3    C1 5906   0.386   3.617  10.637 -0.0371  0.1938 -0.0563
  392TMC3    C2 5907   0.347   3.578  10.511 -0.4476  0.0073  0.8704
  392TMC3    C3 5908   0.429   3.601  10.405 -0.5385  0.5326 -0.1878
  392TMC3    C4 5909   0.489   3.706  10.658 -0.0048 -0.5304 -0.1941
  392TMC3    C5 5910   0.559   3.745  10.543 -0.3263  0.1125  0.1535
  392TMC3    C6 5911   0.532   3.692  10.418 -0.2689  0.4120 -0.1200
  392TMC3     C 5912   0.331   3.527  10.739  0.2625  0.2440 -0.0474
  392TMC3     O 5913   0.243   3.446  10.717  0.3397 -0.1789 -0.4547
  392TMC3     H 5914   0.263   3.509  10.509  0.1253 -0.6563 -0.0780
  392TMC3    H1 5915   0.507   3.763  10.748  3.1930  0.2927 -1.3613
  392TMC3    H2 5916   0.604   3.713  10.339  0.4645 -0.3107  0.3607
  392TMC3    C7 5917   0.676   3.834  10.563 -0.3697 -0.1395 -0.4465
  392TMC3    C8 5918   0.384   3.555  10.275 -0.3508  0.1226 -0.3807
  392TMC3    O1 5919   0.664   3.905  10.665 -0.1824  0.5243  0.0051
  392TMC3    O2 5920   0.307   3.460  10.279  0.0166  0.3399 -0.1472
  393TMC3    C1 5921   3.254   1.419  10.433  0.2928  0.1057 -0.1348
  393TMC3    C2 5922   3.308   1.427  10.556 -0.0670 -0.3523 -0.6785
  393TMC3    C3 5923   3.338   1.303  10.612 -0.0547 -0.4304  1.1544
  393TMC3    C4 5924   3.240   1.299  10.362  0.8975 -0.0235 -0.3895
  393TMC3    C5 5925   3.296   1.192  10.415 -0.1942  0.3591  0.1023
  393TMC3    C6 5926   3.343   1.185  10.541 -0.3057  0.5254 -0.2236
  393TMC3     C 5927   3.302   1.520  10.336 -0.8633  0.8557 -0.0299
  393TMC3     O 5928   3.252   1.525  10.228 -0.5983 -0.0214 -0.8830
  393TMC3     H 5929   3.296   1.518  10.614  4.4519 -0.1344 -0.1057
  393TMC3    H1 5930   3.183   1.293  10.270  0.0946 -2.9703  0.2822
  393TMC3    H2 5931   3.368   1.087  10.579  2.7645  1.4820  0.1907
  393TMC3    C7 5932   3.361   1.103  10.319 -0.5510 -0.0585  0.9037
  393TMC3    C8 5933   3.348   1.306  10.755  0.1270 -1.0798 -0.5531
  393TMC3    O1 5934   3.323   1.094  10.201  0.1643 -0.0734  0.4587
  393TMC3    O2 5935   3.262   1.368  10.808 -0.6798  0.3251  0.6613
  394TMC3    C1 5936   0.373   1.557  10.203  0.2974  0.4475  0.1181
  394TMC3    C2 5937   0.246   1.523  10.180 -0.1555 -0.8187  0.0182
  394TMC3    C3 5938   0.199   1.531  10.050  0.5017  0.2492 -0.0253
  394TMC3    C4 5939   0.455   1.604  10.105 -0.9864  0.3971 -0.4935
  394TMC3    C5 5940   0.403   1.599   9.981  0.1612 -0.0129 -0.4112
  394TMC3    C6 5941   0.277   1.564   9.948  0.2937 -0.7823 -0.0888
  394TMC3     C 5942   0.421   1.555  10.340  0.3014  0.3508  0.3471
  394TMC3     O 5943   0.360   1.490  10.422 -0.0706  0.2502  0.5849
  394TMC3     H 5944   0.183   1.504  10.266  0.7760 -1.3300  0.5859
  394TMC3    H1 5945   0.560   1.615  10.130 -1.2062  2.2123 -0.3534
  394TMC3    H2 5946   0.243   1.564   9.845  0.1379 -0.0339 -0.0418
  394TMC3    C7 5947   0.479   1.663   9.881  0.2377 -0.9260  0.6563
  394TMC3    C8 5948   0.063   1.477  10.024  0.0079 -0.0575  0.0895
  394TMC3    O1 5949   0.416   1.746   9.819 -0.1704  0.3365  0.2142
  394TMC3    O2 5950   0.008   1.504   9.915 -0.2810 -0.0329 -0.2160
  395TMC3    C1 5951   0.795   3.992  15.022  1.2882  0.5991  0.5128
  395TMC3    C2 5952   0.661   4.000  15.001  0.3965 -0.8217  0.4964
  395TMC3    C3 5953   0.622   4.077  14.898 -0.2841 -0.5336 -0.5252
  395TMC3    C4 5954   0.878   4.088  14.961  0.2935 -0.0482  0.0144
  395TMC3    C5 5955   0.832   4.163  14.859 -0.7567  1.0018  1.3546
  395TMC3    C6 5956   0.703   4.167  14.829 -0.8970 -0.1075  0.0911
  395TMC3     C 5957   0.838   3.937  15.150 -0.1766  0.0100  0.3985
  395TMC3     O 5958   0.955   3.947  15.181 -0.0003  0.0206 -0.4044
  395TMC3     H 5959   0.602   3.928  15.057 -1.9003  0.5871 -0.0711
  395TMC3    H1 5960   0.975   4.098  15.008 -0.0311  0.0771  0.6670
  395TMC3    H2 5961   0.666   4.238  14.757 -3.5605 -1.9509 -0.3495
  395TMC3    C7 5962   0.907   4.274  14.807 -0.4549  0.1162  0.1252
  395TMC3    C8 5963   0.483   4.088  14.887  0.6385 -0.0901 -0.8624
  395TMC3    O1 5964   0.843   4.371  14.765 -0.7504  0.2799 -0.4193
  395TMC3    O2 5965   0.431   4.104  14.997  0.2519 -0.6798  0.0340
  396MPD2     C 5966   4.661   0.493  17.046  0.0301 -0.3671  0.0313
  396MPD2    C1 5967   0.059   0.493  17.097 -0.2151  0.0409  0.4793
  396MPD2    C2 5968   0.153   0.585  17.037 -0.4354 -0.2096  0.0660
  396MPD2    C3 5969   0.114   0.667  16.934 -0.1257 -0.4399  0.0605
  396MPD2    C4 5970   4.722   0.662  16.889 -0.9824 -0.1267  0.5741
  396MPD2    C5 5971   4.630   0.576  16.943  0.2168  0.5654 -0.1425
  396MPD2     H 5972   0.254   0.593  17.075  0.1560 -0.9484 -1.3347
  396MPD2    H1 5973   4.690   0.731  16.812  0.5939 -1.6756 -1.4942
  396MPD2    H2 5974   4.593   0.421  17.090  0.8140 -1.9041 -1.2849
  396MPD2    H3 5975   4.528   0.579  16.908  0.9459  2.3775 -2.1236
  396MPD2     N 5976   0.213   0.760  16.895  0.1849 -0.4050  0.1417
  396MPD2    H5 5977   0.297   0.757  16.952  0.3231 -0.3804 -0.0598
  396MPD2    N1 5978   0.098   0.395  17.190  0.6162  0.2681  0.2258
  396MPD2    H7 5979   0.035   0.319  17.213 -0.6143  0.8224 -1.3959
  397TMC3    C1 5980   0.249   0.260  17.322 -0.3185  0.8274  0.4237
  397TMC3    C2 5981   0.367   0.218  17.279 -0.3193  0.5484  0.4490
  397TMC3    C3 5982   0.394   0.086  17.251 -0.2266 -1.0779 -0.3425
  397TMC3    C4 5983   0.143   0.174  17.323  1.2216  0.1649 -0.1751
  397TMC3    C5 5984   0.167   0.043  17.292  0.3591 -0.0376 -0.6382
  397TMC3    C6 5985   0.294   4.733  17.264  0.2336 -0.1454 -0.5987
  397TMC3     C 5986   0.220   0.392  17.258 -0.7348  0.4069 -0.1760
  397TMC3     O 5987   0.306   0.480  17.255  0.6283 -0.2049  0.1798
  397TMC3     H 5988   0.444   0.294  17.288 -2.3683  2.8700 -1.6521
  397TMC3    H1 5989   0.045   0.207  17.354  1.3587  1.4954 -1.1957
  397TMC3    H2 5990   0.311   4.627  17.252 -0.2440 -0.0751 -1.8541
  397TMC3    C7 5991   0.067   4.678  17.315  0.1330 -0.1903 -0.0535
  397TMC3    C8 5992   0.521   0.017  17.261  0.4439 -0.4711  0.2770
  397TMC3    O1 5993   0.083   4.567  17.262  0.5522  0.3037 -0.1104
  397TMC3    O2 5994   0.514   4.664  17.343  0.4906 -0.3797 -0.7136
  398MPD2     C 5995   3.203   1.983   0.045  1.2605 -0.9211  0.5308
  398MPD2    C1 5996   3.230   1.906   0.160  0.0035 -0.0397 -0.2245
  398MPD2    C2 5997   3.302   1.965   0.259 -0.2713  0.3502 -0.7735
  398MPD2    C3 5998   3.318   2.102   0.262 -0.0148  0.2003 -0.5087
  398MPD2    C4 5999   3.269   2.186   0.166  0.4278 -0.1124  0.0482
  398MPD2    C5 6000   3.222   2.122   0.056 -0.3830 -0.1901  0.0170
  398MPD2     H 6001   3.329   1.899   0.342 -0.5376  0.5681 -0.5137
  398MPD2    H1 6002   3.272   2.293   0.180  3.1077 -0.1272 -0.4082
  398MPD2    H2 6003   3.154   1.948  17.698 -4.6358  2.9070  2.2724
  398MPD2    H3 6004   3.183   2.189  17.723  0.3223 -1.1245 -1.1823
  398MPD2     N 6005   3.391   2.152   0.372 -0.2493  0.4684  0.3367
  398MPD2    H5 6006   3.429   2.078   0.430 -2.4034 -2.2200 -1.7127
  398MPD2    N1 6007   3.200   1.766   0.167  0.3729  0.2068  0.1798
  398MPD2    H7 6008   3.215   1.718   0.255 -0.4271 -0.8456 -0.2545
  399TMC3    C1 6009   3.110   1.552   0.105  0.1443 -0.3434 -0.0583
  399TMC3    C2 6010   3.155   1.499   0.226  0.1216  0.5763 -0.1354
  399TMC3    C3 6011   3.150   1.361   0.232 -0.2655  0.3066  0.0210
  399TMC3    C4 6012   3.044   1.478   0.009 -1.0282  0.2648 -0.0044
  399TMC3    C5 6013   3.037   1.344   0.029  0.1720  0.4539  0.1041
  399TMC3    C6 6014   3.096   1.279   0.130 -0.9644 -0.6959  0.1359
  399TMC3     C 6015   3.141   1.694   0.069  0.1631 -0.7597  0.2842
  399TMC3     O 6016   3.089   1.731  17.706  0.2196 -0.3945 -0.3106
  399TMC3     H 6017   3.200   1.564   0.300 -4.7627  2.2345  1.3935
  399TMC3    H1 6018   2.997   1.520  17.663  0.8808  2.3217 -0.0580
  399TMC3    H2 6019   3.091   1.171   0.133 -2.1218 -0.6388  0.5119
  399TMC3    C7 6020   2.996   1.259  17.658 -0.6046 -0.0809  0.0909
  399TMC3    C8 6021   3.235   1.302   0.331  1.0071  0.0642 -0.1927
  399TMC3    O1 6022   2.997   1.137  17.679 -0.0374  0.6409  0.5020
  399TMC3    O2 6023   3.315   1.376   0.386  0.7435  0.2035 -0.2969
  400TMC3    C1 6024   1.828   0.187  16.827 -0.5953  0.1857 -0.4597
  400TMC3    C2 6025   1.725   0.151  16.746  0.5127 -0.2674  0.4280
  400TMC3    C3 6026   1.643   0.256  16.699 -0.7733  0.4831 -0.1243
  400TMC3    C4 6027   1.850   0.322  16.859  0.2295  0.0779 -0.0505
  400TMC3    C5 6028   1.762   0.416  16.823 -0.6419  0.0373  0.3177
  400TMC3    C6 6029   1.660   0.385  16.734  0.0562 -0.8000 -0.4212
  400TMC3     C 6030   1.905   0.071  16.876  0.1860 -0.5129 -0.3183
  400TMC3     O 6031   1.872   4.699  16.830 -0.0138 -0.2896 -0.0181
  400TMC3     H 6032   1.707   0.046  16.723 -0.7588 -0.6198  3.0603
  400TMC3    H1 6033   1.916   0.351  16.940  0.6808 -0.1723 -0.3242
  400TMC3    H2 6034   1.603   0.462  16.684 -0.4626 -0.2451  1.0306
  400TMC3    C7 6035   1.782   0.545  16.878 -0.3657  0.1556 -0.1443
  400TMC3    C8 6036   1.508   0.230  16.663 -0.2860  0.0438 -0.3367
  400TMC3    O1 6037   1.895   0.590  16.874 -0.1638  0.0039  0.1553
  400TMC3    O2 6038   1.423   0.309  16.697  0.1052  0.2978  0.3098
  401MPD2     C 6039   0.544   3.939   1.149  0.4057 -0.4368  0.0148
  401MPD2    C1 6040   0.585   3.825   1.215  0.0920  0.9011  0.2176
  401MPD2    C2 6041   0.493   3.728   1.251  0.3132 -0.9049  0.2177
  401MPD2    C3 6042   0.359   3.744   1.206 -0.6959 -0.6700 -0.3589
  401MPD2    C4 6043   0.322   3.865   1.146  0.4929  0.3318 -0.1638
  401MPD2    C5 6044   0.419   3.957   1.112 -0.2068 -0.0445 -0.2393
  401MPD2     H 6045   0.532   3.637   1.294  1.0171 -0.3436  0.7644
  401MPD2    H1 6046   0.216   3.885   1.134  0.8248  0.9942 -1.9099
  401MPD2    H2 6047   0.604   4.024   1.120 -0.5965  0.0949 -0.4955
  401MPD2    H3 6048   0.398   4.046   1.054 -1.8402  0.5132  1.1964
  401MPD2     N 6049   0.274   3.633   1.226  0.3662 -0.0644 -0.4629
  401MPD2    H5 6050   0.318   3.549   1.263  2.6068  0.8927 -0.9686
  401MPD2    N1 6051   0.720   3.797   1.248  0.3112  0.1076  0.1847
  401MPD2    H7 6052   0.736   3.708   1.295  2.2976 -0.6944 -1.9810
  402TMC3    C1 6053   0.092   3.493   1.236  0.7273  0.4106 -0.8062
  402TMC3    C2 6054   0.167   3.418   1.328 -0.4293 -0.3260 -1.1951
  402TMC3    C3 6055   0.144   3.284   1.330  0.1961  0.6121 -0.0230
  402TMC3    C4 6056   0.007   3.433   1.153 -0.6555  1.1545 -0.5818
  402TMC3    C5 6057   4.713   3.299   1.164 -0.5848 -0.5731  0.5309
  402TMC3    C6 6058   0.049   3.221   1.251  0.0849  0.1296 -0.3366
  402TMC3     C 6059   0.137   3.623   1.205  0.5293 -0.1162 -0.2577
  402TMC3     O 6060   0.058   3.713   1.187 -0.0451 -0.2686 -0.2021
  402TMC3     H 6061   0.233   3.465   1.400 -4.3437 -0.3516  2.3953
  402TMC3    H1 6062   4.693   3.496   1.080 -1.3494  1.3065  0.0293
  402TMC3    H2 6063   0.040   3.114   1.265  2.2193 -0.4233 -3.1408
  402TMC3    C7 6064   4.621   3.230   1.073  0.2262  0.3024 -0.6630
  402TMC3    C8 6065   0.232   3.196   1.403 -0.0774  0.6593  0.9502
  402TMC3    O1 6066   4.547   3.296   1.005  0.1495 -0.2607  0.2665
  402TMC3    O2 6067   0.264   3.093   1.346 -0.1757  0.5281  0.3110
  403MPD2     C 6068   3.151   0.828  13.384  0.8113 -0.6165 -0.4497
  403MPD2    C1 6069   3.054   0.886  13.461  0.0307 -0.1098  0.0026
  403MPD2    C2 6070   3.090   0.940  13.581  0.0194 -0.2137  0.4111
  403MPD2    C3 6071   3.223   0.935  13.626  0.4740 -0.3656  1.0255
  403MPD2    C4 6072   3.317   0.874  13.549  0.0053  0.1769 -0.0055
  403MPD2    C5 6073   3.283   0.835  13.424  0.1273  0.6420 -0.5631
  403MPD2     H 6074   3.012   0.987  13.641  0.8266  2.0005 -0.2651
  403MPD2    H1 6075   3.420   0.868  13.581  0.2639 -0.7392 -1.0075
  403MPD2    H2 6076   3.142   0.782  13.286  0.3873 -2.7132  0.5829
  403MPD2    H3 6077   3.367   0.800  13.366  0.8196 -0.4192  1.0800
  403MPD2     N 6078   3.248   0.978  13.759  0.7284 -0.4088 -0.0086
  403MPD2    H5 6079   3.169   1.025  13.801 -0.4951 -2.9223  0.4791
  403MPD2    N1 6080   2.928   0.890  13.396 -0.2797  0.4561  0.1404
  403MPD2    H7 6081   2.926   0.849  13.303 -0.5955  1.3553 -0.2421
  404TMC3    C1 6082   2.697   0.903  13.358  0.5260  0.1776 -0.8511
  404TMC3    C2 6083   2.573   0.896  13.404  0.1865 -0.7553  0.2501
  404TMC3    C3 6084   2.472   0.894  13.312  0.3289  0.7168 -0.4423
  404TMC3    C4 6085   2.727   0.910  13.225  0.3656 -0.8811 -0.5321
  404TMC3    C5 6086   2.626   0.919  13.138 -0.0031 -0.5349  0.0070
  404TMC3    C6 6087   2.498   0.909  13.175  0.3507  0.3358 -0.5286
  404TMC3     C 6088   2.807   0.921  13.452 -0.1066  0.1721  0.1376
  404TMC3     O 6089   2.777   0.936  13.569 -0.0808  0.0724  0.1866
  404TMC3     H 6090   2.547   0.879  13.508  0.7695 -0.8801  0.3714
  404TMC3    H1 6091   2.826   0.940  13.192 -0.6128  1.4809 -1.3756
  404TMC3    H2 6092   2.409   0.913  13.114 -0.4130 -1.4088  0.4634
  404TMC3    C7 6093   2.656   1.011  13.024 -0.5388 -1.2773  0.1051
  404TMC3    C8 6094   2.333   0.875  13.355  0.3901  0.5476 -0.4511
  404TMC3    O1 6095   2.761   1.072  13.033  0.3733 -0.0106 -0.3277
  404TMC3    O2 6096   2.245   0.842  13.273 -0.2292  0.6449  0.2348
  405MPD2     C 6097   3.725   2.399  15.164 -0.0346 -0.6507 -0.2193
  405MPD2    C1 6098   3.696   2.276  15.120  0.2609  0.1491 -0.5502
  405MPD2    C2 6099   3.630   2.260  15.004  0.2830  0.2948  0.0993
  405MPD2    C3 6100   3.600   2.363  14.918  0.8501  0.3902 -0.0679
  405MPD2    C4 6101   3.621   2.487  14.959  0.6722  0.3457 -0.2245
  405MPD2    C5 6102   3.680   2.496  15.081  0.2657 -0.8344 -0.3458
  405MPD2     H 6103   3.599   2.165  14.964  4.3271 -1.0034  0.0400
  405MPD2    H1 6104   3.584   2.572  14.903 -0.2232  1.8432  2.6148
  405MPD2    H2 6105   3.777   2.426  15.256 -1.5953 -0.2285  0.5380
  405MPD2    H3 6106   3.702   2.600  15.103  0.8897 -0.7094 -1.5697
  405MPD2     N 6107   3.531   2.327  14.801 -0.1368  0.4001  0.3576
  405MPD2    H5 6108   3.530   2.229  14.775  1.0252  1.0524 -2.2016
  405MPD2    N1 6109   3.709   2.169  15.219 -0.7420  0.5947 -0.1428
  405MPD2    H7 6110   3.731   2.193  15.315  0.6316 -0.8504 -0.1077
  406TMC3    C1 6111   3.213   2.335  14.464  0.2835 -0.2365 -0.1989
  406TMC3    C2 6112   3.193   2.202  14.477  0.2141 -0.8338 -0.6805
  406TMC3    C3 6113   3.264   2.138  14.578  0.0971 -0.4491  0.4977
  406TMC3    C4 6114   3.297   2.401  14.547 -0.4913  0.3467  0.2828
  406TMC3    C5 6115   3.355   2.333  14.650  0.1932  0.0188 -0.7661
  406TMC3    C6 6116   3.344   2.197  14.673  0.5913 -0.8243 -0.6177
  406TMC3     C 6117   3.113   2.417  14.401  0.8095  0.3999 -0.3359
  406TMC3     O 6118   3.150   2.529  14.366  0.6286 -0.5111  0.4898
  406TMC3     H 6119   3.122   2.148  14.415  1.0049 -1.8551 -0.7011
  406TMC3    H1 6120   3.300   2.509  14.535  2.4876  0.0737 -1.3593
  406TMC3    H2 6121   3.379   2.153  14.765  2.8166  0.9058 -0.6393
  406TMC3    C7 6122   3.464   2.411  14.718 -0.0285  0.0087  0.4567
  406TMC3    C8 6123   3.208   2.010  14.617 -0.7402  0.6548  0.2901
  406TMC3    O1 6124   3.460   2.533  14.718  0.1595 -0.3822 -0.0601
  406TMC3    O2 6125   3.092   1.979  14.596 -0.2283  0.7038 -0.4400
  407MPD2     C 6126   1.145   2.734   9.560 -0.7195 -0.2844 -0.5366
  407MPD2    C1 6127   1.216   2.838   9.607 -0.1602 -0.2315  0.4108
  407MPD2    C2 6128   1.154   2.926   9.692  0.0007  0.2068 -0.3705
  407MPD2    C3 6129   1.035   2.897   9.752  0.6846  0.2417 -0.5309
  407MPD2    C4 6130   0.961   2.790   9.707  0.4110 -0.4713 -0.2282
  407MPD2    C5 6131   1.021   2.704   9.612 -0.0355  0.0094 -0.5377
  407MPD2     H 6132   1.224   3.003   9.723  0.5314 -1.6482  3.0703
  407MPD2    H1 6133   0.869   2.761   9.756  1.6130 -2.5704  0.7942
  407MPD2    H2 6134   1.192   2.657   9.498 -0.6143  1.2786 -2.3982
  407MPD2    H3 6135   0.968   2.612   9.590  0.9611 -0.0991 -2.5076
  407MPD2     N 6136   0.998   2.957   9.869  0.7630  0.6439 -0.7248
  407MPD2    H5 6137   0.935   2.902   9.926  1.8264 -1.1362 -1.2626
  407MPD2    N1 6138   1.352   2.871   9.581  0.3179  0.0359 -0.0062
  407MPD2    H7 6139   1.379   2.967   9.599 -0.7054 -0.0981  2.1395
  408TMC3    C1 6140   1.584   2.818   9.547 -0.6779  0.0105  0.1641
  408TMC3    C2 6141   1.684   2.718   9.538 -0.5803  0.6550  0.7014
  408TMC3    C3 6142   1.813   2.758   9.572  0.1367  0.2866  0.4518
  408TMC3    C4 6143   1.610   2.947   9.592  0.7072  0.3165  0.2594
  408TMC3    C5 6144   1.741   2.993   9.599  0.0625  0.0435 -0.1084
  408TMC3    C6 6145   1.835   2.894   9.597 -0.0355  0.0069  0.0996
  408TMC3     C 6146   1.436   2.769   9.546  0.0817 -0.2855 -0.0203
  408TMC3     O 6147   1.423   2.649   9.537 -0.0155  0.3318  0.4135
  408TMC3     H 6148   1.664   2.613   9.522  0.7245  0.6550 -0.8221
  408TMC3    H1 6149   1.537   3.025   9.611 -0.3604 -0.6004 -0.0332
  408TMC3    H2 6150   1.938   2.926   9.605 -0.2856  0.5199  1.3264
  408TMC3    C7 6151   1.779   3.102   9.686  0.3095 -0.8038 -0.1189
  408TMC3    C8 6152   1.904   2.661   9.624 -0.0008  0.3259  0.4610
  408TMC3    O1 6153   1.879   3.083   9.755 -0.1693  0.2986  0.7492
  408TMC3    O2 6154   1.885   2.549   9.579  0.2818  0.6032  0.0685
  409MPD2     C 6155   0.360   4.394  17.068  0.3988 -0.0231  0.1776
  409MPD2    C1 6156   0.489   4.355  17.095 -0.3437  0.3710  0.6314
  409MPD2    C2 6157   0.586   4.445  17.050 -0.4241  0.0897 -0.5500
  409MPD2    C3 6158   0.554   4.569  16.995 -0.0454 -0.5028  0.0399
  409MPD2    C4 6159   0.415   4.602  16.977 -0.9112  0.2881 -0.2635
  409MPD2    C5 6160   0.321   4.509  17.006  0.4304  0.7530 -0.9472
  409MPD2     H 6161   0.689   4.413  17.059 -0.6783 -0.7101 -0.5214
  409MPD2    H1 6162   0.382   4.692  16.927  1.1074 -0.3166 -2.6651
  409MPD2    H2 6163   0.282   4.321  17.086 -0.8056  0.5679 -2.7624
  409MPD2    H3 6164   0.215   4.528  16.995 -0.0013 -0.6355  0.8243
  409MPD2     N 6165   0.656   4.661  16.948  0.7133  0.0879  0.1522
  409MPD2    H5 6166   0.626   0.011  16.903 -0.0741  0.4315  1.3421
  409MPD2    N1 6167   0.531   4.228  17.133 -0.3295  0.7134 -0.3921
  409MPD2    H7 6168   0.632   4.217  17.136 -0.3230  1.2543  1.3609
  410TMC3    C1 6169   0.877   0.019  16.914 -0.5906 -0.4271 -0.0303
  410TMC3    C2 6170   1.008   0.024  16.957  0.6603  0.7526 -0.4725
  410TMC3    C3 6171   1.079   0.128  16.911  0.0432 -0.7035  0.0164
  410TMC3    C4 6172   0.826   0.103  16.816  0.1463 -0.0600  0.3502
  410TMC3    C5 6173   0.906   0.192  16.769 -0.2545  0.9375 -0.2052
  410TMC3    C6 6174   1.033   0.215  16.821  0.4934 -0.4652  0.0487
  410TMC3     C 6175   0.795   4.643  16.957 -0.0534 -0.0288  0.1423
  410TMC3     O 6176   0.856   4.561  17.021 -0.0022 -0.1222  0.3861
  410TMC3     H 6177   1.047   4.702  17.040 -2.3319  2.2029  1.9685
  410TMC3    H1 6178   0.721   0.095  16.790  0.2414 -1.0264  0.2616
  410TMC3    H2 6179   1.093   0.290  16.771  2.2283 -2.2213 -0.4856
  410TMC3    C7 6180   0.872   0.222  16.627 -0.1457 -0.4578 -0.9981
  410TMC3    C8 6181   1.223   0.135  16.948  0.0612 -0.0790  0.3578
  410TMC3    O1 6182   0.780   0.151  16.588  0.1407 -0.0258 -0.8163
  410TMC3    O2 6183   1.265   0.242  16.991  0.9185  0.7658  0.5226
  411MPD2     C 6184   1.123   0.284  14.526 -0.1719  0.0939 -0.6823
  411MPD2    C1 6185   0.992   0.284  14.486 -0.9378 -0.6731 -0.9595
  411MPD2    C2 6186   0.929   0.160  14.474  0.4294 -0.2554 -1.3542
  411MPD2    C3 6187   0.997   0.041  14.507  0.4225  0.1524  0.5094
  411MPD2    C4 6188   1.130   0.044  14.525  0.5455  0.5490  0.3351
  411MPD2    C5 6189   1.191   0.163  14.544  0.2393  0.1365 -0.1420
  411MPD2     H 6190   0.825   0.148  14.446  0.2760 -1.0124 -0.4843
  411MPD2    H1 6191   1.187   4.691  14.547  2.2622  1.5253 -0.1317
  411MPD2    H2 6192   1.176   0.377  14.538  0.3386 -0.2709 -0.0869
  411MPD2    H3 6193   1.295   0.161  14.575  0.4124  1.1075 -0.6881
  411MPD2     N 6194   0.937   4.647  14.493  0.0134  0.0408  0.0841
  411MPD2    H5 6195   1.006   4.573  14.497  1.9457  1.8661  0.5652
  411MPD2    N1 6196   0.929   0.408  14.462 -0.1065  0.4446  0.5062
  411MPD2    H7 6197   0.971   0.499  14.479 -1.0134  0.6263  1.8030
  412TMC3    C1 6198   0.777   4.487  14.426  0.1116 -0.0477 -0.1606
  412TMC3    C2 6199   0.652   4.441  14.449  0.3685 -0.3258 -0.5675
  412TMC3    C3 6200   0.606   4.334  14.382 -0.5204  0.2703  0.4241
  412TMC3    C4 6201   0.859   4.433  14.331 -0.1325 -0.1099  0.0640
  412TMC3    C5 6202   0.806   4.333  14.259  0.1517 -0.0939 -0.5021
  412TMC3    C6 6203   0.678   4.281  14.284  0.2139  0.4082  0.2935
  412TMC3     C 6204   0.807   4.615  14.483  0.1302 -0.2092 -0.2133
  412TMC3     O 6205   0.710   4.686  14.512 -0.4032  0.6032  0.2097
  412TMC3     H 6206   0.588   4.477  14.529 -0.1954 -1.9602 -0.2758
  412TMC3    H1 6207   0.944   4.489  14.294  1.9638 -1.7364  2.4612
  412TMC3    H2 6208   0.643   4.202  14.218  1.4869 -0.3237  0.4928
  412TMC3    C7 6209   0.802   4.379  14.121 -0.0112 -0.3688 -0.6449
  412TMC3    C8 6210   0.460   4.353  14.353  0.4593 -1.1334 -0.0354
  412TMC3    O1 6211   0.694   4.416  14.086  0.3803  0.2766 -0.4972
  412TMC3    O2 6212   0.378   4.367  14.443  0.4010  0.1960 -0.2117
  413MPD2     C 6213   2.646   3.502  15.334 -0.2186 -0.2660  0.8926
  413MPD2    C1 6214   2.613   3.473  15.206  0.4978  0.5560 -0.1362
  413MPD2    C2 6215   2.714   3.423  15.126 -0.0942  0.0972  0.2542
  413MPD2    C3 6216   2.838   3.404  15.172  0.3434  0.2446 -1.0515
  413MPD2    C4 6217   2.877   3.445  15.299 -1.4186  0.6544 -0.4010
  413MPD2    C5 6218   2.772   3.480  15.377 -0.8587  0.1940  0.1252
  413MPD2     H 6219   2.683   3.395  15.026  0.3897  1.9862 -0.4331
  413MPD2    H1 6220   2.979   3.442  15.334 -0.9849  1.6813 -1.5753
  413MPD2    H2 6221   2.573   3.537  15.405 -0.8939 -1.5494  0.8313
  413MPD2    H3 6222   2.789   3.515  15.478  0.5348 -0.2385  0.0323
  413MPD2     N 6223   2.928   3.341  15.084  0.3002  0.4148  0.2670
  413MPD2    H5 6224   2.888   3.316  14.993 -1.4954  2.4497  0.5040
  413MPD2    N1 6225   2.484   3.507  15.164  1.1906 -0.3200  0.1747
  413MPD2    H7 6226   2.412   3.535  15.230  1.1049 -1.2882  0.4761
  414TMC3    C1 6227   3.109   3.194  15.016  0.5965  0.2929  0.0789
  414TMC3    C2 6228   3.177   3.085  15.063 -0.0779  0.3230 -0.4326
  414TMC3    C3 6229   3.209   2.991  14.969 -0.2235 -0.2266  0.0187
  414TMC3    C4 6230   3.068   3.211  14.885  0.2003  0.2728  0.2025
  414TMC3    C5 6231   3.104   3.113  14.791 -0.3738 -0.0245 -0.4192
  414TMC3    C6 6232   3.168   3.003  14.836 -0.7986  0.2262 -0.1781
  414TMC3     C 6233   3.056   3.287  15.114  0.1802  0.2777 -0.4792
  414TMC3     O 6234   3.105   3.277  15.229  0.8459  0.0233  0.3611
  414TMC3     H 6235   3.196   3.081  15.169  0.0599 -2.0987 -0.5579
  414TMC3    H1 6236   2.998   3.285  14.848 -0.3229 -1.7431 -2.8395
  414TMC3    H2 6237   3.178   2.921  14.766 -0.3608 -2.2772  2.7967
  414TMC3    C7 6238   3.064   3.122  14.655  0.0272 -0.2169 -0.0967
  414TMC3    C8 6239   3.245   2.861  15.023  0.2607  0.2215  0.0995
  414TMC3    O1 6240   2.948   3.155  14.651  0.6015 -0.0858  0.7862
  414TMC3    O2 6241   3.230   2.767  14.950  0.2428 -0.9521  1.1585
  415TMC3    C1 6242   3.110   0.805  10.313 -0.4420 -1.0618  0.3705
  415TMC3    C2 6243   3.187   0.827  10.201 -0.5291 -0.5310  0.2473
  415TMC3    C3 6244   3.132   0.791  10.079  0.2910  0.0472 -0.1806
  415TMC3    C4 6245   2.987   0.746  10.299 -0.5364  0.3141 -0.1825
  415TMC3    C5 6246   2.937   0.708  10.178  0.4767 -0.3494 -1.0907
  415TMC3    C6 6247   3.012   0.727  10.067 -0.0482  0.1682  0.0559
  415TMC3     C 6248   3.150   0.815  10.447 -0.3414  0.1035 -0.0729
  415TMC3     O 6249   3.261   0.776  10.470  0.4078 -0.4767 -0.0545
  415TMC3     H 6250   3.284   0.877  10.206  0.0439 -1.6884  0.7119
  415TMC3    H1 6251   2.914   0.751  10.379  0.1668 -2.7467  0.6649
  415TMC3    H2 6252   2.979   0.691   9.971  0.8872  1.2077 -0.6584
  415TMC3    C7 6253   2.834   0.604  10.167  0.0006 -0.5569  0.5791
  415TMC3    C8 6254   3.191   0.835   9.950 -0.4888  0.8092  0.0560
  415TMC3    O1 6255   2.796   0.566  10.058 -0.0074 -0.4526  0.2011
  415TMC3    O2 6256   3.160   0.773   9.850  0.2831  0.1184 -0.4915
  416MPD2     C 6257   0.269   4.500  11.084  0.1348 -0.1658 -0.0248
  416MPD2    C1 6258   0.150   4.435  11.115  0.6922 -0.4734  0.6522
  416MPD2    C2 6259   0.122   4.312  11.057  0.3179 -0.3479 -0.1426
  416MPD2    C3 6260   0.217   4.261  10.968  0.4733  0.6651 -0.4472
  416MPD2    C4 6261   0.331   4.331  10.934  0.3526  0.1017 -0.3938
  416MPD2    C5 6262   0.360   4.440  11.004 -0.4426 -0.1094 -0.3035
  416MPD2     H 6263   0.030   4.259  11.080 -1.0014  2.4511  1.0715
  416MPD2    H1 6264   0.411   4.278  10.883 -1.6425 -4.1558  0.8376
  416MPD2    H2 6265   0.301   4.591  11.135  1.2395 -0.2095 -0.6531
  416MPD2    H3 6266   0.458   4.487  11.002  1.0294 -3.1903  0.2533
  416MPD2     N 6267   0.201   4.138  10.908  0.3953 -0.1916 -0.4513
  416MPD2    H5 6268   0.281   4.096  10.861  2.0057 -0.3615  2.4614
  416MPD2    N1 6269   0.069   4.500  11.214  0.2350 -0.4156  0.4851
  416MPD2    H7 6270   0.108   4.591  11.238  0.0733  0.0956 -1.1883
  417TMC3    C1 6271   4.649   4.514  11.392 -1.0601 -0.4692  0.1448
  417TMC3    C2 6272   4.623   4.453  11.509 -0.0407 -0.0621  0.2799
  417TMC3    C3 6273   4.526   4.512  11.591  0.1394 -0.0338 -0.1719
  417TMC3    C4 6274   4.577   4.624  11.350 -0.0546 -0.4953 -0.9043
  417TMC3    C5 6275   4.474   4.669  11.431 -0.6666  0.8033  0.0345
  417TMC3    C6 6276   4.445   4.610  11.552 -0.2344  0.0619 -0.3208
  417TMC3     C 6277   4.707   4.435  11.287 -0.5375 -0.4257  0.0395
  417TMC3     O 6278   4.674   4.318  11.284  0.6964  0.4547  0.8555
  417TMC3     H 6279   4.679   4.364  11.534  3.6890  2.3696  0.5850
  417TMC3    H1 6280   4.586   4.674  11.254  1.7954 -0.4647 -0.7175
  417TMC3    H2 6281   4.368   4.649  11.618  0.9399  0.8981  0.5636
  417TMC3    C7 6282   4.425   0.073  11.401 -0.3937 -0.5533 -0.9538
  417TMC3    C8 6283   4.535   4.501  11.739  0.1651 -0.4915 -0.4027
  417TMC3    O1 6284   4.468   0.123  11.298 -0.2797 -0.3151 -0.5922
  417TMC3    O2 6285   4.445   4.550  11.809 -0.1842  0.0179  0.2778
  418TMC3    C1 6286   3.767   2.297   0.549 -0.2411  0.7573 -0.3763
  418TMC3    C2 6287   3.657   2.344   0.474 -0.3047  0.3023  0.0495
  418TMC3    C3 6288   3.541   2.280   0.502 -0.2269  0.4533  0.0178
  418TMC3    C4 6289   3.744   2.220   0.657 -0.2204 -1.1297 -0.8431
  418TMC3    C5 6290   3.617   2.163   0.679  0.6634  0.0939 -0.3311
  418TMC3    C6 6291   3.510   2.182   0.593  0.1218 -0.0501 -0.0206
  418TMC3     C 6292   3.895   2.362   0.532  0.1241  0.0579  0.4658
  418TMC3     O 6293   3.901   2.464   0.462 -0.3884  0.0318 -0.2609
  418TMC3     H 6294   3.665   2.418   0.395  1.7137  0.1561  0.1186
  418TMC3    H1 6295   3.827   2.206   0.725  1.3885  0.8053 -2.4040
  418TMC3    H2 6296   3.408   2.149   0.606 -0.3805  1.3540 -0.4800
  418TMC3    C7 6297   3.595   2.066   0.788  0.0183 -0.4905  0.8238
  418TMC3    C8 6298   3.463   2.278   0.383  0.0256 -0.3411 -0.3622
  418TMC3    O1 6299   3.508   1.980   0.775 -0.1676  0.2096 -0.2917
  418TMC3    O2 6300   3.464   2.369   0.303  0.2725  0.2556  0.1322
  419MPD2     C 6301   2.454   4.381  12.743 -0.1178 -0.2538 -0.4192
  419MPD2    C1 6302   2.370   4.483  12.714 -0.0858  0.8612 -0.5537
  419MPD2    C2 6303   2.299   4.528  12.824  0.2805  0.2904 -0.3668
  419MPD2    C3 6304   2.324   4.490  12.954  0.2389 -0.4923  0.1049
  419MPD2    C4 6305   2.410   4.385  12.978 -0.0971 -0.4606  0.1163
  419MPD2    C5 6306   2.458   4.330  12.863  0.0553 -0.4473 -0.6920
  419MPD2     H 6307   2.227   4.605  12.799  1.0801  0.7850 -1.1814
  419MPD2    H1 6308   2.431   4.341  13.075 -1.1443 -4.3390 -1.4051
  419MPD2    H2 6309   2.515   4.330  12.669  0.9460  1.1041 -0.4752
  419MPD2    H3 6310   2.535   4.255  12.880  0.4832 -0.1167 -1.2036
  419MPD2     N 6311   2.252   4.561  13.054  0.6238  0.1958 -0.0940
  419MPD2    H5 6312   2.182   4.626  13.019 -1.0165 -1.9274 -0.7020
  419MPD2    N1 6313   2.337   4.541  12.587  0.2324  0.3290 -0.1049
  419MPD2    H7 6314   2.258   4.604  12.588  0.3529  0.4540  1.5727
  420TMC3    C1 6315   2.174   4.626  13.262 -0.6591 -0.6417 -0.0821
  420TMC3    C2 6316   2.091   4.712  13.190  0.2936  0.9743 -0.4054
  420TMC3    C3 6317   1.977   0.021  13.250  0.6518 -0.3852 -0.3621
  420TMC3    C4 6318   2.147   4.597  13.394 -0.9704 -0.4734  0.0649
  420TMC3    C5 6319   2.043   4.661  13.460 -0.4055  0.0686  0.2563
  420TMC3    C6 6320   1.946   4.727  13.383  0.2531 -0.2344  0.0822
  420TMC3     C 6321   2.266   4.541  13.191 -0.5068  0.5601 -0.1476
  420TMC3     O 6322   2.317   4.450  13.249  0.0869  0.0391  0.6813
  420TMC3     H 6323   2.106   0.005  13.086 -1.1358 -1.0729 -1.1897
  420TMC3    H1 6324   2.199   4.522  13.452  0.5500  1.4021  1.1561
  420TMC3    H2 6325   1.852   0.023  13.427  1.9488  1.4737  2.4965
  420TMC3    C7 6326   2.020   4.629  13.606 -0.4733 -0.5607  0.0734
  420TMC3    C8 6327   1.872   0.069  13.167  0.3755 -0.0112  0.7217
  420TMC3    O1 6328   2.079   4.534  13.657  0.0093  0.4496  0.2126
  420TMC3    O2 6329   1.902   0.114  13.057 -0.3919 -0.6217  0.5254
  421TMC3    C1 6330   3.380   1.040  13.946  0.6270  0.1974  1.1231
  421TMC3    C2 6331   3.335   1.172  13.933  0.1383  0.0842 -0.1704
  421TMC3    C3 6332   3.394   1.273  14.006 -0.0864 -0.0976  0.0343
  421TMC3    C4 6333   3.481   1.009  14.037 -0.6664  0.6776 -0.4984
  421TMC3    C5 6334   3.542   1.116  14.102  0.3917  0.1710 -0.1555
  421TMC3    C6 6335   3.495   1.250  14.101  0.4957  0.4883 -0.2721
  421TMC3     C 6336   3.364   0.943  13.836  0.2834 -0.2401  0.5822
  421TMC3     O 6337   3.445   0.855  13.818 -0.2863 -0.6389 -0.1154
  421TMC3     H 6338   3.259   1.200  13.861  0.6798 -0.7468 -1.0552
  421TMC3    H1 6339   3.524   0.910  14.032  1.0604  1.6030 -3.8530
  421TMC3    H2 6340   3.529   1.330  14.165  0.6888  0.4311 -0.3058
  421TMC3    C7 6341   3.688   1.116  14.126  0.1081 -0.3545 -0.6106
  421TMC3    C8 6342   3.369   1.411  13.967 -0.7673  0.1308 -0.3263
  421TMC3    O1 6343   3.741   1.219  14.086 -0.2842 -0.7534  0.5450
  421TMC3    O2 6344   3.274   1.437  13.893  0.1329  0.6392  0.0344
  422TMC3    C1 6345   1.134   2.636  12.554 -0.8021 -0.1036 -0.7928
  422TMC3    C2 6346   1.161   2.719  12.658  0.0976 -0.4859 -0.3170
  422TMC3    C3 6347   1.087   2.711  12.766 -0.1185  0.6577  0.7438
  422TMC3    C4 6348   1.040   2.536  12.555  0.0384  0.0208  0.1559
  422TMC3    C5 6349   0.977   2.531  12.673 -0.4437 -1.0805  0.0459
  422TMC3    C6 6350   0.990   2.616  12.777  0.0232  0.4491 -0.1491
  422TMC3     C 6351   1.167   2.691  12.424 -0.1414 -0.5748  0.2927
  422TMC3     O 6352   1.247   2.779  12.425  0.5718 -0.6345  0.2105
  422TMC3     H 6353   1.222   2.809  12.658  0.5278 -0.7739 -0.1796
  422TMC3    H1 6354   1.013   2.461  12.481  0.9489 -2.6304  2.5296
  422TMC3    H2 6355   0.950   2.589  12.874  2.3445 -0.5395  0.5122
  422TMC3    C7 6356   0.885   2.414  12.678  0.8279  0.4082 -0.2607
  422TMC3    C8 6357   1.079   2.826  12.857 -0.1748 -1.5602 -0.0302
  422TMC3    O1 6358   0.906   2.331  12.593 -0.5718  0.8053  0.0138
  422TMC3    O2 6359   1.179   2.893  12.873 -0.1792 -0.3306 -0.6155
  423MPD2     C 6360   2.241   4.082   0.521 -0.0448  0.3053  0.5094
  423MPD2    C1 6361   2.249   3.945   0.527  0.4773  0.1532 -0.1371
  423MPD2    C2 6362   2.269   3.867   0.416 -0.3315 -0.0560  0.1829
  423MPD2    C3 6363   2.257   3.917   0.290 -0.0108 -0.2837  0.2408
  423MPD2    C4 6364   2.227   4.055   0.287 -0.1177  0.0494  0.4244
  423MPD2    C5 6365   2.230   4.140   0.394 -0.5577 -0.9326  0.4056
  423MPD2     H 6366   2.288   3.761   0.432 -0.9070 -0.2018 -0.0786
  423MPD2    H1 6367   2.200   4.095   0.190  1.3371  1.2490  0.5088
  423MPD2    H2 6368   2.230   4.149   0.605 -1.7268  0.7734 -0.0744
  423MPD2    H3 6369   2.216   4.246   0.378  0.5958 -0.8358  0.0878
  423MPD2     N 6370   2.256   3.842   0.172 -0.4908 -0.3777 -0.0642
  423MPD2    H5 6371   2.240   3.890   0.084  1.6042  0.4397  0.0010
  423MPD2    N1 6372   2.253   3.876   0.657  0.0973 -0.4165 -0.1699
  423MPD2    H7 6373   2.265   3.775   0.651  2.9984 -0.2975  3.7922
  424TMC3    C1 6374   2.206   3.843   0.878  0.7297  0.3502  0.0794
  424TMC3    C2 6375   2.319   3.762   0.893 -0.0986 -0.1858  0.2374
  424TMC3    C3 6376   2.367   3.731   1.017  0.4457 -0.0893  0.7304
  424TMC3    C4 6377   2.145   3.894   0.986 -0.6903 -0.1610  0.1756
  424TMC3    C5 6378   2.190   3.853   1.110  0.0146 -0.3043  0.1037
  424TMC3    C6 6379   2.291   3.757   1.124  0.0774 -0.1292  0.1164
  424TMC3     C 6380   2.204   3.933   0.773  0.3892  0.5450  0.8517
  424TMC3     O 6381   2.156   4.044   0.787  0.3717  0.3345 -0.1271
  424TMC3     H 6382   2.369   3.726   0.803  1.2690  0.4921  0.7212
  424TMC3    H1 6383   2.071   3.973   0.977  1.0550  1.6670  1.9081
  424TMC3    H2 6384   2.327   3.741   1.225  2.1051 -0.6420 -0.6769
  424TMC3    C7 6385   2.146   3.929   1.225 -0.4791 -0.2701 -0.1322
  424TMC3    C8 6386   2.495   3.660   1.042  0.0238 -0.4076 -0.2120
  424TMC3    O1 6387   2.223   3.933   1.323 -0.1125 -0.1496  0.0338
  424TMC3    O2 6388   2.539   3.594   0.946 -0.4305 -0.1629 -0.3571
  425MPD2     C 6389   1.431   3.272  17.274  0.0242  0.1921 -0.2427
  425MPD2    C1 6390   1.391   3.159  17.336 -0.1609  1.0380 -0.0655
  425MPD2    C2 6391   1.293   3.173  17.435  0.2825 -0.0263  0.5971
  425MPD2    C3 6392   1.226   3.289  17.458 -0.7505  0.1538  0.0196
  425MPD2    C4 6393   1.256   3.400  17.378  0.4751 -0.1087  0.1231
  425MPD2    C5 6394   1.359   3.389  17.288  0.1744  0.2361 -0.3572
  425MPD2     H 6395   1.271   3.089  17.500  0.9876  0.6359  1.6931
  425MPD2    H1 6396   1.210   3.497  17.389 -0.2939 -0.2171 -2.1755
  425MPD2    H2 6397   1.514   3.269  17.204 -1.3703  0.2196 -1.8988
  425MPD2    H3 6398   1.387   3.481  17.240  0.3954  1.0651  1.3492
  425MPD2     N 6399   1.125   3.284  17.559  0.4972 -0.2922  0.1525
  425MPD2    H5 6400   1.104   3.194  17.601  0.6190 -1.0072 -1.3138
  425MPD2    N1 6401   1.452   3.033  17.295 -0.1289  0.3605 -0.4977
  425MPD2    H7 6402   1.528   3.026  17.229 -0.7346 -0.3599 -1.1170
  426TMC3    C1 6403   1.477   2.801  17.280 -0.2633  0.2576 -0.0015
  426TMC3    C2 6404   1.586   2.814  17.196 -0.2311 -0.0033  0.0054
  426TMC3    C3 6405   1.652   2.701  17.153  0.0103  0.0186  0.3699
  426TMC3    C4 6406   1.437   2.674  17.316 -0.4238 -0.1357  0.7323
  426TMC3    C5 6407   1.500   2.556  17.264 -0.6893 -0.8509 -0.3513
  426TMC3    C6 6408   1.609   2.572  17.186 -0.4939  0.5862 -0.8037
  426TMC3     C 6409   1.403   2.910  17.336  0.1957  0.3716 -0.3108
  426TMC3     O 6410   1.294   2.882  17.394 -0.1754  0.3994 -0.2382
  426TMC3     H 6411   1.616   2.908  17.152 -1.1870 -0.2101 -1.0774
  426TMC3    H1 6412   1.354   2.666  17.386 -1.3319 -0.3635 -0.3618
  426TMC3    H2 6413   1.642   2.483  17.134  2.1354  0.9650  0.2060
  426TMC3    C7 6414   1.451   2.426  17.293 -0.2726  0.6527  0.3962
  426TMC3    C8 6415   1.723   2.709  17.030  0.3348  0.1437 -0.1520
  426TMC3    O1 6416   1.458   2.344  17.203  0.6775  0.4571 -0.0213
  426TMC3    O2 6417   1.711   2.803  16.958 -0.4788  0.0433  0.3605
  427MPD2     C 6418   4.600   0.220  14.999  0.3571  0.4285 -0.2664
  427MPD2    C1 6419   4.624   0.284  15.121  0.5297 -0.2773 -0.4584
  427MPD2    C2 6420   4.511   0.354  15.173  0.3752 -0.3066  0.6727
  427MPD2    C3 6421   4.387   0.359  15.110  0.5269  0.3215  0.5782
  427MPD2    C4 6422   4.367   0.275  15.003 -0.0323  0.2786 -0.1904
  427MPD2    C5 6423   4.473   0.207  14.950  0.4496  0.3088 -0.7582
  427MPD2     H 6424   4.516   0.417  15.261 -0.3199 -1.0143  1.2205
  427MPD2    H1 6425   4.267   0.267  14.963 -0.2862  2.4261  0.0080
  427MPD2    H2 6426   4.682   0.169  14.950  0.8418  3.2162 -2.3131
  427MPD2    H3 6427   4.461   0.146  14.861  0.9614 -2.1074  0.8131
  427MPD2     N 6428   4.274   0.432  15.153 -0.0278 -0.0960  0.5493
  427MPD2    H5 6429   4.191   0.411  15.099  0.7866 -0.5209 -0.5587
  427MPD2    N1 6430   0.013   0.282  15.183  0.7479 -0.0719  0.0912
  427MPD2    H7 6431   0.019   0.332  15.271 -0.4108 -0.8156  0.5956
  428TMC3    C1 6432   0.231   0.224  15.245 -0.4406  0.7093 -0.3016
  428TMC3    C2 6433   0.191   0.192  15.370  0.1349 -0.2651  0.2138
  428TMC3    C3 6434   0.292   0.175  15.463  0.5056 -0.0557  0.9894
  428TMC3    C4 6435   0.354   0.250  15.197  0.0331 -0.3718  0.3578
  428TMC3    C5 6436   0.449   0.231  15.293 -1.3476 -0.0104 -0.2705
  428TMC3    C6 6437   0.420   0.187  15.423 -0.1130 -0.8187  0.1045
  428TMC3     C 6438   0.125   0.215  15.139 -0.5156  0.0872  0.2376
  428TMC3     O 6439   0.153   0.175  15.027  0.0389  0.5206 -0.0358
  428TMC3     H 6440   0.094   0.147  15.386  0.0763  0.3563  1.6695
  428TMC3    H1 6441   0.363   0.262  15.090 -2.8325 -2.4124 -0.1121
  428TMC3    H2 6442   0.504   0.174  15.490 -2.0493  1.8740  3.0560
  428TMC3    C7 6443   0.556   0.325  15.284 -0.3504  0.1818 -0.5541
  428TMC3    C8 6444   0.268   0.068  15.564  0.0447  0.0472 -0.4726
  428TMC3    O1 6445   0.584   0.379  15.387 -0.7819 -0.2111  0.3602
  428TMC3    O2 6446   0.361   4.724  15.571  0.1498 -0.9051 -0.2133
  429MPD2     C 6447   0.603   0.351  17.493  0.3184  0.8932 -0.6084
  429MPD2    C1 6448   0.742   0.330  17.489 -0.3341  0.2971  0.4135
  429MPD2    C2 6449   0.814   0.432  17.437  0.1879 -0.7581 -0.8348
  429MPD2    C3 6450   0.763   0.555  17.396  0.0162  0.1922  0.3047
  429MPD2    C4 6451   0.627   0.576  17.409 -0.4249  0.1386  0.4568
  429MPD2    C5 6452   0.552   0.467  17.448 -0.1057  0.0365 -0.2486
  429MPD2     H 6453   0.921   0.421  17.427  0.6654 -1.1753  4.9589
  429MPD2    H1 6454   0.566   0.660  17.380  1.2701  0.6052 -1.6946
  429MPD2    H2 6455   0.533   0.279  17.533  0.3307 -0.5526 -3.1404
  429MPD2    H3 6456   0.446   0.485  17.460 -0.3336 -1.7701  0.5217
  429MPD2     N 6457   0.852   0.642  17.329 -0.1554 -0.1938  0.0664
  429MPD2    H5 6458   0.948   0.610  17.318  0.6314  2.3544 -0.4835
  429MPD2    N1 6459   0.812   0.213  17.540  0.7175  0.1002 -0.0832
  429MPD2    H7 6460   0.913   0.209  17.525  0.9025  0.3106  1.0917
  430TMC3    C1 6461   0.923   0.833  17.215  0.1247  0.2905 -0.1347
  430TMC3    C2 6462   0.897   0.949  17.144 -0.0533  0.4998  0.6623
  430TMC3    C3 6463   0.993   1.023  17.088 -0.4108 -0.4559 -0.2444
  430TMC3    C4 6464   1.049   0.811  17.257  0.2293  0.3657 -0.0138
  430TMC3    C5 6465   1.148   0.893  17.207  0.3606 -0.5464 -0.4614
  430TMC3    C6 6466   1.127   0.997  17.119  0.1748  0.3117 -0.4012
  430TMC3     C 6467   0.812   0.747  17.259  0.3690 -0.3794  0.3621
  430TMC3     O 6468   0.702   0.789  17.232 -0.7084  0.1351  0.3744
  430TMC3     H 6469   0.792   0.968  17.125  0.4715  1.3840 -1.3799
  430TMC3    H1 6470   1.082   0.723  17.312  1.2368  0.5187 -0.3706
  430TMC3    H2 6471   1.202   1.048  17.059  0.4965 -0.3048 -0.5244
  430TMC3    C7 6472   1.269   0.822  17.166 -0.6185 -0.6221 -0.0238
  430TMC3    C8 6473   0.971   1.083  16.957 -0.0635  1.0014 -0.5160
  430TMC3    O1 6474   1.260   0.704  17.143  0.6489 -0.5620 -0.5479
  430TMC3    O2 6475   0.916   1.007  16.879  0.1238 -0.1172  0.0696
  431MPD2     C 6476   1.789   0.419  12.467  0.4861 -0.4153  0.4146
  431MPD2    C1 6477   1.898   0.439  12.381 -0.2578  0.0802  0.0759
  431MPD2    C2 6478   1.975   0.332  12.344  0.0983 -0.5326  0.1646
  431MPD2    C3 6479   1.950   0.204  12.386  0.3990  0.9362  0.2308
  431MPD2    C4 6480   1.865   0.189  12.486 -0.3495  0.8819 -0.2909
  431MPD2    C5 6481   1.783   0.293  12.523  0.1689 -0.0251  0.4004
  431MPD2     H 6482   2.057   0.347  12.274  1.5465 -1.3780  1.6716
  431MPD2    H1 6483   1.861   0.096  12.542 -3.6276  0.3726 -1.3694
  431MPD2    H2 6484   1.716   0.496  12.486  0.9003  0.4024 -1.3371
  431MPD2    H3 6485   1.703   0.281  12.596  0.3246  0.1088  0.5933
  431MPD2     N 6486   2.034   0.093  12.348  0.2539  0.0400  0.3371
  431MPD2    H5 6487   2.039   0.013  12.411  0.2282 -1.0361 -1.0451
  431MPD2    N1 6488   1.946   0.564  12.337  0.0638 -0.5288  0.1543
  431MPD2    H7 6489   2.039   0.571  12.298  0.6869  1.1388  1.9366
  432TMC3    C1 6490   2.207   4.719  12.229 -0.9667 -0.2747  0.0700
  432TMC3    C2 6491   2.273   4.678  12.110  0.1305 -0.2771 -0.1977
  432TMC3    C3 6492   2.370   4.578  12.115  0.2541  0.1719 -0.5231
  432TMC3    C4 6493   2.246   4.670  12.348 -0.1856  0.9283  0.1046
  432TMC3    C5 6494   2.352   4.581  12.350 -0.1003  0.3602 -0.2547
  432TMC3    C6 6495   2.410   4.529  12.230 -0.6441 -0.6401  0.1943
  432TMC3     C 6496   2.122   0.103  12.236 -0.0835 -0.5219  0.1627
  432TMC3     O 6497   2.122   0.177  12.141  0.5071 -0.2624 -0.1217
  432TMC3     H 6498   2.272   0.003  12.021 -0.6889  1.6537  1.1198
  432TMC3    H1 6499   2.232   4.726  12.440 -0.3701 -0.1990  0.7656
  432TMC3    H2 6500   2.489   4.456  12.241 -1.0422 -1.0947  0.0416
  432TMC3    C7 6501   2.407   4.520  12.472 -0.3458 -0.1709  0.3267
  432TMC3    C8 6502   2.463   4.589  12.001 -0.4230  0.6821  0.8010
  432TMC3    O1 6503   2.504   4.448  12.463 -0.1919 -0.6166  0.0938
  432TMC3    O2 6504   2.419   4.623  11.896 -0.4838 -0.3364  0.5284
  433MPD2     C 6505   0.927   3.786  10.891 -0.3004 -0.3225  0.2005
  433MPD2    C1 6506   1.035   3.717  10.935  0.6326  0.0348  0.4049
  433MPD2    C2 6507   1.100   3.768  11.043 -0.2207  0.1297  0.1809
  433MPD2    C3 6508   1.066   3.892  11.094  0.1385  0.4914  0.3927
  433MPD2    C4 6509   0.957   3.957  11.046  0.3314  0.4833  0.5705
  433MPD2    C5 6510   0.891   3.906  10.941 -0.8017 -0.2173 -0.0443
  433MPD2     H 6511   1.168   3.705  11.099 -0.2260 -0.6799 -0.7230
  433MPD2    H1 6512   0.914   4.048  11.087 -1.9280  0.1634 -1.0960
  433MPD2    H2 6513   0.878   3.752  10.801 -0.6383  1.3032 -0.2292
  433MPD2    H3 6514   0.810   3.959  10.890 -2.1757 -1.3358  0.9666
  433MPD2     N 6515   1.137   3.930  11.209  0.0871  0.4923 -0.2213
  433MPD2    H5 6516   1.207   3.862  11.236 -1.1282  0.1312  2.0261
  433MPD2    N1 6517   1.059   3.586  10.877  0.3680 -0.2760 -0.5223
  433MPD2    H7 6518   1.017   3.577  10.785 -0.5201  0.8168 -0.2186
  434TMC3    C1 6519   1.132   3.370  10.861  0.1453 -0.5471 -0.4623
  434TMC3    C2 6520   1.191   3.266  10.927 -0.2403 -0.9052 -0.2350
  434TMC3    C3 6521   1.142   3.138  10.905 -0.0721 -0.8178  0.0977
  434TMC3    C4 6522   1.053   3.339  10.752  0.0346 -0.8101  0.3744
  434TMC3    C5 6523   1.043   3.205  10.707  0.9855 -0.1887 -0.6613
  434TMC3    C6 6524   1.072   3.101  10.798  0.5948 -0.6315 -0.4395
  434TMC3     C 6525   1.150   3.500  10.925  0.2615  0.1913 -0.1119
  434TMC3     O 6526   1.205   3.510  11.035  0.8522  0.1252 -0.3170
  434TMC3     H 6527   1.242   3.283  11.020 -0.1890 -0.3289 -0.3687
  434TMC3    H1 6528   1.023   3.416  10.682 -0.2931 -1.5069 -0.2581
  434TMC3    H2 6529   1.027   3.002  10.788 -3.6262  1.0845  1.2656
  434TMC3    C7 6530   0.988   3.165  10.584  0.3732 -0.1068 -0.0911
  434TMC3    C8 6531   1.200   3.036  10.988 -0.2897 -1.0467 -1.7100
  434TMC3    O1 6532   0.934   3.260  10.524  0.0985  0.2737  0.4620
  434TMC3    O2 6533   1.306   3.076  11.039  0.1595  0.0794  0.7271
  435MPD2     C 6534   3.053   4.191  15.489 -0.2228 -0.0138 -0.5860
  435MPD2    C1 6535   3.008   4.166  15.615  0.1877  0.0764  0.6307
  435MPD2    C2 6536   3.097   4.112  15.710 -0.7918  0.4463  0.3482
  435MPD2    C3 6537   3.227   4.079  15.679  1.1786  0.0352  0.3445
  435MPD2    C4 6538   3.268   4.110  15.550  0.3421  1.1973 -0.3366
  435MPD2    C5 6539   3.183   4.167  15.462  1.1971 -0.0693 -0.2428
  435MPD2     H 6540   3.060   4.107  15.812  1.6640  1.1583  1.2624
  435MPD2    H1 6541   3.370   4.103  15.515  1.0598  1.1080  1.7931
  435MPD2    H2 6542   2.990   4.236  15.413 -1.8926 -2.3664 -0.5862
  435MPD2    H3 6543   3.221   4.182  15.362 -0.7955 -2.5084 -1.3384
  435MPD2     N 6544   3.302   4.007  15.776  0.2101 -0.0467 -0.4086
  435MPD2    H5 6545   3.258   3.981  15.864 -0.7366  1.9733 -0.2851
  435MPD2    N1 6546   2.877   4.200  15.659  0.1486  0.0222  0.3254
  435MPD2    H7 6547   2.857   4.204  15.759  0.6953 -2.1765  0.5364
  436TMC3    C1 6548   2.509   4.247  15.819 -0.4190 -0.3472  0.3342
  436TMC3    C2 6549   2.633   4.219  15.757 -0.9019 -0.4376 -0.4214
  436TMC3    C3 6550   2.655   4.288  15.645 -0.0157  0.3040  0.0574
  436TMC3    C4 6551   2.426   4.354  15.788 -0.5926  0.5222 -0.0684
  436TMC3    C5 6552   2.470   4.431  15.679  0.3406 -0.4651 -0.1895
  436TMC3    C6 6553   2.585   4.401  15.612  0.6876  0.1115 -0.6942
  436TMC3     C 6554   2.481   4.192  15.946  0.4466  0.7173 -0.0076
  436TMC3     O 6555   2.493   4.070  15.972  0.3265 -0.2711  0.2162
  436TMC3     H 6556   2.674   4.122  15.785  0.3908 -0.2711 -1.8044
  436TMC3    H1 6557   2.326   4.362  15.829 -0.0034 -2.0637  1.8717
  436TMC3    H2 6558   2.611   4.444  15.516  3.4507 -1.1768 -0.5365
  436TMC3    C7 6559   2.375   4.535  15.645 -0.9019  0.5832  0.4518
  436TMC3    C8 6560   2.773   4.251  15.575  0.2509 -0.0962  0.3052
  436TMC3    O1 6561   2.261   4.538  15.697 -0.2661 -0.0555  0.3710
  436TMC3    O2 6562   2.785   4.293  15.459 -0.1300  0.1831  0.4090
  437TMC3    C1 6563   1.837   1.203  11.720 -0.1374  0.5338 -0.6549
  437TMC3    C2 6564   1.855   1.223  11.587 -0.3316  0.2783 -0.3581
  437TMC3    C3 6565   1.898   1.346  11.547 -0.6694  0.0661 -0.1063
  437TMC3    C4 6566   1.876   1.284  11.822 -0.2031  0.8488 -0.2508
  437TMC3    C5 6567   1.927   1.406  11.783 -0.4175  0.6681  0.6430
  437TMC3    C6 6568   1.927   1.434  11.646  1.0092  0.0322  0.5337
  437TMC3     C 6569   1.741   1.095  11.757  0.0118  0.8471 -0.1086
  437TMC3     O 6570   1.679   1.035  11.667 -0.0968 -0.0598 -0.7343
  437TMC3     H 6571   1.816   1.154  11.513  0.2803  1.0543 -1.3875
  437TMC3    H1 6572   1.854   1.260  11.926 -0.0533  2.0858  0.0620
  437TMC3    H2 6573   1.953   1.537  11.622 -1.4616  0.2780 -1.1550
  437TMC3    C7 6574   1.903   1.507  11.878 -0.4058  0.3789  0.1734
  437TMC3    C8 6575   1.930   1.380  11.411  0.0292 -0.1354  0.0894
  437TMC3    O1 6576   1.854   1.614  11.846  0.1404 -0.3820 -0.6007
  437TMC3    O2 6577   1.994   1.483  11.392  0.0382  0.6113  0.2458
  438MPD2     C 6578   3.814   2.379  16.655  0.1469 -0.0548 -0.4619
  438MPD2    C1 6579   3.933   2.319  16.697 -0.1027 -0.4082 -0.0378
  438MPD2    C2 6580   3.965   2.329  16.829 -0.9540 -0.8300  0.0761
  438MPD2    C3 6581   3.886   2.395  16.919  0.0549 -0.2491 -0.1448
  438MPD2    C4 6582   3.777   2.470  16.874  0.3377  0.2835 -0.4577
  438MPD2    C5 6583   3.740   2.455  16.745 -0.2419  0.0715 -0.5533
  438MPD2     H 6584   4.057   2.285  16.865  1.5941  2.9466 -1.7614
  438MPD2    H1 6585   3.718   2.517  16.953 -0.1632 -1.8609  0.4388
  438MPD2    H2 6586   3.784   2.384  16.551 -1.0052  0.8780 -0.0812
  438MPD2    H3 6587   3.647   2.492  16.705  0.2928  1.9883 -0.0718
  438MPD2     N 6588   3.929   2.387  17.054  0.3995  0.3669  0.0482
  438MPD2    H5 6589   3.877   2.449  17.116 -0.5433 -0.5905  0.2187
  438MPD2    N1 6590   4.011   2.239  16.614  0.1418 -0.2238 -0.1926
  438MPD2    H7 6591   4.103   2.214  16.650  0.1781 -0.8563 -0.7284
  439TMC3    C1 6592   4.065   2.104  16.432 -0.7545 -0.5223  0.3089
  439TMC3    C2 6593   4.043   2.078  16.299 -0.0172 -0.4512 -0.0659
  439TMC3    C3 6594   4.099   1.966  16.248 -0.1913  0.4001 -0.5636
  439TMC3    C4 6595   4.129   2.015  16.512 -0.5137 -0.0966  0.1453
  439TMC3    C5 6596   4.160   1.892  16.462 -0.2548  0.3294 -0.1490
  439TMC3    C6 6597   4.157   1.875  16.329  0.1772 -0.3867  0.3498
  439TMC3     C 6598   3.969   2.198  16.490  0.8871  0.1592 -0.0200
  439TMC3     O 6599   3.864   2.220  16.431 -0.1385  0.1584  0.2432
  439TMC3     H 6600   3.997   2.155  16.238 -2.0515 -2.5967 -1.2492
  439TMC3    H1 6601   4.137   2.027  16.619  1.0237  0.1288  0.0157
  439TMC3    H2 6602   4.211   1.789  16.289  0.2709 -0.6343  0.9998
  439TMC3    C7 6603   4.251   1.834  16.554  0.7328  0.2224  0.0138
  439TMC3    C8 6604   4.123   1.969  16.101 -0.3442 -0.3207 -0.2572
  439TMC3    O1 6605   4.330   1.899  16.613 -0.1066  0.0636  0.2036
  439TMC3    O2 6606   4.059   2.049  16.034 -0.0596  0.5165  0.9792
  440MPD2     C 6607   2.729   2.325  14.642  0.1188 -0.2309 -0.5113
  440MPD2    C1 6608   2.826   2.393  14.704  0.4622 -0.5697 -0.3168
  440MPD2    C2 6609   2.908   2.324  14.791  0.5038  0.2032  0.4117
  440MPD2    C3 6610   2.917   2.190  14.793 -0.3201 -0.1141  0.5279
  440MPD2    C4 6611   2.834   2.117  14.710  0.0931 -0.7857 -0.5158
  440MPD2    C5 6612   2.744   2.185  14.640 -0.4538  0.2441 -0.1371
  440MPD2     H 6613   2.975   2.379  14.856  0.0424  0.8121  0.3692
  440MPD2    H1 6614   2.833   2.008  14.711  1.2906 -0.8032 -0.7582
  440MPD2    H2 6615   2.652   2.382  14.592  0.0121  2.1382  2.3629
  440MPD2    H3 6616   2.674   2.125  14.583 -0.5673  1.2234 -1.0369
  440MPD2     N 6617   3.006   2.118  14.869  0.3319 -0.0696  0.1258
  440MPD2    H5 6618   2.999   2.018  14.877 -1.4674 -0.0684 -1.6107
  440MPD2    N1 6619   2.825   2.531  14.710 -0.4252 -0.1661 -0.1250
  440MPD2    H7 6620   2.884   2.576  14.780  1.0770  2.0864 -2.8089
  441TMC3    C1 6621   3.173   2.099  15.035  0.0165  0.6787  0.8120
  441TMC3    C2 6622   3.289   2.161  15.078  1.0194  0.6050  0.6207
  441TMC3    C3 6623   3.343   2.148  15.206  0.2294  0.3266  0.2423
  441TMC3    C4 6624   3.104   2.022  15.125 -0.6931  0.0619 -0.1581
  441TMC3    C5 6625   3.159   1.998  15.240 -0.9572 -0.4226 -0.4327
  441TMC3    C6 6626   3.283   2.053  15.289  0.1547  0.0766  0.0749
  441TMC3     C 6627   3.116   2.175  14.935  0.3326 -0.0016 -0.4622
  441TMC3     O 6628   3.153   2.294  14.948  0.3587  0.2847  0.1942
  441TMC3     H 6629   3.352   2.222  15.014 -1.0626  2.6872  0.5899
  441TMC3    H1 6630   2.999   2.002  15.111 -0.2695 -1.2841 -1.3836
  441TMC3    H2 6631   3.324   2.037  15.387  3.2495  2.3424 -0.8614
  441TMC3    C7 6632   3.068   1.967  15.347 -0.5464  0.2125 -0.6665
  441TMC3    C8 6633   3.378   2.265  15.276  0.6757  0.5050  0.1858
  441TMC3    O1 6634   2.981   2.050  15.362 -0.9145  0.0515 -0.1301
  441TMC3    O2 6635   3.431   2.244  15.385 -0.4699  0.5638  0.1688
  442MPD2     C 6636   1.168   2.782  16.680 -0.8999 -0.5031 -0.4335
  442MPD2    C1 6637   1.042   2.728  16.700 -0.2654 -0.1672  0.2112
  442MPD2    C2 6638   0.992   2.643  16.604  0.6223 -0.5361 -0.1450
  442MPD2    C3 6639   1.049   2.634  16.478  0.9236  0.1587  0.1231
  442MPD2    C4 6640   1.164   2.706  16.450  0.3404 -0.4711 -0.1287
  442MPD2    C5 6641   1.223   2.766  16.554 -0.0519  0.0484 -0.0169
  442MPD2     H 6642   0.896   2.594  16.617  1.3636 -2.6329 -2.5993
  442MPD2    H1 6643   1.211   2.714  16.353  0.2873  0.6222 -0.0596
  442MPD2    H2 6644   1.219   2.845  16.752 -0.6315  3.7751 -4.4168
  442MPD2    H3 6645   1.322   2.808  16.538  0.7160 -0.6470  2.9458
  442MPD2     N 6646   0.998   2.554  16.371  0.1859  0.4980  0.3396
  442MPD2    H5 6647   1.058   2.540  16.290 -1.1964 -1.5367 -0.3101
  442MPD2    N1 6648   0.974   2.755  16.818  0.4311 -0.7199 -0.3834
  442MPD2    H7 6649   0.888   2.703  16.831  1.1439 -1.5857  0.8236
  443TMC3    C1 6650   0.874   2.876  16.985  0.3037  0.6311 -0.1556
  443TMC3    C2 6651   0.804   2.993  16.970  0.3458 -0.1193 -0.5135
  443TMC3    C3 6652   0.680   3.008  17.031  0.1038  0.0156  0.2394
  443TMC3    C4 6653   0.821   2.764  17.055  0.3208  0.5724  0.1897
  443TMC3    C5 6654   0.707   2.795  17.125 -0.4625 -0.2821 -0.2171
  443TMC3    C6 6655   0.632   2.909  17.117  0.4048  0.5254 -0.0511
  443TMC3     C 6656   0.991   2.865  16.897 -0.0087  0.1615 -0.3916
  443TMC3     O 6657   1.053   2.969  16.878  0.1001  0.1722  0.0440
  443TMC3     H 6658   0.851   3.084  16.935  1.7501 -0.1074  1.4084
  443TMC3    H1 6659   0.885   2.678  17.075  0.4712  0.0140 -2.6580
  443TMC3    H2 6660   0.537   2.924  17.168  1.3633 -0.7081  2.1009
  443TMC3    C7 6661   0.650   2.679  17.188 -0.2262 -1.3700 -0.0074
  443TMC3    C8 6662   0.602   3.125  17.018  0.4545 -0.1055 -0.2735
  443TMC3    O1 6663   0.689   2.566  17.152  0.2703 -0.4020 -0.1430
  443TMC3    O2 6664   0.527   3.145  17.111 -0.4344  0.0419  0.6194
  444MPD2     C 6665   1.148   2.594  17.145  0.2711  0.4653 -0.1052
  444MPD2    C1 6666   1.104   2.464  17.120  0.7758 -0.9883  0.8474
  444MPD2    C2 6667   1.166   2.389  17.018  0.4976 -0.2104 -0.2480
  444MPD2    C3 6668   1.266   2.454  16.947  0.0351 -0.1632 -0.3237
  444MPD2    C4 6669   1.306   2.585  16.966  0.1515  0.6824 -0.0336
  444MPD2    C5 6670   1.247   2.652  17.068 -0.4634  0.0601  0.0103
  444MPD2     H 6671   1.145   2.283  17.007  1.7719 -0.4352 -0.5516
  444MPD2    H1 6672   1.395   2.622  16.917 -0.0481  1.7627  0.4142
  444MPD2    H2 6673   1.113   2.657  17.226  2.7197 -0.4307  1.6488
  444MPD2    H3 6674   1.276   2.753  17.092  1.2207 -0.5123  0.4142
  444MPD2     N 6675   1.310   2.384  16.829  0.1473 -0.2258  0.3879
  444MPD2    H5 6676   1.242   2.329  16.776 -1.1638 -0.1753  1.9988
  444MPD2    N1 6677   1.000   2.404  17.196  0.3888  0.1139  0.0997
  444MPD2    H7 6678   0.973   2.312  17.163  2.0020 -0.5131  0.5280
  445TMC3    C1 6679   1.454   2.354  16.644  0.5357 -0.2303  0.0699
  445TMC3    C2 6680   1.348   2.330  16.565  0.2907 -0.3976 -0.6768
  445TMC3    C3 6681   1.366   2.236  16.465 -0.3726  0.1160 -0.3223
  445TMC3    C4 6682   1.580   2.297  16.623  0.4523 -0.1155 -0.4764
  445TMC3    C5 6683   1.598   2.220  16.514  1.4850  0.9552  0.2337
  445TMC3    C6 6684   1.490   2.175  16.440 -0.1640 -0.2301  0.2809
  445TMC3     C 6685   1.437   2.412  16.774 -0.0262 -0.0702 -0.2505
  445TMC3     O 6686   1.532   2.458  16.834  0.3329 -0.8639 -0.2736
  445TMC3     H 6687   1.252   2.374  16.589  0.0604 -1.5593  0.5222
  445TMC3    H1 6688   1.662   2.329  16.686 -0.2338 -0.7869  0.7614
  445TMC3    H2 6689   1.514   2.102  16.364  0.1095 -0.7195  0.8496
  445TMC3    C7 6690   1.724   2.148  16.499  0.9101  0.3794 -0.2826
  445TMC3    C8 6691   1.248   2.161  16.419  0.6342 -0.3849  0.4726
  445TMC3    O1 6692   1.743   2.081  16.400  0.0234 -0.8993 -0.0026
  445TMC3    O2 6693   1.140   2.207  16.445  0.1017 -0.0921  0.1947
  446MPD2     C 6694   1.059   3.172  11.488  0.6159  0.4473 -0.1139
  446MPD2    C1 6695   1.053   3.209  11.360 -0.0862  0.2560 -0.1384
  446MPD2    C2 6696   1.151   3.294  11.308  0.2841 -0.4403 -0.3702
  446MPD2    C3 6697   1.254   3.341  11.374 -0.7380 -0.6578 -0.6067
  446MPD2    C4 6698   1.261   3.307  11.506 -0.0602 -0.3540  0.7321
  446MPD2    C5 6699   1.175   3.210  11.557  0.7326  0.1241 -0.1108
  446MPD2     H 6700   1.155   3.311  11.201 -1.2770  2.7167  0.0581
  446MPD2    H1 6701   1.344   3.335  11.571 -2.3863  2.6004  2.4718
  446MPD2    H2 6702   0.989   3.110  11.541  1.9524 -0.3841  0.6885
  446MPD2    H3 6703   1.192   3.158  11.651  1.9103 -1.1701 -1.0251
  446MPD2     N 6704   1.363   3.385  11.302  0.5139  0.0220  0.1856
  446MPD2    H5 6705   1.339   3.409  11.206 -1.4556 -3.8137 -0.2576
  446MPD2    N1 6706   0.938   3.169  11.283 -0.3259  0.8135 -1.0277
  446MPD2    H7 6707   0.930   3.223  11.197 -1.8324  0.1726 -1.2876
  447TMC3    C1 6708   1.578   3.381  11.217  0.3619 -0.5738  0.4515
  447TMC3    C2 6709   1.530   3.419  11.097 -0.4411 -0.1680 -0.0833
  447TMC3    C3 6710   1.602   3.390  10.985 -0.3133  0.0513  0.6222
  447TMC3    C4 6711   1.702   3.319  11.234 -0.0334  0.2841  0.0704
  447TMC3    C5 6712   1.778   3.297  11.118 -0.5073  0.2563 -0.2148
  447TMC3    C6 6713   1.724   3.335  10.992  0.1721  0.8713  0.1796
  447TMC3     C 6714   1.491   3.376  11.336  0.0109  0.3288 -0.2449
  447TMC3     O 6715   1.541   3.357  11.448 -0.8060  0.1279 -0.0390
  447TMC3     H 6716   1.427   3.450  11.085 -0.5783 -1.0387 -1.1552
  447TMC3    H1 6717   1.741   3.290  11.330 -1.4363  2.9364  1.4244
  447TMC3    H2 6718   1.761   3.289  10.900 -0.1387 -0.8234  0.9031
  447TMC3    C7 6719   1.865   3.181  11.103  0.3175  0.0696 -0.4246
  447TMC3    C8 6720   1.523   3.330  10.869  0.2777  0.2881 -0.4499
  447TMC3    O1 6721   1.945   3.185  11.010  0.0226  0.4214  0.4180
  447TMC3    O2 6722   1.434   3.399  10.816 -0.5177 -0.0823 -0.0415
  448TMC3    C1 6723   4.000   3.771  17.641  0.5405 -0.0840  0.1843
  448TMC3    C2 6724   3.990   3.695  17.528 -0.0552 -1.1143 -0.1375
  448TMC3    C3 6725   4.101   3.625  17.485  0.0531  0.0750 -0.3972
  448TMC3    C4 6726   4.107   3.764  17.717 -0.5420  0.5110 -0.0090
  448TMC3    C5 6727   4.206   3.688  17.680  0.4814  0.5712 -0.0975
  448TMC3    C6 6728   4.208   3.624  17.563  0.1007  0.2085 -0.1137
  448TMC3     C 6729   3.892   3.852  17.688 -0.4214 -0.4932  0.0908
  448TMC3     O 6730   3.904   3.900   0.059 -0.2284 -0.0717 -0.1113
  448TMC3     H 6731   3.889   3.678  17.492 -0.0879 -0.1479 -0.4999
  448TMC3    H1 6732   4.114   3.821   0.066 -1.0057 -1.5256  1.3027
  448TMC3    H2 6733   4.291   3.558  17.540  1.0112  1.0222  0.8384
  448TMC3    C7 6734   4.305   3.633   0.028 -0.2284  0.5957  0.6587
  448TMC3    C8 6735   4.091   3.530  17.374  0.5917 -0.1962 -0.0798
  448TMC3    O1 6736   4.419   3.610  17.725 -0.1003  0.1823 -0.2855
  448TMC3    O2 6737   4.165   3.431  17.383 -0.1018  0.3362 -0.2047
  449MPD2     C 6738   1.179   1.514  13.897  0.1018  0.3814 -0.3287
  449MPD2    C1 6739   1.094   1.623  13.884 -0.1907 -0.2315 -1.1143
  449MPD2    C2 6740   0.962   1.599  13.870 -0.0918  0.6774  0.1212
  449MPD2    C3 6741   0.907   1.477  13.889  0.5011 -0.3159 -0.3656
  449MPD2    C4 6742   0.991   1.368  13.915 -0.7207 -0.1363 -0.6342
  449MPD2    C5 6743   1.123   1.393  13.917  0.1560  1.3520  0.0089
  449MPD2     H 6744   0.896   1.684  13.856 -1.0450 -0.1156 -0.1925
  449MPD2    H1 6745   0.969   1.264  13.935 -0.2985  0.4160  2.7130
  449MPD2    H2 6746   1.286   1.524  13.911  0.5709 -1.3881 -2.5807
  449MPD2    H3 6747   1.184   1.306  13.938  0.4444  1.5600  0.0360
  449MPD2     N 6748   0.767   1.472  13.885 -0.6696 -0.2564  0.0048
  449MPD2    H5 6749   0.719   1.553  13.846  0.6861  0.4800 -0.1406
  449MPD2    N1 6750   1.132   1.758  13.877 -0.1196  0.1219  0.1997
  449MPD2    H7 6751   1.062   1.830  13.894  0.4855 -0.0017  3.2647
  450TMC3    C1 6752   1.249   1.951  13.859  0.2255 -0.7525 -0.4773
  450TMC3    C2 6753   1.281   1.996  13.735  1.2009  0.6444  0.5078
  450TMC3    C3 6754   1.191   2.086  13.687 -0.0203  0.0643  0.2170
  450TMC3    C4 6755   1.143   1.995  13.923 -0.1389  0.2634 -0.0926
  450TMC3    C5 6756   1.063   2.091  13.876  0.3491  0.2939 -0.5417
  450TMC3    C6 6757   1.083   2.135  13.749 -0.1749 -0.3257  0.4147
  450TMC3     C 6758   1.254   1.807  13.859  0.3837  0.1117 -0.4970
  450TMC3     O 6759   1.352   1.745  13.824  0.2046 -0.3102  0.2261
  450TMC3     H 6760   1.353   1.956  13.664 -1.2818 -1.0260 -1.0714
  450TMC3    H1 6761   1.122   1.965  14.025  2.3745 -0.5478  0.2043
  450TMC3    H2 6762   1.010   2.200  13.703 -0.9318 -0.8208  0.9172
  450TMC3    C7 6763   0.920   2.059  13.890  0.6506 -0.3889 -0.7952
  450TMC3    C8 6764   1.220   2.137  13.555  0.5817 -0.1857 -0.3250
  450TMC3    O1 6765   0.905   1.951  13.949 -0.2042 -0.0008  0.9374
  450TMC3    O2 6766   1.196   2.258  13.537  0.7582  0.0055 -0.1103
  451MPD2     C 6767   2.127   0.828   0.632  0.1754  0.7780  0.2561
  451MPD2    C1 6768   2.054   0.715   0.672 -0.7869  0.5423 -0.6667
  451MPD2    C2 6769   2.106   0.587   0.654 -0.6130  0.5707  0.7085
  451MPD2    C3 6770   2.230   0.579   0.594 -0.1512  0.5331 -0.7166
  451MPD2    C4 6771   2.298   0.692   0.554 -0.0700  0.0160 -1.1202
  451MPD2    C5 6772   2.241   0.815   0.565  0.0165  0.0218 -0.6710
  451MPD2     H 6773   2.049   0.497   0.673 -2.9214  2.0352  0.6620
  451MPD2    H1 6774   2.395   0.680   0.507 -0.3771 -1.8929 -1.2524
  451MPD2    H2 6775   2.081   0.926   0.638  1.5877  1.3580  1.5075
  451MPD2    H3 6776   2.303   0.898   0.533 -0.3898 -0.0779 -1.7028
  451MPD2     N 6777   2.310   0.467   0.569 -0.0355 -0.1286  0.1384
  451MPD2    H5 6778   2.399   0.477   0.521 -1.3747  0.4990 -2.1883
  451MPD2    N1 6779   1.923   0.720   0.727 -0.2527 -0.0160  0.3418
  451MPD2    H7 6780   1.870   0.805   0.741  1.1609  0.3737  3.5854
  452TMC3    C1 6781   2.372   0.251   0.520 -0.1413 -0.2227 -0.5022
  452TMC3    C2 6782   2.343   0.117   0.531  0.3830 -0.1922  0.2703
  452TMC3    C3 6783   2.376   0.029   0.429 -0.3436 -0.6093 -0.6474
  452TMC3    C4 6784   2.436   0.297   0.403 -0.2139 -0.5110 -0.1078
  452TMC3    C5 6785   2.483   0.200   0.314  0.2151  0.2220  0.7397
  452TMC3    C6 6786   2.444   0.068   0.323  0.4418 -0.1129 -0.0169
  452TMC3     C 6787   2.270   0.337   0.582  0.7296 -0.8463 -0.4519
  452TMC3     O 6788   2.162   0.292   0.616  0.8500 -0.4280 -0.5151
  452TMC3     H 6789   2.288   0.086   0.619 -1.1303  3.0828  0.5026
  452TMC3    H1 6790   2.442   0.402   0.376 -1.9087 -0.1399  0.9506
  452TMC3    H2 6791   2.478   4.727   0.254 -1.1475  0.2119 -1.1754
  452TMC3    C7 6792   2.489   0.243   0.179  0.9972 -0.0177 -0.1006
  452TMC3    C8 6793   2.289   4.655   0.414 -0.3485 -0.1965  0.3590
  452TMC3    O1 6794   2.559   0.342   0.162  0.4022 -0.1096 -0.0115
  452TMC3    O2 6795   2.235   4.654   0.304  0.2614 -0.3337  0.3193
  453TMC3    C1 6796   3.242   1.903  12.124 -0.0804 -0.0266  0.1351
  453TMC3    C2 6797   3.206   1.768  12.113  1.0198  0.2635  0.5901
  453TMC3    C3 6798   3.112   1.736  12.024  0.2028 -0.0355  0.3294
  453TMC3    C4 6799   3.193   2.001  12.048 -0.3529 -0.2316  0.3112
  453TMC3    C5 6800   3.103   1.961  11.958 -0.5382 -0.6824  0.1731
  453TMC3    C6 6801   3.052   1.832  11.947  0.4044  0.0451  0.0264
  453TMC3     C 6802   3.357   1.946  12.199 -0.4051 -1.1554 -0.0241
  453TMC3     O 6803   3.369   2.067  12.211  0.2143 -0.3519 -0.1532
  453TMC3     H 6804   3.244   1.699  12.188 -0.0876 -1.0421 -0.0622
  453TMC3    H1 6805   3.230   2.103  12.050 -3.7213  1.0172 -1.2366
  453TMC3    H2 6806   2.987   1.809  11.864 -2.0197 -1.7675  2.4312
  453TMC3    C7 6807   3.127   2.028  11.830 -0.1704 -0.5143  0.1165
  453TMC3    C8 6808   3.053   1.606  12.022 -0.6424  0.2704  0.2098
  453TMC3    O1 6809   3.141   2.151  11.840 -0.2946  0.1860  0.0325
  453TMC3    O2 6810   2.933   1.599  11.991  0.0663  0.0642 -0.5364
  454MPD2     C 6811   2.063   2.162  15.992 -0.1719 -0.6968 -0.6631
  454MPD2    C1 6812   1.970   2.218  15.898 -0.1641  0.7529  0.4801
  454MPD2    C2 6813   1.919   2.340  15.935 -0.6791  0.0159 -0.3380
  454MPD2    C3 6814   1.954   2.402  16.053  0.2368 -0.4322 -0.6552
  454MPD2    C4 6815   2.051   2.344  16.137  0.3436 -0.1935 -0.0130
  454MPD2    C5 6816   2.093   2.222  16.109  0.1920 -0.2082  0.6977
  454MPD2     H 6817   1.845   2.385  15.870 -2.1598 -2.3589 -0.2907
  454MPD2    H1 6818   2.082   2.392  16.229 -0.2424  1.7748 -0.8416
  454MPD2    H2 6819   2.105   2.063  15.978 -2.9785 -2.1805  1.3610
  454MPD2    H3 6820   2.172   2.177  16.169  2.4717  2.4885 -0.2738
  454MPD2     N 6821   1.887   2.515  16.101  1.2491  0.0986  0.0168
  454MPD2    H5 6822   1.913   2.549  16.193  0.2830 -2.4235  1.2194
  454MPD2    N1 6823   1.899   2.155  15.789  0.1993 -0.7010 -0.1225
  454MPD2    H7 6824   1.821   2.210  15.755  0.8206  0.2038 -0.0716
  455TMC3    C1 6825   1.696   2.655  16.133  0.1215  0.5396  0.7821
  455TMC3    C2 6826   1.730   2.671  16.264  0.3084 -0.0387  0.0072
  455TMC3    C3 6827   1.628   2.647  16.352 -0.8877 -1.3085 -0.1230
  455TMC3    C4 6828   1.570   2.616  16.094  0.2942 -0.0824 -0.6281
  455TMC3    C5 6829   1.475   2.576  16.184 -0.2197  0.2488  0.3532
  455TMC3    C6 6830   1.502   2.597  16.318  0.6340  0.2709 -0.3593
  455TMC3     C 6831   1.794   2.601  16.035  0.1352 -0.5175 -0.4898
  455TMC3     O 6832   1.760   2.581  15.921  0.3057 -0.0239  0.0634
  455TMC3     H 6833   1.828   2.706  16.294 -0.1369  1.5675 -0.4198
  455TMC3    H1 6834   1.561   2.594  15.989 -0.2402 -2.8322 -0.0118
  455TMC3    H2 6835   1.433   2.568  16.397  0.3361 -0.8961 -1.0544
  455TMC3    C7 6836   1.422   2.447  16.154  0.2111  0.4481  0.4520
  455TMC3    C8 6837   1.658   2.641  16.491  0.8022  0.5259  0.1600
  455TMC3    O1 6838   1.321   2.407  16.214 -0.1117 -0.8309  0.2574
  455TMC3    O2 6839   1.570   2.677  16.567 -0.5877  0.5739  0.4231
  456MPD2     C 6840   3.960   2.505  16.267  0.6579 -0.3089  0.3719
  456MPD2    C1 6841   4.078   2.471  16.329  0.5001  0.4280 -0.3308
  456MPD2    C2 6842   4.106   2.527  16.455 -0.6859  0.2876 -0.0583
  456MPD2    C3 6843   4.014   2.613  16.517  1.3453 -1.1739 -0.1029
  456MPD2    C4 6844   3.891   2.648  16.451 -0.2049 -0.2231  0.7819
  456MPD2    C5 6845   3.869   2.593  16.327 -0.2385 -0.7423  0.2366
  456MPD2     H 6846   4.202   2.510  16.502 -1.2021  2.0696  1.6418
  456MPD2    H1 6847   3.810   2.707  16.492 -1.3390 -1.2957  0.1029
  456MPD2    H2 6848   3.949   2.467  16.166 -0.3926  0.3398  0.2491
  456MPD2    H3 6849   3.782   2.617  16.268  1.0493  2.6853 -0.2461
  456MPD2     N 6850   4.054   2.669  16.646  0.1694 -0.2314  0.0671
  456MPD2    H5 6851   4.139   2.629  16.686  1.0069  1.5031  0.0357
  456MPD2    N1 6852   4.165   2.393  16.249 -0.1703  0.0279 -0.0300
  456MPD2    H7 6853   4.134   2.369  16.156  0.9945  0.3231 -0.4910
  457TMC3    C1 6854   4.041   2.798  16.840  0.7344  0.7679  0.3553
  457TMC3    C2 6855   4.051   2.929  16.873  0.5000  0.3037  0.1793
  457TMC3    C3 6856   4.105   2.958  16.997  0.2346 -0.1017  0.0177
  457TMC3    C4 6857   4.093   2.693  16.913 -0.3255  0.1977 -0.2544
  457TMC3    C5 6858   4.142   2.728  17.029  0.6246  0.1124 -0.2691
  457TMC3    C6 6859   4.155   2.852  17.077  0.4016  0.2523  0.0904
  457TMC3     C 6860   3.996   2.773  16.706 -0.0376  0.6683 -0.0017
  457TMC3     O 6861   3.919   2.847  16.649  0.0063  0.0185  0.3988
  457TMC3     H 6862   3.999   2.997  16.806  0.5025  0.3842  0.2594
  457TMC3    H1 6863   4.095   2.590  16.879  2.1406 -0.8426  3.0688
  457TMC3    H2 6864   4.199   2.870  17.174 -2.3923  0.4407  1.3385
  457TMC3    C7 6865   4.205   2.620  17.098  0.1134 -0.0425 -0.5205
  457TMC3    C8 6866   4.096   3.091  17.056  0.0484  0.5688 -0.0781
  457TMC3    O1 6867   4.200   2.634  17.222 -0.4079  0.2801  0.5309
  457TMC3    O2 6868   4.141   3.103  17.172 -0.0119 -0.1290 -1.2604
  458MPD2     C 6869   2.020   1.690  12.345  0.0484 -0.3484 -0.0750
  458MPD2    C1 6870   2.038   1.549  12.348 -0.5027 -0.4107 -0.0358
  458MPD2    C2 6871   2.010   1.484  12.233 -0.4403 -0.5338  0.0889
  458MPD2    C3 6872   1.973   1.546  12.115 -0.3724 -0.0315  0.5779
  458MPD2    C4 6873   1.950   1.684  12.116  0.4930 -0.2008  0.4285
  458MPD2    C5 6874   1.985   1.755  12.226  0.5195 -0.3337 -0.5212
  458MPD2     H 6875   2.029   1.377  12.227  2.1697 -0.0270 -0.6993
  458MPD2    H1 6876   1.914   1.749  12.038 -2.9720  0.2592  2.3593
  458MPD2    H2 6877   2.053   1.756  12.425 -0.0372  1.0673 -1.1897
  458MPD2    H3 6878   1.969   1.862  12.224 -2.2635 -0.7744 -1.3374
  458MPD2     N 6879   1.957   1.465  12.002 -0.8317 -0.2506 -0.4620
  458MPD2    H5 6880   1.987   1.368  12.002  0.2360  0.0907  0.9543
  458MPD2    N1 6881   2.076   1.485  12.467  0.0726  0.0097  0.5426
  458MPD2    H7 6882   2.090   1.552  12.542  0.9930  0.6920 -0.2401
  459TMC3    C1 6883   2.161   1.330  12.619  0.6391 -0.7007  0.3494
  459TMC3    C2 6884   2.236   1.421  12.685  1.0511  0.4456 -0.0332
  459TMC3    C3 6885   2.275   1.389  12.816 -0.4470 -0.7727  0.1343
  459TMC3    C4 6886   2.119   1.214  12.676 -0.5689 -0.5646 -0.2846
  459TMC3    C5 6887   2.168   1.181  12.802 -0.3724  0.2141 -0.0363
  459TMC3    C6 6888   2.242   1.270  12.873  0.4022  0.3679  0.3519
  459TMC3     C 6889   2.106   1.354  12.489  0.1217  0.6704  0.1329
  459TMC3     O 6890   2.107   1.261  12.407  0.0379  0.2247 -0.1540
  459TMC3     H 6891   2.280   1.505  12.632 -1.3878  1.7752 -0.0037
  459TMC3    H1 6892   2.058   1.145  12.619  0.2927 -0.0815 -1.8049
  459TMC3    H2 6893   2.264   1.243  12.976 -1.0931 -1.5125  0.1748
  459TMC3    C7 6894   2.159   1.046  12.848  0.1613 -0.5337  0.1126
  459TMC3    C8 6895   2.399   1.459  12.867 -0.4660 -0.8816 -0.5492
  459TMC3    O1 6896   2.215   1.028  12.952 -0.1753  0.5110 -0.6855
  459TMC3    O2 6897   2.465   1.525  12.788  0.3143  0.3026 -0.1479
  460MPD2     C 6898   1.551   2.989  10.735  0.2847 -0.3798  0.2701
  460MPD2    C1 6899   1.486   3.110  10.745  0.1382  0.5359  0.4389
  460MPD2    C2 6900   1.399   3.146  10.640  0.2137  0.0646  0.5711
  460MPD2    C3 6901   1.384   3.064  10.529  0.4440  0.3014 -0.5645
  460MPD2    C4 6902   1.453   2.947  10.518 -0.5413 -0.6496  0.0027
  460MPD2    C5 6903   1.540   2.913  10.616 -0.5886 -0.0365  0.7946
  460MPD2     H 6904   1.338   3.235  10.641 -0.2619 -0.2430 -0.6514
  460MPD2    H1 6905   1.458   2.883  10.431 -4.8847 -2.1369  0.9021
  460MPD2    H2 6906   1.626   2.958  10.806 -1.3368 -2.1007  1.2211
  460MPD2    H3 6907   1.584   2.816  10.595 -1.9965 -0.1221 -1.8498
  460MPD2     N 6908   1.290   3.099  10.427 -0.3755  0.8955 -0.3192
  460MPD2    H5 6909   1.235   3.179  10.455  1.6365  1.1114  3.0118
  460MPD2    N1 6910   1.545   3.197  10.846 -0.3519 -0.2527  0.2410
  460MPD2    H7 6911   1.625   3.157  10.894  0.2858 -0.7797 -1.2616
  461TMC3    C1 6912   1.179   3.102  10.230  0.0692  0.4299 -0.1864
  461TMC3    C2 6913   1.115   3.032  10.132  0.2831 -0.1345 -0.7632
  461TMC3    C3 6914   1.039   3.099  10.050 -0.1228 -0.1665 -0.4458
  461TMC3    C4 6915   1.172   3.236  10.248  0.1104  0.6243 -0.8121
  461TMC3    C5 6916   1.084   3.295  10.161  0.3649  0.1757 -0.2155
  461TMC3    C6 6917   1.015   3.230  10.067 -1.3781  0.0100 -0.3417
  461TMC3     C 6918   1.271   3.035  10.307  0.5953  0.2852  0.1576
  461TMC3     O 6919   1.326   2.936  10.263 -0.0163  0.3158 -0.4393
  461TMC3     H 6920   1.149   2.931  10.115  0.2309  0.0135 -1.7559
  461TMC3    H1 6921   1.231   3.299  10.313  1.3140 -0.5655 -0.7633
  461TMC3    H2 6922   0.950   3.288  10.003 -2.2174 -1.1162 -0.5035
  461TMC3    C7 6923   1.116   3.424  10.114  0.4609  0.3487  0.3658
  461TMC3    C8 6924   1.060   3.075   9.909  0.5935 -0.1245 -1.0205
  461TMC3    O1 6925   1.023   3.490  10.072  0.4246  0.2468  0.2129
  461TMC3    O2 6926   1.104   3.171   9.846  0.0432  0.5083  0.1027
  462TMC3    C1 6927   1.483   0.420  17.680  0.8317  0.2334  0.1379
  462TMC3    C2 6928   1.436   0.352  17.568 -0.4919  0.3939  0.5814
  462TMC3    C3 6929   1.304   0.315  17.559 -0.3046 -0.2812 -0.1988
  462TMC3    C4 6930   1.409   0.433   0.051 -0.1535  0.6034 -0.1961
  462TMC3    C5 6931   1.281   0.392   0.037  0.0248 -0.2423 -0.2890
  462TMC3    C6 6932   1.228   0.342  17.664  0.2833  0.7877 -0.0576
  462TMC3     C 6933   1.596   0.509  17.662 -0.4496  0.0602  0.2337
  462TMC3     O 6934   1.616   0.550  17.547  0.1078 -0.4148  0.2838
  462TMC3     H 6935   1.503   0.334  17.485 -1.5966  0.8673 -0.4127
  462TMC3    H1 6936   1.446   0.489   0.136 -0.8053  2.0598 -0.8688
  462TMC3    H2 6937   1.140   0.278  17.665  0.3225  0.7451  0.6287
  462TMC3    C7 6938   1.220   0.322   0.155  0.2110  1.0107  0.1070
  462TMC3    C8 6939   1.255   0.211  17.462  0.2831 -0.2800 -0.6988
  462TMC3    O1 6940   1.300   0.288   0.243  1.2851  0.5375 -0.2806
  462TMC3    O2 6941   1.143   0.225  17.417 -0.0808 -0.3781  0.4147
  463MPD2     C 6942   3.124   3.076   1.735 -0.3354  0.1130  0.7739
  463MPD2    C1 6943   3.154   3.067   1.597 -0.6908  0.3838  0.0113
  463MPD2    C2 6944   3.279   3.030   1.563  0.7871  0.0689  0.0182
  463MPD2    C3 6945   3.379   3.020   1.657 -0.4450  0.0918 -0.3892
  463MPD2    C4 6946   3.352   3.027   1.786 -0.6280 -0.4391 -0.7982
  463MPD2    C5 6947   3.223   3.051   1.826  0.2777  0.4967  0.7434
  463MPD2     H 6948   3.295   3.000   1.460  0.5855  0.7163 -0.1998
  463MPD2    H1 6949   3.418   3.002   1.869 -1.3563  0.0152 -0.0742
  463MPD2    H2 6950   3.025   3.087   1.778 -0.0877 -0.1903  1.4098
  463MPD2    H3 6951   3.197   3.020   1.927  2.1283  0.8982  1.3419
  463MPD2     N 6952   3.508   2.968   1.627 -0.0290 -0.4461  0.2795
  463MPD2    H5 6953   3.562   2.938   1.707 -1.2976 -2.6594  0.3125
  463MPD2    N1 6954   3.054   3.088   1.497 -0.5030 -0.2205 -0.7800
  463MPD2    H7 6955   3.074   3.065   1.400  1.0959  1.8548 -0.9573
  464TMC3    C1 6956   2.840   3.114   1.406  0.0838 -0.4782  0.3032
  464TMC3    C2 6957   2.747   3.211   1.386 -0.8315 -0.4600  0.9713
  464TMC3    C3 6958   2.642   3.192   1.305  0.2875  0.1707 -0.0478
  464TMC3    C4 6959   2.843   2.995   1.342 -0.4056 -0.8240  0.6122
  464TMC3    C5 6960   2.732   2.976   1.264 -0.0821 -0.0816  0.0856
  464TMC3    C6 6961   2.628   3.066   1.248 -0.1812 -0.3293  1.0711
  464TMC3     C 6962   2.923   3.133   1.518 -0.1303  0.0357  0.1104
  464TMC3     O 6963   2.873   3.199   1.610 -0.0187 -0.3377  0.0647
  464TMC3     H 6964   2.764   3.302   1.442 -0.8404 -0.8217  1.5707
  464TMC3    H1 6965   2.911   2.919   1.380 -0.9348 -0.3083  2.5674
  464TMC3    H2 6966   2.546   3.040   1.182  0.6140 -1.9112  0.6951
  464TMC3    C7 6967   2.734   2.853   1.185 -0.0642 -0.4497 -0.3686
  464TMC3    C8 6968   2.536   3.291   1.289  0.0908  0.1291 -0.5624
  464TMC3    O1 6969   2.846   2.803   1.166  0.1360 -0.2383 -0.1261
  464TMC3    O2 6970   2.439   3.248   1.231  0.2035  0.1726 -0.4263
  465MPD2     C 6971   3.581   2.850  16.626  0.0861  0.8092  0.1372
  465MPD2    C1 6972   3.552   2.783  16.747 -0.5275 -0.5204 -0.2415
  465MPD2    C2 6973   3.469   2.674  16.739 -0.3015  0.3764 -0.2899
  465MPD2    C3 6974   3.404   2.648  16.619  0.7222  0.0753  0.2076
  465MPD2    C4 6975   3.443   2.709  16.502  0.6989 -0.2095 -0.4316
  465MPD2    C5 6976   3.546   2.799  16.504 -0.4386 -0.3829 -0.4620
  465MPD2     H 6977   3.454   2.614  16.828 -1.4052  0.1444 -0.6368
  465MPD2    H1 6978   3.414   2.665  16.407 -0.1901 -1.9732  0.6554
  465MPD2    H2 6979   3.665   2.918  16.632  2.3351 -1.7668 -2.0419
  465MPD2    H3 6980   3.592   2.834  16.412 -1.7741  1.5244 -0.4086
  465MPD2     N 6981   3.303   2.553  16.627  0.1535  0.1373 -0.3700
  465MPD2    H5 6982   3.293   2.497  16.712  2.2353  0.0585 -0.1694
  465MPD2    N1 6983   3.610   2.822  16.871  0.5787 -0.1444  0.2648
  465MPD2    H7 6984   3.576   2.762  16.946 -0.5335 -0.0860 -0.1800
  466TMC3    C1 6985   2.984   2.336  16.746  0.0355  0.1329 -0.6824
  466TMC3    C2 6986   2.861   2.374  16.701  0.1332 -0.4372  0.2674
  466TMC3    C3 6987   2.857   2.437  16.576  0.4948 -0.0448  0.2903
  466TMC3    C4 6988   3.106   2.375  16.686 -0.2244  0.1710  0.0571
  466TMC3    C5 6989   3.086   2.462  16.577  0.0885 -0.3766  0.2686
  466TMC3    C6 6990   2.967   2.487  16.519 -0.1723  0.5184  0.6131
  466TMC3     C 6991   2.997   2.310  16.890  0.3035  0.2081 -0.4504
  466TMC3     O 6992   3.110   2.306  16.936 -0.4234 -0.1998 -0.0467
  466TMC3     H 6993   2.772   2.326  16.741 -0.3404 -0.1592 -0.4504
  466TMC3    H1 6994   3.201   2.349  16.732 -0.4843 -1.4992 -0.3271
  466TMC3    H2 6995   2.962   2.562  16.441 -3.8074 -0.1363  0.2249
  466TMC3    C7 6996   3.204   2.543  16.527  0.3642  0.6487 -0.4704
  466TMC3    C8 6997   2.742   2.522  16.550 -0.1943 -0.0624 -0.9557
  466TMC3    O1 6998   3.205   2.590  16.412 -0.5242 -0.4657  0.1864
  466TMC3    O2 6999   2.719   2.533  16.430  0.1437  0.2639  0.1641
  467TMC3    C1 7000   4.165   0.625  13.988 -0.4104 -0.1033  0.3127
  467TMC3    C2 7001   4.144   0.727  13.896  0.2720 -0.5019  0.0674
  467TMC3    C3 7002   4.049   0.703  13.807 -0.6724  0.5361  0.1740
  467TMC3    C4 7003   4.076   0.519  14.009 -0.6040 -0.0805 -0.2665
  467TMC3    C5 7004   3.963   0.521  13.927  0.2151 -0.2883 -0.0274
  467TMC3    C6 7005   3.955   0.600  13.816 -0.2350 -0.1331 -0.2425
  467TMC3     C 7006   4.306   0.594  14.007  1.0730  0.0368 -0.0732
  467TMC3     O 7007   4.382   0.681  14.039 -0.1637  0.7832  0.3423
  467TMC3     H 7008   4.228   0.792  13.872 -0.9234  0.8721 -0.4502
  467TMC3    H1 7009   4.102   0.431  14.067 -0.5925 -0.2996 -0.6026
  467TMC3    H2 7010   3.867   0.594  13.753  0.8701 -1.8144 -1.5911
  467TMC3    C7 7011   3.883   0.398  13.926  0.5271 -0.1230 -0.2181
  467TMC3    C8 7012   4.095   0.719  13.671 -0.1102 -0.4737 -0.3013
  467TMC3    O1 7013   3.939   0.290  13.961 -0.0446 -0.5278 -0.3960
  467TMC3    O2 7014   4.159   0.815  13.641 -0.4594 -0.5767  0.3507
  468MPD2     C 7015   3.186   3.455  10.818 -0.7039  1.0995  0.2364
  468MPD2    C1 7016   3.319   3.429  10.791 -0.3315  0.2175  0.0464
  468MPD2    C2 7017   3.343   3.303  10.748 -0.7214 -0.0651  0.0332
  468MPD2    C3 7018   3.245   3.211  10.730 -0.0329  0.7561 -0.1663
  468MPD2    C4 7019   3.113   3.241  10.757  0.1244  0.0955  0.4976
  468MPD2    C5 7020   3.082   3.367  10.797  0.5040  0.3876  0.7867
  468MPD2     H 7021   3.443   3.283  10.711  0.2646 -0.9402  3.1351
  468MPD2    H1 7022   3.032   3.170  10.747 -0.3653  0.8349 -0.7403
  468MPD2    H2 7023   3.163   3.553  10.858  0.2455  1.9239 -1.2480
  468MPD2    H3 7024   2.979   3.386  10.827  0.8477  2.0063  0.8989
  468MPD2     N 7025   3.270   3.074  10.699  0.0099 -0.3677  0.0242
  468MPD2    H5 7026   3.189   3.014  10.707  0.5743 -1.2078 -0.5483
  468MPD2    N1 7027   3.425   3.518  10.811 -0.1217 -0.2805  0.1983
  468MPD2    H7 7028   3.513   3.475  10.787 -0.3566 -0.0351 -1.1066
  469TMC3    C1 7029   3.545   3.688  10.920 -0.8656 -0.0824  0.3232
  469TMC3    C2 7030   3.641   3.599  10.952 -0.5553  0.1804  0.4794
  469TMC3    C3 7031   3.746   3.641  11.033 -0.0489  0.3288  0.1621
  469TMC3    C4 7032   3.539   3.813  10.970 -0.5100  0.2676  0.0406
  469TMC3    C5 7033   3.641   3.847  11.052 -0.2059  0.4262 -0.8225
  469TMC3    C6 7034   3.737   3.765  11.101  0.3340  0.1404  0.2229
  469TMC3     C 7035   3.421   3.642  10.873 -0.4411  0.3526  0.5990
  469TMC3     O 7036   3.325   3.727  10.864  0.1845 -0.4308  0.3317
  469TMC3     H 7037   3.659   3.503  10.905  0.2998  0.1128  0.9503
  469TMC3    H1 7038   3.474   3.889  10.930  0.4203  1.2292  0.3416
  469TMC3    H2 7039   3.829   3.803  11.142 -1.0235  2.9108  0.7050
  469TMC3    C7 7040   3.620   3.971  11.121 -0.1366 -0.4370  0.3350
  469TMC3    C8 7041   3.868   3.559  11.041  0.7818 -0.2400  0.5698
  469TMC3    O1 7042   3.596   4.066  11.047 -0.4627  0.2381 -0.2450
  469TMC3    O2 7043   3.877   3.465  10.965  0.0086 -0.0059  0.1306
  470TMC3    C1 7044   0.368   4.619   0.490  0.7485 -0.7521 -0.4709
  470TMC3    C2 7045   0.356   0.015   0.490  0.2427  0.1275 -0.1790
  470TMC3    C3 7046   0.461   0.089   0.541 -0.4890 -0.2316  0.1945
  470TMC3    C4 7047   0.485   4.555   0.537  0.4398 -0.3876  0.8025
  470TMC3    C5 7048   0.578   4.631   0.599 -0.2527 -0.4326 -1.0805
  470TMC3    C6 7049   0.573   0.034   0.595 -0.1678  0.6382 -0.1758
  470TMC3     C 7050   0.251   4.542   0.454  0.5339 -0.2763 -0.6154
  470TMC3     O 7051   0.175   4.586   0.367  0.3531 -0.3578  0.1661
  470TMC3     H 7052   0.264   0.062   0.459 -0.0569  0.4778  1.2465
  470TMC3    H1 7053   0.485   4.447   0.549  1.6073 -0.4786 -0.0220
  470TMC3    H2 7054   0.664   0.087   0.620 -0.1910  0.5039  0.1980
  470TMC3    C7 7055   0.670   4.562   0.687 -0.3389 -0.2673  0.3840
  470TMC3    C8 7056   0.452   0.239   0.559 -0.6345 -0.0664 -0.2707
  470TMC3    O1 7057   0.720   4.462   0.638  0.1840  0.1578 -0.0426
  470TMC3    O2 7058   0.547   0.287   0.623  0.2135 -0.2867  0.5801
  471MPD2     C 7059   1.123   1.375  16.571 -0.1358 -0.0238 -0.0134
  471MPD2    C1 7060   1.100   1.241  16.579  0.1700  0.4355 -0.4782
  471MPD2    C2 7061   1.081   1.180  16.701 -0.8924 -0.2743 -0.3440
  471MPD2    C3 7062   1.086   1.254  16.817  0.5140  0.4594 -0.2661
  471MPD2    C4 7063   1.132   1.388  16.818 -0.2251  0.6448 -0.3955
  471MPD2    C5 7064   1.148   1.444  16.689 -0.1141 -0.3666 -0.2367
  471MPD2     H 7065   1.039   1.080  16.705 -0.7688 -0.3033  0.1899
  471MPD2    H1 7066   1.139   1.457  16.901 -0.2402  0.9706 -0.6676
  471MPD2    H2 7067   1.137   1.433  16.481  2.0579  1.1758  1.1233
  471MPD2    H3 7068   1.176   1.548  16.674 -0.9069  0.0228  0.9777
  471MPD2     N 7069   1.042   1.203  16.938  0.2729  0.1201  0.5848
  471MPD2    H5 7070   1.064   1.257  17.021 -0.8579  0.9240  0.3705
  471MPD2    N1 7071   1.084   1.157  16.466  0.1371 -0.7462 -0.7515
  471MPD2    H7 7072   1.069   1.059  16.489 -2.5320 -0.4795 -1.4485
  472TMC3    C1 7073   1.061   1.088  16.233  0.2205  0.3131 -0.7321
  472TMC3    C2 7074   0.955   1.101  16.152  0.2572  0.1993  0.0589
  472TMC3    C3 7075   0.886   0.989  16.110  0.5326 -0.0315 -0.0877
  472TMC3    C4 7076   1.106   0.964  16.274  0.3010  0.0046 -0.4140
  472TMC3    C5 7077   1.039   0.858  16.222  0.1372 -0.2457  0.1152
  472TMC3    C6 7078   0.923   0.861  16.145 -0.0944  0.2757  0.2382
  472TMC3     C 7079   1.090   1.200  16.329  0.0888 -0.7885  1.0553
  472TMC3     O 7080   1.103   1.309  16.281 -0.1731 -0.0815  1.2231
  472TMC3     H 7081   0.916   1.201  16.139  2.8722  1.2016 -0.1343
  472TMC3    H1 7082   1.194   0.944  16.334  0.0298  2.4640  0.8140
  472TMC3    H2 7083   0.873   0.775  16.103  1.4219 -0.2781 -0.4354
  472TMC3    C7 7084   1.075   0.726  16.283 -0.0765  0.3008  1.0128
  472TMC3    C8 7085   0.742   1.019  16.082 -0.1152 -0.1785  0.1876
  472TMC3    O1 7086   1.121   0.728  16.399  0.0890 -0.9678 -0.2359
  472TMC3    O2 7087   0.721   1.129  16.032 -0.0864  0.1600  0.2668
  473MPD2     C 7088   1.212   2.789  13.998 -0.0263 -0.1657  0.3935
  473MPD2    C1 7089   1.164   2.912  13.952  0.8579  0.8098 -0.3854
  473MPD2    C2 7090   1.196   3.023  14.025  0.1560  0.0444 -0.7088
  473MPD2    C3 7091   1.282   3.023  14.136 -0.2292 -0.6283  0.2606
  473MPD2    C4 7092   1.336   2.900  14.168  0.4680 -0.8098 -0.0323
  473MPD2    C5 7093   1.301   2.783  14.103 -0.1003  0.4957 -0.0422
  473MPD2     H 7094   1.163   3.124  14.003  0.2866  0.0746 -0.7658
  473MPD2    H1 7095   1.405   2.882  14.249 -0.8926  1.2635  1.5910
  473MPD2    H2 7096   1.188   2.692  13.956 -3.3645  1.4048 -1.3585
  473MPD2    H3 7097   1.352   2.691  14.132  0.7076  0.2732 -2.1413
  473MPD2     N 7098   1.320   3.144  14.211  0.3030 -0.0453 -0.2350
  473MPD2    H5 7099   1.394   3.134  14.279 -0.0489  0.2410  0.1942
  473MPD2    N1 7100   1.088   2.909  13.833  0.6857  0.7074  0.4635
  473MPD2    H7 7101   1.044   2.999  13.813  0.7500  0.6992  0.2837
  474TMC3    C1 7102   1.315   3.380  14.267  0.3293  0.0050 -0.1881
  474TMC3    C2 7103   1.233   3.477  14.306 -0.4628  0.0490 -0.8311
  474TMC3    C3 7104   1.284   3.576  14.384  0.0424 -0.5594  0.0580
  474TMC3    C4 7105   1.451   3.390  14.292  0.0648 -0.2158 -0.6323
  474TMC3    C5 7106   1.503   3.490  14.361  0.3473  0.4928 -0.3845
  474TMC3    C6 7107   1.422   3.585  14.418 -0.1175 -0.6636 -0.2514
  474TMC3     C 7108   1.255   3.267  14.203 -0.0146  0.1977  0.1764
  474TMC3     O 7109   1.138   3.280  14.171  0.1991 -0.7962 -0.3029
  474TMC3     H 7110   1.131   3.473  14.269 -0.0868  0.1374 -1.8770
  474TMC3    H1 7111   1.513   3.312  14.249  3.1207  2.8655 -1.8102
  474TMC3    H2 7112   1.468   3.659  14.482 -1.6859  1.2731 -1.3870
  474TMC3    C7 7113   1.634   3.476  14.414  0.4504  0.3348  0.5610
  474TMC3    C8 7114   1.195   3.691  14.416 -0.1542  0.3894  0.0299
  474TMC3    O1 7115   1.726   3.419  14.349  0.5091  0.0918 -0.3444
  474TMC3    O2 7116   1.077   3.666  14.399 -0.1416  0.2972  0.5326
  475MPD2     C 7117   3.819   1.008  10.119 -0.6150 -0.3548  0.0262
  475MPD2    C1 7118   3.837   1.068  10.239  0.0065  0.2466  0.2283
  475MPD2    C2 7119   3.728   1.084  10.325 -0.9490 -0.2147 -0.1439
  475MPD2    C3 7120   3.601   1.048  10.286 -0.4321 -0.2895  0.0136
  475MPD2    C4 7121   3.584   0.993  10.167  0.1493 -0.5973 -0.4689
  475MPD2    C5 7122   3.693   0.976  10.084 -0.4155  0.3479 -0.2765
  475MPD2     H 7123   3.757   1.136  10.416  0.3872 -2.5645  0.7862
  475MPD2    H1 7124   3.489   0.962  10.126 -0.2112 -0.7717  0.4881
  475MPD2    H2 7125   3.903   0.989  10.053  0.3492  0.0928  1.1232
  475MPD2    H3 7126   3.682   0.922   9.990 -0.5415  1.0139 -0.6445
  475MPD2     N 7127   3.491   1.086  10.364 -0.5090 -0.2025 -0.3102
  475MPD2    H5 7128   3.518   1.119  10.456  1.0618 -0.4884 -0.6767
  475MPD2    N1 7129   3.971   1.106  10.267 -0.5225 -0.0075 -0.0618
  475MPD2    H7 7130   4.043   1.081  10.200  1.0034  2.7440  0.5615
  476TMC3    C1 7131   4.142   1.224  10.358 -0.2865  0.0692 -0.1970
  476TMC3    C2 7132   4.183   1.285  10.240  0.3845 -0.5572 -0.5942
  476TMC3    C3 7133   4.302   1.348  10.235  0.0613  0.1651 -1.0716
  476TMC3    C4 7134   4.192   1.253  10.475  0.0335  0.1459  0.5039
  476TMC3    C5 7135   4.306   1.327  10.474 -0.6391 -0.1387 -0.6461
  476TMC3    C6 7136   4.363   1.370  10.357  0.2720 -0.4348 -0.0389
  476TMC3     C 7137   4.004   1.187  10.365 -0.3330 -0.2713 -0.2769
  476TMC3     O 7138   3.947   1.243  10.454 -0.2588  0.1384  0.1054
  476TMC3     H 7139   4.112   1.277  10.158 -2.0091 -1.4287  1.5513
  476TMC3    H1 7140   4.148   1.205  10.562  0.7420  0.0547  0.8069
  476TMC3    H2 7141   4.456   1.425  10.360  1.1827 -1.7804 -2.7708
  476TMC3    C7 7142   4.366   1.354  10.605  0.1761  0.1980  0.5704
  476TMC3    C8 7143   4.340   1.450  10.137  0.3441  0.0151  0.5483
  476TMC3    O1 7144   4.335   1.289  10.705 -0.2654 -0.2125  0.4274
  476TMC3    O2 7145   4.409   1.547  10.169  0.5079 -0.3501 -0.8388
  477MPD2     C 7146   2.087   2.787  11.497 -0.2883 -0.3540 -0.4600
  477MPD2    C1 7147   2.007   2.754  11.607 -0.0366  0.0464  0.3447
  477MPD2    C2 7148   2.047   2.657  11.699  0.5379  0.0701  0.4077
  477MPD2    C3 7149   2.174   2.606  11.691  0.0885 -0.2855 -0.3415
  477MPD2    C4 7150   2.252   2.640  11.583 -0.0045 -0.0975  0.1167
  477MPD2    C5 7151   2.208   2.718  11.485 -1.0535  0.0090 -0.3652
  477MPD2     H 7152   1.986   2.645  11.789  0.9578  0.7388  0.7842
  477MPD2    H1 7153   2.358   2.618  11.578 -0.0911 -0.6176  0.5793
  477MPD2    H2 7154   2.057   2.859  11.422 -0.3150 -0.5212 -0.6104
  477MPD2    H3 7155   2.287   2.736  11.412 -0.6191 -2.1016 -0.4052
  477MPD2     N 7156   2.225   2.532  11.798  0.3378  0.3717 -0.9118
  477MPD2    H5 7157   2.169   2.520  11.881 -0.7176  2.0025 -1.3865
  477MPD2    N1 7158   1.884   2.823  11.624  0.2097  0.3556 -0.7361
  477MPD2    H7 7159   1.881   2.903  11.562 -0.4556  2.0464  1.4977
  478TMC3    C1 7160   1.667   2.879  11.677 -0.1428 -0.2883  0.6496
  478TMC3    C2 7161   1.715   3.008  11.711  0.8148  0.0025  0.3405
  478TMC3    C3 7162   1.639   3.110  11.670 -0.1266 -0.3004  0.1407
  478TMC3    C4 7163   1.548   2.842  11.616  0.8830 -0.6160  0.3712
  478TMC3    C5 7164   1.477   2.953  11.575  0.2793  0.8520 -0.1268
  478TMC3    C6 7165   1.528   3.083  11.597  0.0890 -0.4562 -0.2841
  478TMC3     C 7166   1.773   2.778  11.691  0.5556  0.0246 -0.5920
  478TMC3     O 7167   1.740   2.672  11.738  0.0587  0.2536  0.1015
  478TMC3     H 7168   1.810   3.029  11.759  0.6276 -1.5251  1.3655
  478TMC3    H1 7169   1.524   2.741  11.583 -0.1690 -0.0002 -0.7701
  478TMC3    H2 7170   1.474   3.165  11.552 -1.3057 -1.5534 -0.6053
  478TMC3    C7 7171   1.405   2.946  11.455  0.3236  0.1894  0.2822
  478TMC3    C8 7172   1.642   3.224  11.764 -0.3116  0.1963 -0.3916
  478TMC3    O1 7173   1.433   3.024  11.367  0.1386 -0.2150 -0.3699
  478TMC3    O2 7174   1.695   3.203  11.873 -0.2690  0.0852 -0.0294
  479MPD2     C 7175   0.742   0.430  14.988  0.2554 -0.2486 -0.6380
  479MPD2    C1 7176   0.711   0.421  15.123  0.1219  0.0789  0.2545
  479MPD2    C2 7177   0.780   0.500  15.217  0.1376  0.2012  0.7036
  479MPD2    C3 7178   0.870   0.601  15.174  0.2463  0.3564  0.3351
  479MPD2    C4 7179   0.891   0.609  15.041  0.1742 -0.3759  0.1404
  479MPD2    C5 7180   0.829   0.523  14.943 -0.4871 -0.0089  0.7739
  479MPD2     H 7181   0.780   0.494  15.325  0.6843  0.3926  0.7164
  479MPD2    H1 7182   0.976   0.669  15.011  1.6806 -1.6229  1.8794
  479MPD2    H2 7183   0.701   0.364  14.913  1.0241 -1.5592  0.0823
  479MPD2    H3 7184   0.852   0.518  14.837 -1.5222 -0.4499  0.5663
  479MPD2     N 7185   0.939   0.691  15.258 -0.7339 -0.3149 -0.1187
  479MPD2    H5 7186   1.017   0.742  15.218  0.0807 -2.2305 -0.9465
  479MPD2    N1 7187   0.610   0.331  15.158 -0.1379 -0.4066  0.4199
  479MPD2    H7 7188   0.578   0.267  15.086  2.6467 -3.2508  1.7217
  480TMC3    C1 7189   0.629   0.647  15.626 -0.4573  0.4493  0.5222
  480TMC3    C2 7190   0.519   0.673  15.542  0.3121 -0.0923  0.1729
  480TMC3    C3 7191   0.544   0.707  15.408  0.4477 -0.5711  0.3206
  480TMC3    C4 7192   0.762   0.660  15.574 -0.2520 -0.4949 -0.3122
  480TMC3    C5 7193   0.779   0.706  15.444  0.1601  0.4285 -0.3135
  480TMC3    C6 7194   0.673   0.743  15.367  0.0555 -0.6583  0.7089
  480TMC3     C 7195   0.618   0.536  15.712 -0.7643 -0.7385 -0.7410
  480TMC3     O 7196   0.722   0.499  15.760  0.2059 -0.0430 -0.2742
  480TMC3     H 7197   0.415   0.647  15.562 -0.2199  1.3346 -0.7522
  480TMC3    H1 7198   0.849   0.613  15.619 -1.0244  0.3351  2.0697
  480TMC3    H2 7199   0.689   0.790  15.270 -1.3831 -0.4041  0.5849
  480TMC3    C7 7200   0.911   0.705  15.395 -0.4762 -0.2994  0.2410
  480TMC3    C8 7201   0.433   0.688  15.317 -0.4229 -0.2182 -0.3516
  480TMC3    O1 7202   0.986   0.758  15.476 -0.5863 -0.2494  0.6672
  480TMC3    O2 7203   0.322   0.658  15.354 -0.0374  0.5409  0.9035
  481MPD2     C 7204   2.249   4.441  14.063  0.5367 -0.1267 -1.1809
  481MPD2    C1 7205   2.208   4.350  14.151 -0.1504  0.0418 -0.4015
  481MPD2    C2 7206   2.258   4.350  14.283 -0.2810 -0.2543  0.0922
  481MPD2    C3 7207   2.337   4.455  14.317  1.2681  0.6599  0.0065
  481MPD2    C4 7208   2.383   4.553  14.224 -0.3053 -0.4565  0.5003
  481MPD2    C5 7209   2.342   4.543  14.096  0.2072 -0.3506 -0.2565
  481MPD2     H 7210   2.227   4.276  14.355  4.2307  0.1521  2.4045
  481MPD2    H1 7211   2.443   4.642  14.235 -1.0970  0.1053  0.2342
  481MPD2    H2 7212   2.220   4.435  13.958  2.3345  0.0652 -1.6852
  481MPD2    H3 7213   2.355   4.625  14.025 -0.7979 -1.9828 -2.3366
  481MPD2     N 7214   2.376   4.466  14.451  0.6974 -0.5173  0.5934
  481MPD2    H5 7215   2.440   4.542  14.470  1.0605 -1.0068  1.3279
  481MPD2    N1 7216   2.105   4.269  14.103  0.0941 -0.0064  0.0613
  481MPD2    H7 7217   2.065   4.279  14.010  2.4831  2.2900 -0.7234
  482TMC3    C1 7218   1.907   4.154  14.124 -0.0499  0.2617 -0.2718
  482TMC3    C2 7219   1.902   4.108  13.998 -0.4581  0.6452 -0.7644
  482TMC3    C3 7220   1.790   4.130  13.921  0.2311  0.3146 -0.5521
  482TMC3    C4 7221   1.798   4.222  14.168  0.4721  0.2980 -0.4457
  482TMC3    C5 7222   1.683   4.249  14.094 -0.3041 -0.1036 -0.1268
  482TMC3    C6 7223   1.682   4.194  13.970 -1.0237  0.0340 -0.0650
  482TMC3     C 7224   2.038   4.179  14.182 -0.8569 -1.0370 -1.1946
  482TMC3     O 7225   2.051   4.148  14.296  0.3739 -0.0541 -0.3293
  482TMC3     H 7226   1.985   4.049  13.962 -1.9760 -1.8839 -0.1024
  482TMC3    H1 7227   1.826   4.267  14.262 -1.6199 -1.2260  0.8976
  482TMC3    H2 7228   1.594   4.205  13.907  0.1932 -1.3424 -2.0184
  482TMC3    C7 7229   1.662   4.393  14.092  0.8553  0.0550  0.4167
  482TMC3    C8 7230   1.764   4.030  13.815  0.3728 -0.3736 -0.4581
  482TMC3    O1 7231   1.652   4.464  14.189  0.2117 -0.1444 -1.2447
  482TMC3    O2 7232   1.815   3.918  13.828  0.2316 -0.4254  0.3698
  483TMC3    C1 7233   0.951   3.827   1.255  0.5284  0.2048  0.5848
  483TMC3    C2 7234   1.055   3.901   1.203 -0.3859 -0.2500  0.4033
  483TMC3    C3 7235   1.181   3.845   1.206 -0.7717  0.6006 -0.3660
  483TMC3    C4 7236   0.964   3.698   1.302 -0.0008  0.6911 -0.4544
  483TMC3    C5 7237   1.093   3.649   1.316 -0.0889 -0.3705 -0.0942
  483TMC3    C6 7238   1.204   3.721   1.265  0.4577  0.1306 -0.5115
  483TMC3     C 7239   0.824   3.882   1.208  0.0434  1.3104  0.3100
  483TMC3     O 7240   0.821   3.982   1.143 -0.2312  0.1671  0.1628
  483TMC3     H 7241   1.043   4.007   1.185 -0.8594 -0.4572 -0.4839
  483TMC3    H1 7242   0.880   3.648   1.349  1.1037 -0.7433  0.0375
  483TMC3    H2 7243   1.303   3.678   1.260 -0.0972 -1.2553  0.3941
  483TMC3    C7 7244   1.109   3.505   1.323 -0.3739  0.5319  0.4924
  483TMC3    C8 7245   1.278   3.890   1.109  0.5108 -0.0708  0.4326
  483TMC3    O1 7246   1.225   3.469   1.311  0.4808 -0.4354 -0.4284
  483TMC3    O2 7247   1.389   3.835   1.098  0.0728  0.0997  0.7829
  484MPD2     C 7248   2.486   1.528  13.221 -0.3173 -0.3577 -0.5484
  484MPD2    C1 7249   2.513   1.496  13.086  0.0237 -1.0286 -0.0579
  484MPD2    C2 7250   2.640   1.512  13.037  0.3373  0.2399  0.2049
  484MPD2    C3 7251   2.740   1.536  13.132  0.5585 -0.2246 -0.0469
  484MPD2    C4 7252   2.711   1.583  13.256  0.3056  0.2386  0.3265
  484MPD2    C5 7253   2.584   1.572  13.304  0.8167  0.4760 -0.7304
  484MPD2     H 7254   2.666   1.499  12.933 -0.3968 -0.0667  0.0601
  484MPD2    H1 7255   2.794   1.607  13.320  0.5064  0.2250  0.0688
  484MPD2    H2 7256   2.385   1.529  13.261  0.1840  0.9787  0.6737
  484MPD2    H3 7257   2.556   1.598  13.406  0.3472  1.1071 -1.0222
  484MPD2     N 7258   2.875   1.552  13.089 -0.0135 -0.2608  0.1740
  484MPD2    H5 7259   2.941   1.601  13.148  0.1953 -1.3034  0.7977
  484MPD2    N1 7260   2.400   1.466  13.002 -0.3729 -0.0693  0.1236
  484MPD2    H7 7261   2.314   1.452  13.053 -0.8813  1.6335 -0.2715
  485TMC3    C1 7262   3.073   1.516  12.955 -0.2114 -0.8000 -0.3662
  485TMC3    C2 7263   3.158   1.568  13.053 -1.4000 -0.3815 -0.0507
  485TMC3    C3 7264   3.290   1.583  13.030  0.0026 -0.4884 -0.1142
  485TMC3    C4 7265   3.131   1.466  12.839  0.2191 -0.2646 -0.5382
  485TMC3    C5 7266   3.254   1.508  12.810 -0.3303 -0.0802  0.6475
  485TMC3    C6 7267   3.338   1.573  12.899  0.8847 -0.1879  0.2140
  485TMC3     C 7268   2.927   1.498  12.972 -0.2161 -0.4517 -0.5777
  485TMC3     O 7269   2.871   1.432  12.888 -0.3278  0.0196 -0.6542
  485TMC3     H 7270   3.119   1.569  13.154  1.8662 -0.4485  1.1876
  485TMC3    H1 7271   3.070   1.412  12.768  0.0524  0.8420 -1.2208
  485TMC3    H2 7272   3.442   1.602  12.887  0.6028 -0.0214 -1.7780
  485TMC3    C7 7273   3.340   1.411  12.746  0.1098  0.5996  0.1357
  485TMC3    C8 7274   3.384   1.531  13.128 -0.7703 -0.8603 -0.3713
  485TMC3    O1 7275   3.463   1.415  12.765 -0.2412 -0.1081 -0.2890
  485TMC3    O2 7276   3.350   1.526  13.247 -0.0522 -0.4928 -0.0287
  486MPD2     C 7277   0.352   0.047  12.764  0.1299  0.8089  0.1803
  486MPD2    C1 7278   0.297   0.034  12.641 -0.1970  0.6083 -0.3881
  486MPD2    C2 7279   0.207   0.128  12.594 -0.1075 -0.1376 -0.8408
  486MPD2    C3 7280   0.164   0.229  12.666  0.2661 -0.2195  0.4397
  486MPD2    C4 7281   0.211   0.246  12.794 -0.3623  0.1505  0.4698
  486MPD2    C5 7282   0.306   0.155  12.841  0.0716  0.5842 -0.2583
  486MPD2     H 7283   0.168   0.119  12.493  0.0387  0.3421 -0.9401
  486MPD2    H1 7284   0.196   0.337  12.851 -0.8940  1.3681 -1.5916
  486MPD2    H2 7285   0.414   4.701  12.800 -1.6330 -0.3057  0.6925
  486MPD2    H3 7286   0.355   0.175  12.935  0.6699  1.2802 -0.7154
  486MPD2     N 7287   0.092   0.323  12.600 -0.4473 -0.3033 -0.4742
  486MPD2    H5 7288   0.081   0.309  12.500 -0.5553  1.3519 -0.7092
  486MPD2    N1 7289   0.344   4.656  12.578  0.4131 -0.0615 -0.5745
  486MPD2    H7 7290   0.400   4.588  12.628 -0.4021  1.5661  2.5276
  487TMC3    C1 7291   0.363   4.479  12.426  0.2825 -0.0594 -0.1737
  487TMC3    C2 7292   0.271   4.389  12.389  0.3314 -0.0782 -0.8397
  487TMC3    C3 7293   0.280   4.259  12.435  0.1531  0.4519  0.0664
  487TMC3    C4 7294   0.475   4.447  12.495  0.1950 -0.0597 -0.0371
  487TMC3    C5 7295   0.476   4.328  12.550 -0.1233 -0.8446  0.1332
  487TMC3    C6 7296   0.384   4.238  12.517 -0.0119 -0.4018  0.0756
  487TMC3     C 7297   0.294   4.605  12.463  0.0065 -0.7869 -0.6094
  487TMC3     O 7298   0.203   4.646  12.392  0.1074 -0.0733 -0.2192
  487TMC3     H 7299   0.177   4.420  12.345  0.0018 -0.3012 -0.2980
  487TMC3    H1 7300   0.553   4.516  12.523 -1.5470  2.3881 -1.1994
  487TMC3    H2 7301   0.391   4.134  12.548 -1.5322 -0.8185 -0.9283
  487TMC3    C7 7302   0.478   4.348  12.695  0.5535 -0.7081  0.0958
  487TMC3    C8 7303   0.158   4.196  12.479 -0.2630  0.1130  0.0963
  487TMC3    O1 7304   0.487   4.460  12.734  0.1359  0.1468  0.1066
  487TMC3    O2 7305   0.093   4.142  12.394  0.1942 -0.1963 -0.1589
  488MPD2     C 7306   0.093   2.330  16.449  0.6086 -0.3176  0.2755
  488MPD2    C1 7307   0.213   2.355  16.517  0.0598  0.2961  0.1991
  488MPD2    C2 7308   0.241   2.291  16.636 -0.1715  1.0755 -0.0466
  488MPD2    C3 7309   0.147   2.205  16.694  0.7586  0.2951 -0.2139
  488MPD2    C4 7310   0.029   2.185  16.626 -0.7656 -0.5680 -1.0905
  488MPD2    C5 7311   0.006   2.241  16.507  0.5118 -0.3369  0.5499
  488MPD2     H 7312   0.338   2.302  16.683 -0.1513  0.2122  0.1022
  488MPD2    H1 7313   4.684   2.125  16.667 -0.0383 -0.3696  0.6416
  488MPD2    H2 7314   0.066   2.365  16.350 -1.8589  2.0018  1.7736
  488MPD2    H3 7315   4.649   2.215  16.458  0.8556  0.5394 -0.5538
  488MPD2     N 7316   0.166   2.159  16.829 -0.3366  0.4864  0.1972
  488MPD2    H5 7317   0.238   2.203  16.885  0.6044  1.0804 -1.4503
  488MPD2    N1 7318   0.307   2.455  16.471  0.0258 -1.0291  0.0356
  488MPD2    H7 7319   0.381   2.476  16.538  0.6321 -1.8161 -0.3960
  489TMC3    C1 7320   0.150   2.036  17.024  0.3691  0.5990  0.1075
  489TMC3    C2 7321   0.271   2.086  17.060  1.0398 -0.1196  0.0203
  489TMC3    C3 7322   0.290   2.105  17.191  0.0190  0.7604  0.9135
  489TMC3    C4 7323   0.062   1.993  17.115 -0.2782 -0.0352 -0.1098
  489TMC3    C5 7324   0.085   2.008  17.243  0.1507  0.1905 -0.1052
  489TMC3    C6 7325   0.205   2.066  17.285  0.6775 -0.0627 -0.0861
  489TMC3     C 7326   0.094   2.065  16.895 -0.6606  0.2498  0.5177
  489TMC3     O 7327   4.726   2.007  16.864 -0.2364 -0.2543 -0.4887
  489TMC3     H 7328   0.351   2.101  16.989 -0.6362  1.0014 -1.6283
  489TMC3    H1 7329   4.704   1.947  17.087 -0.0240 -1.4575  1.3902
  489TMC3    H2 7330   0.227   2.076  17.391  0.0785  0.4218 -0.0006
  489TMC3    C7 7331   0.007   1.947  17.350 -0.2271  0.0559 -0.1495
  489TMC3    C8 7332   0.374   2.219  17.227  0.3199 -0.3832  0.5054
  489TMC3    O1 7333   0.058   1.928  17.456 -0.0739 -0.5698 -0.0795
  489TMC3    O2 7334   0.467   2.246  17.153 -0.1988 -0.4854  0.2670
  490MPD2     C 7335   1.550   1.249  17.298  0.3106 -0.4803  0.0356
  490MPD2    C1 7336   1.447   1.317  17.354  0.3094 -0.4817 -0.3746
  490MPD2    C2 7337   1.446   1.455  17.337  0.6405 -0.2831 -0.4673
  490MPD2    C3 7338   1.549   1.523  17.272 -0.5458 -0.3511  0.1350
  490MPD2    C4 7339   1.646   1.445  17.204 -0.1850  0.7969  0.6326
  490MPD2    C5 7340   1.642   1.309  17.217 -0.4200 -0.6962 -0.3499
  490MPD2     H 7341   1.363   1.509  17.381 -0.1007 -1.5102 -0.3519
  490MPD2    H1 7342   1.733   1.481  17.151 -0.6329 -0.2046 -0.8047
  490MPD2    H2 7343   1.555   1.142  17.312  0.9764 -0.3080  1.0605
  490MPD2    H3 7344   1.722   1.254  17.169  2.1408  0.3590  2.6962
  490MPD2     N 7345   1.553   1.663  17.248  0.5170  0.3671  0.5975
  490MPD2    H5 7346   1.631   1.694  17.192 -1.0407  2.2603 -0.4986
  490MPD2    N1 7347   1.342   1.256  17.426 -0.4333  0.1519 -0.4931
  490MPD2    H7 7348   1.270   1.323  17.452 -0.5255 -0.5522  1.0615
  491TMC3    C1 7349   1.196   1.085  17.492 -0.3036  0.2294  0.5769
  491TMC3    C2 7350   1.173   0.975  17.561  0.5037 -1.0338  0.0372
  491TMC3    C3 7351   1.050   0.944  17.600 -0.4340  0.2696 -0.2331
  491TMC3    C4 7352   1.095   1.156  17.435  0.5379  0.1669 -0.0411
  491TMC3    C5 7353   0.967   1.120  17.474  0.1590  0.5704 -0.4138
  491TMC3    C6 7354   0.943   1.012  17.551  0.2280 -0.3849 -0.4525
  491TMC3     C 7355   1.325   1.114  17.446 -0.4201 -0.2487 -0.3266
  491TMC3     O 7356   1.411   1.024  17.447  0.1876  0.3194  0.1600
  491TMC3     H 7357   1.256   0.917  17.599  1.2191  1.1035  1.7372
  491TMC3    H1 7358   1.108   1.218  17.347 -1.2318 -0.7397 -0.9397
  491TMC3    H2 7359   0.843   0.970  17.562  1.7863 -4.1515 -0.9077
  491TMC3    C7 7360   0.862   1.155  17.388 -0.1496  0.1811  0.1006
  491TMC3    C8 7361   1.042   0.853  17.716 -0.0708  0.3517  0.3707
  491TMC3    O1 7362   0.766   1.077  17.387 -0.2511  0.0033  0.5433
  491TMC3    O2 7363   1.139   0.789   0.009  0.2091 -0.4403 -0.3981
  492MPD2     C 7364   1.103   1.127  11.315  0.4466 -0.2054  0.0068
  492MPD2    C1 7365   1.015   1.024  11.317 -0.2977  0.6470 -0.5216
  492MPD2    C2 7366   0.988   0.959  11.439 -0.2138 -0.4035 -0.0515
  492MPD2    C3 7367   1.033   1.010  11.561 -0.4703 -0.8347 -0.3571
  492MPD2    C4 7368   1.119   1.119  11.556  0.2091 -0.0573  0.2049
  492MPD2    C5 7369   1.151   1.176  11.439  0.1360 -0.7931  0.3214
  492MPD2     H 7370   0.921   0.873  11.437  0.7123 -1.1347  0.1572
  492MPD2    H1 7371   1.176   1.162  11.638  0.1884 -0.2250  0.3062
  492MPD2    H2 7372   1.137   1.167  11.220  2.5532 -0.4034  0.6726
  492MPD2    H3 7373   1.232   1.247  11.435 -0.2323 -0.4024 -0.1953
  492MPD2     N 7374   1.008   0.961  11.693 -0.3673 -0.1104  0.8656
  492MPD2    H5 7375   1.049   1.017  11.767  0.1039  0.3186  0.2811
  492MPD2    N1 7376   0.963   0.991  11.190  0.2203  0.0464  0.7587
  492MPD2    H7 7377   0.996   1.039  11.107  0.1424  0.0512  0.7311
  493TMC3    C1 7378   0.842   0.890  11.027 -0.3660 -0.4896 -1.0974
  493TMC3    C2 7379   0.949   0.915  10.943  0.3246  0.8167 -0.2310
  493TMC3    C3 7380   0.922   0.923  10.811  0.6972 -0.0371 -0.5017
  493TMC3    C4 7381   0.722   0.851  10.979  0.0344  0.3255  0.6869
  493TMC3    C5 7382   0.695   0.874  10.849 -0.2076 -0.3542  0.7298
  493TMC3    C6 7383   0.794   0.911  10.757 -0.2004  0.0580  0.0299
  493TMC3     C 7384   0.860   0.895  11.172  0.6020  0.9918 -0.2603
  493TMC3     O 7385   0.783   0.846  11.254  0.2412  0.3647 -0.3071
  493TMC3     H 7386   1.050   0.915  10.985 -0.2042 -1.3253  1.0505
  493TMC3    H1 7387   0.638   0.825  11.042  0.5776  0.1896  1.3637
  493TMC3    H2 7388   0.780   0.918  10.650  1.1674  2.3698  0.0010
  493TMC3    C7 7389   0.569   0.814  10.797  0.0931 -0.2307  0.2372
  493TMC3    C8 7390   1.034   0.934  10.723 -0.3125 -0.2905 -0.4848
  493TMC3    O1 7391   0.467   0.790  10.868 -0.1707  0.5717  0.3169
  493TMC3    O2 7392   1.015   0.898  10.606 -0.7364 -0.3702  0.5901
  494TMC3    C1 7393   1.952   3.572   0.395 -0.0302  0.0230  0.2273
  494TMC3    C2 7394   1.992   3.446   0.387  0.1605  0.3111  0.2990
  494TMC3    C3 7395   1.990   3.390   0.262 -0.3629  0.9590  0.2459
  494TMC3    C4 7396   1.901   3.647   0.288  0.3113 -0.4577 -1.1173
  494TMC3    C5 7397   1.910   3.596   0.162  0.2728  0.0207 -0.4129
  494TMC3    C6 7398   1.957   3.468   0.152 -0.7336 -0.4320 -0.1450
  494TMC3     C 7399   1.876   3.593   0.519 -0.0521  0.2956  0.0775
  494TMC3     O 7400   1.906   3.527   0.617 -0.5568  0.0695  0.3676
  494TMC3     H 7401   1.988   3.387   0.478  1.4140 -1.9210 -1.0947
  494TMC3    H1 7402   1.881   3.754   0.285  0.4084 -0.3440  2.3032
  494TMC3    H2 7403   1.975   3.431   0.051  1.2024  0.2805 -0.0599
  494TMC3    C7 7404   1.937   3.696   0.062 -0.3567  0.0065 -0.4129
  494TMC3    C8 7405   2.038   3.249   0.264  0.8506 -1.1347 -0.5090
  494TMC3    O1 7406   2.034   3.669  17.737  0.2371  0.1050  0.9453
  494TMC3    O2 7407   2.095   3.216   0.366  0.4319  0.1954  0.0337
  495TMC3    C1 7408   0.767   0.562  14.383 -0.3678  0.3615  0.8333
  495TMC3    C2 7409   0.671   0.578  14.283  0.0340  0.7263  0.3666
  495TMC3    C3 7410   0.548   0.631  14.315 -0.5748 -0.0536  0.4945
  495TMC3    C4 7411   0.751   0.618  14.510 -0.3787 -0.4402 -0.2924
  495TMC3    C5 7412   0.626   0.662  14.539 -0.2785  0.2844 -0.0104
  495TMC3    C6 7413   0.527   0.665  14.446 -0.0661  0.3558  0.7625
  495TMC3     C 7414   0.805   0.422  14.394 -0.5458 -0.3978  0.3344
  495TMC3     O 7415   0.742   0.337  14.329 -0.4346  0.0936  0.3054
  495TMC3     H 7416   0.705   0.558  14.182 -0.7112 -0.0584  0.2736
  495TMC3    H1 7417   0.832   0.638  14.579 -1.2450  2.1438 -0.0268
  495TMC3    H2 7418   0.427   0.696  14.473  0.5129  2.1143  0.8924
  495TMC3    C7 7419   0.598   0.677  14.679  0.0377  0.0181  0.3189
  495TMC3    C8 7420   0.431   0.562  14.259  0.2429  0.0562  0.3632
  495TMC3    O1 7421   0.682   0.719  14.755 -0.2053  0.1681  0.1122
  495TMC3    O2 7422   0.326   0.626  14.269  1.1842  0.2213  0.4918
  496MPD2     C 7423   3.318   1.010  15.366 -0.5338  0.4638  0.2564
  496MPD2    C1 7424   3.302   0.871  15.361 -0.1099 -0.7141  0.0706
  496MPD2    C2 7425   3.210   0.812  15.439 -0.2194 -0.6424  0.1066
  496MPD2    C3 7426   3.131   0.888  15.524  0.2387  0.7876 -0.0618
  496MPD2    C4 7427   3.147   1.021  15.530 -0.4722  0.4388 -0.1298
  496MPD2    C5 7428   3.244   1.088  15.454  0.0780 -0.3424 -0.9414
  496MPD2     H 7429   3.196   0.704  15.436  1.2489 -0.8414  0.3871
  496MPD2    H1 7430   3.089   1.085  15.595  0.0553  1.3753 -0.5773
  496MPD2    H2 7431   3.403   1.055  15.315 -0.3902 -0.0185  0.0713
  496MPD2    H3 7432   3.255   1.196  15.458 -0.6509 -0.3070  0.2678
  496MPD2     N 7433   3.016   0.842  15.592 -0.9178 -0.1591 -0.0203
  496MPD2    H5 7434   2.948   0.909  15.626  1.3456  1.4608  1.3350
  496MPD2    N1 7435   3.372   0.787  15.264  0.5926 -0.2330 -0.0902
  496MPD2    H7 7436   3.352   0.687  15.270 -3.6196  0.6275  0.3028
  497TMC3    C1 7437   2.863   0.700  15.688  0.2966  0.6389  0.0073
  497TMC3    C2 7438   2.754   0.751  15.621  0.0289  0.0323 -0.8216
  497TMC3    C3 7439   2.627   0.733  15.680 -0.3103  0.4080  0.7344
  497TMC3    C4 7440   2.847   0.606  15.785  0.0595 -0.2529  0.4366
  497TMC3    C5 7441   2.721   0.584  15.834  0.5136 -0.3161  0.9391
  497TMC3    C6 7442   2.612   0.654  15.793  0.0702  0.4430  0.5824
  497TMC3     C 7443   2.993   0.713  15.627 -0.0033  0.0034  0.2088
  497TMC3     O 7444   3.061   0.615  15.613  0.9720  0.3766 -0.2541
  497TMC3     H 7445   2.760   0.806  15.528  0.5393  1.2898 -0.0515
  497TMC3    H1 7446   2.928   0.536  15.800  0.4165 -0.0123 -0.4420
  497TMC3    H2 7447   2.514   0.628  15.831  0.6116 -0.4172  1.3827
  497TMC3    C7 7448   2.694   0.468  15.932 -0.3959  0.3638 -0.0094
  497TMC3    C8 7449   2.516   0.782  15.607 -0.0212  0.5865  0.0783
  497TMC3    O1 7450   2.585   0.411  15.917 -0.0168  0.2870  0.2795
  497TMC3    O2 7451   2.530   0.811  15.491 -0.5536 -0.0748  0.1335
  498MPD2     C 7452   3.512   1.127   9.667 -0.0668  0.0437  0.6350
  498MPD2    C1 7453   3.515   1.168   9.800 -0.1735 -0.1179 -0.0021
  498MPD2    C2 7454   3.441   1.101   9.897 -0.1755 -0.0842  0.0575
  498MPD2    C3 7455   3.353   1.005   9.861 -0.6061 -0.6138 -0.7471
  498MPD2    C4 7456   3.352   0.973   9.727 -0.0687 -0.7280  0.0440
  498MPD2    C5 7457   3.430   1.026   9.636  0.0433 -0.4047 -0.0169
  498MPD2     H 7458   3.448   1.134  10.000  1.4864 -0.9730  0.2302
  498MPD2    H1 7459   3.290   0.894   9.685  1.5575 -1.4481 -0.9965
  498MPD2    H2 7460   3.576   1.168   9.590  1.7406 -0.5984  1.7989
  498MPD2    H3 7461   3.414   0.997   9.533  3.0606 -0.6918 -0.4254
  498MPD2     N 7462   3.279   0.942   9.959  0.4234  0.2563  0.2823
  498MPD2    H5 7463   3.277   0.985  10.051 -1.7865  0.1749  0.2650
  498MPD2    N1 7464   3.593   1.280   9.843 -0.5295  1.1327  0.0054
  498MPD2    H7 7465   3.579   1.312   9.938 -1.0822  1.8567 -0.3197
  499TMC3    C1 7466   3.708   1.488   9.839 -0.5604  0.1314  0.2761
  499TMC3    C2 7467   3.771   1.474   9.964 -0.1630  0.2196  0.5492
  499TMC3    C3 7468   3.852   1.577  10.010  0.1690 -0.7998 -0.4383
  499TMC3    C4 7469   3.717   1.604   9.770  0.3874 -1.0603  0.2705
  499TMC3    C5 7470   3.810   1.700   9.812 -0.3639 -0.1784 -0.1788
  499TMC3    C6 7471   3.886   1.684   9.927  0.4469  0.2042  0.2094
  499TMC3     C 7472   3.656   1.375   9.765 -0.2570 -0.2272 -0.3334
  499TMC3     O 7473   3.653   1.375   9.644 -0.6523  0.2692  0.1633
  499TMC3     H 7474   3.763   1.380  10.017 -1.9425  0.0404 -0.0364
  499TMC3    H1 7475   3.668   1.623   9.676 -1.8238 -0.1506  1.5945
  499TMC3    H2 7476   3.976   1.743   9.946  2.2405 -2.6133  0.4274
  499TMC3    C7 7477   3.836   1.812   9.733 -0.4372  0.2739 -0.5393
  499TMC3    C8 7478   3.929   1.544  10.128 -0.2115  0.2660 -0.3421
  499TMC3    O1 7479   3.790   1.803   9.617  0.0164  0.2313  0.0647
  499TMC3    O2 7480   3.909   1.435  10.179  0.1187 -0.1634  0.5221
  500MPD2     C 7481   0.929   2.348   9.472  0.0316  0.1415 -0.3195
  500MPD2    C1 7482   0.906   2.293   9.593 -0.0076  0.3176 -0.0109
  500MPD2    C2 7483   0.779   2.235   9.618 -0.2731 -0.0891 -0.2192
  500MPD2    C3 7484   0.679   2.235   9.526  0.1880 -0.0562  0.7178
  500MPD2    C4 7485   0.708   2.296   9.403 -0.1550 -0.3030 -0.0731
  500MPD2    C5 7486   0.831   2.343   9.379  0.9558 -0.2824 -0.2336
  500MPD2     H 7487   0.750   2.194   9.714 -0.3646  1.6382  0.4804
  500MPD2    H1 7488   0.628   2.306   9.329  0.5132  0.1899 -0.7279
  500MPD2    H2 7489   1.029   2.388   9.463 -0.0139 -0.0557 -1.7280
  500MPD2    H3 7490   0.843   2.392   9.283 -1.2503  0.8571  0.0583
  500MPD2     N 7491   0.546   2.190   9.541 -0.3872 -0.1430 -0.2025
  500MPD2    H5 7492   0.484   2.205   9.462  2.3572 -2.6777 -2.8397
  500MPD2    N1 7493   0.983   2.313   9.702 -0.6673 -0.1582 -0.3639
  500MPD2    H7 7494   1.064   2.369   9.680 -0.4227 -0.1143  0.6756
  501TMC3    C1 7495   1.035   2.321   9.935 -0.1192 -0.6174 -0.0830
  501TMC3    C2 7496   1.006   2.458   9.958  0.0019 -0.3287 -0.1132
  501TMC3    C3 7497   1.011   2.496  10.092 -0.3754 -0.7771  0.3103
  501TMC3    C4 7498   1.061   2.229  10.027  0.1479  0.0502  0.1296
  501TMC3    C5 7499   1.048   2.274  10.157  0.5166  0.1711 -0.0028
  501TMC3    C6 7500   1.024   2.404  10.194  0.5863 -0.4626 -0.6661
  501TMC3     C 7501   0.965   2.256   9.828 -0.1309 -0.9003  0.3007
  501TMC3     O 7502   0.906   2.154   9.866 -0.6181  0.0943  0.3911
  501TMC3     H 7503   0.994   2.527   9.876 -0.7126 -0.6545 -0.2801
  501TMC3    H1 7504   1.081   2.124  10.006  1.4354  0.0036  1.6032
  501TMC3    H2 7505   1.000   2.429  10.297 -0.1563  1.6979 -1.3459
  501TMC3    C7 7506   1.066   2.172  10.253 -0.2434  0.3300  0.1900
  501TMC3    C8 7507   0.940   2.619  10.117  0.6995 -0.4709  0.0601
  501TMC3    O1 7508   1.068   2.052  10.213  0.4674  0.6697  0.0992
  501TMC3    O2 7509   0.864   2.665  10.032  0.1288 -0.2192  0.4683
  502TMC3    C1 7510   0.365   1.798  14.985 -0.1600  0.0994 -0.6585
  502TMC3    C2 7511   0.357   1.924  14.933 -0.0917  0.6742  0.6457
  502TMC3    C3 7512   0.230   1.956  14.905 -0.2490 -0.1730  0.0222
  502TMC3    C4 7513   0.270   1.697  14.970  0.3536  0.4674 -0.4388
  502TMC3    C5 7514   0.145   1.741  14.934  0.3125  0.2207  0.2960
  502TMC3    C6 7515   0.124   1.873  14.910 -0.4153 -0.2331 -0.0120
  502TMC3     C 7516   0.488   1.773  15.055  0.2039  0.2206  0.2450
  502TMC3     O 7517   0.570   1.860  15.034  0.3277 -0.0071  0.1515
  502TMC3     H 7518   0.439   1.993  14.917  0.0988  0.0554 -1.0618
  502TMC3    H1 7519   0.293   1.594  14.996  1.1489  1.2029  1.7553
  502TMC3    H2 7520   0.025   1.907  14.886 -0.7440 -1.2901 -0.1810
  502TMC3    C7 7521   0.035   1.652  14.963 -0.1935  0.4238 -0.3648
  502TMC3    C8 7522   0.217   2.081  14.836  0.5154 -0.0139 -0.9691
  502TMC3    O1 7523   0.063   1.541  15.005 -0.8635 -0.3229  0.1012
  502TMC3    O2 7524   0.297   2.168  14.867 -0.1358 -0.0140 -0.4235
  503MPD2     C 7525   2.418   2.391  16.568 -0.3399 -0.2971 -0.2345
  503MPD2    C1 7526   2.397   2.426  16.704  0.5103  0.2483 -0.1026
  503MPD2    C2 7527   2.434   2.343  16.808 -0.4881 -0.3522  0.2993
  503MPD2    C3 7528   2.499   2.225  16.777  0.6406  0.5769  0.4704
  503MPD2    C4 7529   2.531   2.195  16.647 -0.1709 -0.2032 -0.2459
  503MPD2    C5 7530   2.494   2.281  16.541  0.7710 -0.3036  0.7575
  503MPD2     H 7531   2.417   2.362  16.914 -1.3922  0.2921  0.0454
  503MPD2    H1 7532   2.594   2.108  16.631  1.3867  1.0845 -1.1679
  503MPD2    H2 7533   2.398   2.459  16.487 -0.3131  1.0701  0.9072
  503MPD2    H3 7534   2.503   2.261  16.435 -2.3174 -1.5525  0.7260
  503MPD2     N 7535   2.522   2.135  16.886 -0.1707  0.5536  0.5299
  503MPD2    H5 7536   2.498   2.170  16.978 -3.3814  1.8107 -0.7942
  503MPD2    N1 7537   2.334   2.544  16.747  0.2130  0.5446 -0.0138
  503MPD2    H7 7538   2.330   2.553  16.848  0.9461  2.0982 -0.1257
  504TMC3    C1 7539   2.616   1.950  16.998 -0.3567  0.2873 -0.1329
  504TMC3    C2 7540   2.541   1.986  17.104 -0.2643  0.1928 -0.2993
  504TMC3    C3 7541   2.605   1.999  17.226 -0.0151  0.0912 -0.2899
  504TMC3    C4 7542   2.751   1.928  17.012  0.1683 -0.2200  0.1974
  504TMC3    C5 7543   2.808   1.930  17.135 -0.6495 -0.5847  0.2162
  504TMC3    C6 7544   2.740   1.974  17.245  0.5420 -0.3476 -0.6721
  504TMC3     C 7545   2.582   2.005  16.875 -0.0652  0.5803  0.4117
  504TMC3     O 7546   2.629   1.951  16.778 -0.0747  0.4792 -0.6457
  504TMC3     H 7547   2.434   2.003  17.093 -0.1458  1.0162 -0.1601
  504TMC3    H1 7548   2.803   1.897  16.922  3.4435  1.6469  1.4543
  504TMC3    H2 7549   2.789   1.993  17.340 -0.0028  0.9642 -0.6463
  504TMC3    C7 7550   2.956   1.939  17.131 -0.3123  0.0438 -0.3167
  504TMC3    C8 7551   2.532   2.015  17.349  0.4129 -0.0931  0.5301
  504TMC3    O1 7552   3.006   1.927  17.017  0.2845  0.4673 -0.0474
  504TMC3    O2 7553   2.430   2.079  17.342 -0.0504 -0.4349 -0.0846
  505MPD2     C 7554   2.754   0.317  11.169 -0.4725  0.4618  0.5311
  505MPD2    C1 7555   2.859   0.233  11.128 -0.0884  0.1366  0.6567
  505MPD2    C2 7556   2.992   0.279  11.156 -0.2435 -0.8757 -0.0045
  505MPD2    C3 7557   3.019   0.399  11.223 -0.6417  0.1114  0.3463
  505MPD2    C4 7558   2.911   0.461  11.278 -0.2168  0.5463 -0.0774
  505MPD2    C5 7559   2.783   0.415  11.256  0.0544  0.4533 -0.6978
  505MPD2     H 7560   3.074   0.218  11.121 -0.4263 -1.5815  0.7909
  505MPD2    H1 7561   2.916   0.541  11.351  0.1183  3.4054 -3.2089
  505MPD2    H2 7562   2.650   0.293  11.154  0.0949 -0.8908 -1.2509
  505MPD2    H3 7563   2.703   0.473  11.300 -1.7548 -0.9493 -2.1691
  505MPD2     N 7564   3.147   0.457  11.243 -0.4601  0.2181  0.3139
  505MPD2    H5 7565   3.152   0.553  11.275  2.4864 -0.3570  1.5900
  505MPD2    N1 7566   2.841   0.119  11.052  0.1247 -0.0098  0.1237
  505MPD2    H7 7567   2.748   0.107  11.014  0.1831  2.8738 -0.9780
  506TMC3    C1 7568   2.902   4.692  10.888 -0.4489 -0.3808  0.3285
  506TMC3    C2 7569   2.826   0.006  10.787 -0.3719  0.1118  0.0514
  506TMC3    C3 7570   2.844   4.680  10.668 -0.2257  0.1160  0.0414
  506TMC3    C4 7571   2.991   4.590  10.868  0.4642  1.0417  0.4553
  506TMC3    C5 7572   3.019   4.547  10.738 -0.0106  0.7508 -0.5889
  506TMC3    C6 7573   2.936   4.594  10.635  0.4001  0.1686 -0.2948
  506TMC3     C 7574   2.938   0.032  11.003  0.4776  0.1395 -0.2643
  506TMC3     O 7575   3.057   0.023  11.031  0.0704 -0.0395  0.0329
  506TMC3     H 7576   2.743   0.073  10.805 -1.4773 -1.0128 -0.8023
  506TMC3    H1 7577   3.036   4.536  10.950 -0.4727  1.5593  1.3091
  506TMC3    H2 7578   2.958   4.567  10.532 -2.4665 -1.0329 -0.5834
  506TMC3    C7 7579   3.153   4.574  10.701  0.5462 -0.8788  0.0389
  506TMC3    C8 7580   2.772   4.723  10.558  0.1525  0.1876 -0.4338
  506TMC3    O1 7581   3.189   4.548  10.585  0.1238  0.2396 -0.9539
  506TMC3    O2 7582   2.727   4.637  10.482  0.1756 -0.6187  0.5632
  507TMC3    C1 7583   3.558   1.930  15.519 -0.3756  0.3347 -0.1100
  507TMC3    C2 7584   3.513   1.808  15.476  0.3280  0.5721 -0.3792
  507TMC3    C3 7585   3.546   1.765  15.350 -0.1955 -0.1488  0.2663
  507TMC3    C4 7586   3.624   2.017  15.434  0.3239  0.5466  0.5034
  507TMC3    C5 7587   3.665   1.965  15.309  0.3829 -0.0311  0.4352
  507TMC3    C6 7588   3.629   1.841  15.273 -0.0824 -0.0510  0.6724
  507TMC3     C 7589   3.501   1.989  15.635  0.3514  0.2483 -0.9207
  507TMC3     O 7590   3.487   2.112  15.633  0.3026 -0.3475  0.4073
  507TMC3     H 7591   3.434   1.749  15.522  1.4478  1.0145  2.1204
  507TMC3    H1 7592   3.659   2.115  15.466 -0.5094 -0.5673  4.7652
  507TMC3    H2 7593   3.692   1.800  15.195 -0.8073  0.9994 -0.4659
  507TMC3    C7 7594   3.675   2.043  15.187  0.1393 -0.1595 -1.3093
  507TMC3    C8 7595   3.437   1.729  15.264  1.0374 -0.0727  0.8631
  507TMC3    O1 7596   3.633   1.994  15.080  0.1390 -0.2142  0.2703
  507TMC3    O2 7597   3.341   1.667  15.313  0.4687  0.5798  0.4746
  508MPD2     C 7598   4.538   4.157  16.008  0.0220 -0.3729 -0.1850
  508MPD2    C1 7599   4.516   4.186  16.138 -0.2167 -0.0142 -0.6655
  508MPD2    C2 7600   4.463   4.313  16.176  0.5418  0.2078  0.3970
  508MPD2    C3 7601   4.438   4.411  16.081 -0.3608 -1.1976  1.2882
  508MPD2    C4 7602   4.466   4.385  15.951  1.1508  0.1171 -0.3652
  508MPD2    C5 7603   4.506   4.255  15.916 -0.6553  0.3615 -0.2073
  508MPD2     H 7604   4.478   4.343  16.279  1.6834 -0.2447  0.3734
  508MPD2    H1 7605   4.466   4.455  15.868 -1.0891  0.9161  0.3134
  508MPD2    H2 7606   4.567   4.059  15.973  0.1427  0.7057 -3.1297
  508MPD2    H3 7607   4.522   4.235  15.811 -0.0222  0.3583 -0.1141
  508MPD2     N 7608   4.417   4.537  16.139 -0.0289 -0.2150  0.6050
  508MPD2    H5 7609   4.406   4.541  16.239  0.8938 -0.5005  0.7203
  508MPD2    N1 7610   4.526   4.081  16.232  0.5057  0.1916  0.0032
  508MPD2    H7 7611   4.586   4.007  16.198  0.5764  0.1062  0.3139
  509TMC3    C1 7612   4.222   0.219  16.182 -0.1298  0.1524 -0.1232
  509TMC3    C2 7613   4.317   0.265  16.265 -0.6018  0.4814  0.7915
  509TMC3    C3 7614   4.425   0.188  16.293 -0.2863 -0.1675 -0.6997
  509TMC3    C4 7615   4.240   0.099  16.119  0.7674 -0.1050  0.6329
  509TMC3    C5 7616   4.353   0.023  16.148 -1.3063 -0.6463  0.7887
  509TMC3    C6 7617   4.450   0.065  16.239  0.1690 -0.6792 -0.1994
  509TMC3     C 7618   4.104   0.301  16.147  0.5472 -0.7168 -0.1495
  509TMC3     O 7619   4.050   0.360  16.238  0.1424 -0.2126 -0.8442
  509TMC3     H 7620   4.289   0.350  16.325 -3.9070 -1.2527  1.7278
  509TMC3    H1 7621   4.166   0.053  16.055  1.0727  0.5557 -0.1939
  509TMC3    H2 7622   4.531   4.730  16.252 -0.3597 -1.2551 -0.0459
  509TMC3    C7 7623   4.375   4.648  16.065 -0.0067  0.8411  0.6729
  509TMC3    C8 7624   4.547   0.259  16.307 -0.1884  0.6736 -0.1226
  509TMC3    O1 7625   4.340   4.660  15.948 -0.3866 -0.9203 -0.0673
  509TMC3    O2 7626   4.643   0.193  16.345 -0.4872  0.3650  0.4153
  510MPD2     C 7627   1.625   1.347  14.833 -0.3048  0.0174 -0.1922
  510MPD2    C1 7628   1.672   1.219  14.849  0.0806  0.0387 -0.3806
  510MPD2    C2 7629   1.747   1.159  14.747 -0.3080 -0.2239  0.0512
  510MPD2    C3 7630   1.798   1.231  14.639 -0.2551  0.1713  0.0170
  510MPD2    C4 7631   1.760   1.366  14.624 -0.2859  0.1263  0.2913
  510MPD2    C5 7632   1.667   1.417  14.721  0.5293  0.2515 -0.2938
  510MPD2     H 7633   1.782   1.056  14.753 -0.3831 -0.2978 -0.7804
  510MPD2    H1 7634   1.786   1.429  14.539  0.5940  0.8547  1.1083
  510MPD2    H2 7635   1.546   1.389  14.894 -0.6680 -0.3374 -0.4122
  510MPD2    H3 7636   1.627   1.517  14.714  0.5752  0.1259 -2.3142
  510MPD2     N 7637   1.882   1.158  14.547  0.3662 -0.1344 -0.1917
  510MPD2    H5 7638   1.923   1.069  14.576 -0.9830 -1.1909 -1.5419
  510MPD2    N1 7639   1.626   1.157  14.962 -0.4462 -0.2544 -0.3829
  510MPD2    H7 7640   1.555   1.208  15.015  0.3389  2.0234 -1.5173
  511TMC3    C1 7641   1.565   0.973  15.100  0.2691 -0.8332  0.1552
  511TMC3    C2 7642   1.538   1.048  15.214  0.0708  0.7083 -0.1515
  511TMC3    C3 7643   1.476   0.980  15.317  0.5127  0.4281  0.2374
  511TMC3    C4 7644   1.551   0.839  15.090 -0.2770  0.5712 -0.2301
  511TMC3    C5 7645   1.480   0.779  15.191 -0.4746 -0.1213 -0.4263
  511TMC3    C6 7646   1.438   0.850  15.303  0.4666 -0.0886  0.4881
  511TMC3     C 7647   1.660   1.030  14.999 -0.5502  0.6441 -0.0968
  511TMC3     O 7648   1.750   0.956  14.955  0.4577  0.0027  0.4400
  511TMC3     H 7649   1.553   1.155  15.226 -0.6372  0.8705 -0.7500
  511TMC3    H1 7650   1.579   0.795  14.996 -0.6280 -0.8965  0.3513
  511TMC3    H2 7651   1.373   0.805  15.378 -0.5083  0.0748 -0.2477
  511TMC3    C7 7652   1.480   0.635  15.202 -0.8208 -0.6363 -0.2310
  511TMC3    C8 7653   1.442   1.057  15.439  0.2043  0.1905 -0.2413
  511TMC3    O1 7654   1.372   0.594  15.247 -0.1095  0.3971 -0.2917
  511TMC3    O2 7655   1.447   1.175  15.414 -0.2028 -0.4424  0.0161
  512TMC3    C1 7656   0.685   4.735  13.060  0.2450 -0.2809 -0.6329
  512TMC3    C2 7657   0.789   4.715  13.149 -0.0387  1.1899 -0.1728
  512TMC3    C3 7658   0.879   4.616  13.119  0.1670  0.4955 -0.6246
  512TMC3    C4 7659   0.670   4.645  12.960  0.6107 -0.3323 -0.1637
  512TMC3    C5 7660   0.747   4.534  12.949  0.7431  0.1430  0.5073
  512TMC3    C6 7661   0.854   4.515  13.030 -0.0051  0.9660  0.4642
  512TMC3     C 7662   0.558   0.031  13.120 -0.0161 -0.4060  0.2411
  512TMC3     O 7663   0.464   4.691  13.094  0.0625 -0.0768 -0.5460
  512TMC3     H 7664   0.805   0.027  13.245  2.0500 -0.6965  0.4237
  512TMC3    H1 7665   0.584   4.648  12.893  0.2819 -2.5465  0.1679
  512TMC3    H2 7666   0.925   4.439  13.000 -2.0050  0.8969 -4.2134
  512TMC3    C7 7667   0.767   4.470  12.822 -0.4872  0.0852  0.1251
  512TMC3    C8 7668   1.001   4.600  13.203 -0.0796 -0.3820 -0.7499
  512TMC3    O1 7669   0.825   4.539  12.737  0.0165  0.4919 -0.8099
  512TMC3    O2 7670   1.045   4.488  13.202 -0.1838  0.6830 -0.1374
  513MPD2     C 7671   2.966   0.230  12.852  0.4281 -0.3318 -0.0601
  513MPD2    C1 7672   2.940   0.157  12.960 -0.1011  0.0751  0.5925
  513MPD2    C2 7673   3.003   0.188  13.079  0.3350 -0.5596 -0.0354
  513MPD2    C3 7674   3.088   0.291  13.099  0.1571 -0.2251 -0.4990
  513MPD2    C4 7675   3.132   0.358  12.978  0.3257  1.1325  0.0220
  513MPD2    C5 7676   3.060   0.330  12.856 -0.5983 -0.5385  0.6865
  513MPD2     H 7677   2.974   0.134  13.169  0.2327 -0.5475 -0.0620
  513MPD2    H1 7678   3.206   0.437  12.972  0.7115  0.7792  0.1472
  513MPD2    H2 7679   2.908   0.220  12.761  0.3267 -0.5674  0.0305
  513MPD2    H3 7680   3.086   0.398  12.775 -0.8668 -2.9890 -1.4445
  513MPD2     N 7681   3.133   0.317  13.228  0.5772 -0.0687 -0.1847
  513MPD2    H5 7682   3.077   0.275  13.301  1.6580 -0.3726  0.4621
  513MPD2    N1 7683   2.844   0.054  12.949  0.1889  0.2790  0.1904
  513MPD2    H7 7684   2.800   0.049  12.858  3.0262 -2.5412 -1.0278
  514TMC3    C1 7685   2.732   4.594  13.014 -0.5314 -0.3795  0.0571
  514TMC3    C2 7686   2.791   4.510  12.924  0.3356 -0.2181  0.9314
  514TMC3    C3 7687   2.796   4.378  12.954 -0.6006  0.3777 -0.1146
  514TMC3    C4 7688   2.685   4.549  13.128 -0.0863  0.4750  0.6349
  514TMC3    C5 7689   2.690   4.415  13.160 -0.7404 -0.4615  0.4594
  514TMC3    C6 7690   2.741   4.324  13.068  0.3201  0.4992 -0.4437
  514TMC3     C 7691   2.809   4.709  13.053 -0.1123 -0.5888 -1.1882
  514TMC3     O 7692   2.828   4.720  13.170  0.2160  0.3820  0.0354
  514TMC3     H 7693   2.845   4.555  12.841  0.0340 -1.7724 -0.1076
  514TMC3    H1 7694   2.634   4.609  13.204  1.2841  1.9345  0.4015
  514TMC3    H2 7695   2.720   4.220  13.091  0.3124  1.4100  3.5974
  514TMC3    C7 7696   2.714   4.383  13.297 -0.0647  0.5168 -0.0314
  514TMC3    C8 7697   2.856   4.277  12.869  0.1151 -0.3520 -0.4505
  514TMC3    O1 7698   2.693   4.269  13.339 -0.7515  0.2206  0.1922
  514TMC3    O2 7699   2.858   4.162  12.903  0.1099  0.5353 -0.2534
  515MPD2     C 7700   1.282   1.781  14.203  0.4819 -0.7656 -0.5759
  515MPD2    C1 7701   1.176   1.855  14.251 -0.3490 -0.2026 -0.2493
  515MPD2    C2 7702   1.201   1.970  14.325 -0.5602 -0.2427  0.4156
  515MPD2    C3 7703   1.335   2.017  14.348 -0.5234 -0.2707 -0.6438
  515MPD2    C4 7704   1.435   1.953  14.279 -0.5668  0.6788  0.1506
  515MPD2    C5 7705   1.408   1.835  14.215 -0.7724  0.9135  0.2693
  515MPD2     H 7706   1.117   2.013  14.380 -0.2165 -2.7808  2.9386
  515MPD2    H1 7707   1.539   1.979  14.295 -0.3397  0.1119 -0.3626
  515MPD2    H2 7708   1.272   1.681  14.160 -1.5865  0.1365 -2.2095
  515MPD2    H3 7709   1.493   1.769  14.205 -0.5842  1.1632  0.2508
  515MPD2     N 7710   1.373   2.131  14.424  0.2953 -0.0374  0.5797
  515MPD2    H5 7711   1.472   2.153  14.423  1.0235 -3.3336  1.2176
  515MPD2    N1 7712   1.040   1.809  14.239 -0.4437 -0.7754 -0.4893
  515MPD2    H7 7713   0.964   1.875  14.258 -0.3562 -0.5590 -0.8954
  516TMC3    C1 7714   0.855   1.657  14.196 -0.0382 -1.0652  0.0752
  516TMC3    C2 7715   0.776   1.767  14.213 -0.0980 -0.8600 -0.5319
  516TMC3    C3 7716   0.645   1.750  14.253 -0.4288  0.6926  0.6102
  516TMC3    C4 7717   0.811   1.536  14.238 -0.0209 -0.0897  0.2689
  516TMC3    C5 7718   0.679   1.523  14.276 -0.8462  0.1550 -0.1834
  516TMC3    C6 7719   0.591   1.631  14.279 -0.8801  0.3109  0.0609
  516TMC3     C 7720   0.999   1.675  14.210  0.4684 -0.9726  0.2710
  516TMC3     O 7721   1.069   1.573  14.218 -0.0173 -0.1560 -0.3482
  516TMC3     H 7722   0.819   1.862  14.182  0.6938 -1.6046 -1.7477
  516TMC3    H1 7723   0.880   1.453  14.240 -0.8833 -0.8438 -1.1867
  516TMC3    H2 7724   0.497   1.628  14.333 -0.1889 -1.0910  1.2079
  516TMC3    C7 7725   0.665   1.433  14.385  0.1986  0.3305  0.2388
  516TMC3    C8 7726   0.555   1.856  14.226  0.4134 -0.4261 -0.6354
  516TMC3    O1 7727   0.770   1.393  14.437  0.4516 -0.2550  0.2502
  516TMC3    O2 7728   0.443   1.824  14.195 -0.6235  0.1687  0.0461
  517MPD2     C 7729   0.482   3.738   0.219 -0.1725  0.2371 -0.3401
  517MPD2    C1 7730   0.611   3.744   0.180 -0.5967  0.2779  0.6519
  517MPD2    C2 7731   0.697   3.854   0.205 -0.2880 -0.3333  0.5098
  517MPD2    C3 7732   0.655   3.962   0.278  0.2472  0.0540  0.5559
  517MPD2    C4 7733   0.523   3.963   0.312 -0.2261 -0.6152 -0.1914
  517MPD2    C5 7734   0.445   3.855   0.286 -0.2008  0.9976 -0.2684
  517MPD2     H 7735   0.800   3.851   0.172 -0.3776 -0.5476  0.2524
  517MPD2    H1 7736   0.477   4.051   0.356  0.1740 -0.1937 -0.6155
  517MPD2    H2 7737   0.410   3.659   0.206  1.7148 -1.7977  1.4628
  517MPD2    H3 7738   0.346   3.866   0.327 -0.8361 -0.4138 -1.4109
  517MPD2     N 7739   0.733   4.074   0.331 -0.0930 -0.4843 -0.2210
  517MPD2    H5 7740   0.694   4.145   0.392  2.5088  0.6336  0.1202
  517MPD2    N1 7741   0.677   3.638   0.121  0.5029 -0.3417  0.3144
  517MPD2    H7 7742   0.774   3.662   0.101  0.0153  0.4150 -1.1509
  518TMC3    C1 7743   0.744   3.422   0.058  0.3960  0.1852  0.0996
  518TMC3    C2 7744   0.702   3.292   0.067  0.1514 -0.0825 -0.3657
  518TMC3    C3 7745   0.777   3.197   0.009  0.0465  1.0429 -0.4056
  518TMC3    C4 7746   0.854   3.460  17.723  0.3560  0.1731 -0.0657
  518TMC3    C5 7747   0.936   3.358  17.684  0.0577 -0.0276 -0.1258
  518TMC3    C6 7748   0.905   3.230  17.707 -0.0235 -0.2073 -0.6497
  518TMC3     C 7749   0.634   3.515   0.092 -0.8195 -0.0892 -0.0924
  518TMC3     O 7750   0.518   3.470   0.086 -1.1978  0.7078  0.1837
  518TMC3     H 7751   0.623   3.266   0.137  0.5546  0.7954  0.4197
  518TMC3    H1 7752   0.883   3.564  17.712  1.0265 -0.1970 -1.7793
  518TMC3    H2 7753   0.963   3.153  17.656  2.0858  0.8891  0.1134
  518TMC3    C7 7754   1.046   3.390  17.597  0.6254 -0.1786 -0.4733
  518TMC3    C8 7755   0.743   3.056   0.032  0.1443 -0.1944  0.1755
  518TMC3    O1 7756   1.033   3.497  17.540  0.1920  0.3952  0.1356
  518TMC3    O2 7757   0.835   2.976   0.049 -0.1590 -0.2496 -0.3239
  519MPD2     C 7758   2.586   2.138  13.922 -0.0727  0.3559  0.2029
  519MPD2    C1 7759   2.534   2.081  13.806 -0.0221  0.0008 -0.2005
  519MPD2    C2 7760   2.557   1.949  13.780 -0.0756  0.1087  0.5639
  519MPD2    C3 7761   2.620   1.870  13.873 -0.2955 -0.7083  0.3656
  519MPD2    C4 7762   2.675   1.930  13.986 -0.9764  0.1084 -0.7414
  519MPD2    C5 7763   2.661   2.062  14.010  0.7763 -0.0224 -0.2726
  519MPD2     H 7764   2.509   1.921  13.687  0.2860  0.5304  0.2548
  519MPD2    H1 7765   2.726   1.877  14.065 -0.4126  1.4904 -0.1694
  519MPD2    H2 7766   2.568   2.244  13.939  1.5953  0.6332  0.2406
  519MPD2    H3 7767   2.709   2.103  14.098  0.1990  0.3593 -0.1401
  519MPD2     N 7768   2.641   1.734  13.854  0.1537 -0.1780 -0.5057
  519MPD2    H5 7769   2.699   1.684  13.921 -1.2619  0.3153  1.0774
  519MPD2    N1 7770   2.446   2.160  13.728 -0.1080  0.3984 -0.6617
  519MPD2    H7 7771   2.410   2.244  13.772 -1.3335 -0.8416  0.7087
  520TMC3    C1 7772   2.615   1.528  13.750 -0.2068  0.0513  0.1748
  520TMC3    C2 7773   2.522   1.463  13.671  0.2699  0.5336 -0.3172
  520TMC3    C3 7774   2.548   1.328  13.647  0.1456 -0.4659 -1.0471
  520TMC3    C4 7775   2.738   1.472  13.787 -0.3006  0.2876  0.3815
  520TMC3    C5 7776   2.760   1.340  13.755 -0.0646  0.4707 -0.1984
  520TMC3    C6 7777   2.672   1.271  13.674  0.4725  0.0561 -0.1957
  520TMC3     C 7778   2.597   1.672  13.742  0.3546 -0.6351 -0.2381
  520TMC3     O 7779   2.538   1.706  13.644  0.2016  0.1059 -0.0438
  520TMC3     H 7780   2.438   1.515  13.627 -0.2293  0.4104  0.4946
  520TMC3    H1 7781   2.799   1.526  13.858  1.7887 -2.5863  0.7468
  520TMC3    H2 7782   2.696   1.174  13.632 -1.3669 -1.0412  1.3113
  520TMC3    C7 7783   2.839   1.265  13.851 -0.1376 -0.8118  0.5444
  520TMC3    C8 7784   2.469   1.257  13.553 -0.7952  0.5530 -0.3127
  520TMC3    O1 7785   2.915   1.337  13.918  0.3393  0.4889 -0.5081
  520TMC3    O2 7786   2.541   1.190  13.479 -0.3427  0.8924  0.3951
  521MPD2     C 7787   3.351   0.340  17.323  0.1590  0.3531 -0.5744
  521MPD2    C1 7788   3.336   0.212  17.370  0.0487 -0.7705  0.0666
  521MPD2    C2 7789   3.431   0.114  17.367  0.6619 -0.1642 -0.1267
  521MPD2    C3 7790   3.551   0.148  17.308 -0.7486  0.1191  0.0848
  521MPD2    C4 7791   3.570   0.279  17.264  0.0669 -0.2325  0.6306
  521MPD2    C5 7792   3.471   0.374  17.279 -0.2235 -0.2408 -0.2443
  521MPD2     H 7793   3.416   0.011  17.398 -2.1441 -0.1953 -1.6170
  521MPD2    H1 7794   3.661   0.299  17.209  1.2599 -1.3539  2.1960
  521MPD2    H2 7795   3.270   0.409  17.339 -0.6618  0.1082 -3.6492
  521MPD2    H3 7796   3.486   0.474  17.239  1.5641 -1.0273 -1.5477
  521MPD2     N 7797   3.645   0.047  17.284 -0.0651 -0.1446 -0.3359
  521MPD2    H5 7798   3.620   4.685  17.298 -1.4520  0.2939  0.2146
  521MPD2    N1 7799   3.204   0.185  17.419 -0.0160  0.0069 -0.2661
  521MPD2    H7 7800   3.132   0.256  17.413 -1.5409 -1.5284  0.0899
  522TMC3    C1 7801   3.827   4.674  17.190  0.0294 -0.6314  0.4849
  522TMC3    C2 7802   3.962   4.646  17.191  0.1605  0.3457 -0.2483
  522TMC3    C3 7803   4.007   4.530  17.141 -0.6040  0.5213  0.0711
  522TMC3    C4 7804   3.734   4.589  17.139 -0.1227  0.0915  0.1529
  522TMC3    C5 7805   3.789   4.472  17.080 -0.1361 -0.8823 -0.7669
  522TMC3    C6 7806   3.920   4.435  17.089 -0.6448 -0.0302  0.1880
  522TMC3     C 7807   3.776   0.070  17.238  0.5809  0.4727  0.3757
  522TMC3     O 7808   3.854   0.159  17.266  0.7181 -0.5961 -0.0637
  522TMC3     H 7809   4.030   4.726  17.219 -1.8902  1.3390  1.9363
  522TMC3    H1 7810   3.642   4.629  17.098 -0.1300 -0.4181 -0.3146
  522TMC3    H2 7811   3.950   4.349  17.030  1.5623 -0.3985  1.8749
  522TMC3    C7 7812   3.708   4.380  17.004 -0.4765 -0.4850 -0.4292
  522TMC3    C8 7813   4.131   4.484  17.176  0.5850  0.3016  0.7499
  522TMC3    O1 7814   3.744   4.265  16.981 -0.2322 -0.7803 -0.3532
  522TMC3    O2 7815   4.167   4.497  17.290 -0.0160  0.3616 -0.2624
  523MPD2     C 7816   1.437   3.599  10.082 -0.1100  0.6622 -0.3147
  523MPD2    C1 7817   1.304   3.582  10.111  0.2289  0.3677  0.7998
  523MPD2    C2 7818   1.219   3.697  10.135  0.2530 -0.2216 -0.3375
  523MPD2    C3 7819   1.269   3.828  10.117 -0.5307 -0.2524 -0.2016
  523MPD2    C4 7820   1.411   3.839  10.097  0.0059  0.0697  0.6297
  523MPD2    C5 7821   1.488   3.727  10.083 -0.2749 -0.2377  0.8664
  523MPD2     H 7822   1.119   3.675  10.168  0.7841 -1.9758  0.1292
  523MPD2    H1 7823   1.463   3.930  10.126  1.4356 -0.8648  1.0263
  523MPD2    H2 7824   1.506   3.517  10.066 -1.5408 -0.7680  0.8262
  523MPD2    H3 7825   1.593   3.749  10.064  0.0168 -1.9896  0.4461
  523MPD2     N 7826   1.186   3.938  10.149  0.0769  0.0990 -0.2419
  523MPD2    H5 7827   1.234   4.025  10.164  4.1277 -1.9115 -1.5700
  523MPD2    N1 7828   1.251   3.453  10.112 -0.5349  0.3002 -0.0519
  523MPD2    H7 7829   1.312   3.373  10.115 -0.1576  0.6539  1.4642
  524TMC3    C1 7830   0.999   4.074  10.180 -0.2567 -0.4572 -0.2775
  524TMC3    C2 7831   1.083   4.164  10.240  1.0874 -0.4712 -0.8309
  524TMC3    C3 7832   1.030   4.288  10.258  0.7827 -0.0252  0.8648
  524TMC3    C4 7833   0.879   4.113  10.125 -0.2648  1.3196  0.1850
  524TMC3    C5 7834   0.839   4.244  10.132 -0.0376 -0.6863  0.9349
  524TMC3    C6 7835   0.912   4.328  10.207  0.2431  0.1436  0.8165
  524TMC3     C 7836   1.046   3.936  10.157 -0.3349  0.0153  0.1800
  524TMC3     O 7837   0.966   3.850  10.121 -0.0257  0.6429 -0.0499
  524TMC3     H 7838   1.151   4.114  10.308  0.9065 -0.9281 -0.9885
  524TMC3    H1 7839   0.826   4.044  10.061 -0.9701 -0.4844  2.7102
  524TMC3    H2 7840   0.864   4.420  10.238 -0.9683  0.4036 -1.8209
  524TMC3    C7 7841   0.697   4.270  10.102  0.2539  0.2824  0.6168
  524TMC3    C8 7842   1.085   4.382  10.358  0.0098  0.3199  0.4021
  524TMC3    O1 7843   0.627   4.177  10.079 -0.0343 -0.5366  0.0246
  524TMC3    O2 7844   1.021   4.480  10.378 -0.6170 -0.2041 -0.0385
  525MPD2     C 7845   3.938   1.303  14.345  0.3543  0.8109 -0.1402
  525MPD2    C1 7846   4.047   1.303  14.422  0.2216  0.1690  0.4926
  525MPD2    C2 7847   4.143   1.396  14.401  0.3593 -0.0287 -0.0357
  525MPD2    C3 7848   4.130   1.492  14.304  0.3238 -0.2206 -0.1814
  525MPD2    C4 7849   4.014   1.501  14.231 -0.4634 -0.6614 -0.4718
  525MPD2    C5 7850   3.925   1.398  14.245  0.3227 -0.4813 -0.8798
  525MPD2     H 7851   4.232   1.387  14.462  0.0995 -0.3132  0.3018
  525MPD2    H1 7852   3.995   1.573  14.153  0.4514 -1.5136 -1.4737
  525MPD2    H2 7853   3.854   1.238  14.365  2.3599 -1.1680  1.7086
  525MPD2    H3 7854   3.827   1.411  14.201  0.4019  0.9395 -0.6572
  525MPD2     N 7855   4.220   1.592  14.276 -0.7189  0.0620  0.0121
  525MPD2    H5 7856   4.191   1.675  14.223  1.7826  1.1641  0.3636
  525MPD2    N1 7857   4.060   1.213  14.529 -0.4431  0.9192 -0.2250
  525MPD2    H7 7858   4.155   1.194  14.559 -0.5051  1.2578  0.1803
  526TMC3    C1 7859   3.973   1.104  14.727  0.4915  0.4592  0.3100
  526TMC3    C2 7860   3.879   1.129  14.821  0.3735  0.0961  0.8299
  526TMC3    C3 7861   3.898   1.081  14.948  0.3044 -0.0488 -1.0098
  526TMC3    C4 7862   4.073   1.008  14.746 -0.5565 -0.4072 -0.4006
  526TMC3    C5 7863   4.097   0.966  14.872 -0.0419  0.0068 -0.1394
  526TMC3    C6 7864   4.008   0.997  14.974 -0.1141  0.0505 -0.7071
  526TMC3     C 7865   3.949   1.156  14.591  0.5151 -0.2611  0.2439
  526TMC3     O 7866   3.832   1.194  14.584  0.0917 -1.2200  0.5744
  526TMC3     H 7867   3.802   1.202  14.798 -0.3847 -2.2886 -4.0902
  526TMC3    H1 7868   4.146   0.984  14.669 -0.8929  0.2517 -0.9337
  526TMC3    H2 7869   4.028   0.957  15.073 -1.5323  1.2475  0.0588
  526TMC3    C7 7870   4.210   0.875  14.890  0.0714 -0.0623 -0.1039
  526TMC3    C8 7871   3.830   1.156  15.052  0.0733 -0.2317  0.2080
  526TMC3    O1 7872   4.239   0.861  15.007 -0.0495 -0.0904  0.0516
  526TMC3    O2 7873   3.791   1.272  15.035 -0.9363 -0.4947  0.6281
  527MPD2     C 7874   1.822   4.177   1.535  0.1082 -0.1548  0.4414
  527MPD2    C1 7875   1.784   4.215   1.410 -0.4799 -0.0984 -0.1968
  527MPD2    C2 7876   1.847   4.151   1.304 -0.3176  0.5341  0.6267
  527MPD2    C3 7877   1.952   4.063   1.321  0.0615 -1.0160 -0.3734
  527MPD2    C4 7878   1.997   4.043   1.451  0.3396  0.0664 -0.1163
  527MPD2    C5 7879   1.928   4.093   1.557  0.2469 -0.6620 -0.1706
  527MPD2     H 7880   1.804   4.173   1.207  1.3304  1.3911  0.0998
  527MPD2    H1 7881   2.071   3.967   1.476 -0.6497 -0.9601 -0.3411
  527MPD2    H2 7882   1.777   4.230   1.619  2.0445  3.0238 -0.5050
  527MPD2    H3 7883   1.952   4.079   1.662 -0.6235  0.8122  0.2250
  527MPD2     N 7884   2.025   4.000   1.215  0.9574 -0.1228  0.0257
  527MPD2    H5 7885   1.985   4.017   1.123 -0.8332 -2.3553  0.4028
  527MPD2    N1 7886   1.684   4.309   1.388  0.0351  0.3251 -0.2488
  527MPD2    H7 7887   1.655   4.319   1.291 -1.0605 -0.1011  0.0332
  528TMC3    C1 7888   1.514   4.469   1.416  0.2311 -0.5204 -0.2008
  528TMC3    C2 7889   1.530   4.513   1.285  0.9045 -1.2142 -1.3282
  528TMC3    C3 7890   1.426   4.573   1.224 -0.0212  0.3570  0.5622
  528TMC3    C4 7891   1.405   4.500   1.485  0.1719 -0.2363 -0.5022
  528TMC3    C5 7892   1.294   4.550   1.415  0.4754  0.6209  0.1755
  528TMC3    C6 7893   1.307   4.597   1.290 -0.7216 -0.4187  0.3302
  528TMC3     C 7894   1.608   4.375   1.487 -0.1874  0.2650 -0.1312
  528TMC3     O 7895   1.605   4.376   1.610 -0.6294 -0.2319  0.2463
  528TMC3     H 7896   1.625   4.510   1.231  1.5818 -0.6900 -0.1616
  528TMC3    H1 7897   1.395   4.451   1.581 -0.6626  0.0382 -0.4527
  528TMC3    H2 7898   1.219   4.631   1.237 -1.1724 -0.9446  0.7437
  528TMC3    C7 7899   1.166   4.557   1.490 -0.0846 -0.6369  0.2788
  528TMC3    C8 7900   1.431   4.592   1.077  0.8281  0.2745 -0.7761
  528TMC3    O1 7901   1.073   4.605   1.427 -0.7096  0.8942 -0.1566
  528TMC3    O2 7902   1.507   4.518   1.009  0.0321  0.5680  0.3240
  529MPD2     C 7903   3.761   2.632   1.213  0.5817 -0.8468 -0.6588
  529MPD2    C1 7904   3.899   2.654   1.189  0.4122 -0.1952  0.0666
  529MPD2    C2 7905   3.935   2.778   1.131  0.5153  0.7963  1.0593
  529MPD2    C3 7906   3.835   2.871   1.101  0.3151 -0.5378 -0.4780
  529MPD2    C4 7907   3.699   2.847   1.117 -0.0447 -0.2871  0.3204
  529MPD2    C5 7908   3.664   2.717   1.164 -0.4787  0.0605 -0.4853
  529MPD2     H 7909   4.040   2.801   1.118  0.4400  0.2862 -0.4502
  529MPD2    H1 7910   3.617   2.914   1.091  0.9031  0.9199  0.4441
  529MPD2    H2 7911   3.722   2.541   1.258  0.1063  0.0635  0.7696
  529MPD2    H3 7912   3.560   2.699   1.192 -0.4528 -0.8318 -0.9745
  529MPD2     N 7913   3.861   3.000   1.039  0.5650  0.4090 -0.1223
  529MPD2    H5 7914   3.787   3.067   1.022 -0.6134 -0.9084 -0.1388
  529MPD2    N1 7915   4.003   2.568   1.234 -0.5698  0.8531  0.2322
  529MPD2    H7 7916   4.098   2.599   1.221 -0.6808  1.6852  1.3761
  530TMC3    C1 7917   4.078   2.390   1.375 -0.3272  0.3540 -0.7959
  530TMC3    C2 7918   4.182   2.469   1.406 -0.2633  0.6858  0.0151
  530TMC3    C3 7919   4.285   2.421   1.471  0.4499 -0.0271  0.1798
  530TMC3    C4 7920   4.085   2.256   1.387 -0.4057 -0.3056  0.3010
  530TMC3    C5 7921   4.190   2.208   1.465  0.3997 -0.8881  0.0784
  530TMC3    C6 7922   4.294   2.288   1.503 -0.1901  0.2928  0.5619
  530TMC3     C 7923   3.971   2.438   1.288 -0.2896 -0.2214 -0.2322
  530TMC3     O 7924   3.883   2.365   1.253 -0.1899 -0.3242 -0.2505
  530TMC3     H 7925   4.175   2.576   1.392 -1.6056  0.5252 -0.6310
  530TMC3    H1 7926   3.998   2.195   1.364  0.4948 -1.4898  0.0862
  530TMC3    H2 7927   4.378   2.262   1.567  0.0270 -1.9747 -0.6268
  530TMC3    C7 7928   4.214   2.068   1.483  0.6366  0.4286  0.4932
  530TMC3    C8 7929   4.395   2.515   1.486 -0.9714 -0.0711  0.4154
  530TMC3    O1 7930   4.324   2.047   1.531  0.3321 -0.0893  0.2484
  530TMC3    O2 7931   4.371   2.631   1.504 -0.0608 -0.7079 -0.0768
  531MPD2     C 7932   2.940   4.566  13.721 -0.0571 -0.2469 -0.4805
  531MPD2    C1 7933   2.965   4.653  13.618  0.2164 -0.4938 -0.0609
  531MPD2    C2 7934   2.902   4.623  13.497 -0.7512  1.3439 -1.2281
  531MPD2    C3 7935   2.838   4.509  13.475 -0.1662  0.2421 -1.0992
  531MPD2    C4 7936   2.812   4.421  13.581 -0.3133  0.2135 -0.2719
  531MPD2    C5 7937   2.856   4.458  13.708 -0.0535  0.1997 -0.6035
  531MPD2     H 7938   2.921   4.675  13.404  0.0001  1.0175 -1.2512
  531MPD2    H1 7939   2.772   4.321  13.567  1.9411 -0.8685  1.1236
  531MPD2    H2 7940   2.991   4.582  13.815  0.6542 -0.1581 -0.8846
  531MPD2    H3 7941   2.854   4.382  13.786  3.3422  1.7829  1.0382
  531MPD2     N 7942   2.792   4.485  13.347 -0.1417  0.6961  0.5912
  531MPD2    H5 7943   2.797   4.562  13.281 -1.5497  0.9411  0.7886
  531MPD2    N1 7944   3.059   0.025  13.631  0.1017 -0.2520 -0.1558
  531MPD2    H7 7945   3.105   0.035  13.721 -0.3464 -0.0620  0.0512
  532TMC3    C1 7946   3.184   0.222  13.563  0.4890  0.2792 -0.0308
  532TMC3    C2 7947   3.163   0.329  13.482  0.0795  0.9789  0.2220
  532TMC3    C3 7948   3.269   0.379  13.407 -0.3750 -0.2504 -0.1450
  532TMC3    C4 7949   3.307   0.169  13.580 -0.8761 -0.5010  0.0386
  532TMC3    C5 7950   3.409   0.232  13.519  0.6978  0.3536  0.1543
  532TMC3    C6 7951   3.396   0.330  13.425  0.3246  0.1274  0.1678
  532TMC3     C 7952   3.079   0.121  13.535 -0.2535  0.3870  0.0594
  532TMC3     O 7953   3.011   0.149  13.442  0.8259  0.6234  0.2776
  532TMC3     H 7954   3.061   0.363  13.467 -0.6603 -1.4835 -0.3571
  532TMC3    H1 7955   3.319   0.080  13.640  2.1792  1.7239  2.7009
  532TMC3    H2 7956   3.476   0.365  13.361  0.4847  0.0267  0.3129
  532TMC3    C7 7957   3.544   0.183  13.548  0.1014 -0.4317 -0.3268
  532TMC3    C8 7958   3.247   0.388  13.265  0.0573 -0.0730  0.4247
  532TMC3    O1 7959   3.639   0.256  13.519 -0.2484  0.2923 -0.2457
  532TMC3    O2 7960   3.311   0.469  13.199  0.0008 -0.3661  0.0449
  533TMC3    C1 7961   4.398   1.723  14.282 -0.1631  0.0417 -0.1864
  533TMC3    C2 7962   4.533   1.733  14.275  0.3007 -0.5427  0.6963
  533TMC3    C3 7963   4.584   1.859  14.260 -0.4199  0.3792 -0.1553
  533TMC3    C4 7964   4.317   1.837  14.273 -0.3135 -0.1215 -0.6852
  533TMC3    C5 7965   4.373   1.959  14.253 -0.0215  0.1514  0.6884
  533TMC3    C6 7966   4.515   1.973  14.249 -0.1205  0.8900  0.5291
  533TMC3     C 7967   4.348   1.590  14.312  0.0482  0.7762  0.4025
  533TMC3     O 7968   4.412   1.496  14.357 -0.3299 -0.2551 -0.1499
  533TMC3     H 7969   4.597   1.645  14.273 -0.1499 -0.8708  0.7282
  533TMC3    H1 7970   4.208   1.838  14.267 -0.1872  2.4816 -2.4530
  533TMC3    H2 7971   4.562   2.070  14.238  0.0018  0.7674 -0.0118
  533TMC3    C7 7972   4.294   2.064  14.321 -0.2098 -1.4878 -0.2746
  533TMC3    C8 7973   4.727   1.883  14.290 -0.4692 -0.2521  0.4270
  533TMC3    O1 7974   4.174   2.066  14.301  0.1230 -0.2258 -0.4327
  533TMC3    O2 7975   0.038   1.985  14.239  0.1327 -0.6465  0.2600
  534MPD2     C 7976   2.659   2.621   1.030 -0.5849 -0.2804  0.2391
  534MPD2    C1 7977   2.571   2.681   1.119 -0.1758 -0.0213  0.0401
  534MPD2    C2 7978   2.437   2.639   1.113  0.5307 -0.6199  0.0526
  534MPD2    C3 7979   2.398   2.532   1.036 -0.2333 -0.3730  0.1277
  534MPD2    C4 7980   2.489   2.475   0.948  0.0881 -0.3501  0.4543
  534MPD2    C5 7981   2.621   2.522   0.942  0.4234 -0.3624 -0.5065
  534MPD2     H 7982   2.365   2.697   1.167  0.7702  0.4905 -0.8155
  534MPD2    H1 7983   2.455   2.399   0.879 -3.1570  1.8331 -0.3434
  534MPD2    H2 7984   2.764   2.648   1.027 -0.5530 -0.5766 -1.5127
  534MPD2    H3 7985   2.683   2.493   0.858  1.6110 -1.8539  0.8560
  534MPD2     N 7986   2.268   2.492   1.029 -0.7259  0.2614  0.1764
  534MPD2    H5 7987   2.230   2.432   0.956 -2.6771  1.3394  0.2877
  534MPD2    N1 7988   2.606   2.795   1.188 -0.4165  0.1081  0.4096
  534MPD2    H7 7989   2.530   2.852   1.225  0.0007  0.2874  0.9911
  535TMC3    C1 7990   2.036   2.503   1.073 -0.6020  0.5964  0.1712
  535TMC3    C2 7991   1.937   2.472   1.166  0.3422 -0.1233 -0.9002
  535TMC3    C3 7992   1.809   2.456   1.109  0.6074 -0.3424 -0.6459
  535TMC3    C4 7993   2.027   2.519   0.940  0.6260 -0.1342  0.3263
  535TMC3    C5 7994   1.897   2.503   0.889 -0.2639 -0.3315  0.6651
  535TMC3    C6 7995   1.788   2.465   0.973  1.0887 -0.4015 -0.0640
  535TMC3     C 7996   2.170   2.520   1.124  0.8800 -0.3705  0.1069
  535TMC3     O 7997   2.197   2.524   1.244 -0.1933 -0.5129  0.0476
  535TMC3     H 7998   1.961   2.459   1.270  0.4824  1.4120 -0.7446
  535TMC3    H1 7999   2.106   2.552   0.873  1.3530  0.4566  1.4975
  535TMC3    H2 8000   1.693   2.445   0.925  2.0386 -1.8364 -1.3466
  535TMC3    C7 8001   1.859   2.575   0.771 -0.0776 -0.2817  0.2639
  535TMC3    C8 8002   1.695   2.475   1.198 -0.4022 -1.0905  0.5043
  535TMC3    O1 8003   1.753   2.536   0.712 -0.7241  0.3575  0.9064
  535TMC3    O2 8004   1.586   2.462   1.149 -0.0462  0.1810 -0.0278
  536MPD2     C 8005   0.747   1.338  16.391 -0.2917  0.5080  0.5880
  536MPD2    C1 8006   0.611   1.326  16.398 -0.0584 -0.5323  1.0274
  536MPD2    C2 8007   0.525   1.395  16.316 -1.1186 -0.3211 -0.6328
  536MPD2    C3 8008   0.586   1.489  16.229  0.2740 -0.7349 -0.1073
  536MPD2    C4 8009   0.724   1.498  16.217  0.6424  0.1751  0.3128
  536MPD2    C5 8010   0.805   1.421  16.296  0.1203  0.8703  0.1706
  536MPD2     H 8011   0.418   1.381  16.325 -0.8483 -2.2540 -0.5711
  536MPD2    H1 8012   0.765   1.576  16.153  3.2067 -0.9921  0.5691
  536MPD2    H2 8013   0.811   1.282  16.458 -1.2144  0.1708  1.1878
  536MPD2    H3 8014   0.913   1.428  16.286  0.0586 -0.4182 -1.3919
  536MPD2     N 8015   0.509   1.569  16.143 -0.0844  0.1719 -0.4190
  536MPD2    H5 8016   0.567   1.611  16.070  0.9921 -0.8988 -0.1775
  536MPD2    N1 8017   0.562   1.226  16.487  0.2149  0.0703  0.0558
  536MPD2    H7 8018   0.633   1.167  16.528  1.6611  0.8489 -1.3298
  537TMC3    C1 8019   0.426   1.096  16.632 -0.0746  0.6285 -0.6111
  537TMC3    C2 8020   0.498   1.136  16.740  0.0720 -0.1039  0.1835
  537TMC3    C3 8021   0.471   1.077  16.858 -0.0362 -0.1884  0.7494
  537TMC3    C4 8022   0.320   1.007  16.651 -0.0400 -0.5560  0.3582
  537TMC3    C5 8023   0.306   0.944  16.772 -0.4618  0.5614  0.2205
  537TMC3    C6 8024   0.384   0.976  16.877 -0.5424 -0.2308  0.0236
  537TMC3     C 8025   0.438   1.183  16.514 -0.1258  0.0680  0.1277
  537TMC3     O 8026   0.328   1.221  16.471 -0.2147 -0.6515  0.5224
  537TMC3     H 8027   0.565   1.220  16.727  0.5086 -0.2941  1.2631
  537TMC3    H1 8028   0.271   0.980  16.558 -1.4265  0.2622  0.8480
  537TMC3    H2 8029   0.375   0.934  16.976 -1.1348  1.6104  0.7502
  537TMC3    C7 8030   0.193   0.849  16.790 -0.0531 -0.4468 -0.2214
  537TMC3    C8 8031   0.533   1.130  16.978 -0.1401  0.2534  0.8283
  537TMC3    O1 8032   0.094   0.870  16.722 -0.1654  0.3472  0.0248
  537TMC3    O2 8033   0.548   1.054  17.072  0.4987 -0.3064  0.7430
  538TMC3    C1 8034   1.863   3.663  11.602 -0.1962 -0.1423  0.8407
  538TMC3    C2 8035   1.892   3.548  11.529 -0.4185  0.2861  0.1209
  538TMC3    C3 8036   1.871   3.567  11.403  0.4345 -0.1657  0.5541
  538TMC3    C4 8037   1.809   3.783  11.554 -0.2303 -0.2734 -0.1766
  538TMC3    C5 8038   1.767   3.778  11.430 -0.2528  0.1353 -0.2862
  538TMC3    C6 8039   1.811   3.677  11.348  0.2700  0.1662 -0.0995
  538TMC3     C 8040   1.953   3.671  11.717  0.0211  0.2325 -0.1981
  538TMC3     O 8041   1.991   3.564  11.766 -0.4852  0.6439  0.7028
  538TMC3     H 8042   1.946   3.460  11.562 -0.6788 -0.2282 -0.8138
  538TMC3    H1 8043   1.795   3.870  11.617  1.4298  0.0798 -0.3023
  538TMC3    H2 8044   1.792   3.671  11.242 -1.1269 -0.9136  0.2132
  538TMC3    C7 8045   1.695   3.878  11.362  0.3316  0.3917 -0.2767
  538TMC3    C8 8046   1.958   3.485  11.317  0.2486  0.4134 -0.5946
  538TMC3    O1 8047   1.634   3.847  11.260 -0.3090 -0.8699 -0.1014
  538TMC3    O2 8048   2.017   3.392  11.368  0.3586  0.2349  0.5412
  539MPD2     C 8049   1.612   3.485  11.914 -0.0435 -0.4406 -0.2122
  539MPD2    C1 8050   1.582   3.466  11.780 -1.7279  0.6053  0.8180
  539MPD2    C2 8051   1.530   3.571  11.706  0.0436 -0.8622  1.0001
  539MPD2    C3 8052   1.519   3.698  11.756  0.2659 -0.0835  0.3197
  539MPD2    C4 8053   1.566   3.719  11.890  0.1340  0.0277 -0.3942
  539MPD2    C5 8054   1.608   3.614  11.969  0.3433 -0.2687  0.0989
  539MPD2     H 8055   1.491   3.544  11.608 -1.1955  1.0357  0.9538
  539MPD2    H1 8056   1.554   3.814  11.941  2.4077 -1.0220  2.1364
  539MPD2    H2 8057   1.644   3.406  11.980  0.6654  0.2759  0.3120
  539MPD2    H3 8058   1.619   3.628  12.076  0.9354  1.6220 -0.2247
  539MPD2     N 8059   1.456   3.815  11.695 -0.2972 -0.4363  0.3864
  539MPD2    H5 8060   1.452   3.902  11.748 -1.2791 -0.7793  0.8877
  539MPD2    N1 8061   1.593   3.340  11.710 -0.1728 -0.1097  0.2315
  539MPD2    H7 8062   1.568   3.338  11.611  2.4144 -0.0678 -0.4047
  540TMC3    C1 8063   1.309   3.940  11.549 -1.0035  0.1060 -0.4209
  540TMC3    C2 8064   1.288   3.975  11.417 -0.0535 -1.0348 -0.0999
  540TMC3    C3 8065   1.190   4.072  11.393  1.2986  0.2442  0.2346
  540TMC3    C4 8066   1.237   3.988  11.654  0.0326  0.0010  0.1850
  540TMC3    C5 8067   1.137   4.078  11.624  0.3607 -0.4336  0.2209
  540TMC3    C6 8068   1.114   4.125  11.497  0.7925 -0.6278 -0.4680
  540TMC3     C 8069   1.393   3.815  11.573 -0.3216  0.1436 -0.4652
  540TMC3     O 8070   1.395   3.727  11.485  0.6694 -0.2638  0.0959
  540TMC3     H 8071   1.354   3.934  11.340 -1.9101 -1.2639 -1.5622
  540TMC3    H1 8072   1.256   3.957  11.756 -0.1081 -0.8865 -0.0570
  540TMC3    H2 8073   1.032   4.188  11.465  1.0355  0.1742  0.5081
  540TMC3    C7 8074   1.029   4.085  11.721  0.5355  0.4441 -0.5830
  540TMC3    C8 8075   1.121   4.056  11.269  0.3714  0.2588  0.5367
  540TMC3    O1 8076   1.026   4.008  11.815  0.4046 -0.1631 -0.3080
  540TMC3    O2 8077   1.054   4.152  11.227 -0.4072  0.1678  0.0932
  541MPD2     C 8078   0.018   0.026  13.209  0.1070  0.4215 -0.9434
  541MPD2    C1 8079   4.726   4.645  13.137  0.0853  0.6058  0.4776
  541MPD2    C2 8080   4.705   4.647  13.000  0.2475  0.3184 -0.1515
  541MPD2    C3 8081   4.703   0.033  12.935 -0.4856 -0.4975  0.3100
  541MPD2    C4 8082   4.720   0.153  13.010  0.4352  0.5037  0.6223
  541MPD2    C5 8083   4.729   0.149  13.144 -0.2003 -0.1191  0.0762
  541MPD2     H 8084   4.676   4.552  12.957 -0.2575  0.0039  0.8734
  541MPD2    H1 8085   4.706   0.252  12.967 -1.0666 -0.7941 -1.8678
  541MPD2    H2 8086   0.038   0.014  13.314  1.1004 -2.2378 -1.4327
  541MPD2    H3 8087   4.734   0.240  13.203 -1.6442 -0.6846  1.0768
  541MPD2     N 8088   4.676   0.044  12.796 -0.5039  0.3176  0.7691
  541MPD2    H5 8089   4.675   0.140  12.764 -0.8820  0.5685  1.5393
  541MPD2    N1 8090   4.723   4.518  13.199 -0.2615  0.0438  0.0302
  541MPD2    H7 8091   4.706   4.438  13.139 -0.9447  1.8481 -2.1667
  542TMC3    C1 8092   4.576   0.012  12.599 -0.9915 -0.2129  0.4884
  542TMC3    C2 8093   4.618   4.710  12.475 -0.3300 -0.2280  0.6622
  542TMC3    C3 8094   4.570   0.045  12.366  0.2616  0.1602 -0.3087
  542TMC3    C4 8095   4.492   0.118  12.619  0.1544  0.8291 -0.1698
  542TMC3    C5 8096   4.431   0.175  12.509 -0.3439 -0.0221  0.2350
  542TMC3    C6 8097   4.466   0.136  12.380  0.5441 -0.3612 -0.5635
  542TMC3     C 8098   4.633   4.680  12.713 -0.2078 -0.0482  0.0502
  542TMC3     O 8099   4.633   4.560  12.719 -0.3582  0.1746  0.1493
  542TMC3     H 8100   4.666   4.614  12.465 -0.6784 -0.3232 -0.1111
  542TMC3    H1 8101   4.464   0.147  12.720 -1.2457 -1.6216  0.1511
  542TMC3    H2 8102   4.436   0.189  12.291  0.3682 -0.0607 -0.3256
  542TMC3    C7 8103   4.409   0.324  12.521  0.6347  0.5406  0.2666
  542TMC3    C8 8104   4.596   0.002  12.235  0.9439 -0.3215  0.5491
  542TMC3    O1 8105   4.455   0.381  12.616 -0.3440 -0.7592 -0.1226
  542TMC3    O2 8106   4.506   0.026  12.155 -0.0708 -0.0107 -0.1741
  543TMC3    C1 8107   4.011   2.292  17.261  0.2400  0.1525 -0.1533
  543TMC3    C2 8108   4.014   2.166  17.319 -0.2101 -0.5314 -0.1715
  543TMC3    C3 8109   4.030   2.152  17.454  0.3097  1.0679 -0.0794
  543TMC3    C4 8110   4.024   2.405  17.336  0.1171 -0.2506  0.2708
  543TMC3    C5 8111   4.053   2.392  17.470  0.3854  0.3555 -0.1113
  543TMC3    C6 8112   4.048   2.266  17.534 -0.2169 -0.2673  0.1274
  543TMC3     C 8113   4.000   2.288  17.116 -0.3400 -0.4137 -0.7978
  543TMC3     O 8114   4.061   2.195  17.063 -1.0170  0.0068 -0.1750
  543TMC3     H 8115   3.987   2.083  17.255 -3.0023  0.8397 -0.7688
  543TMC3    H1 8116   4.037   2.495  17.278 -0.0155  0.0487  0.7057
  543TMC3    H2 8117   4.047   2.261  17.642 -1.5018 -3.7102 -0.0286
  543TMC3    C7 8118   4.053   2.507  17.554 -0.1796 -0.7682  0.2017
  543TMC3    C8 8119   3.960   2.039  17.515  0.4283  0.4562 -0.1876
  543TMC3    O1 8120   4.032   2.489  17.673  0.2765  0.2583  0.2925
  543TMC3    O2 8121   3.953   1.942  17.437  0.1653  0.4259 -0.0172
  544MPD2     C 8122   3.585   1.846   0.050  0.1230  0.6352  0.0533
  544MPD2    C1 8123   3.658   1.789  17.692  0.3752  0.8762  0.4159
  544MPD2    C2 8124   3.748   1.870  17.625  0.2429  0.4470  0.1285
  544MPD2    C3 8125   3.777   2.002  17.672 -0.3655 -0.6975 -0.2667
  544MPD2    C4 8126   3.697   2.057   0.032  0.6648 -0.0269  0.7425
  544MPD2    C5 8127   3.601   1.977   0.084  0.2887 -0.4546  0.3124
  544MPD2     H 8128   3.807   1.811  17.557  0.5270  0.5983  0.2442
  544MPD2    H1 8129   3.718   2.150   0.083  2.1457  0.6804 -1.1398
  544MPD2    H2 8130   3.517   1.795   0.117  0.3980 -1.8096 -1.5598
  544MPD2    H3 8131   3.546   2.011   0.171  1.7617 -0.2926  1.1847
  544MPD2     N 8132   3.873   2.082  17.610 -0.6291 -0.4030  0.5350
  544MPD2    H5 8133   3.895   2.173  17.649  2.2835 -1.1355  0.6499
  544MPD2    N1 8134   3.646   1.651  17.671 -0.3548 -0.4963 -0.0905
  544MPD2    H7 8135   3.589   1.603  17.741 -2.1470  0.9622 -0.5295
  545TMC3    C1 8136   3.735   1.432  17.655  0.0667  0.4070 -0.4941
  545TMC3    C2 8137   3.740   1.433   0.046  0.2304 -0.1221  0.4547
  545TMC3    C3 8138   3.769   1.312   0.096 -0.4455  0.2614  0.6695
  545TMC3    C4 8139   3.731   1.328  17.570 -0.6770  0.1326  0.6894
  545TMC3    C5 8140   3.755   1.211  17.629 -0.1453  0.6268 -0.2940
  545TMC3    C6 8141   3.779   1.198   0.023  0.1405  0.4613  0.2909
  545TMC3     C 8142   3.727   1.566  17.595 -1.1761  0.1542 -1.1398
  545TMC3     O 8143   3.770   1.588  17.484  0.2567  0.3826 -0.5399
  545TMC3     H 8144   3.750   1.521   0.108 -1.7135 -0.4125  1.1750
  545TMC3    H1 8145   3.720   1.342  17.463  0.9809 -0.2705  0.4604
  545TMC3    H2 8146   3.822   1.110   0.070 -2.0438  0.3229  2.0558
  545TMC3    C7 8147   3.712   1.094  17.556  0.1963 -0.5518 -0.5009
  545TMC3    C8 8148   3.798   1.306   0.242 -1.0366 -0.1234 -0.2686
  545TMC3    O1 8149   3.634   1.116  17.469  0.1173  0.4750 -0.0966
  545TMC3    O2 8150   3.805   1.415   0.303 -0.2643  0.2866  0.3082
  546MPD2     C 8151   0.544   1.781  16.933 -0.1467 -0.4273  0.6566
  546MPD2    C1 8152   0.479   1.790  17.055 -0.4976  1.2180 -0.1736
  546MPD2    C2 8153   0.534   1.871  17.154 -0.2608  0.4357  0.9461
  546MPD2    C3 8154   0.642   1.953  17.131 -0.5554  0.3496 -0.3423
  546MPD2    C4 8155   0.700   1.945  17.008 -0.1809  0.0242 -0.3649
  546MPD2    C5 8156   0.648   1.868  16.912  0.3049 -0.1772  0.9171
  546MPD2     H 8157   0.490   1.872  17.253  0.3833  1.8882  1.2173
  546MPD2    H1 8158   0.787   2.007  16.989  0.6829 -1.8931 -2.6629
  546MPD2    H2 8159   0.517   1.721  16.847 -0.2171  0.9414 -0.2931
  546MPD2    H3 8160   0.697   1.859  16.815 -3.6502  2.5173 -1.3435
  546MPD2     N 8161   0.697   2.045  17.228 -0.2607 -0.6324  0.1656
  546MPD2    H5 8162   0.775   2.097  17.189 -1.1229  2.6733  2.8189
  546MPD2    N1 8163   0.364   1.715  17.065  0.0719  0.4276 -0.7073
  546MPD2    H7 8164   0.339   1.665  16.981 -2.1588  2.5766 -1.3142
  547TMC3    C1 8165   0.165   1.635  17.153  0.2627  0.1299  0.4228
  547TMC3    C2 8166   0.091   1.666  17.045  0.1582  0.4490  0.0616
  547TMC3    C3 8167   4.692   1.631  17.045 -0.5966 -0.1661 -0.3128
  547TMC3    C4 8168   0.111   1.560  17.255  0.7412 -0.2617 -0.2220
  547TMC3    C5 8169   4.716   1.525  17.254  0.4082  0.0033  0.1903
  547TMC3    C6 8170   4.634   1.559  17.149  0.6517 -0.4987 -0.1508
  547TMC3     C 8171   0.290   1.710  17.179 -0.6715  0.7079  0.0383
  547TMC3     O 8172   0.310   1.753  17.292  0.3350 -0.2342  0.0879
  547TMC3     H 8173   0.121   1.738  16.969  1.4469 -1.0737 -0.8721
  547TMC3    H1 8174   0.164   1.533  17.346  0.3716 -0.4042 -0.0491
  547TMC3    H2 8175   4.530   1.530  17.151  1.3235 -2.7457  1.9361
  547TMC3    C7 8176   4.661   1.461  17.371  0.2246  0.4173 -0.1543
  547TMC3    C8 8177   4.613   1.652  16.922  1.0747  0.2373  0.2757
  547TMC3    O1 8178   4.713   1.478  17.481  1.0024  0.1657  0.2678
  547TMC3    O2 8179   4.639   1.751  16.854  0.3367 -0.0476  0.6463
  548MPD2     C 8180   0.550   1.874  12.548 -0.1521 -0.6883 -0.1663
  548MPD2    C1 8181   0.484   1.758  12.561  0.2138  0.0978 -0.2384
  548MPD2    C2 8182   0.536   1.649  12.493 -0.9716  0.2954  0.5276
  548MPD2    C3 8183   0.654   1.655  12.422 -0.1971 -0.0266  0.4981
  548MPD2    C4 8184   0.713   1.783  12.404 -0.4190  0.0307 -0.3415
  548MPD2    C5 8185   0.665   1.889  12.476  0.2139 -0.0842  0.4751
  548MPD2     H 8186   0.493   1.549  12.495  0.4298 -0.3375 -0.8095
  548MPD2    H1 8187   0.801   1.801  12.343 -1.5300  3.5216 -0.9149
  548MPD2    H2 8188   0.523   1.955  12.614 -0.6881  0.2631 -1.5674
  548MPD2    H3 8189   0.719   1.982  12.494  0.7103  0.2974 -3.0078
  548MPD2     N 8190   0.697   1.537  12.364 -0.0568  0.4459  0.0956
  548MPD2    H5 8191   0.635   1.461  12.389 -1.4471  1.5517 -0.0354
  548MPD2    N1 8192   0.364   1.750  12.634 -0.5784 -0.5255  0.6001
  548MPD2    H7 8193   0.333   1.843  12.657 -2.4924 -1.0750  0.2237
  549TMC3    C1 8194   0.157   1.669  12.729 -0.2846 -0.3242  0.2878
  549TMC3    C2 8195   0.098   1.782  12.680  0.6029  0.0322  0.3860
  549TMC3    C3 8196   4.698   1.795  12.702 -0.4029 -0.0301 -0.1797
  549TMC3    C4 8197   0.084   1.571  12.784 -1.1268 -0.0492  0.1633
  549TMC3    C5 8198   4.687   1.598  12.809  0.4946 -0.9913  0.3233
  549TMC3    C6 8199   4.624   1.704  12.763  0.0572  0.0615 -0.5159
  549TMC3     C 8200   0.292   1.641  12.671  0.2272  0.1463 -0.4020
  549TMC3     O 8201   0.318   1.523  12.651  0.2468  0.0464 -0.2631
  549TMC3     H 8202   0.150   1.842  12.607  2.6560 -1.0290  0.9715
  549TMC3    H1 8203   0.139   1.479  12.800 -0.8983 -0.1502 -1.1664
  549TMC3    H2 8204   4.516   1.701  12.760 -0.0365  1.2057  1.6732
  549TMC3    C7 8205   4.598   1.502  12.866 -0.4738  0.0666  0.2213
  549TMC3    C8 8206   4.627   1.913  12.656  0.0170  0.2534 -0.8504
  549TMC3    O1 8207   4.508   1.544  12.935 -0.9366  0.6707  0.0017
  549TMC3    O2 8208   4.510   1.920  12.695 -0.5006  0.6308 -0.3005
  550TMC3    C1 8209   4.543   4.267  12.159  0.4157  0.1177  0.0528
  550TMC3    C2 8210   4.557   4.260  12.296  0.0236 -0.9131 -0.8410
  550TMC3    C3 8211   4.511   4.361  12.373  0.2295  0.0403  0.1001
  550TMC3    C4 8212   4.471   4.357  12.095 -0.3756  0.2902 -0.2830
  550TMC3    C5 8213   4.407   4.456  12.172  0.2720  0.3582  0.5859
  550TMC3    C6 8214   4.431   4.452  12.306  0.8307  0.2372 -0.4372
  550TMC3     C 8215   4.594   4.167  12.065 -0.6720 -0.7056  0.7433
  550TMC3     O 8216   4.705   4.128  12.089 -0.1603  0.2004 -0.3512
  550TMC3     H 8217   4.598   4.170  12.340 -0.5890  0.6020  2.8325
  550TMC3    H1 8218   4.472   4.375  11.988 -1.4536  0.3035 -0.2893
  550TMC3    H2 8219   4.373   4.523  12.363 -1.0793 -1.6643 -0.0030
  550TMC3    C7 8220   4.271   4.499  12.132  0.2708 -0.3252 -0.4471
  550TMC3    C8 8221   4.433   4.327  12.488  0.7288 -0.1247  0.2137
  550TMC3    O1 8222   4.200   4.559  12.212 -0.0401 -0.0596 -0.1430
  550TMC3    O2 8223   4.403   4.418  12.564  0.3743  0.0443 -0.0410
  551TMC3    C1 8224   1.550   2.741  13.078 -0.0795 -0.2928 -0.3018
  551TMC3    C2 8225   1.673   2.730  13.016 -0.1814 -0.8212  0.4215
  551TMC3    C3 8226   1.770   2.804  13.071  0.0528 -0.1294  0.2038
  551TMC3    C4 8227   1.537   2.810  13.193 -0.4877  0.1905  0.2059
  551TMC3    C5 8228   1.642   2.878  13.248  0.1901  0.3740 -0.4676
  551TMC3    C6 8229   1.764   2.879  13.185 -0.5018 -0.0587  0.2313
  551TMC3     C 8230   1.433   2.667  13.014 -0.4279  0.0712 -0.2340
  551TMC3     O 8231   1.442   2.633  12.897 -0.1722 -0.1863 -0.0576
  551TMC3     H 8232   1.685   2.678  12.921 -1.1996 -1.9836  0.9250
  551TMC3    H1 8233   1.439   2.810  13.239 -1.1984 -1.6653 -1.2971
  551TMC3    H2 8234   1.848   2.918  13.241 -0.4548 -2.3922  1.7438
  551TMC3    C7 8235   1.630   2.921  13.388 -0.4111  0.3287  0.1330
  551TMC3    C8 8236   1.903   2.785  13.015 -0.0277 -0.2019  0.8516
  551TMC3    O1 8237   1.733   2.924  13.454 -0.3760 -0.3243 -0.5956
  551TMC3    O2 8238   1.921   2.681  12.956  0.1440 -0.0101 -0.0341
  552MPD2     C 8239   3.160   4.632  14.351  0.3200 -0.4087  0.0762
  552MPD2    C1 8240   3.152   4.527  14.436  0.6605  0.1446  0.1695
  552MPD2    C2 8241   3.228   4.511  14.546 -0.2347 -0.7167 -0.7065
  552MPD2    C3 8242   3.331   4.595  14.571 -0.1584 -0.1038 -0.0295
  552MPD2    C4 8243   3.354   4.696  14.483  0.1349 -0.3366 -0.0655
  552MPD2    C5 8244   3.270   4.716  14.370 -0.1662  0.4747 -0.6663
  552MPD2     H 8245   3.218   4.419  14.602  3.0789 -0.7114 -0.0902
  552MPD2    H1 8246   3.437   0.029  14.483 -1.1070  1.1660  0.1782
  552MPD2    H2 8247   3.096   4.650  14.265  1.2578 -2.5168 -1.0850
  552MPD2    H3 8248   3.290   0.066  14.307  0.0177  0.7325 -0.2642
  552MPD2     N 8249   3.436   4.562  14.661  0.4399  0.3982  0.2572
  552MPD2    H5 8250   3.521   4.616  14.658 -0.3083  1.6098  0.9496
  552MPD2    N1 8251   3.070   4.414  14.406  0.1582 -0.5682  0.5270
  552MPD2    H7 8252   3.059   4.346  14.480  1.5537 -0.7657  0.5666
  553TMC3    C1 8253   2.995   4.243  14.274 -0.1717  1.2745 -0.1578
  553TMC3    C2 8254   3.024   4.195  14.152  0.5853 -0.0402  0.3093
  553TMC3    C3 8255   3.090   4.074  14.136 -0.0578  0.8274 -0.4023
  553TMC3    C4 8256   3.026   4.168  14.387 -0.4018 -0.1646  0.4511
  553TMC3    C5 8257   3.094   4.054  14.369  0.1045  0.5477 -0.3462
  553TMC3    C6 8258   3.136   4.004  14.249 -0.9327 -0.0082 -0.1330
  553TMC3     C 8259   3.015   4.388  14.283  0.1379 -0.5525  1.0631
  553TMC3     O 8260   3.019   4.455  14.177  0.2808  0.2266  0.2235
  553TMC3     H 8261   3.010   4.266  14.072 -1.5544 -0.6450  0.1456
  553TMC3    H1 8262   2.993   4.199  14.486  1.0417  0.1853  0.8191
  553TMC3    H2 8263   3.195   3.913  14.249  1.0770  1.2727  0.9778
  553TMC3    C7 8264   3.187   4.031  14.478  0.1938 -0.9620  0.2795
  553TMC3    C8 8265   3.144   4.044  14.010  0.0255 -0.0630 -0.0077
  553TMC3    O1 8266   3.141   4.019  14.592  0.3333 -0.0201  0.5874
  553TMC3    O2 8267   3.255   3.990  14.010  0.1123 -0.3302 -0.9459
  554TMC3    C1 8268   0.720   3.690  11.596  0.3055 -0.7055  0.2555
  554TMC3    C2 8269   0.605   3.638  11.540 -0.6332 -0.4751 -0.6170
  554TMC3    C3 8270   0.521   3.720  11.485  0.8222  0.0173  0.3676
  554TMC3    C4 8271   0.750   3.823  11.590 -0.2201  0.5368 -0.0672
  554TMC3    C5 8272   0.650   3.902  11.536 -0.6574  0.1732  0.2639
  554TMC3    C6 8273   0.535   3.857  11.489 -0.6396 -0.3191  0.0169
  554TMC3     C 8274   0.764   3.651  11.733 -0.4650  0.6166 -0.2865
  554TMC3     O 8275   0.801   3.742  11.808  0.4905 -0.3875 -0.4875
  554TMC3     H 8276   0.593   3.531  11.526  0.9147 -0.9725  1.6968
  554TMC3    H1 8277   0.846   3.863  11.619 -0.8991  2.7160 -0.7984
  554TMC3    H2 8278   0.450   3.913  11.452  0.0269  0.5777 -0.1566
  554TMC3    C7 8279   0.702   4.014  11.469 -0.4002  0.0310 -0.9209
  554TMC3    C8 8280   0.455   3.677  11.363  0.5736 -0.1047  0.9671
  554TMC3    O1 8281   0.819   3.995  11.435  0.2316 -0.2056  0.0781
  554TMC3    O2 8282   0.422   3.761  11.287 -0.1331 -0.0408  0.1145
  555TMC3    C1 8283   4.014   3.786  15.194 -0.2877 -0.1482  0.0901
  555TMC3    C2 8284   4.007   3.815  15.328 -0.1690  0.2123  0.3404
  555TMC3    C3 8285   4.094   3.752  15.414 -0.8309 -0.2495 -0.3397
  555TMC3    C4 8286   4.106   3.702  15.149 -0.5219 -0.1683  0.1667
  555TMC3    C5 8287   4.194   3.637  15.235 -0.5677 -0.0448 -0.1147
  555TMC3    C6 8288   4.183   3.653  15.371  0.5311 -0.2226 -0.6622
  555TMC3     C 8289   3.893   3.809  15.119  0.6482 -0.6078 -0.3954
  555TMC3     O 8290   3.797   3.844  15.186 -0.2166  0.2878 -0.3771
  555TMC3     H 8291   3.931   3.885  15.360 -0.2698 -0.1589  0.9170
  555TMC3    H1 8292   4.112   3.668  15.046  0.6413 -1.0876  0.5475
  555TMC3    H2 8293   4.251   3.606  15.440  0.6268 -0.8604 -1.1950
  555TMC3    C7 8294   4.234   3.504  15.191 -0.4023  0.2939  0.4940
  555TMC3    C8 8295   4.083   3.791  15.554 -0.1771 -0.0747  0.0552
  555TMC3    O1 8296   4.160   3.435  15.117 -0.6726  0.6514 -0.2548
  555TMC3    O2 8297   3.985   3.848  15.597  0.2134 -0.4066  0.5270
  556MPD2     C 8298   2.450   4.644  10.769  0.1857 -0.1175  0.2917
  556MPD2    C1 8299   2.417   4.559  10.876  0.4068 -0.1887  0.4076
  556MPD2    C2 8300   2.373   4.430  10.851  0.3453  0.5206  0.5261
  556MPD2    C3 8301   2.381   4.388  10.719  0.3645 -0.0667 -0.3942
  556MPD2    C4 8302   2.415   4.476  10.618  0.8317  0.4383 -0.6296
  556MPD2    C5 8303   2.446   4.604  10.640 -0.3654  0.3624 -0.7184
  556MPD2     H 8304   2.337   4.366  10.931 -0.1617  2.3371  1.7435
  556MPD2    H1 8305   2.416   4.459  10.511  1.3169  2.3581 -0.9323
  556MPD2    H2 8306   2.474   0.014  10.776  1.6978 -0.5326  1.3878
  556MPD2    H3 8307   2.467   4.671  10.557 -1.2418  1.1286 -0.3251
  556MPD2     N 8308   2.354   4.254  10.686 -0.3814 -0.1730  0.1881
  556MPD2    H5 8309   2.340   4.206  10.775 -1.7724 -1.4785 -0.7364
  556MPD2    N1 8310   2.410   4.596  11.006  0.1135 -0.2809 -0.0172
  556MPD2    H7 8311   2.370   4.537  11.078  0.0374  0.0118  0.1770
  557TMC3    C1 8312   2.348   4.042  10.560 -0.3033  0.3858 -0.4402
  557TMC3    C2 8313   2.342   3.976  10.444 -0.1579 -0.4353 -0.1395
  557TMC3    C3 8314   2.344   3.843  10.454 -1.0259  0.9448 -0.0182
  557TMC3    C4 8315   2.340   3.978  10.687  0.0401 -0.1900  0.3751
  557TMC3    C5 8316   2.347   3.841  10.696 -0.2860  0.3003  0.1500
  557TMC3    C6 8317   2.348   3.773  10.573  0.6815  0.5596  0.1107
  557TMC3     C 8318   2.371   4.191  10.559  0.5346 -0.1923 -0.4684
  557TMC3     O 8319   2.393   4.245  10.454  0.0128  0.5767  0.1563
  557TMC3     H 8320   2.367   4.026  10.351  1.1555  0.3070  0.6081
  557TMC3    H1 8321   2.345   4.029  10.783  2.1344 -0.4107  0.3721
  557TMC3    H2 8322   2.341   3.665  10.572  1.3920  0.4863  2.2269
  557TMC3    C7 8323   2.285   3.782  10.812  1.1264 -0.6367  0.6084
  557TMC3    C8 8324   2.337   3.770  10.331  0.1602 -0.8489  0.5627
  557TMC3    O1 8325   2.221   3.854  10.888 -0.8509 -0.3994  0.0983
  557TMC3    O2 8326   2.296   3.833  10.235 -0.1798 -0.2476  0.2933
  558TMC3    C1 8327   0.359   2.104   9.638  0.5159 -0.2668 -0.2631
  558TMC3    C2 8328   0.270   2.127   9.743 -0.0485  0.2063  0.7548
  558TMC3    C3 8329   0.140   2.098   9.707  0.3281  0.1503  0.3900
  558TMC3    C4 8330   0.320   2.067   9.510  0.1466 -1.1110  0.1817
  558TMC3    C5 8331   0.187   2.043   9.488 -0.5511 -0.0441 -0.0981
  558TMC3    C6 8332   0.097   2.046   9.589 -0.6609  0.1911 -0.2885
  558TMC3     C 8333   0.490   2.140   9.659  0.2452  0.5630  0.8279
  558TMC3     O 8334   0.540   2.129   9.769  0.2300  0.3990 -0.2413
  558TMC3     H 8335   0.294   2.168   9.840 -1.6907  0.6576  0.9802
  558TMC3    H1 8336   0.383   2.044   9.425 -0.3479  0.0429 -0.4980
  558TMC3    H2 8337   4.732   2.017   9.564 -0.4304 -0.7998 -0.0966
  558TMC3    C7 8338   0.163   1.960   9.371 -0.3406 -0.5724 -0.3235
  558TMC3    C8 8339   0.032   2.138   9.802 -0.4746 -0.2612  1.0742
  558TMC3    O1 8340   0.253   1.897   9.314 -0.3621  0.2699 -0.8223
  558TMC3    O2 8341   4.654   2.145   9.754 -0.3131 -0.6697  0.4964
  559MPD2     C 8342   0.358   3.187  10.455 -0.4373  1.1609 -0.3654
  559MPD2    C1 8343   0.279   3.133  10.546 -0.2120  0.2991 -0.3008
  559MPD2    C2 8344   0.335   3.115  10.672  0.2303  0.6343  0.4072
  559MPD2    C3 8345   0.462   3.157  10.711 -0.0363 -0.3925  0.1109
  559MPD2    C4 8346   0.539   3.220  10.615  0.4511 -0.7241  0.3683
  559MPD2    C5 8347   0.486   3.230  10.487  0.2692  0.0185  0.2340
  559MPD2     H 8348   0.272   3.072  10.749  1.1564 -0.1134  0.7498
  559MPD2    H1 8349   0.630   3.272  10.642  1.0761 -0.9677 -1.2924
  559MPD2    H2 8350   0.320   3.204  10.354 -0.2140  0.7307 -0.5227
  559MPD2    H3 8351   0.545   3.283  10.413  1.0005  0.4091  1.0958
  559MPD2     N 8352   0.512   3.129  10.846  0.1638 -0.0496  0.2222
  559MPD2    H5 8353   0.450   3.084  10.912 -2.7647  1.9911 -1.1751
  559MPD2    N1 8354   0.149   3.102  10.504 -0.0873  0.6178 -0.1828
  559MPD2    H7 8355   0.116   3.142  10.417 -1.0655 -1.0766 -0.5943
  560TMC3    C1 8356   0.675   3.050  11.001  0.2980  0.2483  0.4788
  560TMC3    C2 8357   0.592   2.941  11.012  0.2528  0.3281 -0.0750
  560TMC3    C3 8358   0.596   2.878  11.133 -0.3888 -0.2475 -0.2656
  560TMC3    C4 8359   0.763   3.095  11.089  0.1432  0.7097 -0.8816
  560TMC3    C5 8360   0.756   3.030  11.212 -0.0991 -0.1367 -0.2617
  560TMC3    C6 8361   0.676   2.922  11.240  0.3541 -0.0887  0.2525
  560TMC3     C 8362   0.646   3.138  10.890  0.2349  0.4872  0.2875
  560TMC3     O 8363   0.736   3.197  10.832  0.2999  0.2293 -0.5827
  560TMC3     H 8364   0.530   2.899  10.934 -0.8867  0.2641  0.8732
  560TMC3    H1 8365   0.823   3.182  11.067  1.4870 -0.1059 -0.4905
  560TMC3    H2 8366   0.664   2.887  11.342  0.5108 -1.0061 -0.0526
  560TMC3    C7 8367   0.850   3.065  11.315 -0.3227  0.5014  0.3184
  560TMC3    C8 8368   0.497   2.775  11.155  0.2692 -0.3705 -0.5833
  560TMC3    O1 8369   0.837   2.999  11.419  0.7361  0.1561 -0.5230
  560TMC3    O2 8370   0.403   2.769  11.076  0.2115  0.2627 -0.0940
  561TMC3    C1 8371   3.093   1.893  11.193 -0.0749  0.2585  0.6351
  561TMC3    C2 8372   3.063   1.834  11.309  0.0949 -0.6391 -0.4787
  561TMC3    C3 8373   2.949   1.879  11.384  0.8056  0.4616 -0.8118
  561TMC3    C4 8374   3.029   2.003  11.142 -0.3688  0.3010 -0.3564
  561TMC3    C5 8375   2.927   2.061  11.219  0.5621 -0.0505 -0.1100
  561TMC3    C6 8376   2.888   1.995  11.334  0.0258  0.2697  0.0717
  561TMC3     C 8377   3.194   1.822  11.118 -0.2645  0.5470  0.2199
  561TMC3     O 8378   3.247   1.727  11.172  0.0620  0.2221  0.1297
  561TMC3     H 8379   3.103   1.741  11.346  0.9498  0.9254  2.5171
  561TMC3    H1 8380   3.071   2.050  11.054 -1.5038 -0.7727 -1.4595
  561TMC3    H2 8381   2.811   2.041  11.394 -0.1889  1.8004 -1.3967
  561TMC3    C7 8382   2.898   2.202  11.215  0.0866 -0.0302  0.0411
  561TMC3    C8 8383   2.930   1.825  11.520 -0.4158 -0.0147 -0.6328
  561TMC3    O1 8384   2.828   2.256  11.298 -0.2131  0.4192 -0.1660
  561TMC3    O2 8385   2.964   1.713  11.559 -1.2674  0.8002 -0.3631
  562TMC3    C1 8386   4.096   3.319  16.541  0.4064 -0.2727 -0.1816
  562TMC3    C2 8387   4.078   3.448  16.585 -0.4091  0.1724 -0.0131
  562TMC3    C3 8388   4.014   3.531  16.503 -0.1268 -0.2167  0.6374
  562TMC3    C4 8389   4.051   3.276  16.417 -1.0944  0.0710  0.1287
  562TMC3    C5 8390   3.957   3.359  16.356 -0.5840  0.6295 -0.3189
  562TMC3    C6 8391   3.939   3.490  16.395  0.9736 -0.2543  0.4746
  562TMC3     C 8392   4.178   3.238  16.629 -0.4102 -0.1367 -0.0518
  562TMC3     O 8393   4.203   3.291  16.734 -0.1822  0.6024 -0.6154
  562TMC3     H 8394   4.129   3.485  16.674 -1.0643 -0.9567  0.8383
  562TMC3    H1 8395   4.069   3.175  16.384 -0.3167  0.2559 -0.0171
  562TMC3    H2 8396   3.880   3.561  16.339  2.3624  2.1533  2.0723
  562TMC3    C7 8397   3.909   3.328  16.231 -0.2170 -0.7446 -0.1043
  562TMC3    C8 8398   4.042   3.667  16.524 -0.5405  0.0903  0.3611
  562TMC3    O1 8399   3.807   3.386  16.194  0.1919  0.6045  0.2973
  562TMC3    O2 8400   4.122   3.699  16.616 -0.4801 -0.5378 -0.1368
  563MPD2     C 8401   2.082   0.607  15.254  0.2482  0.2810 -0.1026
  563MPD2    C1 8402   2.015   0.524  15.341  0.2657 -0.5105 -0.0514
  563MPD2    C2 8403   2.089   0.430  15.405 -0.0469  0.0759  0.4186
  563MPD2    C3 8404   2.226   0.428  15.396 -0.1757 -0.1056 -0.2703
  563MPD2    C4 8405   2.293   0.502  15.301  0.1335  0.3725 -0.6072
  563MPD2    C5 8406   2.215   0.595  15.235  0.1328 -0.6720  0.1602
  563MPD2     H 8407   2.044   0.359  15.474 -0.7413 -0.8199 -0.9722
  563MPD2    H1 8408   2.399   0.517  15.290  0.1804  0.5859  0.1708
  563MPD2    H2 8409   2.029   0.690  15.209  0.1019  0.7181  0.8727
  563MPD2    H3 8410   2.267   0.663  15.168 -2.1570 -0.3784 -1.3008
  563MPD2     N 8411   2.287   0.338  15.487  0.5168  0.2681 -0.1294
  563MPD2    H5 8412   2.224   0.291  15.550 -0.5601  4.1626  1.6927
  563MPD2    N1 8413   1.883   0.535  15.375  0.0241 -0.1018 -0.8861
  563MPD2    H7 8414   1.862   0.482  15.458  1.4278 -1.2671 -1.2818
  564TMC3    C1 8415   1.681   0.638  15.448 -0.0217  0.2172 -1.0087
  564TMC3    C2 8416   1.618   0.517  15.453  0.5446 -0.4683  0.0901
  564TMC3    C3 8417   1.529   0.486  15.553  0.6940 -0.1524 -0.4565
  564TMC3    C4 8418   1.666   0.719  15.551  0.6165 -0.0731  1.0336
  564TMC3    C5 8419   1.590   0.683  15.663 -0.1505 -0.2951  0.3093
  564TMC3    C6 8420   1.519   0.567  15.655  0.4571 -0.0092 -0.3348
  564TMC3     C 8421   1.798   0.647  15.357 -0.1177  1.2731  0.5248
  564TMC3     O 8422   1.818   0.757  15.308  0.4147  0.7197 -0.2953
  564TMC3     H 8423   1.624   0.460  15.361 -1.6760 -1.1405  0.3895
  564TMC3    H1 8424   1.717   0.814  15.545  1.4445 -0.5157  1.0659
  564TMC3    H2 8425   1.444   0.551  15.733  0.9183  0.1212  0.1382
  564TMC3    C7 8426   1.639   0.734  15.787 -0.5419 -0.1615  0.1675
  564TMC3    C8 8427   1.497   0.345  15.574 -0.2055 -0.6991  0.6909
  564TMC3    O1 8428   1.682   0.848  15.787 -0.0832 -0.0203  0.6818
  564TMC3    O2 8429   1.397   0.318  15.636  0.0321 -0.1763 -0.2755
  565TMC3    C1 8430   2.538   0.836  10.661 -0.1584  0.0152 -0.2992
  565TMC3    C2 8431   2.441   0.805  10.756  0.6408  0.5353  0.3370
  565TMC3    C3 8432   2.349   0.704  10.726  0.7592 -0.3405 -0.6110
  565TMC3    C4 8433   2.547   0.772  10.544  0.3085  0.3061 -0.0600
  565TMC3    C5 8434   2.454   0.676  10.520 -0.3502  0.1588 -0.0689
  565TMC3    C6 8435   2.350   0.641  10.604  0.6359 -0.2823  0.6575
  565TMC3     C 8436   2.615   0.967  10.655  0.5586  0.5310 -0.2926
  565TMC3     O 8437   2.660   0.996  10.546  0.1483  0.6382 -0.5433
  565TMC3     H 8438   2.458   0.838  10.858 -0.3997  0.3782  0.5595
  565TMC3    H1 8439   2.619   0.799  10.468 -1.7947  1.4306 -1.6526
  565TMC3    H2 8440   2.254   0.603  10.570 -0.1754  0.8558  1.7029
  565TMC3    C7 8441   2.444   0.628  10.383 -0.1218  0.2027 -0.1187
  565TMC3    C8 8442   2.241   0.664  10.823  0.5714 -0.5327  0.4022
  565TMC3    O1 8443   2.443   0.715  10.294 -0.0432  0.2801 -0.5070
  565TMC3    O2 8444   2.173   0.566  10.795 -0.2359 -0.6607 -0.2416
  566MPD2     C 8445   3.958   2.552  14.602 -0.2984  0.4419  0.6568
  566MPD2    C1 8446   4.043   2.542  14.494  0.5145  0.5668 -0.5732
  566MPD2    C2 8447   3.981   2.480  14.382 -0.5565  0.7959  0.2248
  566MPD2    C3 8448   3.849   2.440  14.384 -0.0597  0.3406 -0.1236
  566MPD2    C4 8449   3.778   2.438  14.507  0.1626  0.0974  0.0748
  566MPD2    C5 8450   3.840   2.495  14.618 -0.1474  0.2637 -0.5734
  566MPD2     H 8451   4.037   2.478  14.289 -1.6327  2.0776 -0.4516
  566MPD2    H1 8452   3.678   2.396  14.503 -0.9034  2.3425  2.5526
  566MPD2    H2 8453   3.998   2.605  14.688  0.5540  1.0466 -0.1177
  566MPD2    H3 8454   3.799   2.478  14.717  0.2746 -1.2245 -0.6547
  566MPD2     N 8455   3.777   2.400  14.267 -0.1553 -0.0761  0.4104
  566MPD2    H5 8456   3.680   2.377  14.286 -0.6349  0.4086 -1.4681
  566MPD2    N1 8457   4.171   2.604  14.486 -0.2683 -0.8654  0.4298
  566MPD2    H7 8458   4.191   2.680  14.549 -0.0018  1.2121 -2.1346
  567TMC3    C1 8459   4.330   2.704  14.348 -0.2228 -0.2558 -0.2789
  567TMC3    C2 8460   4.318   2.738  14.216  0.1068  0.1076 -0.0114
  567TMC3    C3 8461   4.387   2.850  14.178 -0.2400 -0.2458  0.2201
  567TMC3    C4 8462   4.396   2.787  14.435  0.3657  0.4731  0.6316
  567TMC3    C5 8463   4.469   2.893  14.384 -0.0846 -0.9156 -0.0978
  567TMC3    C6 8464   4.456   2.931  14.256 -0.0967 -0.1658 -0.5873
  567TMC3     C 8465   4.264   2.583  14.387 -0.4909 -0.6514 -0.1175
  567TMC3     O 8466   4.278   2.489  14.309 -0.4612  0.3633 -0.0854
  567TMC3     H 8467   4.269   2.674  14.144  1.1808 -1.6695  0.8399
  567TMC3    H1 8468   4.393   2.771  14.542  0.1750 -1.4248  0.3377
  567TMC3    H2 8469   4.511   3.021  14.231  0.2776 -0.6076 -1.3635
  567TMC3    C7 8470   4.518   3.004  14.472 -0.2452  0.2141 -0.0337
  567TMC3    C8 8471   4.325   2.907  14.060 -0.0712  0.2901  0.5673
  567TMC3    O1 8472   4.620   3.072  14.444 -0.4345  0.7768 -0.1753
  567TMC3    O2 8473   4.208   2.888  14.037 -0.1093 -0.2875  0.4290
  568MPD2     C 8474   0.977   3.628  16.047  0.1349  0.7823 -0.4742
  568MPD2    C1 8475   1.036   3.687  16.155  0.0438 -0.0519  0.1883
  568MPD2    C2 8476   1.069   3.824  16.158  0.3075 -0.0883  0.2992
  568MPD2    C3 8477   1.066   3.899  16.046  0.4734  0.0811 -0.1326
  568MPD2    C4 8478   1.015   3.842  15.932  0.0731  0.0492  0.0413
  568MPD2    C5 8479   0.961   3.713  15.938 -0.3161 -0.1228 -0.3207
  568MPD2     H 8480   1.114   3.877  16.241 -1.7041 -0.1431  1.4245
  568MPD2    H1 8481   1.000   3.901  15.842  0.7513  0.1452 -0.0102
  568MPD2    H2 8482   0.942   3.526  16.049  1.8865  0.1428 -2.5355
  568MPD2    H3 8483   0.922   3.669  15.847  0.5438  0.3076 -0.9049
  568MPD2     N 8484   1.128   4.023  16.039 -0.1700 -0.1064  0.2805
  568MPD2    H5 8485   1.163   4.053  16.130  0.5548 -1.7127  0.5218
  568MPD2    N1 8486   1.062   3.603  16.265  0.3603 -0.0989 -0.1244
  568MPD2    H7 8487   1.058   3.507  16.233  0.7520 -0.2322  0.2284
  569TMC3    C1 8488   1.228   4.216  15.949  0.0059 -0.4865  0.1732
  569TMC3    C2 8489   1.200   4.295  16.055 -0.3619  0.8508  0.4398
  569TMC3    C3 8490   1.275   4.412  16.066 -0.3214 -0.3577 -0.0489
  569TMC3    C4 8491   1.309   4.262  15.843  0.7044  0.6927 -0.7063
  569TMC3    C5 8492   1.346   4.393  15.840 -0.7604  0.5166 -0.3746
  569TMC3    C6 8493   1.339   4.465  15.961  0.2385 -0.6216 -0.2989
  569TMC3     C 8494   1.154   4.096  15.924 -0.1231  0.4221 -0.7351
  569TMC3     O 8495   1.127   4.076  15.806  0.0080  0.0401 -0.1201
  569TMC3     H 8496   1.132   4.271  16.137 -1.8219 -0.6890 -1.1988
  569TMC3    H1 8497   1.329   4.214  15.748 -1.1272 -2.5013  0.5192
  569TMC3    H2 8498   1.368   4.570  15.959  1.8012 -1.0194  0.7360
  569TMC3    C7 8499   1.434   4.433  15.732  0.2074  0.2771  0.4101
  569TMC3    C8 8500   1.230   4.497  16.174  0.0156 -0.1077  0.2178
  569TMC3    O1 8501   1.485   4.349  15.662 -0.3241 -0.6205 -0.0719
  569TMC3    O2 8502   1.120   4.479  16.223  0.1491 -0.3920 -0.1710
  570TMC3    C1 8503   0.415   2.608  16.343 -0.1483 -0.0467 -0.5306
  570TMC3    C2 8504   0.487   2.619  16.230  0.1128 -0.9181  0.1783
  570TMC3    C3 8505   0.605   2.697  16.232  0.1681  0.2292 -0.1303
  570TMC3    C4 8506   0.445   2.682  16.451  0.3496  0.1323  0.4557
  570TMC3    C5 8507   0.552   2.772  16.445  0.5795 -0.3885 -0.0997
  570TMC3    C6 8508   0.640   2.775  16.342  0.3959  1.1017  0.4516
  570TMC3     C 8509   0.314   2.508  16.345 -0.0824 -0.5308 -0.1002
  570TMC3     O 8510   0.242   2.497  16.249  0.4439 -0.3125  0.2852
  570TMC3     H 8511   0.466   2.555  16.145 -0.4704 -0.3491 -0.1031
  570TMC3    H1 8512   0.385   2.694  16.540  0.7195  0.6489  0.6393
  570TMC3    H2 8513   0.724   2.843  16.332  1.4630 -0.5050 -1.7151
  570TMC3    C7 8514   0.567   2.870  16.551  0.2790 -0.3170  0.2766
  570TMC3    C8 8515   0.705   2.691  16.125 -0.6024  0.3430 -0.2706
  570TMC3    O1 8516   0.494   2.855  16.648  0.1731  0.5394 -0.2100
  570TMC3    O2 8517   0.820   2.733  16.148 -0.1647  0.6336  0.1545
  571MPD2     C 8518   3.675   4.268  17.731 -0.5078 -0.0570  0.0383
  571MPD2    C1 8519   3.793   4.306   0.055  0.3079  0.0677  0.2618
  571MPD2    C2 8520   3.792   4.406   0.149 -0.4755 -0.0537 -0.4467
  571MPD2    C3 8521   3.679   4.463   0.196  0.1666 -0.1434  1.3195
  571MPD2    C4 8522   3.562   4.428   0.137  0.6476 -0.1875 -0.2898
  571MPD2    C5 8523   3.559   4.328   0.038  0.3874 -0.1820 -0.0450
  571MPD2     H 8524   3.881   4.430   0.206 -0.1064  1.4835 -1.6761
  571MPD2    H1 8525   3.469   4.474   0.168  0.6924  0.5133 -1.2085
  571MPD2    H2 8526   3.675   4.195  17.650 -0.4668 -0.0237  0.0087
  571MPD2    H3 8527   3.458   4.303   0.005  0.2253  0.3327  0.0604
  571MPD2     N 8528   3.677   4.570   0.297  0.4158 -0.2842  0.0184
  571MPD2    H5 8529   3.588   4.613   0.320  0.7224  0.6035 -0.4496
  571MPD2    N1 8530   3.909   4.246   0.014  0.2216 -0.2143 -1.1266
  571MPD2    H7 8531   3.906   4.167  17.693  2.8596 -1.4481  0.2796
  572TMC3    C1 8532   3.753   4.728   0.465  0.4856  0.0652 -0.4873
  572TMC3    C2 8533   3.828   0.002   0.583 -0.0108  0.0119 -1.1986
  572TMC3    C3 8534   3.806   0.106   0.667 -0.1245  0.3080 -0.6788
  572TMC3    C4 8535   3.662   0.088   0.427 -0.0056 -0.3329 -0.0066
  572TMC3    C5 8536   3.648   0.194   0.508  0.5212  0.0115 -0.3241
  572TMC3    C6 8537   3.723   0.206   0.626  0.0161 -0.0841  0.0862
  572TMC3     C 8538   3.783   4.606   0.381  0.0134  0.5189 -0.4015
  572TMC3     O 8539   3.887   4.546   0.409  0.7393  0.1356 -0.0459
  572TMC3     H 8540   3.886   4.650   0.611  0.2863  0.3958 -0.6127
  572TMC3    H1 8541   3.611   0.087   0.332  1.4069  1.3983 -0.7951
  572TMC3    H2 8542   3.700   0.292   0.687  2.5256  0.2157  0.6032
  572TMC3    C7 8543   3.628   0.321   0.446 -0.4459 -0.0954  0.7501
  572TMC3    C8 8544   3.853   0.107   0.805  0.2607 -0.4363  0.2562
  572TMC3    O1 8545   3.543   0.323   0.360 -0.2654  0.4448  0.3374
  572TMC3    O2 8546   3.862   0.218   0.855  0.2194  0.2010  0.0301
  573MPD2     C 8547   4.264   4.728   0.689 -0.4681  0.0074 -0.2399
  573MPD2    C1 8548   4.222   0.118   0.665  0.6222 -0.0650 -0.3860
  573MPD2    C2 8549   4.168   0.154   0.539  0.2410 -0.2496 -0.1489
  573MPD2    C3 8550   4.142   0.048   0.446 -0.0593  0.5315  0.0158
  573MPD2    C4 8551   4.176   4.658   0.478 -0.0901  0.4872 -0.0482
  573MPD2    C5 8552   4.231   4.633   0.600  0.4515 -0.3569 -0.4406
  573MPD2     H 8553   4.127   0.254   0.527  1.5115  0.4428  1.3009
  573MPD2    H1 8554   4.163   4.579   0.404 -3.0101  0.3387  0.6181
  573MPD2    H2 8555   4.306   4.692   0.782  0.1872 -0.2033 -0.6234
  573MPD2    H3 8556   4.255   4.529   0.621  3.1847  0.4556  0.4085
  573MPD2     N 8557   4.079   0.065   0.324 -0.0709  0.1685  0.4563
  573MPD2    H5 8558   4.091   4.720   0.265 -2.1678  1.2547 -1.4693
  573MPD2    N1 8559   4.232   0.203   0.775 -0.6643 -0.1352  0.3290
  573MPD2    H7 8560   4.255   0.156   0.862  1.6787 -1.0882 -0.8239
  574TMC3    C1 8561   3.936   0.165   0.157 -0.0741 -0.0243  0.3777
  574TMC3    C2 8562   3.896   0.278   0.090  0.2071 -0.2996 -0.3073
  574TMC3    C3 8563   3.838   0.259  17.710  0.2962 -0.4388 -0.3722
  574TMC3    C4 8564   3.914   0.046   0.101 -0.7176 -0.3105 -0.7545
  574TMC3    C5 8565   3.847   0.033  17.724  0.0482  0.1879 -0.0342
  574TMC3    C6 8566   3.808   0.140  17.656 -0.1624  0.3302  0.1354
  574TMC3     C 8567   4.019   0.179   0.276 -0.3244 -0.0674 -0.5813
  574TMC3     O 8568   4.008   0.287   0.329 -0.1367 -0.3051  0.3686
  574TMC3     H 8569   3.900   0.374   0.140  1.3787  0.2101 -1.3754
  574TMC3    H1 8570   3.944   4.688   0.147  0.2254  0.0962 -0.5344
  574TMC3    H2 8571   3.752   0.133  17.564  0.8769  0.9396 -0.5528
  574TMC3    C7 8572   3.854   4.646  17.649  0.3599  0.1530  0.3061
  574TMC3    C8 8573   3.745   0.367  17.664 -0.1493 -0.5777 -0.4616
  574TMC3    O1 8574   3.954   4.580  17.667 -0.0851 -0.0837  0.1918
  574TMC3    O2 8575   3.631   0.329  17.642  0.1267  0.0002 -0.1253
  575TMC3    C1 8576   1.655   0.211  11.354 -0.7360  0.5564 -0.4962
  575TMC3    C2 8577   1.674   0.090  11.301 -0.4611  0.1322 -0.1086
  575TMC3    C3 8578   1.737   0.085  11.180  0.0656 -0.7645  0.0432
  575TMC3    C4 8579   1.701   0.325  11.294  0.3676 -0.0051 -0.3914
  575TMC3    C5 8580   1.777   0.319  11.177 -0.0076 -0.5410  0.2999
  575TMC3    C6 8581   1.793   0.193  11.119  0.4709  0.1261  0.2821
  575TMC3     C 8582   1.602   0.211  11.493  0.0599  0.0975 -0.4581
  575TMC3     O 8583   1.563   0.324  11.528 -0.0599 -0.1833  0.4747
  575TMC3     H 8584   1.614   0.004  11.329 -1.3128  0.5220 -0.7258
  575TMC3    H1 8585   1.690   0.422  11.339  2.9110 -0.0649  0.3983
  575TMC3    H2 8586   1.857   0.171  11.034 -1.0777  0.4949 -0.9746
  575TMC3    C7 8587   1.858   0.428  11.116  0.2358 -0.0933  0.2927
  575TMC3    C8 8588   1.750   4.696  11.106 -0.6451  0.1031  0.0185
  575TMC3    O1 8589   1.908   0.396  11.010 -0.0393 -0.1637  0.1348
  575TMC3    O2 8590   1.743   4.597  11.178 -0.0386  0.3679 -0.8332
  576MPD2     C 8591   2.063   2.514  12.495 -0.7185 -0.0603 -0.3023
  576MPD2    C1 8592   2.115   2.586  12.392  0.0914 -0.4579 -1.0008
  576MPD2    C2 8593   2.098   2.722  12.401 -0.7583  0.5216 -0.6334
  576MPD2    C3 8594   2.040   2.778  12.509 -0.3351 -0.0635 -0.1382
  576MPD2    C4 8595   1.977   2.701  12.599  0.3748 -0.0892  0.4406
  576MPD2    C5 8596   1.986   2.564  12.592  0.9378 -0.0111  0.6561
  576MPD2     H 8597   2.143   2.779  12.321  2.1094 -1.1551 -0.1910
  576MPD2    H1 8598   1.934   2.746  12.687  1.9586 -0.5244  1.4294
  576MPD2    H2 8599   2.070   2.407  12.485 -1.1257 -0.0175 -1.1148
  576MPD2    H3 8600   1.933   2.511  12.670  0.6079 -1.0236 -0.2568
  576MPD2     N 8601   2.053   2.922  12.513  0.2340  0.1202  0.1640
  576MPD2    H5 8602   2.105   2.966  12.438 -1.6588 -0.2547 -1.3854
  576MPD2    N1 8603   2.196   2.532  12.290  0.2012 -0.6249 -0.0196
  576MPD2    H7 8604   2.218   2.598  12.216  0.0662 -1.1571 -0.5286
  577TMC3    C1 8605   2.326   2.379  12.170  0.5783 -0.8872  0.4207
  577TMC3    C2 8606   2.419   2.278  12.174  0.1752 -0.2249  0.4396
  577TMC3    C3 8607   2.481   2.243  12.059  0.3176  0.1249  0.4243
  577TMC3    C4 8608   2.296   2.445  12.047 -0.4654  0.0107 -0.4920
  577TMC3    C5 8609   2.372   2.406  11.935  0.0148 -0.2936 -0.2535
  577TMC3    C6 8610   2.471   2.309  11.938 -0.4302 -0.9368  0.3279
  577TMC3     C 8611   2.243   2.398  12.288 -0.0387 -0.0952 -0.1001
  577TMC3     O 8612   2.232   2.307  12.371 -0.4121 -0.2161 -0.5827
  577TMC3     H 8613   2.437   2.226  12.267  0.9447 -2.6051 -1.0433
  577TMC3    H1 8614   2.209   2.510  12.043 -0.7812 -0.2680  2.2056
  577TMC3    H2 8615   2.521   2.283  11.846  1.0743  1.1279  0.5820
  577TMC3    C7 8616   2.336   2.451  11.800  0.2940  0.7266  0.2736
  577TMC3    C8 8617   2.547   2.118  12.061  0.0838 -0.4527 -0.3935
  577TMC3    O1 8618   2.403   2.426  11.701  0.2136 -1.2034 -0.2485
  577TMC3    O2 8619   2.507   2.033  12.136 -0.0562 -0.3770  0.4377
  578MPD2     C 8620   0.379   3.218   1.736  1.2520 -0.3536 -0.4674
  578MPD2    C1 8621   0.372   3.188   1.602  0.2591  0.1714  0.3431
  578MPD2    C2 8622   0.468   3.100   1.553 -0.7306 -0.4230 -0.0812
  578MPD2    C3 8623   0.555   3.032   1.638  0.4858 -0.6851  0.0413
  578MPD2    C4 8624   0.564   3.070   1.771  0.4064 -0.5401 -0.1542
  578MPD2    C5 8625   0.469   3.160   1.819  0.4654 -0.1530 -0.1445
  578MPD2     H 8626   0.471   3.090   1.445 -1.7961  0.0473 -0.1545
  578MPD2    H1 8627   0.638   3.032   1.841  0.8221 -0.5447 -0.5980
  578MPD2    H2 8628   0.312   3.295   1.774  0.9723 -1.7061  1.7459
  578MPD2    H3 8629   0.470   3.186   1.924  0.8972  1.9627 -0.6803
  578MPD2     N 8630   0.649   2.933   1.585 -1.1452 -0.4917 -0.3143
  578MPD2    H5 8631   0.633   2.900   1.490  0.8410 -1.7673 -0.2130
  578MPD2    N1 8632   0.275   3.250   1.529  0.3338 -0.1050 -0.5195
  578MPD2    H7 8633   0.226   3.328   1.570  2.3362  0.7939  0.1595
  579TMC3    C1 8634   0.837   2.800   1.567 -0.3179  0.7630 -0.2167
  579TMC3    C2 8635   0.971   2.800   1.590  0.8740  0.2362  0.2461
  579TMC3    C3 8636   1.056   2.733   1.505 -0.2358 -0.3321  0.6478
  579TMC3    C4 8637   0.785   2.742   1.454  0.1959  0.0986 -0.0815
  579TMC3    C5 8638   0.871   2.677   1.375 -0.0695  1.3910  0.0449
  579TMC3    C6 8639   1.007   2.667   1.399 -0.9044  0.3117 -0.4293
  579TMC3     C 8640   0.757   2.887   1.647 -0.2415  0.3501 -0.2995
  579TMC3     O 8641   0.815   2.917   1.751  0.0028 -0.1506  0.4831
  579TMC3     H 8642   1.012   2.835   1.684  1.3813  0.6795 -0.1381
  579TMC3    H1 8643   0.678   2.737   1.438  0.2406  0.4454 -0.4836
  579TMC3    H2 8644   1.075   2.606   1.341 -0.8360 -0.9645  0.9624
  579TMC3    C7 8645   0.812   2.583   1.274  0.2991 -0.4587  0.0806
  579TMC3    C8 8646   1.200   2.773   1.524  0.1407 -0.0972  0.2571
  579TMC3    O1 8647   0.880   2.492   1.232  0.4918  0.2184 -0.0388
  579TMC3    O2 8648   1.223   2.870   1.589  0.4647  0.0584  0.0074
  580TMC3    C1 8649   0.190   1.636  12.304  0.3217 -0.0009  0.4611
  580TMC3    C2 8650   0.275   1.700  12.223  0.7713  0.5059 -0.4119
  580TMC3    C3 8651   0.369   1.633  12.147 -0.2889 -0.1604  0.1833
  580TMC3    C4 8652   0.208   1.498  12.321  0.5937  0.5960  0.3134
  580TMC3    C5 8653   0.311   1.436  12.263  0.6658 -0.0210 -0.1290
  580TMC3    C6 8654   0.395   1.497  12.169  0.4286  0.1511  0.0558
  580TMC3     C 8655   0.052   1.697  12.327 -0.9058  0.0453  0.0767
  580TMC3     O 8656   0.033   1.809  12.297  0.0525 -0.2221 -0.2302
  580TMC3     H 8657   0.240   1.802  12.209  0.4806  0.5351  0.5367
  580TMC3    H1 8658   0.142   1.442  12.386  1.5580 -1.5177 -0.5340
  580TMC3    H2 8659   0.484   1.443  12.138  0.6940  0.9912 -0.6346
  580TMC3    C7 8660   0.332   1.294  12.286  0.0992  0.0312 -0.1472
  580TMC3    C8 8661   0.462   1.706  12.063  0.1396 -0.3785  0.7828
  580TMC3    O1 8662   0.307   1.248  12.389  0.3168 -0.2652  0.2484
  580TMC3    O2 8663   0.480   1.831  12.075 -0.1195 -0.0265 -0.3009
  581MPD2     C 8664   2.285   1.210  14.875  0.3301 -0.1069 -0.1770
  581MPD2    C1 8665   2.167   1.280  14.880 -0.1551 -0.3408 -0.5400
  581MPD2    C2 8666   2.129   1.362  14.778 -0.6751 -0.5118 -0.4307
  581MPD2    C3 8667   2.198   1.366  14.660 -0.6863  0.0890  0.0307
  581MPD2    C4 8668   2.314   1.290  14.652  0.6028  0.5878 -0.7573
  581MPD2    C5 8669   2.357   1.229  14.761 -0.2246  0.3842  0.4825
  581MPD2     H 8670   2.035   1.415  14.773 -0.0121  0.8419  1.7647
  581MPD2    H1 8671   2.389   1.310  14.576 -0.0072  0.7021 -1.3302
  581MPD2    H2 8672   2.311   1.146  14.959 -1.3476  0.9611  1.1514
  581MPD2    H3 8673   2.459   1.192  14.751  1.4334  4.7043  1.4974
  581MPD2     N 8674   2.148   1.442  14.551  0.1769  0.0429  0.6639
  581MPD2    H5 8675   2.063   1.492  14.578  1.6350  3.4383 -1.0642
  581MPD2    N1 8676   2.083   1.264  14.994 -0.1361  0.4147  0.6425
  581MPD2    H7 8677   2.102   1.194  15.065  2.1322 -0.6318 -0.9854
  582TMC3    C1 8678   1.924   1.311  15.154 -0.3290 -0.0972  0.5275
  582TMC3    C2 8679   2.016   1.278  15.255  0.3361  0.8099  0.2939
  582TMC3    C3 8680   2.015   1.335  15.381 -0.2596  0.4246 -0.3100
  582TMC3    C4 8681   1.825   1.395  15.191 -0.2176  0.7486  0.0977
  582TMC3    C5 8682   1.824   1.447  15.322 -0.2875 -0.4540 -0.1277
  582TMC3    C6 8683   1.920   1.423  15.415 -0.1967  0.0005 -0.1216
  582TMC3     C 8684   1.984   1.348  15.031  0.7180  0.0123  0.5818
  582TMC3     O 8685   1.934   1.441  14.970 -0.0337 -0.5602  0.3648
  582TMC3     H 8686   2.103   1.215  15.241  0.0162 -0.0470  2.2152
  582TMC3    H1 8687   1.752   1.431  15.119  1.6225  4.0235 -0.1372
  582TMC3    H2 8688   1.909   1.463  15.515  1.2351 -0.2934  0.1489
  582TMC3    C7 8689   1.761   1.578  15.328 -0.0489  0.4199  0.4303
  582TMC3    C8 8690   2.114   1.287  15.478  0.1509  0.1846  0.2660
  582TMC3    O1 8691   1.658   1.583  15.269  0.3056  0.1117  0.2398
  582TMC3    O2 8692   2.165   1.181  15.449  0.3596 -0.1449  0.3217
  583MPD2     C 8693   2.322   3.416  16.542 -0.0813  0.3924 -0.7950
  583MPD2    C1 8694   2.425   3.480  16.610 -0.7159 -0.3030  0.2088
  583MPD2    C2 8695   2.404   3.571  16.711 -0.4856 -0.0087  0.2723
  583MPD2    C3 8696   2.275   3.605  16.746 -0.5525  0.0916  0.3593
  583MPD2    C4 8697   2.169   3.544  16.686  0.2629 -0.4011  0.3565
  583MPD2    C5 8698   2.194   3.451  16.582  0.6306 -0.0453 -0.3081
  583MPD2     H 8699   2.492   3.621  16.751  1.6056 -2.7224 -0.9092
  583MPD2    H1 8700   2.067   3.555  16.721  0.1109  1.3765 -0.6100
  583MPD2    H2 8701   2.339   3.348  16.459  0.6015 -0.2796 -0.1064
  583MPD2    H3 8702   2.107   3.399  16.542 -0.7538  2.5842 -0.7538
  583MPD2     N 8703   2.266   3.693  16.856  0.0952 -0.2301  1.6218
  583MPD2    H5 8704   2.352   3.735  16.890 -0.2883  1.2304  0.7751
  583MPD2    N1 8705   2.565   3.449  16.585 -0.7279 -0.2780  0.2977
  583MPD2    H7 8706   2.631   3.499  16.644 -1.1340  2.2007 -1.3664
  584TMC3    C1 8707   2.188   3.832  17.012  0.0390  0.5105 -1.2345
  584TMC3    C2 8708   2.271   3.936  16.979 -0.6469 -0.6969  0.7912
  584TMC3    C3 8709   2.288   4.033  17.078 -0.2554 -0.4847 -0.8533
  584TMC3    C4 8710   2.128   3.823  17.133  0.8300 -0.0349 -0.4449
  584TMC3    C5 8711   2.148   3.914  17.227  0.7469 -0.8893  0.3488
  584TMC3    C6 8712   2.223   4.022  17.198 -0.5067  0.0218 -0.1024
  584TMC3     C 8713   2.154   3.731  16.923 -0.2470  0.5449  0.6899
  584TMC3     O 8714   2.046   3.677  16.940  0.1079 -0.3250 -0.1540
  584TMC3     H 8715   2.324   3.952  16.886 -2.6141 -0.6415 -0.3364
  584TMC3    H1 8716   2.077   3.730  17.151 -2.3656  1.6826 -0.5874
  584TMC3    H2 8717   2.230   4.108  17.264  2.5574 -0.8394  0.6849
  584TMC3    C7 8718   2.066   3.917  17.345  0.0206  0.3448  0.0139
  584TMC3    C8 8719   2.331   4.165  17.036  0.0073 -0.4866 -0.3668
  584TMC3    O1 8720   2.126   3.961  17.445 -0.1694 -0.0388 -0.1970
  584TMC3    O2 8721   2.317   4.198  16.917 -0.1937 -0.1098  0.4331
  585MPD2     C 8722   1.530   2.275   0.208 -0.2155 -0.4308  0.2643
  585MPD2    C1 8723   1.528   2.359   0.098  0.1473 -0.4364 -0.3883
  585MPD2    C2 8724   1.556   2.296  17.718 -0.5102 -0.0977  0.0644
  585MPD2    C3 8725   1.593   2.166  17.709  0.3833 -0.1029 -0.2997
  585MPD2    C4 8726   1.595   2.089   0.083 -0.3559  0.1525  0.1743
  585MPD2    C5 8727   1.569   2.143   0.198  0.3957 -0.3261 -0.4627
  585MPD2     H 8728   1.565   2.362  17.633 -0.3467 -1.4125 -0.9330
  585MPD2    H1 8729   1.607   1.981   0.086  2.0333  0.4731  1.8596
  585MPD2    H2 8730   1.500   2.304   0.308  0.3924  2.7817 -0.4918
  585MPD2    H3 8731   1.577   2.082   0.287 -2.0063 -3.0117 -2.0828
  585MPD2     N 8732   1.626   2.090  17.591 -0.3293  0.6904  0.0556
  585MPD2    H5 8733   1.627   1.989  17.602 -0.3100  0.6620 -0.2102
  585MPD2    N1 8734   1.503   2.495   0.113 -0.0423 -0.2875 -0.3288
  585MPD2    H7 8735   1.495   2.533   0.206 -1.1271  1.4783 -1.1391
  586TMC3    C1 8736   1.644   2.044  17.360 -0.6969 -0.3246  0.0369
  586TMC3    C2 8737   1.730   2.048  17.261  0.3427 -0.4612  0.2153
  586TMC3    C3 8738   1.713   1.960  17.156  0.2215  0.0405 -0.3090
  586TMC3    C4 8739   1.538   1.957  17.359  0.1019 -0.5217 -0.0682
  586TMC3    C5 8740   1.508   1.885  17.247 -0.2466 -0.0382  0.1552
  586TMC3    C6 8741   1.601   1.886  17.149 -0.0354 -0.5162 -0.0076
  586TMC3     C 8742   1.648   2.146  17.466  0.2797  0.5841  0.6820
  586TMC3     O 8743   1.686   2.259  17.445  0.3627  0.2013 -0.0066
  586TMC3     H 8744   1.813   2.118  17.274  0.4029 -0.4328 -0.3083
  586TMC3    H1 8745   1.468   1.953  17.442  0.9005  2.8487  0.7615
  586TMC3    H2 8746   1.577   1.835  17.057 -0.0514 -1.3033  0.4315
  586TMC3    C7 8747   1.459   1.757  17.280 -0.7099 -0.3556 -0.4258
  586TMC3    C8 8748   1.829   1.876  17.120  0.2537  0.0777 -0.2634
  586TMC3    O1 8749   1.353   1.752  17.341  0.2743  0.6026  0.4820
  586TMC3    O2 8750   1.798   1.771  17.071  0.2874 -0.1851  0.2461
  587TMC3    C1 8751   3.981   1.130  16.853  0.5497 -0.3855 -0.0686
  587TMC3    C2 8752   4.028   1.257  16.869  0.1748 -0.2243 -0.0485
  587TMC3    C3 8753   4.138   1.270  16.947 -0.2934 -0.1265  0.5033
  587TMC3    C4 8754   4.042   1.016  16.905  0.2465  0.0836  0.1343
  587TMC3    C5 8755   4.160   1.034  16.974 -0.0556 -0.2870 -0.9371
  587TMC3    C6 8756   4.201   1.162  17.009  0.1434  0.7721 -0.3314
  587TMC3     C 8757   3.852   1.132  16.783 -0.5875 -0.5543  0.1796
  587TMC3     O 8758   3.838   1.228  16.710 -0.0361 -0.5804 -0.3808
  587TMC3     H 8759   3.978   1.342  16.824 -0.1601 -1.6159 -2.2930
  587TMC3    H1 8760   4.000   0.918  16.886  0.3545  0.4073 -1.8631
  587TMC3    H2 8761   4.287   1.172  17.074 -0.7755 -2.8565  1.4621
  587TMC3    C7 8762   4.227   0.916  17.028  0.1874  0.1536 -0.0972
  587TMC3    C8 8763   4.193   1.402  16.982 -0.8622  0.3991 -0.0670
  587TMC3    O1 8764   4.305   0.949  17.111  0.2061 -0.1005 -0.1373
  587TMC3    O2 8765   4.297   1.406  17.045  0.2257  0.1738 -0.4310
  588TMC3    C1 8766   1.735   2.394  10.130 -0.1489 -0.0166  0.2155
  588TMC3    C2 8767   1.747   2.263  10.103  0.3580 -0.4865 -0.2817
  588TMC3    C3 8768   1.767   2.175  10.206 -0.0190 -0.5449 -0.1116
  588TMC3    C4 8769   1.736   2.440  10.262  1.2861 -0.0107 -0.1059
  588TMC3    C5 8770   1.751   2.353  10.365 -0.5036 -0.1794  0.2310
  588TMC3    C6 8771   1.775   2.217  10.340  0.0585  0.0636  0.5869
  588TMC3     C 8772   1.696   2.490  10.026 -0.0854 -0.2057  0.1708
  588TMC3     O 8773   1.635   2.435   9.933  0.2622 -0.2627 -0.5686
  588TMC3     H 8774   1.740   2.239   9.998 -1.2312  1.1300 -0.5486
  588TMC3    H1 8775   1.692   2.534  10.295 -0.3425 -1.2367  1.2397
  588TMC3    H2 8776   1.782   2.157  10.430  0.1213 -0.1775  0.4227
  588TMC3    C7 8777   1.777   2.408  10.496 -0.2022 -0.2452 -0.7681
  588TMC3    C8 8778   1.776   2.032  10.182  0.5559 -0.1119  0.1664
  588TMC3    O1 8779   1.743   2.342  10.592 -0.4962 -0.1427  0.1635
  588TMC3    O2 8780   1.758   1.994  10.068  0.0791  0.1813  0.1780
  589TMC3    C1 8781   0.440   0.975   1.089 -0.0337  0.2976  0.5803
  589TMC3    C2 8782   0.569   0.981   1.129 -1.1089 -0.2987  0.3062
  589TMC3    C3 8783   0.644   0.865   1.108  0.1927 -0.3050  0.2323
  589TMC3    C4 8784   0.390   0.870   1.011  0.1760 -0.0234  0.4619
  589TMC3    C5 8785   0.465   0.759   0.997  0.4636  0.4864  0.2753
  589TMC3    C6 8786   0.590   0.751   1.051  0.1489 -0.3134 -0.4145
  589TMC3     C 8787   0.362   1.100   1.075  0.0102 -0.1154  0.6046
  589TMC3     O 8788   0.287   1.106   0.979 -0.7430  0.5984  0.3028
  589TMC3     H 8789   0.612   1.069   1.174  0.3843 -1.1631  0.5908
  589TMC3    H1 8790   0.286   0.876   0.979  0.1173  1.3331  0.9033
  589TMC3    H2 8791   0.662   0.672   1.029 -0.4407 -1.2832  1.1603
  589TMC3    C7 8792   0.420   0.645   0.911 -0.3168 -0.6405 -0.0335
  589TMC3    C8 8793   0.766   0.842   1.191 -0.1385 -0.5152  0.4481
  589TMC3    O1 8794   0.475   0.538   0.927  0.1192 -0.5370  0.4051
  589TMC3    O2 8795   0.769   0.904   1.300  0.3212  0.1042  0.5510
  590MPD2     C 8796   0.366   3.985  16.586 -0.1539 -0.8939  0.2794
  590MPD2    C1 8797   0.279   4.061  16.515 -0.2535 -0.3262 -0.3755
  590MPD2    C2 8798   0.329   4.166  16.444  0.4699  0.4096 -0.6189
  590MPD2    C3 8799   0.462   4.192  16.435 -0.0466  0.1053 -0.7279
  590MPD2    C4 8800   0.548   4.104  16.492 -0.1852 -0.5694 -0.0891
  590MPD2    C5 8801   0.499   4.003  16.567 -0.1130  0.6829 -0.3207
  590MPD2     H 8802   0.255   4.233  16.402 -1.0931 -1.4948 -0.8736
  590MPD2    H1 8803   0.656   4.102  16.488 -0.1934 -0.7182 -0.2340
  590MPD2    H2 8804   0.340   3.894  16.640 -0.9929  0.1630  1.6280
  590MPD2    H3 8805   0.562   3.926  16.611  1.4885  1.0358 -1.9621
  590MPD2     N 8806   0.511   4.295  16.345 -0.8784  0.8765  0.2506
  590MPD2    H5 8807   0.439   4.353  16.304  0.0900  0.0439 -2.6355
  590MPD2    N1 8808   0.143   4.029  16.512  0.0860  0.1176 -0.1690
  590MPD2    H7 8809   0.083   4.084  16.452  1.7263 -0.1175 -2.0213
  591TMC3    C1 8810   0.659   4.423  16.229 -0.2624  0.8363 -0.4218
  591TMC3    C2 8811   0.765   4.394  16.144 -0.0687 -0.1155 -0.5298
  591TMC3    C3 8812   0.759   4.466  16.028  0.1046  0.3778  0.4638
  591TMC3    C4 8813   0.568   4.520  16.208  0.0413  0.1272  0.4234
  591TMC3    C5 8814   0.586   4.604  16.100  0.4785  0.0583 -0.2789
  591TMC3    C6 8815   0.680   4.573  16.000 -0.1469 -0.3840  0.3681
  591TMC3     C 8816   0.647   4.326  16.334 -0.0841 -0.5336 -0.6372
  591TMC3     O 8817   0.748   4.276  16.382  0.4209 -0.5780 -0.3407
  591TMC3     H 8818   0.834   4.319  16.182 -0.1041  0.8388  1.4425
  591TMC3    H1 8819   0.494   4.537  16.285  0.7053 -1.0449  1.3179
  591TMC3    H2 8820   0.666   4.600  15.896  2.1325  0.5581  0.3059
  591TMC3    C7 8821   0.484   4.703  16.073 -0.4921  0.2412  0.0912
  591TMC3    C8 8822   0.836   4.413  15.914  0.1069  0.1752 -0.1597
  591TMC3    O1 8823   0.379   4.692  16.137  0.6324 -0.3467  0.0755
  591TMC3    O2 8824   0.876   4.300  15.927 -0.1083  0.6556  0.0769
  592MPD2     C 8825   0.397   0.721  11.527  0.8049 -0.1665 -0.2208
  592MPD2    C1 8826   0.482   0.755  11.631  0.5481 -0.4903  0.3836
  592MPD2    C2 8827   0.494   0.676  11.747  0.2122 -0.0302  0.0221
  592MPD2    C3 8828   0.414   0.568  11.768 -0.3203  0.6634 -0.7198
  592MPD2    C4 8829   0.327   0.538  11.668 -0.7653 -0.1443 -0.3610
  592MPD2    C5 8830   0.325   0.608  11.547  0.4424 -0.8308 -0.4069
  592MPD2     H 8831   0.571   0.697  11.819  0.2430  0.3320 -0.1176
  592MPD2    H1 8832   0.273   0.444  11.680  0.2552 -0.8211 -1.0470
  592MPD2    H2 8833   0.397   0.758  11.425 -0.2458 -3.2309 -1.3317
  592MPD2    H3 8834   0.260   0.574  11.467  0.2217 -2.5008  0.4863
  592MPD2     N 8835   0.432   0.489  11.882  0.4306  0.2811 -0.0865
  592MPD2    H5 8836   0.509   0.510  11.945  1.1933 -1.1945 -0.5264
  592MPD2    N1 8837   0.548   0.877  11.604 -0.0736 -0.3663  0.7034
  592MPD2    H7 8838   0.527   0.924  11.516 -0.6441 -0.6623  0.6852
  593TMC3    C1 8839   0.690   1.067  11.654 -0.6015 -0.2677  0.0266
  593TMC3    C2 8840   0.720   1.163  11.746 -0.7003  0.5116 -0.9271
  593TMC3    C3 8841   0.767   1.287  11.692  0.7804  0.3803 -0.1409
  593TMC3    C4 8842   0.709   1.084  11.523  0.0624  0.4503  0.3737
  593TMC3    C5 8843   0.755   1.207  11.476 -0.0843 -0.1639  0.4615
  593TMC3    C6 8844   0.782   1.310  11.561  0.5697 -0.6352 -0.4008
  593TMC3     C 8845   0.630   0.943  11.700  0.2019  0.2583 -0.1436
  593TMC3     O 8846   0.639   0.908  11.818 -0.0760 -0.5786 -0.2532
  593TMC3     H 8847   0.708   1.149  11.853 -2.3487  1.9387 -0.9253
  593TMC3    H1 8848   0.685   1.004  11.454 -0.1878  0.6253  0.2558
  593TMC3    H2 8849   0.794   1.411  11.523 -1.5300 -0.0996  0.3344
  593TMC3    C7 8850   0.751   1.244  11.327 -0.4195  0.6712  0.1734
  593TMC3    C8 8851   0.801   1.379  11.798 -0.4770  0.5387 -0.2795
  593TMC3    O1 8852   0.833   1.323  11.279 -0.0332  1.0439 -0.2102
  593TMC3    O2 8853   0.724   1.374  11.895 -0.4015 -0.0668 -0.4598
  594MPD2     C 8854   3.895   4.469  14.264  0.2553  0.7933  0.5032
  594MPD2    C1 8855   3.933   4.516  14.390 -0.1497  1.1682 -0.1202
  594MPD2    C2 8856   4.047   4.595  14.398 -0.4905  0.0837 -0.2389
  594MPD2    C3 8857   4.113   4.627  14.282  0.6635  0.8647  0.1924
  594MPD2    C4 8858   4.066   4.584  14.154 -0.3785  0.5631  0.7907
  594MPD2    C5 8859   3.961   4.491  14.152  0.2345  0.9890  0.2973
  594MPD2     H 8860   4.079   4.636  14.493 -1.5657 -0.3154  0.2947
  594MPD2    H1 8861   4.117   4.610  14.062 -1.5539  0.3889  0.0925
  594MPD2    H2 8862   3.817   4.396  14.250  2.4721 -1.2056 -1.4645
  594MPD2    H3 8863   3.927   4.446  14.059  0.6068  1.1618  0.0764
  594MPD2     N 8864   4.213   4.722  14.289  0.0455  1.3812 -0.7217
  594MPD2    H5 8865   4.224   0.031  14.380  1.0127 -0.0035 -0.1606
  594MPD2    N1 8866   3.865   4.471  14.502  0.6068  0.2163 -0.2981
  594MPD2    H7 8867   3.775   4.427  14.489  0.5473  0.0499  0.7290
  595TMC3    C1 8868   4.545   0.308  14.191  1.1596  0.2593 -0.0109
  595TMC3    C2 8869   4.497   0.180  14.171 -0.2590  0.2798  0.5818
  595TMC3    C3 8870   4.365   0.155  14.213  0.7554  0.0975 -0.1714
  595TMC3    C4 8871   4.476   0.405  14.252  0.0837  0.2316 -0.2764
  595TMC3    C5 8872   4.343   0.384  14.287 -0.3757  0.2227  0.1665
  595TMC3    C6 8873   4.280   0.262  14.260  0.1772 -0.4714 -0.4435
  595TMC3     C 8874   4.689   0.335  14.188  0.7844 -0.2157  0.1517
  595TMC3     O 8875   4.724   0.420  14.272  0.3243  0.8158  0.2274
  595TMC3     H 8876   4.557   0.097  14.139 -0.6597 -0.0777  0.7544
  595TMC3    H1 8877   4.503   0.508  14.276  0.1382 -0.0515  0.8986
  595TMC3    H2 8878   4.178   0.249  14.295  0.1303  2.6071  0.5171
  595TMC3    C7 8879   4.303   0.437  14.420  0.2191 -0.1806  0.1686
  595TMC3    C8 8880   4.303   0.019  14.193 -0.2914 -0.1219  0.5661
  595TMC3    O1 8881   4.186   0.464  14.434  0.0056 -0.2324  0.0330
  595TMC3    O2 8882   4.335   4.697  14.092 -0.3635  0.1213 -0.6793
  596MPD2     C 8883   3.028   2.972  16.712 -0.5591 -0.9259  0.1635
  596MPD2    C1 8884   3.135   3.053  16.699  0.4541  0.0128  0.3076
  596MPD2    C2 8885   3.224   3.039  16.598 -0.2387  0.8834  0.1741
  596MPD2    C3 8886   3.190   2.952  16.491 -0.2813 -0.1613  0.1427
  596MPD2    C4 8887   3.088   2.864  16.506  0.6526 -0.2177 -0.4335
  596MPD2    C5 8888   3.009   2.876  16.615 -0.6477 -0.3105  0.5019
  596MPD2     H 8889   3.304   3.112  16.593 -2.8497  3.6228 -1.5424
  596MPD2    H1 8890   3.060   2.789  16.432  0.1572  0.5315 -1.0139
  596MPD2    H2 8891   2.951   2.981  16.787 -0.6188  0.1590 -0.0225
  596MPD2    H3 8892   2.921   2.813  16.605 -1.0675  0.4132 -0.3126
  596MPD2     N 8893   3.267   2.931  16.373 -0.2021  0.5318  0.4672
  596MPD2    H5 8894   3.228   2.875  16.298  1.0315 -0.1127  0.2986
  596MPD2    N1 8895   3.167   3.169  16.775  0.5952  0.3279 -0.1306
  596MPD2    H7 8896   3.255   3.218  16.762  0.1263  0.5767 -2.3771
  597TMC3    C1 8897   3.169   3.320  16.950  0.2918 -0.9281 -0.4327
  597TMC3    C2 8898   3.264   3.395  16.893 -0.0605  0.1088 -0.1477
  597TMC3    C3 8899   3.296   3.510  16.954  0.0123  0.4420  0.6809
  597TMC3    C4 8900   3.099   3.358  17.057 -0.0285  0.7634 -0.6255
  597TMC3    C5 8901   3.127   3.475  17.115  0.3753  0.1755 -0.0580
  597TMC3    C6 8902   3.226   3.550  17.064  0.3102  0.4630 -0.3825
  597TMC3     C 8903   3.096   3.210  16.881 -1.0923 -0.6442  0.4149
  597TMC3     O 8904   2.997   3.160  16.939  0.8471  0.4261  0.5549
  597TMC3     H 8905   3.313   3.369  16.800 -2.3782 -0.2777 -1.2680
  597TMC3    H1 8906   3.014   3.305  17.098  0.9746  0.3981  0.9786
  597TMC3    H2 8907   3.263   3.638  17.116  1.4860  1.2339 -2.5152
  597TMC3    C7 8908   3.034   3.530  17.200  0.1784  0.3747  0.2762
  597TMC3    C8 8909   3.409   3.598  16.919 -0.1518  0.5254  0.1648
  597TMC3    O1 8910   2.970   3.453  17.268 -0.0745 -0.1849  0.3380
  597TMC3    O2 8911   3.462   3.659  17.012 -0.3282  1.2126 -0.8035
  598TMC3    C1 8912   1.417   4.381  15.143 -0.0753 -0.6180  0.6115
  598TMC3    C2 8913   1.291   4.394  15.098  0.0921  0.3275 -0.3210
  598TMC3    C3 8914   1.233   4.516  15.128  1.0053  0.1429 -0.3462
  598TMC3    C4 8915   1.489   4.473  15.212 -0.1271  0.3235 -1.1346
  598TMC3    C5 8916   1.429   4.599  15.215 -0.2703 -0.3267  0.3471
  598TMC3    C6 8917   1.308   4.626  15.170 -0.4594  0.2412 -0.1490
  598TMC3     C 8918   1.478   4.257  15.100  0.3930  0.4901  0.1267
  598TMC3     O 8919   1.403   4.167  15.076  0.0380  0.0927 -0.3847
  598TMC3     H 8920   1.237   4.325  15.033 -1.2024 -0.2626  1.3785
  598TMC3    H1 8921   1.586   4.455  15.255 -0.5167  1.1310  0.0897
  598TMC3    H2 8922   1.272   4.728  15.162  1.5170  0.9855  0.5718
  598TMC3    C7 8923   1.528   4.700  15.183 -0.3969 -0.2802 -0.4311
  598TMC3    C8 8924   1.098   4.526  15.113 -0.7600  0.3505  0.1056
  598TMC3    O1 8925   1.648   4.671  15.173 -0.2095 -0.1749  0.6757
  598TMC3    O2 8926   1.053   4.630  15.075  0.8367 -0.0852 -0.2135
  599MPD2     C 8927   1.491   2.472  15.744  0.1362  0.2704  0.0157
  599MPD2    C1 8928   1.440   2.348  15.746  0.1200 -0.8538  0.9714
  599MPD2    C2 8929   1.308   2.333  15.793  0.2679 -1.0039  0.2794
  599MPD2    C3 8930   1.246   2.434  15.859 -0.0733  0.7413 -0.0969
  599MPD2    C4 8931   1.297   2.568  15.856  0.8698 -0.4905 -0.0037
  599MPD2    C5 8932   1.423   2.584  15.794  0.2223  0.2650  0.4984
  599MPD2     H 8933   1.256   2.237  15.796 -1.1080 -0.2999 -1.2927
  599MPD2    H1 8934   1.236   2.649  15.894  0.3032  0.0123 -1.9728
  599MPD2    H2 8935   1.587   2.503  15.706  0.1257 -0.8476 -0.9257
  599MPD2    H3 8936   1.465   2.683  15.778  0.7695 -0.2802 -1.4385
  599MPD2     N 8937   1.131   2.419  15.938  0.6689  0.1066  0.0744
  599MPD2    H5 8938   1.092   2.506  15.972 -2.5793 -1.0056 -0.8174
  599MPD2    N1 8939   1.516   2.242  15.693  0.0417 -1.2172 -0.3547
  599MPD2    H7 8940   1.608   2.264  15.657 -0.5535 -0.0742 -1.1985
  600TMC3    C1 8941   0.938   2.325  16.049 -0.2555 -0.1162 -0.3730
  600TMC3    C2 8942   0.822   2.253  16.035  0.4326  0.0073 -0.2688
  600TMC3    C3 8943   0.718   2.274  16.124 -0.4169 -0.2010 -0.5916
  600TMC3    C4 8944   0.957   2.401  16.159 -0.5812  0.8002 -0.4573
  600TMC3    C5 8945   0.862   2.412  16.254 -0.3542  0.5138 -0.1602
  600TMC3    C6 8946   0.747   2.351  16.235 -0.1125 -0.1500  0.6074
  600TMC3     C 8947   1.055   2.306  15.967  0.4552  0.1946  0.0943
  600TMC3     O 8948   1.082   2.190  15.944 -0.5882 -0.0658 -0.2969
  600TMC3     H 8949   0.804   2.191  15.947 -0.8212  0.3964 -0.2795
  600TMC3    H1 8950   1.060   2.431  16.173 -0.6255  0.6422  0.2009
  600TMC3    H2 8951   0.665   2.363  16.306 -0.5274 -0.9630  0.2650
  600TMC3    C7 8952   0.881   2.488  16.372 -0.3435 -0.0486  0.5506
  600TMC3    C8 8953   0.644   2.155  16.161 -0.2980  0.1558 -0.6376
  600TMC3    O1 8954   0.779   2.494  16.448  0.1381 -0.5379 -0.1430
  600TMC3    O2 8955   0.712   2.052  16.166 -0.8956  0.7026  0.2873
  601MPD2     C 8956   3.803   0.771   0.271 -0.5407 -0.1651  0.2269
  601MPD2    C1 8957   3.683   0.704   0.259  0.6109 -0.4944  0.4951
  601MPD2    C2 8958   3.664   0.583   0.324 -0.5625 -0.2471 -0.1224
  601MPD2    C3 8959   3.767   0.525   0.394  0.3423  0.2140 -1.0197
  601MPD2    C4 8960   3.885   0.589   0.403 -0.1958  0.2099  0.3596
  601MPD2    C5 8961   3.905   0.709   0.341 -1.0903  0.5000 -0.7022
  601MPD2     H 8962   3.561   0.546   0.323  0.2704 -2.5515 -1.0817
  601MPD2    H1 8963   3.968   0.545   0.457 -0.4673  1.2863  1.6271
  601MPD2    H2 8964   3.819   0.866   0.223 -0.4475  0.7884  2.1366
  601MPD2    H3 8965   4.002   0.756   0.349 -0.5262 -0.8343  0.1296
  601MPD2     N 8966   3.737   0.404   0.463  0.5514 -0.8665 -0.0087
  601MPD2    H5 8967   3.805   0.366   0.528  1.5856 -2.0334 -1.7911
  601MPD2    N1 8968   3.579   0.762   0.188  0.0891 -0.1686 -0.0251
  601MPD2    H7 8969   3.498   0.701   0.178  0.7986 -0.9560 -0.9719
  602TMC3    C1 8970   3.456   0.924   0.062 -0.2124  0.1250  0.6628
  602TMC3    C2 8971   3.432   1.056   0.040 -0.7173  0.2764  1.1489
  602TMC3    C3 8972   3.356   1.092  17.676 -0.3645 -0.4567  1.2091
  602TMC3    C4 8973   3.392   0.825  17.728  1.1578  0.0846  1.1135
  602TMC3    C5 8974   3.321   0.863  17.617 -0.3142  0.3739  0.1880
  602TMC3    C6 8975   3.295   0.997  17.592  0.3874  0.1857 -0.1760
  602TMC3     C 8976   3.568   0.889   0.146  0.2074  0.1328 -0.0173
  602TMC3     O 8977   3.645   0.981   0.167  0.0905  0.2992  0.2694
  602TMC3     H 8978   3.499   1.128   0.086  1.1459  0.1051 -1.2609
  602TMC3    H1 8979   3.436   0.726  17.721  1.8779  0.6416 -2.7665
  602TMC3    H2 8980   3.214   1.016  17.522  0.3008 -2.4670 -0.8204
  602TMC3    C7 8981   3.290   0.762  17.524 -0.1741 -0.9585  0.6706
  602TMC3    C8 8982   3.350   1.229  17.637  0.0311 -0.1811 -0.0797
  602TMC3    O1 8983   3.266   0.643  17.554 -0.2019  0.4494  0.4319
  602TMC3    O2 8984   3.362   1.325  17.716 -0.2438  0.4558  0.7119
  603TMC3    C1 8985   0.904   0.548  11.448  0.4738  0.0488 -0.0281
  603TMC3    C2 8986   0.980   0.533  11.556 -0.0092  0.6124  1.1813
  603TMC3    C3 8987   1.115   0.556  11.553  0.5373  0.0490 -0.8731
  603TMC3    C4 8988   0.951   0.586  11.324 -0.3749 -0.2690  0.5721
  603TMC3    C5 8989   1.081   0.623  11.331 -0.1408 -0.2509 -0.2692
  603TMC3    C6 8990   1.157   0.630  11.450  0.0297 -0.3808  0.3264
  603TMC3     C 8991   0.766   0.501  11.450  0.5159 -0.0400 -0.0611
  603TMC3     O 8992   0.744   0.396  11.501 -0.5839  0.2454 -0.1015
  603TMC3     H 8993   0.942   0.488  11.647 -1.7736  0.7234  0.5131
  603TMC3    H1 8994   0.886   0.579  11.237  1.8325 -0.6109 -1.0447
  603TMC3    H2 8995   1.264   0.638  11.440 -0.1252 -0.9424 -1.8043
  603TMC3    C7 8996   1.145   0.657  11.210 -0.7727 -0.9259  0.6652
  603TMC3    C8 8997   1.204   0.542  11.677  0.3612  0.0922 -0.1087
  603TMC3    O1 8998   1.255   0.713  11.219  0.2504 -0.2775 -0.0447
  603TMC3    O2 8999   1.176   0.467  11.769  0.2095  0.0094  0.4056
  604MPD2     C 9000   2.158   4.258  16.358  0.1300  0.5343 -0.0301
  604MPD2    C1 9001   2.177   4.378  16.290 -0.3194  0.1218  0.0641
  604MPD2    C2 9002   2.273   4.388  16.182  0.6150  0.2687  0.3099
  604MPD2    C3 9003   2.337   4.275  16.136 -0.0596  0.5023  0.1197
  604MPD2    C4 9004   2.308   4.157  16.198  0.3567 -0.1082 -0.7480
  604MPD2    C5 9005   2.222   4.151  16.303 -0.5510 -1.0991  0.6242
  604MPD2     H 9006   2.292   4.482  16.131 -0.4575 -0.3087 -1.1436
  604MPD2    H1 9007   2.362   4.065  16.176  1.8883  1.0726 -1.9347
  604MPD2    H2 9008   2.091   4.255  16.443 -0.3814  4.0652 -0.3286
  604MPD2    H3 9009   2.209   4.053  16.347  0.2303 -0.4680  2.2394
  604MPD2     N 9010   2.421   4.289  16.022  0.1541 -0.0132 -0.0259
  604MPD2    H5 9011   2.428   4.382  15.982  2.9598 -0.3656 -0.3572
  604MPD2    N1 9012   2.103   4.491  16.341 -0.4570  0.4939  0.0587
  604MPD2    H7 9013   2.058   4.488  16.432  0.7682  2.2286  0.7198
  605TMC3    C1 9014   2.011   4.709  16.330  0.4428  0.3515 -0.3188
  605TMC3    C2 9015   2.063   0.002  16.455  0.9541 -0.0386 -0.2594
  605TMC3    C3 9016   2.046   0.131  16.506  0.3101  0.1618  0.5394
  605TMC3    C4 9017   1.957   0.078  16.253 -0.2072  0.3733  0.4476
  605TMC3    C5 9018   1.935   0.202  16.307  0.5443 -0.1005 -0.5603
  605TMC3    C6 9019   1.973   0.227  16.436 -0.1396  0.3807 -0.3377
  605TMC3     C 9020   2.067   4.597  16.260  0.1439 -0.1372 -0.0221
  605TMC3     O 9021   2.088   4.591  16.140 -0.0950  0.1849  0.3707
  605TMC3     H 9022   2.100   4.660  16.520 -0.1521  0.1383  0.5821
  605TMC3    H1 9023   1.939   0.054  16.149 -2.4568 -0.3286  0.9812
  605TMC3    H2 9024   1.959   0.325  16.481 -0.5217  0.2618 -0.1976
  605TMC3    C7 9025   1.862   0.305  16.229 -0.2095  0.4056  0.3936
  605TMC3    C8 9026   2.137   0.183  16.599 -0.0644  0.0465 -0.0430
  605TMC3    O1 9027   1.815   0.253  16.129  0.7145  0.0467 -0.1016
  605TMC3    O2 9028   2.088   0.261  16.678 -0.3190 -0.7075  0.1205
  606TMC3    C1 9029   3.165   3.703   0.079 -0.0704  0.5016  0.2273
  606TMC3    C2 9030   3.221   3.667   0.197  0.7881 -0.2285 -0.1639
  606TMC3    C3 9031   3.334   3.586   0.187 -0.5303  0.0330 -0.2821
  606TMC3    C4 9032   3.227   3.663  17.700  0.6974  0.9416  0.2326
  606TMC3    C5 9033   3.339   3.584  17.697  0.0784  0.1742  0.0295
  606TMC3    C6 9034   3.395   3.543   0.072 -0.2443  0.4132 -0.0408
  606TMC3     C 9035   3.042   3.776   0.065  0.0322  0.8406 -0.3666
  606TMC3     O 9036   3.038   3.845  17.703 -0.1012 -0.0416  0.2683
  606TMC3     H 9037   3.170   3.691   0.290  0.7468 -0.3515 -0.1548
  606TMC3    H1 9038   3.172   3.693  17.611  0.5162 -0.1469 -0.0293
  606TMC3    H2 9039   3.487   3.485   0.067 -0.2125  0.1986  3.4436
  606TMC3    C7 9040   3.351   3.509  17.573  0.8370 -0.0048 -0.4007
  606TMC3    C8 9041   3.391   3.542   0.306  0.5260  0.5578 -0.1404
  606TMC3    O1 9042   3.302   3.556  17.473  0.0754  0.3691 -0.0154
  606TMC3    O2 9043   3.513   3.522   0.304 -0.5872  0.3431  0.0234
  607MPD2     C 9044   0.674   0.266  12.159  0.2449  0.1858  0.3089
  607MPD2    C1 9045   0.723   0.372  12.224 -0.4783 -0.4074 -0.0540
  607MPD2    C2 9046   0.742   0.379  12.361 -0.6056 -0.3334  0.0473
  607MPD2    C3 9047   0.707   0.271  12.444 -0.1548  0.3256 -0.3409
  607MPD2    C4 9048   0.635   0.169  12.382 -0.1101 -0.2154 -1.0630
  607MPD2    C5 9049   0.632   0.162  12.241 -0.1377 -0.1238  0.5438
  607MPD2     H 9050   0.789   0.461  12.414  1.4028 -2.6398  1.8301
  607MPD2    H1 9051   0.602   0.083  12.438 -2.5090  0.3490 -1.6187
  607MPD2    H2 9052   0.660   0.253  12.052  0.1760  1.3279  0.1859
  607MPD2    H3 9053   0.589   0.074  12.194  0.1188  1.0493 -1.9196
  607MPD2     N 9054   0.742   0.284  12.581 -0.4047  0.2994 -0.8937
  607MPD2    H5 9055   0.803   0.363  12.601 -0.1094  0.1813 -1.3192
  607MPD2    N1 9056   0.778   0.485  12.155  0.4401  0.4576 -0.1163
  607MPD2    H7 9057   0.817   0.563  12.207 -1.9796  0.8870  1.0649
  608TMC3    C1 9058   0.884   0.612  11.990 -0.8989 -0.0611  0.8149
  608TMC3    C2 9059   0.980   0.641  12.084  0.4092  0.4174 -0.2686
  608TMC3    C3 9060   1.059   0.748  12.062 -0.2091  0.4400 -0.5037
  608TMC3    C4 9061   0.859   0.690  11.887 -0.2045  0.3138 -0.4991
  608TMC3    C5 9062   0.942   0.796  11.857 -0.1514 -0.2596 -0.3624
  608TMC3    C6 9063   1.040   0.832  11.951 -0.4387 -0.0965  0.6985
  608TMC3     C 9064   0.773   0.514  12.022 -0.3965  0.0173  0.1682
  608TMC3     O 9065   0.717   0.452  11.935  0.4883  0.1240  0.3614
  608TMC3     H 9066   1.009   0.562  12.152 -2.2863  0.3519  0.7975
  608TMC3    H1 9067   0.779   0.655  11.822  0.1069  1.5914 -1.5789
  608TMC3    H2 9068   1.092   0.926  11.938 -0.6730 -0.2720 -1.6598
  608TMC3    C7 9069   0.943   0.842  11.717  0.9615 -0.3476  0.5259
  608TMC3    C8 9070   1.107   0.810  12.183 -0.6974 -0.2995 -0.7445
  608TMC3    O1 9071   0.873   0.787  11.638 -0.3550 -0.2731 -0.1394
  608TMC3    O2 9072   1.146   0.924  12.179 -0.1439  0.3238  0.0848
  609TMC3    C1 9073   4.295   4.275   9.427 -0.4262  0.0936 -0.2030
  609TMC3    C2 9074   4.266   4.179   9.333 -0.3709  0.1440 -0.1369
  609TMC3    C3 9075   4.363   4.095   9.295  0.4692 -0.6053  0.0622
  609TMC3    C4 9076   4.418   4.303   9.475  0.8120  0.8970 -0.1831
  609TMC3    C5 9077   4.522   4.223   9.429  0.0554  0.0131 -0.3350
  609TMC3    C6 9078   4.495   4.118   9.340 -0.3676  0.2501  0.6254
  609TMC3     C 9079   4.176   4.321   9.489 -0.5490 -0.3094  0.4972
  609TMC3     O 9080   4.081   4.245   9.490 -0.6475 -0.0818  0.2743
  609TMC3     H 9081   4.174   4.171   9.275 -0.1053 -1.9289 -0.2633
  609TMC3    H1 9082   4.434   4.366   9.562  1.8712  3.0356 -1.9347
  609TMC3    H2 9083   4.572   4.062   9.288 -0.6744  1.9860 -1.6750
  609TMC3    C7 9084   4.650   4.227   9.492 -0.8669 -0.0619  0.3407
  609TMC3    C8 9085   4.328   3.981   9.204  0.0690  0.7297 -0.1405
  609TMC3    O1 9086   4.685   4.337   9.533  0.5149 -0.9329 -0.0152
  609TMC3    O2 9087   4.213   3.974   9.165  0.8204  0.5689 -0.1778
  610TMC3    C1 9088   1.548   0.664  12.631  0.3356  1.0864 -0.3684
  610TMC3    C2 9089   1.482   0.623  12.520  0.6783  0.3000 -0.8202
  610TMC3    C3 9090   1.422   0.505  12.512  0.2591 -0.0753 -0.3760
  610TMC3    C4 9091   1.574   0.580  12.736  0.1040  0.1636 -0.4605
  610TMC3    C5 9092   1.510   0.457  12.732 -0.3369 -0.0108 -0.2880
  610TMC3    C6 9093   1.430   0.415  12.626 -0.1018  0.2647  0.2619
  610TMC3     C 9094   1.588   0.795  12.661 -0.6411 -0.0889  0.2921
  610TMC3     O 9095   1.610   0.829  12.775  0.5616  0.8228  0.5406
  610TMC3     H 9096   1.453   0.696  12.445 -0.3767  0.4672 -0.2577
  610TMC3    H1 9097   1.646   0.601  12.815 -2.4849 -0.3720  2.0327
  610TMC3    H2 9098   1.402   0.311  12.611 -0.8065  0.6015 -0.7695
  610TMC3    C7 9099   1.557   0.372  12.847 -0.5320  0.2195 -0.5665
  610TMC3    C8 9100   1.365   0.468  12.387  0.2040  0.2353  0.5935
  610TMC3    O1 9101   1.652   0.416  12.912 -0.0198 -0.1399  0.6716
  610TMC3    O2 9102   1.375   0.535  12.286  0.1580  0.1945 -0.3371
  611MPD2     C 9103   0.340   0.046  10.262  0.1266  0.0712  0.9433
  611MPD2    C1 9104   0.360   0.175  10.221  0.2243  0.5387 -0.8200
  611MPD2    C2 9105   0.485   0.233  10.213  0.0215  0.1720 -0.5029
  611MPD2    C3 9106   0.594   0.150  10.248  0.3709  0.3776  0.3637
  611MPD2    C4 9107   0.573   0.023  10.289 -0.4361  0.3838  0.2730
  611MPD2    C5 9108   0.451   4.699  10.286  0.0974 -0.5499 -0.0959
  611MPD2     H 9109   0.506   0.335  10.185 -0.3627  0.6537  0.9777
  611MPD2    H1 9110   0.650   4.690  10.321  1.3318  0.4642 -3.7847
  611MPD2    H2 9111   0.240   0.008  10.252 -0.2096  1.6629 -1.6578
  611MPD2    H3 9112   0.443   4.592  10.305  2.5299 -0.8143 -0.4777
  611MPD2     N 9113   0.720   0.194  10.265  0.4417 -0.7525 -0.0849
  611MPD2    H5 9114   0.791   0.126  10.290  1.0645  0.0710  0.3897
  611MPD2    N1 9115   0.236   0.232  10.176  0.3470  0.0073 -0.0724
  611MPD2    H7 9116   0.155   0.175  10.197  0.1568 -0.0517 -0.9779
  612TMC3    C1 9117   0.911   0.336  10.268  0.4592  0.3283 -0.2661
  612TMC3    C2 9118   0.960   0.382  10.390 -0.1155 -0.1761  1.3126
  612TMC3    C3 9119   1.086   0.342  10.429  0.7317 -0.1296 -0.0006
  612TMC3    C4 9120   0.973   0.241  10.200  0.0869 -0.2286  0.3788
  612TMC3    C5 9121   1.098   0.202  10.241 -0.3576  1.0384  0.0717
  612TMC3    C6 9122   1.166   0.260  10.348 -0.4333  0.5847  0.0073
  612TMC3     C 9123   0.763   0.324  10.260 -0.5114  0.2957  0.1155
  612TMC3     O 9124   0.696   0.428  10.264 -0.0409 -0.4566  0.3757
  612TMC3     H 9125   0.894   0.447  10.447 -0.3565 -0.8245  1.7706
  612TMC3    H1 9126   0.922   0.203  10.112  1.8522 -1.1870 -0.2296
  612TMC3    H2 9127   1.272   0.254  10.365 -0.4279 -1.2782 -0.5901
  612TMC3    C7 9128   1.147   0.079  10.185 -0.6178  0.1277  0.5137
  612TMC3    C8 9129   1.166   0.437  10.511 -0.1087  0.5480 -0.3490
  612TMC3    O1 9130   1.076   0.032  10.100  0.6620 -0.8232 -0.2509
  612TMC3    O2 9131   1.289   0.451  10.486  0.6524 -0.7984  0.0326
  613MPD2     C 9132   4.658   3.176  16.369  0.2551 -0.6980  0.3837
  613MPD2    C1 9133   4.700   3.234  16.249  0.1522 -0.3559 -0.7324
  613MPD2    C2 9134   4.684   3.150  16.134 -0.9593  0.1072  0.5052
  613MPD2    C3 9135   4.628   3.032  16.130  0.3525 -0.1635 -0.1319
  613MPD2    C4 9136   4.573   2.989  16.248 -0.1533  0.0914 -0.5245
  613MPD2    C5 9137   4.599   3.056  16.365 -0.0343  0.4350  0.0479
  613MPD2     H 9138   4.698   3.190  16.034  5.2091 -1.4943  0.7238
  613MPD2    H1 9139   4.522   2.893  16.256  1.8614 -0.8155  1.3318
  613MPD2    H2 9140   4.669   3.229  16.463 -0.7691  0.8764 -0.3878
  613MPD2    H3 9141   4.557   3.014  16.455  2.9845  1.3291  1.8771
  613MPD2     N 9142   4.599   2.956  16.008  0.2764  0.3257 -0.0718
  613MPD2    H5 9143   4.534   2.880  16.024  3.3877 -2.5655 -1.1815
  613MPD2    N1 9144   0.016   3.364  16.253  0.3789 -0.0167 -0.5456
  613MPD2    H7 9145   0.022   3.411  16.343  3.7770  0.2378 -0.8720
  614TMC3    C1 9146   0.136   3.548  16.160  0.5172 -0.1520  0.1696
  614TMC3    C2 9147   0.222   3.565  16.054  0.8330 -0.0293 -0.4387
  614TMC3    C3 9148   0.175   3.635  15.952 -0.7204  0.6454 -0.0874
  614TMC3    C4 9149   0.028   3.635  16.184  0.0075  0.1001 -0.6932
  614TMC3    C5 9150   4.729   3.713  16.075  0.1239 -0.4462  0.4271
  614TMC3    C6 9151   0.063   3.707  15.954  0.4327  0.2605  0.3178
  614TMC3     C 9152   0.096   3.408  16.158  0.3790 -0.6513  0.6127
  614TMC3     O 9153   0.144   3.345  16.065  0.2015 -0.2115 -0.0466
  614TMC3     H 9154   0.310   3.501  16.051  0.1935 -0.8683 -1.3372
  614TMC3    H1 9155   4.702   3.625  16.273  0.3424 -3.3051 -0.8485
  614TMC3    H2 9156   0.042   3.773  15.871 -0.8004 -1.4099 -0.6779
  614TMC3    C7 9157   4.594   3.756  16.075 -0.0748 -0.7135  0.1196
  614TMC3    C8 9158   0.161   3.554  15.828 -0.0751 -0.2240 -0.5877
  614TMC3    O1 9159   4.539   3.771  16.186  0.0697 -0.1361  0.2037
  614TMC3    O2 9160   0.045   3.548  15.784  0.0770  0.0363 -0.0450
  615MPD2     C 9161   4.067   4.453  16.261 -0.4780  0.3858  1.0964
  615MPD2    C1 9162   3.987   4.557  16.212 -0.0978  0.1529  0.0466
  615MPD2    C2 9163   3.972   4.556  16.076  0.0614 -0.0855 -0.0474
  615MPD2    C3 9164   4.031   4.465  16.001  0.7414  0.0272  0.0981
  615MPD2    C4 9165   4.124   4.383  16.052 -0.1618 -0.4664 -0.6333
  615MPD2    C5 9166   4.133   4.368  16.187 -0.6853 -0.1825  0.2970
  615MPD2     H 9167   3.898   4.625  16.036  0.3331 -0.8626 -1.8579
  615MPD2    H1 9168   4.182   4.323  15.983 -0.1336  0.2417 -1.2164
  615MPD2    H2 9169   4.072   4.440  16.369 -0.0692 -0.8056  0.9366
  615MPD2    H3 9170   4.199   4.292  16.229 -1.4041 -0.7023  0.4921
  615MPD2     N 9171   4.012   4.453  15.861 -0.6272  0.0824 -0.1630
  615MPD2    H5 9172   4.077   4.399  15.804 -0.9235 -0.7366  0.2754
  615MPD2    N1 9173   3.924   4.658  16.296  0.5556  0.3713 -0.5542
  615MPD2    H7 9174   3.849   4.713  16.256  0.2152 -0.0007 -0.4212
  616TMC3    C1 9175   3.930   0.079  16.476 -0.7365  0.5659  0.3931
  616TMC3    C2 9176   4.007   0.152  16.561 -0.1917 -0.1545  0.8314
  616TMC3    C3 9177   3.966   0.277  16.601  0.1354 -0.7691  0.6920
  616TMC3    C4 9178   3.800   0.111  16.432 -0.1740 -0.6463 -0.0431
  616TMC3    C5 9179   3.761   0.230  16.494  0.0176  0.0196  0.0160
  616TMC3    C6 9180   3.841   0.314  16.574 -0.1911 -0.1539  0.3764
  616TMC3     C 9181   3.977   4.687  16.421  0.5127  0.2093 -1.2551
  616TMC3     O 9182   4.076   4.637  16.478 -0.1615  0.8044  0.1089
  616TMC3     H 9183   4.104   0.115  16.591  0.7528  1.1802 -0.5666
  616TMC3    H1 9184   3.727   0.051  16.380  0.6118 -1.6060 -0.0206
  616TMC3    H2 9185   3.794   0.404  16.614 -0.6481  0.0125 -0.5426
  616TMC3    C7 9186   3.641   0.302  16.454  0.4430 -0.1728 -0.0338
  616TMC3    C8 9187   4.050   0.378  16.655  0.1203 -0.3081  0.0437
  616TMC3    O1 9188   3.541   0.228  16.445 -0.1821  0.3131  0.0887
  616TMC3    O2 9189   3.993   0.482  16.691  0.1790  0.5679 -0.0407
  617MPD2     C 9190   2.314   2.546  13.207 -0.2238  0.2558  0.0916
  617MPD2    C1 9191   2.355   2.506  13.333  0.7044  0.3297 -0.9390
  617MPD2    C2 9192   2.289   2.550  13.446  0.0883 -0.9657  0.2610
  617MPD2    C3 9193   2.173   2.624  13.437  0.4292 -0.1127  0.2207
  617MPD2    C4 9194   2.131   2.668  13.314 -0.0683  0.0826  0.2787
  617MPD2    C5 9195   2.202   2.623  13.199 -0.4026  0.4000  0.1182
  617MPD2     H 9196   2.333   2.523  13.542  1.5204  2.2722  0.5126
  617MPD2    H1 9197   2.046   2.732  13.296 -1.1724 -0.7830  2.3833
  617MPD2    H2 9198   2.371   2.525  13.117 -1.0145 -2.1345  0.1575
  617MPD2    H3 9199   2.167   2.640  13.098  0.7248  2.7411  0.1131
  617MPD2     N 9200   2.098   2.674  13.541 -0.2996  0.3751  0.1081
  617MPD2    H5 9201   2.029   2.747  13.528  0.1462  0.8457  0.3702
  617MPD2    N1 9202   2.477   2.430  13.335  0.6440  0.3344  0.6688
  617MPD2    H7 9203   2.530   2.419  13.250  0.0093 -1.0329  0.4607
  618TMC3    C1 9204   2.666   2.323  13.426 -0.6458  0.2080 -0.1858
  618TMC3    C2 9205   2.738   2.283  13.530 -0.4219 -0.3078  0.3427
  618TMC3    C3 9206   2.828   2.184  13.518  0.9556  0.4902  0.1057
  618TMC3    C4 9207   2.691   2.260  13.302  0.3356 -0.3575  0.5985
  618TMC3    C5 9208   2.800   2.178  13.288 -0.3002 -0.3417 -0.1062
  618TMC3    C6 9209   2.867   2.130  13.396  0.6891  0.5429 -0.4820
  618TMC3     C 9210   2.548   2.409  13.453 -0.5102 -0.0802 -0.3157
  618TMC3     O 9211   2.528   2.425  13.568 -0.2656 -0.0121  0.6617
  618TMC3     H 9212   2.730   2.327  13.629 -0.0150 -1.1698  0.7659
  618TMC3    H1 9213   2.633   2.289  13.216 -0.6214 -1.8877  0.7362
  618TMC3    H2 9214   2.928   2.041  13.385 -1.6572 -1.2723  1.0828
  618TMC3    C7 9215   2.816   2.105  13.163  0.2428 -0.5048  0.1055
  618TMC3    C8 9216   2.870   2.115  13.639  0.5394 -0.1635  0.0561
  618TMC3    O1 9217   2.718   2.098  13.089 -0.2420  0.1086 -0.1511
  618TMC3    O2 9218   2.868   2.175  13.745 -0.2454  0.6495 -0.4065
  619MPD2     C 9219   3.562   3.810  14.197 -0.1278  0.0413 -0.1548
  619MPD2    C1 9220   3.534   3.783  14.065  0.4210  0.0612 -0.5914
  619MPD2    C2 9221   3.433   3.694  14.039  0.3647  0.4463 -0.3862
  619MPD2    C3 9222   3.332   3.673  14.133  0.0607 -0.0858  0.3990
  619MPD2    C4 9223   3.354   3.712  14.266 -0.3904  0.6640  0.2174
  619MPD2    C5 9224   3.468   3.775  14.300 -0.1872  0.3157 -0.2904
  619MPD2     H 9225   3.421   3.684  13.932  2.3070 -2.0970 -0.3542
  619MPD2    H1 9226   3.277   3.700  14.341 -0.7939 -1.9717 -0.6031
  619MPD2    H2 9227   3.646   3.871  14.229  0.7872 -2.0529  1.4228
  619MPD2    H3 9228   3.490   3.806  14.401 -0.0746  2.9886 -1.1212
  619MPD2     N 9229   3.207   3.616  14.100 -0.0788  0.4691  0.4617
  619MPD2    H5 9230   3.122   3.621  14.155 -1.9514  5.1961 -2.8279
  619MPD2    N1 9231   3.616   3.819  13.954  0.5769 -0.2693  0.9907
  619MPD2    H7 9232   3.575   3.794  13.864 -0.9453  0.6700  1.4154
  620TMC3    C1 9233   3.725   3.968  13.807 -0.1446 -0.0558  0.7221
  620TMC3    C2 9234   3.684   3.886  13.709  0.2839 -0.0101 -0.7362
  620TMC3    C3 9235   3.616   3.936  13.609 -0.0654  0.6877 -0.3167
  620TMC3    C4 9236   3.740   4.102  13.777  0.2381  0.7824  0.0284
  620TMC3    C5 9237   3.709   4.151  13.650  0.5978  0.2706  0.1695
  620TMC3    C6 9238   3.638   4.069  13.566  0.6779 -0.1048 -0.3491
  620TMC3     C 9239   3.704   3.924  13.945  0.1177 -0.1605  0.6002
  620TMC3     O 9240   3.726   4.013  14.033  0.4044 -0.1169 -0.0444
  620TMC3     H 9241   3.672   3.780  13.726  0.0511  0.3324  1.1601
  620TMC3    H1 9242   3.772   4.169  13.856  2.4442 -1.4664  1.0639
  620TMC3    H2 9243   3.622   4.092  13.461 -1.7971 -4.4230 -0.9055
  620TMC3    C7 9244   3.654   4.287  13.645 -0.8473  0.3367 -0.7076
  620TMC3    C8 9245   3.477   3.912  13.621  0.4788 -0.4637 -0.3985
  620TMC3    O1 9246   3.565   4.306  13.561 -0.1423  0.7897  0.1919
  620TMC3    O2 9247   3.451   3.835  13.713  0.0792 -0.8030 -0.1778
  621MPD2     C 9248   3.567   3.589  10.288  0.2707  0.3468  0.5076
  621MPD2    C1 9249   3.704   3.611  10.286  0.5645 -0.2482 -0.1666
  621MPD2    C2 9250   3.750   3.732  10.252 -0.0867  0.1260 -1.0380
  621MPD2    C3 9251   3.672   3.842  10.239  0.6851  0.6582  0.1435
  621MPD2    C4 9252   3.533   3.818  10.245  0.4219 -0.5881 -0.4376
  621MPD2    C5 9253   3.484   3.694  10.269  0.7687  0.6254  0.5907
  621MPD2     H 9254   3.854   3.756  10.240  0.4657 -1.1673  1.1550
  621MPD2    H1 9255   3.449   3.884  10.230 -0.6691 -1.3519  2.2335
  621MPD2    H2 9256   3.518   3.494  10.304  0.8181 -0.0241  0.0024
  621MPD2    H3 9257   3.378   3.673  10.259  1.0857 -0.5940 -0.2139
  621MPD2     N 9258   3.727   3.964  10.192  0.2898  0.0039 -0.3738
  621MPD2    H5 9259   3.826   3.959  10.170  0.4687  0.8761  0.2303
  621MPD2    N1 9260   3.796   3.497  10.294 -0.5303 -0.3096 -0.3603
  621MPD2    H7 9261   3.896   3.514  10.294 -0.0502 -3.2311 -0.0415
  622TMC3    C1 9262   3.876   3.274  10.335  0.0337 -0.0380  0.2739
  622TMC3    C2 9263   3.835   3.158  10.397  0.3917  0.1526  0.2355
  622TMC3    C3 9264   3.864   3.037  10.339 -0.0665 -0.0361 -0.2926
  622TMC3    C4 9265   3.948   3.270  10.218  0.2850  0.8842  0.6206
  622TMC3    C5 9266   3.961   3.147  10.161 -0.4406  0.1565  0.2729
  622TMC3    C6 9267   3.919   3.024  10.212  0.3427 -0.0454  0.1339
  622TMC3     C 9268   3.765   3.366  10.323 -0.4790  0.4646 -0.3097
  622TMC3     O 9269   3.657   3.318  10.351 -0.1004 -0.5098 -0.2116
  622TMC3     H 9270   3.794   3.163  10.497 -0.0896  3.1801 -0.1388
  622TMC3    H1 9271   3.983   3.360  10.169  1.0119  0.6511  0.7106
  622TMC3    H2 9272   3.923   2.928  10.160 -0.3325  1.9365 -3.5871
  622TMC3    C7 9273   4.020   3.160  10.036  0.2381  0.1630 -0.5463
  622TMC3    C8 9274   3.743   2.957  10.338 -0.0024  0.3299 -0.3897
  622TMC3    O1 9275   4.118   3.236  10.029 -0.3458  0.2627  0.0155
  622TMC3    O2 9276   3.756   2.844  10.289  0.3631 -0.4936 -0.7433
  623MPD2     C 9277   2.969   0.268  15.792  0.4309 -0.1610  0.3568
  623MPD2    C1 9278   2.894   0.163  15.830  0.8288 -0.0145  0.1346
  623MPD2    C2 9279   2.910   0.108  15.955 -0.0295  0.2464 -0.0573
  623MPD2    C3 9280   3.007   0.150  16.040 -0.2914  0.2167  0.6431
  623MPD2    C4 9281   3.099   0.241  15.996 -0.1664 -0.2885 -0.3863
  623MPD2    C5 9282   3.071   0.303  15.876 -0.0902 -0.1270 -0.0991
  623MPD2     H 9283   2.851   0.025  15.991  0.9834 -0.0801  0.8652
  623MPD2    H1 9284   3.185   0.274  16.053 -0.8941  0.9625 -0.0011
  623MPD2    H2 9285   2.956   0.310  15.693  1.9644 -1.2671 -0.3176
  623MPD2    H3 9286   3.121   0.395  15.853 -0.6976 -0.1094 -1.3245
  623MPD2     N 9287   3.002   0.092  16.169  0.9785 -0.0452  0.0598
  623MPD2    H5 9288   2.926   0.028  16.187  1.3623 -0.4191  0.3405
  623MPD2    N1 9289   2.786   0.126  15.743 -0.0801 -0.1539 -0.3357
  623MPD2    H7 9290   2.760   0.196  15.674 -1.8348 -1.8339 -1.3824
  624TMC3    C1 9291   3.098   4.695  16.603  0.5209  1.0177 -0.1985
  624TMC3    C2 9292   2.971   4.646  16.617  0.4608  0.0527 -1.5822
  624TMC3    C3 9293   2.877   4.687  16.525 -0.0310  0.0496 -0.5097
  624TMC3    C4 9294   3.138   0.035  16.491  0.0997  0.0284 -0.0922
  624TMC3    C5 9295   3.040   0.069  16.399 -0.1295  0.4228  0.0967
  624TMC3    C6 9296   2.909   0.030  16.412  0.2438 -0.0115 -1.1916
  624TMC3     C 9297   3.199   4.652  16.692 -0.0711  0.1759 -0.0619
  624TMC3     O 9298   3.298   4.726  16.710 -0.1293  0.5132 -0.3776
  624TMC3     H 9299   2.940   4.608  16.713 -0.8510  3.5797 -0.6141
  624TMC3    H1 9300   3.239   0.071  16.477  0.1358 -0.3135 -0.7257
  624TMC3    H2 9301   2.833   0.069  16.346  0.0192  1.2155 -0.2316
  624TMC3    C7 9302   3.078   0.134  16.276  0.3203 -0.4243 -0.3565
  624TMC3    C8 9303   2.734   4.696  16.551 -0.0951 -0.2345 -0.0028
  624TMC3    O1 9304   3.182   0.194  16.274 -0.3932 -0.3071 -0.1103
  624TMC3    O2 9305   2.667   4.694  16.453  0.1182  0.3055 -0.0247
  625MPD2     C 9306   3.039   1.210   0.668 -0.1793  0.3047 -0.0699
  625MPD2    C1 9307   3.097   1.330   0.664  0.3353 -0.1137 -0.0950
  625MPD2    C2 9308   3.217   1.348   0.735 -0.8222 -0.4607 -0.6014
  625MPD2    C3 9309   3.275   1.250   0.814 -0.0256 -0.4158  0.9073
  625MPD2    C4 9310   3.217   1.127   0.816  0.0807 -0.4006  0.3695
  625MPD2    C5 9311   3.108   1.108   0.733 -0.5359 -0.3465  0.1467
  625MPD2     H 9312   3.267   1.445   0.738 -0.0100 -0.9016  0.0096
  625MPD2    H1 9313   3.252   1.045   0.879  0.2349 -0.3151  0.3943
  625MPD2    H2 9314   2.951   1.178   0.613 -0.5711 -0.0423  0.7527
  625MPD2    H3 9315   3.072   1.006   0.734 -2.5239  0.3215 -1.7589
  625MPD2     N 9316   3.392   1.285   0.890 -0.2589 -0.5262 -0.1166
  625MPD2    H5 9317   3.423   1.382   0.885  0.8023 -0.9963 -2.5602
  625MPD2    N1 9318   3.044   1.445   0.601 -0.2461 -0.3193  0.3146
  625MPD2    H7 9319   3.099   1.529   0.603 -0.3430 -0.2463  0.0222
  626TMC3    C1 9320   2.908   1.581   0.466  0.0192 -0.4426  0.2375
  626TMC3    C2 9321   2.860   1.588   0.338  0.1111  0.1758 -0.1247
  626TMC3    C3 9322   2.785   1.704   0.314  0.5585 -0.3513 -0.4893
  626TMC3    C4 9323   2.889   1.672   0.561  0.2792 -0.3140 -0.2781
  626TMC3    C5 9324   2.806   1.776   0.536 -0.7051 -0.2033 -0.3922
  626TMC3    C6 9325   2.757   1.795   0.409 -0.3512  0.6140  0.4226
  626TMC3     C 9326   2.938   1.443   0.510  0.3121 -0.1308 -0.1666
  626TMC3     O 9327   2.885   1.340   0.469  0.0454  0.1523  0.0506
  626TMC3     H 9328   2.870   1.515   0.259  0.3607  2.5664 -2.2962
  626TMC3    H1 9329   2.927   1.653   0.660  0.9761 -0.8964 -0.6514
  626TMC3    H2 9330   2.712   1.890   0.382  0.8932  1.0359 -0.1648
  626TMC3    C7 9331   2.761   1.847   0.650  0.3872 -0.4013 -0.3466
  626TMC3    C8 9332   2.743   1.736   0.183 -0.8713 -0.5349 -0.0148
  626TMC3    O1 9333   2.796   1.803   0.758  0.1014  0.2335 -0.3774
  626TMC3    O2 9334   2.807   1.688   0.088 -0.0298  0.6184 -0.0669
  627MPD2     C 9335   1.659   1.491  13.952 -1.0757  0.0427  0.1392
  627MPD2    C1 9336   1.696   1.456  14.079  0.3292  0.1743  0.0519
  627MPD2    C2 9337   1.615   1.374  14.150 -0.1621 -0.6502  1.0738
  627MPD2    C3 9338   1.519   1.297  14.089 -0.4627  0.0181 -0.6165
  627MPD2    C4 9339   1.480   1.333  13.962  0.0133 -0.5868  0.0342
  627MPD2    C5 9340   1.546   1.430  13.896 -0.0402  0.1741  0.0720
  627MPD2     H 9341   1.654   1.363  14.251  1.7333  0.2676  0.4578
  627MPD2    H1 9342   1.400   1.282  13.909  0.9150 -1.7161 -0.2232
  627MPD2    H2 9343   1.733   1.542  13.892 -1.0823  2.4790  2.1867
  627MPD2    H3 9344   1.528   1.433  13.789 -1.9337  0.4343  0.3849
  627MPD2     N 9345   1.430   1.224  14.164 -0.0948  0.6915 -0.4731
  627MPD2    H5 9346   1.454   1.220  14.262 -2.1512  0.0330 -0.0007
  627MPD2    N1 9347   1.809   1.504  14.141 -0.1143  0.3563  0.1662
  627MPD2    H7 9348   1.832   1.454  14.226 -0.8405  0.7334  0.5862
  628TMC3    C1 9349   2.002   1.626  14.184 -0.7297  0.8464  1.1541
  628TMC3    C2 9350   2.053   1.524  14.268  0.1488 -0.4240  0.5428
  628TMC3    C3 9351   2.137   1.566  14.367  0.3849 -0.9317  0.0640
  628TMC3    C4 9352   2.031   1.758  14.213  0.0213 -0.5121  0.6313
  628TMC3    C5 9353   2.088   1.787  14.332 -0.1487  0.0745  0.0852
  628TMC3    C6 9354   2.139   1.691  14.417  0.7101 -0.3602 -0.4317
  628TMC3     C 9355   1.887   1.603  14.102  0.3681  0.2821 -0.0991
  628TMC3     O 9356   1.865   1.685  14.014 -0.5833 -0.3666 -0.4692
  628TMC3     H 9357   2.052   1.420  14.237  0.0531 -0.1735 -0.2987
  628TMC3    H1 9358   1.978   1.827  14.149  0.0194  0.2391  1.4373
  628TMC3    H2 9359   2.190   1.703  14.512  0.2410 -0.8491 -0.1140
  628TMC3    C7 9360   2.081   1.924  14.388  0.1304  0.6387  0.0077
  628TMC3    C8 9361   2.209   1.463  14.437  0.1376 -0.2619 -0.4627
  628TMC3    O1 9362   2.090   1.932  14.510 -0.0101 -0.2407  0.9569
  628TMC3    O2 9363   2.301   1.402  14.384 -0.1547  0.5152  0.3747
  629MPD2     C 9364   4.446   0.645  16.474 -0.8613  0.1844  0.0831
  629MPD2    C1 9365   4.488   0.544  16.552  0.5610 -0.1538  0.2483
  629MPD2    C2 9366   4.408   0.441  16.599 -0.4834  0.7028 -0.2152
  629MPD2    C3 9367   4.273   0.451  16.587 -0.4542  0.1801  0.0656
  629MPD2    C4 9368   4.220   0.559  16.521  0.4185  0.4977 -0.3605
  629MPD2    C5 9369   4.306   0.655  16.466 -0.3807 -0.1709 -0.4805
  629MPD2     H 9370   4.438   0.360  16.665 -1.0422 -0.6824 -1.6358
  629MPD2    H1 9371   4.114   0.566  16.498  0.9297 -0.7683 -3.0661
  629MPD2    H2 9372   4.503   0.727  16.432 -2.9490  1.6468  0.0632
  629MPD2    H3 9373   4.271   0.741  16.411 -0.6873  0.1525  0.2215
  629MPD2     N 9374   4.180   0.352  16.640 -0.2650  0.2018 -0.1712
  629MPD2    H5 9375   4.218   0.263  16.671  1.9168  0.1194 -3.0219
  629MPD2    N1 9376   4.628   0.540  16.550  0.9380  0.2926 -0.1161
  629MPD2    H7 9377   4.677   0.613  16.500 -0.4796  0.8846 -0.6582
  630TMC3    C1 9378   0.106   0.459  16.610  0.3546 -0.6005  0.6463
  630TMC3    C2 9379   0.172   0.562  16.553  0.7329  0.3162  0.0997
  630TMC3    C3 9380   0.304   0.584  16.577 -0.3081 -0.5016 -0.1305
  630TMC3    C4 9381   0.176   0.376  16.695  0.3532 -0.0145 -0.4934
  630TMC3    C5 9382   0.304   0.408  16.725  0.6270 -1.0172 -0.0883
  630TMC3    C6 9383   0.374   0.507  16.663 -0.0838  0.4662  0.7160
  630TMC3     C 9384   4.699   0.451  16.621 -0.2987  0.8668 -0.2951
  630TMC3     O 9385   4.656   0.349  16.682 -0.3973  0.1715  0.0773
  630TMC3     H 9386   0.117   0.614  16.475 -1.5803 -1.3867  0.5967
  630TMC3    H1 9387   0.129   0.316  16.773  1.8587 -0.0653  0.3720
  630TMC3    H2 9388   0.481   0.523  16.674  0.0444  0.3596 -0.4112
  630TMC3    C7 9389   0.370   0.333  16.830 -0.3234 -0.3289 -0.5149
  630TMC3    C8 9390   0.376   0.682  16.498 -0.4410  0.1400  0.2260
  630TMC3    O1 9391   0.328   0.221  16.860 -0.3752  0.1241  0.3443
  630TMC3    O2 9392   0.490   0.718  16.531  0.6993 -0.3544  0.6602
  631MPD2     C 9393   3.467   0.057  14.967  0.7151 -0.4830  0.0599
  631MPD2    C1 9394   3.553   0.149  15.024 -0.3104  0.7228  0.2398
  631MPD2    C2 9395   3.647   0.103  15.116 -0.4209  0.1349  0.5100
  631MPD2    C3 9396   3.639   4.710  15.172 -0.2898 -0.1505 -0.3443
  631MPD2    C4 9397   3.533   4.632  15.128  0.0058  0.2937 -0.2080
  631MPD2    C5 9398   3.456   4.666  15.022 -0.2574 -0.7003 -0.4442
  631MPD2     H 9399   3.723   0.170  15.157  0.3465 -1.3196  1.4576
  631MPD2    H1 9400   3.515   4.531  15.165  0.1947  0.4425  0.2869
  631MPD2    H2 9401   3.400   0.085  14.886  0.6140  0.3471  0.4254
  631MPD2    H3 9402   3.371   4.603  14.998  0.3287 -0.3565 -3.3966
  631MPD2     N 9403   3.735   4.666  15.265 -0.1027  0.3604 -0.1180
  631MPD2    H5 9404   3.811   4.732  15.274 -0.1135  0.3995 -0.3292
  631MPD2    N1 9405   3.540   0.281  14.980  0.6878  0.2569 -0.0873
  631MPD2    H7 9406   3.458   0.304  14.925  1.6584 -0.6552 -1.9010
  632TMC3    C1 9407   3.544   0.514  14.999 -0.5726 -0.2136  1.1202
  632TMC3    C2 9408   3.516   0.609  15.097  0.2379  0.0908  0.1716
  632TMC3    C3 9409   3.462   0.727  15.058 -0.9098 -0.6539  0.0881
  632TMC3    C4 9410   3.519   0.538  14.866  0.5602 -0.4976 -0.8995
  632TMC3    C5 9411   3.459   0.657  14.839  0.3782  0.4977 -0.4582
  632TMC3    C6 9412   3.426   0.748  14.931  0.0073  1.3994 -0.8613
  632TMC3     C 9413   3.602   0.393  15.041  0.1925 -0.0036  0.2426
  632TMC3     O 9414   3.682   0.405  15.134  0.0468  0.7412  0.6661
  632TMC3     H 9415   3.556   0.589  15.196 -1.9119  1.4603  1.3047
  632TMC3    H1 9416   3.545   0.464  14.791 -1.0358 -3.5898  1.6172
  632TMC3    H2 9417   3.376   0.842  14.909 -0.6206  1.0842 -0.7545
  632TMC3    C7 9418   3.368   0.645  14.726 -0.9044  0.0395 -0.1302
  632TMC3    C8 9419   3.446   0.835  15.156 -0.0334  0.1819  0.1895
  632TMC3    O1 9420   3.406   0.588  14.625  0.3407 -0.5012 -0.1090
  632TMC3    O2 9421   3.444   0.950  15.115  0.4700 -0.0284  0.0883
  633MPD2     C 9422   2.783   3.248  17.622  0.0448  0.6352 -0.3552
  633MPD2    C1 9423   2.819   3.173  17.524 -0.1365  0.7680 -0.2600
  633MPD2    C2 9424   2.882   3.054  17.536 -0.4315  0.2311  0.1805
  633MPD2    C3 9425   2.928   3.011  17.666 -1.0387  0.1769  0.7805
  633MPD2    C4 9426   2.876   3.089   0.028  0.2988 -0.0081 -0.2580
  633MPD2    C5 9427   2.803   3.199   0.008  0.4736 -0.3983 -0.3562
  633MPD2     H 9428   2.912   2.995  17.449  2.9239  1.3755  0.5826
  633MPD2    H1 9429   2.904   3.063   0.129 -0.6410  0.8919  0.2235
  633MPD2    H2 9430   2.730   3.342  17.609  0.1389  0.5503 -1.3289
  633MPD2    H3 9431   2.766   3.270   0.081  1.8819 -2.5533  2.4563
  633MPD2     N 9432   3.003   2.902  17.690 -0.3538  0.3751  0.6920
  633MPD2    H5 9433   3.041   2.879   0.039 -0.1011  0.2190  0.5470
  633MPD2    N1 9434   2.792   3.200  17.383 -0.4298 -0.1189 -0.4607
  633MPD2    H7 9435   2.821   3.137  17.308  3.6496  0.5487  0.5927
  634TMC3    C1 9436   2.692   3.307  17.191 -0.5689 -0.0787 -0.3775
  634TMC3    C2 9437   2.698   3.184  17.127 -0.5861  0.0577 -0.5633
  634TMC3    C3 9438   2.677   3.169  16.996 -0.2449 -0.0302 -0.3545
  634TMC3    C4 9439   2.663   3.422  17.129  0.3689 -0.1393 -0.1962
  634TMC3    C5 9440   2.668   3.414  16.992  0.2420  0.1877 -0.0771
  634TMC3    C6 9441   2.669   3.288  16.926  0.1524  0.0251 -0.1860
  634TMC3     C 9442   2.717   3.309  17.335  0.1824  0.6500  0.0686
  634TMC3     O 9443   2.679   3.414  17.392  0.3166  0.3116  0.7168
  634TMC3     H 9444   2.683   3.092  17.183  1.4048  0.4218  0.6044
  634TMC3    H1 9445   2.654   3.516  17.184  1.4690  0.1170 -0.4696
  634TMC3    H2 9446   2.677   3.282  16.818  1.4098 -1.5893 -0.0057
  634TMC3    C7 9447   2.686   3.538  16.909 -0.7439 -0.2322  0.0309
  634TMC3    C8 9448   2.670   3.043  16.930  0.9731  0.1146 -0.6684
  634TMC3    O1 9449   2.738   3.520  16.801  0.9475  0.5071  0.3640
  634TMC3    O2 9450   2.693   2.937  16.991 -0.1277  0.2236  0.3550
  635TMC3    C1 9451   4.131   4.185  17.742 -0.7683 -0.0124  0.0230
  635TMC3    C2 9452   4.108   4.160  17.611 -0.6110 -1.0950  0.3224
  635TMC3    C3 9453   4.198   4.078  17.548  0.3905 -0.2874 -0.6682
  635TMC3    C4 9454   4.230   4.134   0.075 -0.2204  0.5809 -1.1200
  635TMC3    C5 9455   4.308   4.046   0.010 -0.5519 -0.1294 -0.1506
  635TMC3    C6 9456   4.300   4.017  17.616 -0.9437 -0.4099  0.9860
  635TMC3     C 9457   4.031   4.258   0.074 -0.8393  0.1109  0.9203
  635TMC3     O 9458   4.072   4.311   0.173 -0.6044 -0.3146 -0.1703
  635TMC3     H 9459   4.030   4.209  17.554  2.0963  0.5693 -1.9467
  635TMC3    H1 9460   4.235   4.153   0.182  3.6661 -1.8004 -0.8782
  635TMC3    H2 9461   4.381   3.963  17.567 -0.1709  1.2398  0.4476
  635TMC3    C7 9462   4.406   3.963   0.084 -0.1370  0.7373 -0.4544
  635TMC3    C8 9463   4.147   4.016  17.425 -0.4751 -0.1269 -0.5453
  635TMC3    O1 9464   4.500   3.923   0.017  0.1032  0.5817  0.1713
  635TMC3    O2 9465   4.031   4.048  17.392 -0.1124 -0.0611 -0.0236
  636MPD2     C 9466   3.877   3.212  15.950 -0.5201 -0.2899 -0.3420
  636MPD2    C1 9467   3.986   3.200  16.033 -0.1801  0.2735  0.2595
  636MPD2    C2 9468   4.098   3.123  15.993 -0.0109  0.2128  0.4468
  636MPD2    C3 9469   4.102   3.083  15.865  0.1330 -0.2990 -0.0096
  636MPD2    C4 9470   3.984   3.079  15.793 -0.1250  0.4628 -0.4275
  636MPD2    C5 9471   3.869   3.139  15.834 -0.7451  1.0976 -0.0539
  636MPD2     H 9472   4.185   3.110  16.056 -0.3200 -0.3002  0.7635
  636MPD2    H1 9473   3.976   3.028  15.698  0.3362 -0.8284  0.2357
  636MPD2    H2 9474   3.790   3.264  15.988 -0.0882 -0.4590  0.8891
  636MPD2    H3 9475   3.776   3.123  15.781  0.3295  0.4566 -1.7443
  636MPD2     N 9476   4.230   3.055  15.814  0.6313 -0.0325 -0.0350
  636MPD2    H5 9477   4.308   3.060  15.880 -0.3226 -0.6175  1.1340
  636MPD2    N1 9478   4.000   3.255  16.161  0.7153  0.0899 -0.3527
  636MPD2    H7 9479   4.086   3.227  16.207  1.6005  0.4689 -1.7816
  637TMC3    C1 9480   4.408   2.993  15.669  0.4469  0.3993 -0.4589
  637TMC3    C2 9481   4.472   2.931  15.773  0.5306  0.2203 -0.3717
  637TMC3    C3 9482   4.610   2.915  15.774 -0.5143 -0.2748 -0.7543
  637TMC3    C4 9483   4.471   3.042  15.560  0.4766  0.8742 -0.0044
  637TMC3    C5 9484   4.609   3.027  15.556 -0.1230 -0.7628 -0.7213
  637TMC3    C6 9485   4.668   2.952  15.656 -0.9903 -0.6931  0.3769
  637TMC3     C 9486   4.265   3.015  15.687 -0.1216  0.5276 -0.1867
  637TMC3     O 9487   4.188   3.002  15.589 -0.5938  0.3549  0.3799
  637TMC3     H 9488   4.419   2.877  15.851  2.3349  0.8524  1.2918
  637TMC3    H1 9489   4.408   3.092  15.486  0.1608  0.3294 -0.1050
  637TMC3    H2 9490   0.040   2.945  15.662 -0.9726  1.3166  2.5008
  637TMC3    C7 9491   4.683   3.153  15.544 -0.1610 -0.3236  0.2807
  637TMC3    C8 9492   4.670   2.969  15.891 -0.1462 -0.3704  0.5767
  637TMC3    O1 9493   4.625   3.251  15.588  0.1650 -0.6194  0.1224
  637TMC3    O2 9494   0.032   3.042  15.872 -0.3701 -0.4910 -0.0276
  638MPD2     C 9495   4.405   2.322  14.560 -0.0377 -0.4150 -0.2702
  638MPD2    C1 9496   4.325   2.228  14.502 -0.2096 -0.2619  0.3035
  638MPD2    C2 9497   4.204   2.201  14.558  0.1763 -0.1299  0.3142
  638MPD2    C3 9498   4.166   2.255  14.677  0.6573 -0.5361  0.0551
  638MPD2    C4 9499   4.244   2.348  14.730  0.9606  0.1313  0.4053
  638MPD2    C5 9500   4.365   2.392  14.672 -0.5988  0.5948  0.1194
  638MPD2     H 9501   4.147   2.117  14.520  1.7356 -0.5989 -0.9435
  638MPD2    H1 9502   4.224   2.394  14.826 -2.3734 -1.0050  0.2568
  638MPD2    H2 9503   4.490   2.354  14.501  0.4170 -2.2577 -0.6250
  638MPD2    H3 9504   4.428   2.473  14.707  1.1018 -0.7163  0.1291
  638MPD2     N 9505   4.055   2.193  14.747  0.8356 -0.1229  0.6950
  638MPD2    H5 9506   4.006   2.119  14.697  1.9284  1.0595 -2.0955
  638MPD2    N1 9507   4.372   2.152  14.390  0.4947 -0.4082  0.0753
  638MPD2    H7 9508   4.471   2.165  14.375  0.0334  2.2579 -0.6079
  639TMC3    C1 9509   3.943   2.100  14.922 -0.4237  0.0067  0.3948
  639TMC3    C2 9510   3.842   2.080  14.837 -0.1000 -0.2102 -0.4437
  639TMC3    C3 9511   3.800   1.954  14.822 -0.0944 -0.1708 -0.2273
  639TMC3    C4 9512   4.010   1.998  14.975  0.1902 -0.1811  0.2210
  639TMC3    C5 9513   3.962   1.874  14.964  1.2274 -0.1099 -0.4866
  639TMC3    C6 9514   3.859   1.843  14.884 -0.0711 -0.2246 -0.4574
  639TMC3     C 9515   4.017   2.215  14.879 -0.2423 -0.0462  0.0524
  639TMC3     O 9516   4.086   2.272  14.958 -0.1702  0.3125 -0.2661
  639TMC3     H 9517   3.805   2.157  14.770 -0.9190  1.1713  1.6089
  639TMC3    H1 9518   4.100   2.018  15.032 -1.1933  2.1040  1.5808
  639TMC3    H2 9519   3.814   1.744  14.882  0.8093 -0.6009 -2.2334
  639TMC3    C7 9520   4.046   1.764  15.023  0.1567  1.0002  0.3309
  639TMC3    C8 9521   3.687   1.939  14.735  0.1518 -0.1202 -0.2436
  639TMC3    O1 9522   3.991   1.661  15.054 -0.5463  0.2001  0.4156
  639TMC3    O2 9523   3.622   2.041  14.708  0.0858 -0.2653 -0.0327
  640MPD2     C 9524   4.672   0.967   9.271  0.5941  0.2745 -1.1193
  640MPD2    C1 9525   4.546   0.926   9.302  0.2426 -0.4825 -0.1134
  640MPD2    C2 9526   4.433   0.996   9.267 -0.6319  0.5018 -0.1427
  640MPD2    C3 9527   4.449   1.125   9.218 -0.4363 -1.0463 -0.0773
  640MPD2    C4 9528   4.577   1.173   9.210  0.6225  0.0711 -0.5811
  640MPD2    C5 9529   4.684   1.095   9.226  0.0523  0.0887  0.1902
  640MPD2     H 9530   4.343   0.938   9.282  0.3458 -1.4540 -1.7086
  640MPD2    H1 9531   4.589   1.277   9.183 -0.0418  1.0592  2.9659
  640MPD2    H2 9532   0.028   0.909   9.277 -0.0442 -0.7157 -0.7691
  640MPD2    H3 9533   0.048   1.136   9.228 -0.4074  1.2563 -0.6309
  640MPD2     N 9534   4.343   1.211   9.192  0.5105  0.0874  0.5041
  640MPD2    H5 9535   4.362   1.309   9.175 -0.4684  0.1049 -0.5094
  640MPD2    N1 9536   4.539   0.796   9.350 -0.5047 -0.0654 -0.2391
  640MPD2    H7 9537   4.625   0.755   9.384 -0.8745  0.6124  1.5066
  641TMC3    C1 9538   4.453   0.582   9.433 -0.0292 -0.2862  0.0307
  641TMC3    C2 9539   4.580   0.535   9.421  0.4127 -1.0112  0.6513
  641TMC3    C3 9540   4.595   0.399   9.426 -0.7628  0.1975 -0.1397
  641TMC3    C4 9541   4.343   0.505   9.453  0.1460  0.0128  0.1612
  641TMC3    C5 9542   4.369   0.374   9.461 -0.3309 -0.4163 -0.0047
  641TMC3    C6 9543   4.492   0.315   9.442 -0.2704 -0.3041  1.1532
  641TMC3     C 9544   4.430   0.715   9.374  0.6376  0.4796  0.1747
  641TMC3     O 9545   4.313   0.733   9.345 -0.1627  0.5804 -0.6147
  641TMC3     H 9546   4.664   0.603   9.425  0.2792 -0.8375  0.4124
  641TMC3    H1 9547   4.244   0.547   9.445  0.1998 -0.4482 -2.7993
  641TMC3    H2 9548   4.497   0.208   9.463 -0.5726 -0.3927  0.7896
  641TMC3    C7 9549   4.255   0.283   9.464  0.4457  0.5632  0.7109
  641TMC3    C8 9550   4.724   0.340   9.443 -0.1026 -0.2112  0.2373
  641TMC3    O1 9551   4.263   0.173   9.415  0.3075  0.0035 -0.5180
  641TMC3    O2 9552   4.728   0.230   9.491 -0.1517  0.3099  0.3898
  642TMC3    C1 9553   0.820   1.397  12.212 -0.2993  0.2913 -0.2922
  642TMC3    C2 9554   0.940   1.376  12.149 -0.4155  0.6840 -0.1431
  642TMC3    C3 9555   0.968   1.248  12.093 -0.0343 -0.0614  0.0303
  642TMC3    C4 9556   0.733   1.293  12.230 -0.3889  0.1351  1.0815
  642TMC3    C5 9557   0.772   1.170  12.180  0.0806 -0.2010  0.0215
  642TMC3    C6 9558   0.879   1.145  12.107  0.3153 -0.3296 -0.0971
  642TMC3     C 9559   0.806   1.530  12.272  0.2238 -0.2702 -1.0256
  642TMC3     O 9560   0.899   1.603  12.251 -0.4735 -0.1258  0.4423
  642TMC3     H 9561   1.016   1.453  12.143 -0.2758  0.6015  0.5501
  642TMC3    H1 9562   0.635   1.310  12.274 -0.5673  1.8650  0.0207
  642TMC3    H2 9563   0.893   1.047  12.061 -2.0692 -0.6163 -0.2247
  642TMC3    C7 9564   0.707   1.052  12.221  0.3283 -0.2048  0.1014
  642TMC3    C8 9565   1.085   1.245  12.004 -0.1441 -0.0259  0.0896
  642TMC3    O1 9566   0.761   0.943  12.200 -0.0415 -0.0153 -0.3450
  642TMC3    O2 9567   1.074   1.176  11.896  0.0350 -0.2099 -0.2698
  643TMC3    C1 9568   4.490   1.384   0.433 -0.1520  0.2294 -1.2450
  643TMC3    C2 9569   4.354   1.386   0.446  0.2135  0.1137 -0.4271
  643TMC3    C3 9570   4.274   1.319   0.354 -0.1640  0.1373  0.2571
  643TMC3    C4 9571   4.555   1.319   0.337 -0.2171 -0.5499  0.9098
  643TMC3    C5 9572   4.483   1.240   0.256 -0.1157  0.0639  0.3966
  643TMC3    C6 9573   4.344   1.246   0.262  0.7159  0.7535  0.1230
  643TMC3     C 9574   4.557   1.486   0.515  0.0890 -0.0362  0.0149
  643TMC3     O 9575   4.499   1.592   0.545  0.5685  0.0201  0.2028
  643TMC3     H 9576   4.318   1.454   0.522 -1.6706  0.4891 -1.6763
  643TMC3    H1 9577   4.661   1.331   0.319 -0.1721 -1.6788  0.3627
  643TMC3    H2 9578   4.285   1.179   0.200 -1.0132  2.7332 -0.3783
  643TMC3    C7 9579   4.536   1.233   0.120 -0.3053 -0.2674  0.2332
  643TMC3    C8 9580   4.183   1.412   0.288  0.4150  0.1295  0.3488
  643TMC3    O1 9581   4.627   1.310   0.092 -0.2043 -0.0809  0.2194
  643TMC3    O2 9582   4.104   1.362   0.205  0.4826  0.6673 -0.1857
  644MPD2     C 9583   4.642   0.583   9.790 -0.9470  0.9393 -0.7442
  644MPD2    C1 9584   0.019   0.627   9.730 -0.5034  0.8213  0.3588
  644MPD2    C2 9585   0.015   0.747   9.659 -0.0458 -0.1181  0.1220
  644MPD2    C3 9586   4.641   0.832   9.671  0.0002  0.0581 -0.7817
  644MPD2    C4 9587   4.530   0.789   9.729 -0.1721  0.3017  0.4658
  644MPD2    C5 9588   4.526   0.664   9.787 -0.3679 -0.4441  0.4170
  644MPD2     H 9589   0.107   0.777   9.609  0.0277  1.9206  1.4722
  644MPD2    H1 9590   4.453   0.864   9.744 -0.2778  0.1148  0.8767
  644MPD2    H2 9591   4.640   0.500   9.860  0.8071  0.0764 -1.7226
  644MPD2    H3 9592   4.434   0.645   9.840 -0.7464 -3.5500 -1.3647
  644MPD2     N 9593   4.661   0.961   9.627  0.1342  0.1831  0.1055
  644MPD2    H5 9594   0.020   0.981   9.597  0.2434 -1.4031 -0.6341
  644MPD2    N1 9595   0.136   0.554   9.752  0.1297 -0.2393  0.0622
  644MPD2    H7 9596   0.124   0.465   9.800  1.7563  0.0065  0.9259
  645TMC3    C1 9597   4.629   1.190   9.585  0.4806 -0.2495  0.2265
  645TMC3    C2 9598   4.544   1.281   9.536 -0.1104  0.3286  0.1724
  645TMC3    C3 9599   4.583   1.418   9.547  0.0481  0.6054 -0.6062
  645TMC3    C4 9600   0.024   1.222   9.625 -0.0319  0.6180  0.6201
  645TMC3    C5 9601   0.065   1.355   9.616 -0.7351  0.2850 -0.0742
  645TMC3    C6 9602   4.711   1.454   9.583  0.0771 -0.2972  0.4203
  645TMC3     C 9603   4.567   1.068   9.628  0.0919 -0.0496  0.5175
  645TMC3     O 9604   4.445   1.058   9.637  0.1059 -0.5456 -0.1943
  645TMC3     H 9605   4.442   1.263   9.505  0.5550 -0.6602 -1.4394
  645TMC3    H1 9606   0.085   1.147   9.674 -0.3052  0.6699  1.0399
  645TMC3    H2 9607   0.012   1.556   9.576 -1.7959  0.3389 -0.0640
  645TMC3    C7 9608   0.208   1.398   9.623  0.6594 -0.6749  0.5133
  645TMC3    C8 9609   4.499   1.509   9.467  0.3870  0.3613  0.5210
  645TMC3    O1 9610   0.235   1.511   9.580 -0.5753 -0.0479  0.1504
  645TMC3    O2 9611   4.472   1.481   9.352  0.1408  0.0696  0.1371
  646MPD2     C 9612   3.956   0.642  14.698  0.3966 -0.4433  0.6706
  646MPD2    C1 9613   3.878   0.691  14.801  0.1885 -0.0645 -0.3184
  646MPD2    C2 9614   3.777   0.783  14.777 -0.1518 -0.5037 -0.3654
  646MPD2    C3 9615   3.748   0.835  14.651 -0.2796  0.6229 -0.4917
  646MPD2    C4 9616   3.826   0.785  14.546 -0.1545  0.5893 -0.3416
  646MPD2    C5 9617   3.927   0.697  14.569 -0.9787  0.3869  0.1869
  646MPD2     H 9618   3.728   0.814  14.868 -1.6132 -0.8202 -1.0522
  646MPD2    H1 9619   3.811   0.819  14.444  1.5056 -0.0084 -0.8012
  646MPD2    H2 9620   4.040   0.573  14.705  1.1339  0.5370  1.4781
  646MPD2    H3 9621   3.991   0.675  14.485 -0.5070  0.1742  0.5991
  646MPD2     N 9622   3.637   0.914  14.633 -0.2214  0.3242  0.0417
  646MPD2    H5 9623   3.590   0.949  14.716  0.3265  2.0985 -0.3952
  646MPD2    N1 9624   3.917   0.646  14.933  0.3061  0.2331  0.0794
  646MPD2    H7 9625   3.982   0.568  14.935 -1.0285 -0.8440  1.9927
  647TMC3    C1 9626   3.936   0.647  15.175 -0.3833  0.2424 -0.1181
  647TMC3    C2 9627   3.870   0.666  15.289 -0.1282 -0.7415 -0.0261
  647TMC3    C3 9628   3.944   0.630  15.402 -0.2496  0.0428 -0.3241
  647TMC3    C4 9629   4.067   0.606  15.165  0.0368 -0.0953  0.4506
  647TMC3    C5 9630   4.135   0.575  15.278  0.1252  0.3266 -0.2815
  647TMC3    C6 9631   4.074   0.585  15.402 -0.4736 -0.2159  0.0869
  647TMC3     C 9632   3.868   0.695  15.050 -0.1805  0.5523 -0.6830
  647TMC3     O 9633   3.792   0.788  15.076  0.6251  0.2653  0.4694
  647TMC3     H 9634   3.769   0.705  15.281  0.0036 -0.7957 -1.9667
  647TMC3    H1 9635   4.115   0.621  15.069  3.5576 -1.7795  1.9481
  647TMC3    H2 9636   4.136   0.585  15.491  0.7401  0.7142 -0.7554
  647TMC3    C7 9637   4.261   0.504  15.269  0.4648 -0.3485 -0.1489
  647TMC3    C8 9638   3.876   0.623  15.525  0.1003 -0.1949  0.3673
  647TMC3    O1 9639   4.330   0.487  15.371 -0.2995 -0.1790 -0.1715
  647TMC3    O2 9640   3.758   0.655  15.522  0.0898  0.2709  0.5562
  648TMC3    C1 9641   3.400   3.014  16.198  0.7273 -0.0552  0.4333
  648TMC3    C2 9642   3.435   2.900  16.139 -0.0477 -0.0187 -0.2715
  648TMC3    C3 9643   3.491   2.915  16.013  0.0926 -0.2598  0.0764
  648TMC3    C4 9644   3.411   3.135  16.148 -0.4424  0.6378  0.7639
  648TMC3    C5 9645   3.472   3.146  16.027  0.1052  0.1548 -0.7337
  648TMC3    C6 9646   3.512   3.035  15.957  0.5672  0.1883  0.4394
  648TMC3     C 9647   3.363   3.017  16.335 -0.6687 -0.4145  0.2483
  648TMC3     O 9648   3.403   3.118  16.394  0.0894  0.3149  0.2466
  648TMC3     H 9649   3.425   2.805  16.190  1.5518  0.5119  1.0320
  648TMC3    H1 9650   3.389   3.220  16.211  0.7857  1.9369 -0.5659
  648TMC3    H2 9651   3.568   3.051  15.866  0.8408 -0.1549  0.5429
  648TMC3    C7 9652   3.462   3.273  15.957  0.4676 -0.3404  0.2586
  648TMC3    C8 9653   3.586   2.812  15.975 -0.0603  0.3351 -0.3349
  648TMC3    O1 9654   3.478   3.268  15.837 -0.0903 -0.6935 -0.2960
  648TMC3    O2 9655   3.636   2.755  16.068 -0.7036 -0.0434  0.2541
  649TMC3    C1 9656   2.569   3.951  13.035 -0.2470 -0.7345 -0.4285
  649TMC3    C2 9657   2.698   3.944  13.077  0.8226 -0.2215 -0.3520
  649TMC3    C3 9658   2.734   3.886  13.201 -0.1958  0.1829 -0.2180
  649TMC3    C4 9659   2.473   3.913  13.126  0.1570 -0.1083 -0.3325
  649TMC3    C5 9660   2.511   3.876  13.258 -0.8008  0.2238 -0.8638
  649TMC3    C6 9661   2.643   3.865  13.296 -0.1242 -0.0163  0.5847
  649TMC3     C 9662   2.534   3.981  12.897 -0.3736  0.0496  0.5664
  649TMC3     O 9663   2.411   3.985  12.871  0.4783  0.3566 -0.1401
  649TMC3     H 9664   2.775   3.981  13.011  1.3303 -1.0407 -0.2044
  649TMC3    H1 9665   2.366   3.917  13.107  0.5600 -0.3116 -2.6103
  649TMC3    H2 9666   2.672   3.842  13.398 -0.3884  1.2049  0.9321
  649TMC3    C7 9667   2.418   3.786  13.321 -0.1742 -0.3080  0.0136
  649TMC3    C8 9668   2.877   3.851  13.228  0.4868  0.0348  0.1584
  649TMC3    O1 9669   2.309   3.824  13.358 -0.2525 -0.5473  0.6107
  649TMC3    O2 9670   2.899   3.843  13.348  0.3467  0.5136  0.0992
  650TMC3    C1 9671   4.727   0.549  12.568  0.3183 -0.5828 -0.1377
  650TMC3    C2 9672   4.660   0.655  12.621  0.0739  0.2264  0.4417
  650TMC3    C3 9673   4.641   0.768  12.545 -0.6613 -0.2167  0.1353
  650TMC3    C4 9674   0.033   0.560  12.439 -0.5376  0.2252  0.1995
  650TMC3    C5 9675   0.004   0.673  12.370 -0.2101  0.6120  0.8302
  650TMC3    C6 9676   4.673   0.781  12.415  0.7458  0.5003 -0.2629
  650TMC3     C 9677   0.012   0.431  12.654 -0.3673 -0.0508  0.3790
  650TMC3     O 9678   4.711   0.429  12.770 -0.1466  0.2341  0.8839
  650TMC3     H 9679   4.626   0.648  12.723  2.9548  1.1356  1.4558
  650TMC3    H1 9680   0.113   0.496  12.403  0.7977  1.4599  0.9576
  650TMC3    H2 9681   4.643   0.858  12.345  1.6085  0.4322 -0.7112
  650TMC3    C7 9682   0.094   0.699  12.261 -0.5168 -0.7789 -0.5148
  650TMC3    C8 9683   4.627   0.901  12.600 -0.7897 -0.0813 -0.5036
  650TMC3    O1 9684   0.114   0.609  12.183 -0.0992 -0.0875 -0.5198
  650TMC3    O2 9685   4.681   0.996  12.539 -1.0034 -0.2570 -0.3412
  651MPD2     C 9686   3.944   2.486  10.595  0.5031 -0.6633 -0.1926
  651MPD2    C1 9687   3.914   2.622  10.601  0.5049  0.1773  1.2103
  651MPD2    C2 9688   4.020   2.709  10.595  0.7618 -0.0689 -0.3918
  651MPD2    C3 9689   4.148   2.670  10.578 -0.5318 -0.5260  0.2770
  651MPD2    C4 9690   4.176   2.542  10.564 -0.2637 -0.0833  0.8309
  651MPD2    C5 9691   4.077   2.449  10.579 -0.0566  0.4368  0.0304
  651MPD2     H 9692   3.994   2.814  10.597 -0.6916 -0.4823  1.6869
  651MPD2    H1 9693   4.276   2.502  10.551 -1.1798 -1.9941 -0.3983
  651MPD2    H2 9694   3.875   2.405  10.614  1.3303 -1.3741 -0.2327
  651MPD2    H3 9695   4.104   2.344  10.592 -1.2002 -0.0908 -1.8137
  651MPD2     N 9696   4.251   2.772  10.570 -0.2773  0.8704  0.8934
  651MPD2    H5 9697   4.213   2.866  10.578 -1.6989  0.1787  2.3234
  651MPD2    N1 9698   3.781   2.675  10.608 -1.0840  0.2957  0.4910
  651MPD2    H7 9699   3.771   2.776  10.614 -0.6428  0.2594  1.7948
  652TMC3    C1 9700   4.665   2.995  10.534 -0.1973  0.0712  0.6392
  652TMC3    C2 9701   4.599   2.879  10.566 -0.4458  0.4136 -0.5299
  652TMC3    C3 9702   4.465   2.871  10.538 -0.2559 -0.7969  0.9278
  652TMC3    C4 9703   4.606   3.093  10.469  0.1922  0.3279 -0.0450
  652TMC3    C5 9704   4.471   3.078  10.438  0.3654 -0.3682  0.0147
  652TMC3    C6 9705   4.397   2.970  10.475  0.2786  0.7125  0.2074
  652TMC3     C 9706   0.074   3.006  10.569  0.0423  0.2533  0.4659
  652TMC3     O 9707   0.108   2.929  10.655 -0.0294  0.6979  0.4750
  652TMC3     H 9708   4.651   2.798  10.616 -0.3306 -0.6391 -2.3472
  652TMC3    H1 9709   4.659   3.184  10.444  0.0535  0.2591 -0.5767
  652TMC3    H2 9710   4.293   2.966  10.448 -0.4741 -0.3947  3.2540
  652TMC3    C7 9711   4.394   3.196  10.407  0.2836 -0.4715  0.0459
  652TMC3    C8 9712   4.391   2.750  10.579  0.6074  0.2765  1.0374
  652TMC3    O1 9713   4.270   3.183  10.415  1.0216 -0.0603  0.0679
  652TMC3    O2 9714   4.456   2.655  10.612 -0.4883 -0.4807  0.5852
  653MPD2     C 9715   2.490   3.091  17.496 -0.4976  0.2074 -0.5818
  653MPD2    C1 9716   2.408   3.179  17.438  0.2468 -0.1099 -0.3699
  653MPD2    C2 9717   2.365   3.159  17.303 -0.0233  0.0172 -0.9757
  653MPD2    C3 9718   2.387   3.032  17.243  0.3826 -0.3264 -0.9119
  653MPD2    C4 9719   2.477   2.940  17.309  0.1039 -0.3537 -0.0405
  653MPD2    C5 9720   2.525   2.975  17.430  0.6774  0.1778  0.4577
  653MPD2     H 9721   2.298   3.228  17.253 -0.2168 -0.0176 -0.7690
  653MPD2    H1 9722   2.507   2.844  17.269 -0.0972 -0.4175 -0.0390
  653MPD2    H2 9723   2.531   3.094  17.597 -2.2705 -0.7802  0.1599
  653MPD2    H3 9724   2.590   2.904  17.480 -0.3818  0.6346  2.4821
  653MPD2     N 9725   2.324   3.008  17.119 -0.8613  0.6085 -0.6065
  653MPD2    H5 9726   2.282   3.084  17.068 -2.9339  0.1514  0.3958
  653MPD2    N1 9727   2.372   3.305  17.496 -0.1759 -0.4305 -0.1483
  653MPD2    H7 9728   2.333   3.372  17.430 -0.1221 -1.3744 -1.1465
  654TMC3    C1 9729   2.238   2.890  16.933 -0.2969 -0.1029  0.3564
  654TMC3    C2 9730   2.117   2.947  16.911 -0.1635 -0.4599 -0.2863
  654TMC3    C3 9731   2.046   2.901  16.800  0.5387 -0.3982 -0.1899
  654TMC3    C4 9732   2.284   2.788  16.848  0.4679 -0.0927  0.6273
  654TMC3    C5 9733   2.196   2.733  16.757  0.5287 -0.4301  0.4381
  654TMC3    C6 9734   2.081   2.787  16.721  0.3873 -0.1332 -0.5371
  654TMC3     C 9735   2.304   2.881  17.061 -0.4889  0.3494 -0.3785
  654TMC3     O 9736   2.360   2.778  17.097 -0.0162  0.1858 -0.4858
  654TMC3     H 9737   2.089   3.031  16.973  0.4712 -1.5998  1.5193
  654TMC3    H1 9738   2.384   2.748  16.859 -0.1352 -1.9296 -0.6238
  654TMC3    H2 9739   2.011   2.726  16.664 -0.8059  0.6924  0.0432
  654TMC3    C7 9740   2.248   2.626  16.671  0.8095  0.6600 -0.2123
  654TMC3    C8 9741   1.946   2.989  16.747  0.3343  0.0624 -0.6023
  654TMC3    O1 9742   2.212   2.619  16.554 -1.2480  0.3225 -0.2723
  654TMC3    O2 9743   1.884   3.068  16.820  0.3525 -0.0952 -0.2619
  655MPD2     C 9744   3.960   3.473  15.698  0.1328 -0.5853  0.5144
  655MPD2    C1 9745   3.853   3.541  15.639  0.2886  0.5994  0.6277
  655MPD2    C2 9746   3.833   3.519  15.502  0.3164 -1.1196  0.7916
  655MPD2    C3 9747   3.916   3.434  15.428 -0.0882  0.2015 -0.3260
  655MPD2    C4 9748   4.024   3.372  15.488 -0.0511 -0.9220 -0.2327
  655MPD2    C5 9749   4.049   3.398  15.621 -0.3114  0.0332 -0.5916
  655MPD2     H 9750   3.747   3.558  15.448 -1.3041 -0.7138  3.6372
  655MPD2    H1 9751   4.107   3.333  15.429 -0.3788 -0.0857 -1.2361
  655MPD2    H2 9752   3.987   3.499  15.800 -1.4975  2.9448  0.0281
  655MPD2    H3 9753   4.145   3.371  15.663 -1.1315 -0.0402  1.2229
  655MPD2     N 9754   3.897   3.410  15.288  0.3355  0.4873  0.1089
  655MPD2    H5 9755   3.981   3.372  15.247  0.4628  0.0227  0.7958
  655MPD2    N1 9756   3.763   3.623  15.716  0.0833  0.2163  0.3185
  655MPD2    H7 9757   3.706   3.679  15.654 -2.0792  0.7078  2.7529
  656TMC3    C1 9758   3.658   3.733  15.901 -0.6028 -0.1708 -0.1761
  656TMC3    C2 9759   3.617   3.719  16.030  0.2546  0.7441 -0.2986
  656TMC3    C3 9760   3.524   3.810  16.075  0.4696 -1.1915  0.0537
  656TMC3    C4 9761   3.604   3.830  15.815 -0.5483  0.0823 -0.6771
  656TMC3    C5 9762   3.500   3.905  15.862  0.3477  0.4858 -1.2715
  656TMC3    C6 9763   3.459   3.898  15.990 -0.0004  0.4734  0.4117
  656TMC3     C 9764   3.757   3.635  15.855  0.3936 -1.4180  0.6792
  656TMC3     O 9765   3.814   3.564  15.935  0.1478 -0.2501  0.1929
  656TMC3     H 9766   3.671   3.651  16.095  1.4368  1.8389 -0.1449
  656TMC3    H1 9767   3.661   3.851  15.726  1.5861  0.3617  0.7711
  656TMC3    H2 9768   3.381   3.963  16.029 -0.0831  2.1054 -2.4740
  656TMC3    C7 9769   3.427   3.961  15.752  0.5616 -0.1233  0.9826
  656TMC3    C8 9770   3.466   3.776  16.198 -0.1325 -0.7837  0.5882
  656TMC3    O1 9771   3.484   3.958  15.645 -0.2248  0.4291  0.0038
  656TMC3    O2 9772   3.476   3.657  16.235 -0.1871  0.2897  0.2056
  657TMC3    C1 9773   2.782   2.755  14.656  0.4679  0.0471  0.1988
  657TMC3    C2 9774   2.792   2.786  14.795 -0.2905  0.2651  0.5926
  657TMC3    C3 9775   2.750   2.911  14.829 -0.0147 -0.3214 -0.3623
  657TMC3    C4 9776   2.735   2.849  14.565  0.4030 -0.0372  0.4085
  657TMC3    C5 9777   2.702   2.974  14.607  0.4841 -0.1458 -0.1039
  657TMC3    C6 9778   2.707   3.005  14.740 -0.4217 -0.1502  0.3171
  657TMC3     C 9779   2.759   2.613  14.619  0.2017  0.2175  0.4287
  657TMC3     O 9780   2.700   2.591  14.518 -0.2515  0.0090 -0.8740
  657TMC3     H 9781   2.806   2.709  14.870  1.0758 -1.1698 -1.1050
  657TMC3    H1 9782   2.732   2.821  14.460 -1.5089  1.6462  0.0066
  657TMC3    H2 9783   2.672   3.104  14.768  1.0569  0.3669  0.3478
  657TMC3    C7 9784   2.622   3.071  14.532 -0.4354 -0.7334  0.0130
  657TMC3    C8 9785   2.792   2.971  14.951 -0.4449 -0.3421  0.0187
  657TMC3    O1 9786   2.620   3.187  14.568 -0.2062  0.3701 -0.0617
  657TMC3    O2 9787   2.771   3.093  14.962 -0.8085 -0.6780 -0.5431
  658MPD2     C 9788   4.387   3.285  14.877 -0.5570 -0.5472 -0.6401
  658MPD2    C1 9789   4.278   3.205  14.848  0.2835  0.5554 -0.7865
  658MPD2    C2 9790   4.293   3.123  14.739  0.5173  0.9911 -0.6530
  658MPD2    C3 9791   4.414   3.116  14.669 -0.1119  0.1114 -0.0306
  658MPD2    C4 9792   4.518   3.193  14.698 -0.9271 -0.5613 -0.0468
  658MPD2    C5 9793   4.500   3.286  14.800  0.0959 -0.2262  0.9130
  658MPD2     H 9794   4.225   3.047  14.701 -2.5364  3.6450 -0.5178
  658MPD2    H1 9795   4.612   3.191  14.645 -0.8733 -0.7958  0.0600
  658MPD2    H2 9796   4.383   3.345  14.967  3.0537 -1.4543  0.1289
  658MPD2    H3 9797   4.572   3.360  14.833  1.5599 -1.8293  1.3296
  658MPD2     N 9798   4.422   3.020  14.572  0.3037 -0.3982 -0.3985
  658MPD2    H5 9799   4.338   2.964  14.559 -0.3363  0.0121  1.9611
  658MPD2    N1 9800   4.152   3.221  14.913  0.1505  0.3988  0.0664
  658MPD2    H7 9801   4.148   3.295  14.982  1.2173 -0.3702  0.9598
  659TMC3    C1 9802   3.910   3.211  14.932  0.3961  0.1087  0.0079
  659TMC3    C2 9803   3.907   3.271  15.054 -0.6870  0.2873  0.3264
  659TMC3    C3 9804   3.800   3.352  15.084 -0.4736 -0.2009 -0.2110
  659TMC3    C4 9805   3.814   3.230  14.837 -0.0282  0.2074  0.2998
  659TMC3    C5 9806   3.701   3.303  14.870 -0.3312  0.0573  0.3440
  659TMC3    C6 9807   3.688   3.358  15.000  0.0297 -0.0586 -0.3856
  659TMC3     C 9808   4.036   3.162  14.875  0.3045  0.2699  0.3682
  659TMC3     O 9809   4.023   3.088  14.782 -0.7411  0.0888  0.4264
  659TMC3     H 9810   3.988   3.262  15.126 -1.8974 -1.2868  1.5077
  659TMC3    H1 9811   3.817   3.172  14.745  0.8881  1.3677 -0.3930
  659TMC3    H2 9812   3.596   3.409  15.026 -0.0458 -0.6829  0.5688
  659TMC3    C7 9813   3.574   3.270  14.804  0.0983 -0.8312 -0.1663
  659TMC3    C8 9814   3.784   3.420  15.208  0.3362  0.5133 -0.3833
  659TMC3    O1 9815   3.485   3.245  14.882  0.3902  0.1605  0.6675
  659TMC3    O2 9816   3.673   3.467  15.232 -0.3232  1.0955 -0.2416
  660MPD2     C 9817   1.815   2.060  12.471  0.3371  0.1586 -0.3969
  660MPD2    C1 9818   1.736   1.961  12.423  0.1159  0.5185  0.1343
  660MPD2    C2 9819   1.701   1.853  12.510 -0.9175 -0.3744  0.3896
  660MPD2    C3 9820   1.752   1.859  12.636 -0.7212  0.1819 -0.3893
  660MPD2    C4 9821   1.830   1.961  12.681 -0.1774  0.2478  0.1068
  660MPD2    C5 9822   1.865   2.060  12.598 -0.0186  0.0057  0.7490
  660MPD2     H 9823   1.647   1.770  12.467 -1.0416 -0.0543 -0.0700
  660MPD2    H1 9824   1.865   1.977  12.782  0.9958 -2.1332  0.0784
  660MPD2    H2 9825   1.846   2.132  12.396  1.2532  1.3849  1.1533
  660MPD2    H3 9826   1.921   2.145  12.633  0.1910  0.8909 -1.7211
  660MPD2     N 9827   1.714   1.763  12.730 -0.3844 -0.0740 -0.0377
  660MPD2    H5 9828   1.739   1.796  12.823 -1.8891 -0.8867  0.6708
  660MPD2    N1 9829   1.692   1.957  12.286 -0.1913  0.4041  0.1075
  660MPD2    H7 9830   1.714   2.044  12.239  1.2655 -1.1502 -2.0901
  661TMC3    C1 9831   1.600   1.872  12.084  0.3233 -0.1113 -0.4087
  661TMC3    C2 9832   1.694   1.945  12.018 -0.3487  0.1166 -0.0665
  661TMC3    C3 9833   1.655   2.017  11.898 -0.2641 -0.0837 -0.0730
  661TMC3    C4 9834   1.477   1.853  12.032  0.2736 -0.5424  0.0083
  661TMC3    C5 9835   1.450   1.917  11.909  0.0150  0.7498  0.2409
  661TMC3    C6 9836   1.528   2.005  11.848 -0.1416  0.0069  0.2630
  661TMC3     C 9837   1.613   1.860  12.225  0.0176 -0.1127 -0.1732
  661TMC3     O 9838   1.537   1.777  12.273 -0.2689 -0.4075  0.5222
  661TMC3     H 9839   1.799   1.949  12.044 -0.1842  1.2492 -0.9157
  661TMC3    H1 9840   1.403   1.790  12.080  2.0416 -2.5544  0.0909
  661TMC3    H2 9841   1.488   2.050  11.758 -1.4655  1.5211  1.5791
  661TMC3    C7 9842   1.308   1.905  11.877 -0.1373 -0.1614  0.1816
  661TMC3    C8 9843   1.764   2.083  11.818 -0.1335 -0.2075 -0.4304
  661TMC3    O1 9844   1.236   1.998  11.912 -0.1878 -0.1816 -0.2271
  661TMC3    O2 9845   1.876   2.032  11.805 -0.1358 -0.2917  0.0589
  662MPD2     C 9846   2.289   1.690  17.236 -1.2395 -0.8334  0.3185
  662MPD2    C1 9847   2.188   1.642  17.160 -0.5355  0.5022  0.3312
  662MPD2    C2 9848   2.071   1.713  17.143  0.2084  0.2451 -0.3993
  662MPD2    C3 9849   2.061   1.842  17.187 -0.0503 -0.2082  0.3280
  662MPD2    C4 9850   2.159   1.889  17.280  0.2663 -0.2898  0.0707
  662MPD2    C5 9851   2.269   1.801  17.310 -0.5111  0.0697  0.4614
  662MPD2     H 9852   1.992   1.667  17.084  1.1222 -1.9890  0.1276
  662MPD2    H1 9853   2.170   1.986  17.328 -0.6053 -0.2371  0.1650
  662MPD2    H2 9854   2.381   1.634  17.245  0.7810  2.5204  0.3404
  662MPD2    H3 9855   2.343   1.828  17.385  0.7472  0.5378 -0.9663
  662MPD2     N 9856   1.940   1.916  17.180  0.0682 -0.1694  0.6450
  662MPD2    H5 9857   1.942   2.007  17.224 -0.7348 -0.2847  0.9213
  662MPD2    N1 9858   2.195   1.524  17.087  0.0290  0.5770  0.1252
  662MPD2    H7 9859   2.116   1.489  17.035 -0.0875  0.5537  0.3184
  663TMC3    C1 9860   2.292   1.312  17.015  0.7666 -0.3015 -0.3179
  663TMC3    C2 9861   2.169   1.271  16.981 -0.7376 -0.3972 -0.4505
  663TMC3    C3 9862   2.135   1.138  16.990  0.9539  0.2619 -0.4559
  663TMC3    C4 9863   2.395   1.223  17.025  0.0179 -0.0957  0.7579
  663TMC3    C5 9864   2.371   1.087  17.009 -0.0230  0.3940 -0.5873
  663TMC3    C6 9865   2.238   1.050  17.000  0.0171  0.7605  0.5092
  663TMC3     C 9866   2.311   1.446  17.083  0.1760 -0.1050 -0.2467
  663TMC3     O 9867   2.424   1.463  17.123  0.2743  0.0248  0.9193
  663TMC3     H 9868   2.086   1.341  16.990  1.3345  1.7528  2.0975
  663TMC3    H1 9869   2.495   1.252  17.055  0.6666  0.8313 -2.3697
  663TMC3    H2 9870   2.219   0.969  16.931 -0.1074  0.6382  0.6836
  663TMC3    C7 9871   2.425   1.002  17.107 -0.1500 -0.5450 -0.0851
  663TMC3    C8 9872   2.045   1.112  17.100  0.0222 -0.1139 -0.2504
  663TMC3    O1 9873   2.518   1.044  17.177 -0.1977 -0.2685 -0.3719
  663TMC3    O2 9874   2.019   1.210  17.168 -0.3874  0.3798 -0.0248
  664MPD2     C 9875   4.608   4.511  17.471  0.2026  0.0921  0.6815
  664MPD2    C1 9876   4.667   4.625  17.515  0.2070 -0.0772  0.4597
  664MPD2    C2 9877   4.640   4.668  17.640  0.0700  0.3966 -0.4158
  664MPD2    C3 9878   4.559   4.590  17.725  0.3873  0.5917 -0.6527
  664MPD2    C4 9879   4.493   4.485  17.676  0.4326  0.3973 -0.0075
  664MPD2    C5 9880   4.515   4.441  17.546 -0.1470  0.6614 -0.7931
  664MPD2     H 9881   4.702   0.010  17.682  1.3287 -1.3707  0.9533
  664MPD2    H1 9882   4.431   4.418  17.735  0.0964  0.6332 -0.0905
  664MPD2    H2 9883   4.632   4.471  17.373 -1.2816  0.2083  0.2686
  664MPD2    H3 9884   4.484   4.347  17.504 -0.0883  0.9116 -1.3997
  664MPD2     N 9885   4.550   4.633   0.119 -0.0277 -0.0323 -0.3737
  664MPD2    H5 9886   4.593   4.720   0.146 -1.0942 -0.1849  1.8165
  664MPD2    N1 9887   0.022   4.705  17.440  0.5190 -0.1427  0.2754
  664MPD2    H7 9888   0.050   0.058  17.480  0.6205  0.4387 -1.0862
  665TMC3    C1 9889   4.543   4.604   0.349 -0.1887 -0.3112 -0.1404
  665TMC3    C2 9890   4.545   4.510   0.451 -0.1441 -0.9029  0.6945
  665TMC3    C3 9891   4.564   4.560   0.577  0.7022 -0.2412  0.0943
  665TMC3    C4 9892   4.552   4.735   0.374 -0.2372 -0.4299 -0.2166
  665TMC3    C5 9893   4.574   0.044   0.499 -0.3745 -0.1216  0.5205
  665TMC3    C6 9894   4.579   4.693   0.603 -0.3588  0.0307 -0.0898
  665TMC3     C 9895   4.518   4.548   0.220  0.3830 -0.5612  0.4424
  665TMC3     O 9896   4.478   4.435   0.224 -0.2520 -0.3359  0.3107
  665TMC3     H 9897   4.539   4.403   0.437  0.7802 -0.8649 -0.0149
  665TMC3    H1 9898   4.530   0.070   0.294 -1.3742 -0.6416 -0.0922
  665TMC3    H2 9899   4.600   4.731   0.703  0.8409  1.5056 -0.8920
  665TMC3    C7 9900   4.578   0.186   0.519 -0.4627  0.2282 -0.1056
  665TMC3    C8 9901   4.539   4.474   0.693  0.0529  0.0130  0.5579
  665TMC3    O1 9902   4.562   0.255   0.419 -0.0416  0.9269 -0.0345
  665TMC3    O2 9903   4.580   4.514   0.799  0.2064  0.4031  0.0411
  666TMC3    C1 9904   3.748   4.192  10.141 -0.4834  0.0182  0.5579
  666TMC3    C2 9905   3.841   4.180  10.050 -0.1888 -0.0193 -0.4152
  666TMC3    C3 9906   3.916   4.293  10.021 -0.0977  0.5024  0.7064
  666TMC3    C4 9907   3.709   4.314  10.189  0.3931 -0.3922  0.0827
  666TMC3    C5 9908   3.785   4.427  10.162  0.3130 -0.4881  0.8033
  666TMC3    C6 9909   3.882   4.419  10.071  0.5152  0.3872 -0.6660
  666TMC3     C 9910   3.665   4.080  10.175 -0.6651 -0.0110 -0.2548
  666TMC3     O 9911   3.550   4.106  10.196  0.1502  0.1350  0.1051
  666TMC3     H 9912   3.865   4.081  10.012  0.2101 -0.1074  0.0718
  666TMC3    H1 9913   3.650   4.319  10.280 -1.1814  1.8621 -1.0866
  666TMC3    H2 9914   3.932   4.508  10.034 -0.4684 -0.3015 -3.6658
  666TMC3    C7 9915   3.743   4.556  10.216 -0.0334  0.2227 -0.4422
  666TMC3    C8 9916   4.044   4.276   9.950  0.5615 -0.2594  0.3223
  666TMC3    O1 9917   3.679   4.555  10.322 -0.1051  0.5681 -0.4429
  666TMC3    O2 9918   4.070   4.175   9.890  0.1572 -0.2373 -0.4886
  667MPD2     C 9919   1.364   4.534  14.791 -0.4097 -0.3940 -0.0953
  667MPD2    C1 9920   1.236   4.583  14.791 -0.1520 -0.7465  0.0146
  667MPD2    C2 9921   1.123   4.495  14.792  0.2906 -0.3249 -0.9673
  667MPD2    C3 9922   1.146   4.355  14.778  0.2303  0.8313 -0.9556
  667MPD2    C4 9923   1.272   4.314  14.770 -0.1837 -0.3742  0.4747
  667MPD2    C5 9924   1.378   4.400  14.780 -0.1673 -0.3350 -1.1166
  667MPD2     H 9925   1.020   4.526  14.807  0.5532  0.4110 -0.7002
  667MPD2    H1 9926   1.303   4.212  14.755  6.1760  1.7962 -1.2129
  667MPD2    H2 9927   1.451   4.597  14.803 -1.3565  1.3550 -2.5389
  667MPD2    H3 9928   1.476   4.353  14.777  0.1343  0.1500  1.0251
  667MPD2     N 9929   1.044   4.253  14.805 -0.2758  0.4164 -0.2343
  667MPD2    H5 9930   1.078   4.159  14.821  2.3594  1.2659 -0.7681
  667MPD2    N1 9931   1.217   4.723  14.811 -0.0910 -0.5130 -0.3362
  667MPD2    H7 9932   1.121   0.018  14.819  0.7198  1.5208  1.6191
  668TMC3    C1 9933   1.255   0.210  14.878  0.0511  0.3962  0.0371
  668TMC3    C2 9934   1.313   0.332  14.846  0.0062  0.5949  0.0531
  668TMC3    C3 9935   1.261   0.441  14.908  0.4631  0.0108 -0.7975
  668TMC3    C4 9936   1.162   0.192  14.979  0.1431 -0.2063  0.0605
  668TMC3    C5 9937   1.128   0.305  15.044 -0.5684 -0.3653  0.4276
  668TMC3    C6 9938   1.172   0.436  15.010  0.7094 -0.5495 -1.1561
  668TMC3     C 9939   1.318   0.089  14.826  1.1745 -1.0190  0.3999
  668TMC3     O 9940   1.439   0.102  14.800  0.1266  0.4431  1.5868
  668TMC3     H 9941   1.388   0.336  14.768 -0.6167  3.2733 -0.3953
  668TMC3    H1 9942   1.118   0.096  15.003  0.5404 -0.0767  1.3202
  668TMC3    H2 9943   1.150   0.521  15.073  1.2113 -1.0349 -0.3148
  668TMC3    C7 9944   1.056   0.297  15.169 -0.3810  0.1821  0.3564
  668TMC3    C8 9945   1.321   0.574  14.889  1.1475  0.0119 -0.1045
  668TMC3    O1 9946   1.075   0.393  15.243  0.3151 -0.3847  0.1989
  668TMC3    O2 9947   1.269   0.664  14.955 -0.2641  0.2579 -0.3292
  669TMC3    C1 9948   3.736   4.381  14.935  0.0146  0.3852  0.2239
  669TMC3    C2 9949   3.606   4.377  14.898  0.2784 -0.5647  0.2501
  669TMC3    C3 9950   3.580   4.431  14.775  0.4674 -0.1739 -0.8002
  669TMC3    C4 9951   3.839   4.425  14.859 -0.0911  0.5053  0.4450
  669TMC3    C5 9952   3.805   4.453  14.730 -0.0389  1.0368 -0.0890
  669TMC3    C6 9953   3.673   4.469  14.687 -0.0129  0.2485 -0.0771
  669TMC3     C 9954   3.764   4.322  15.071 -0.0644  0.5948  0.0497
  669TMC3     O 9955   3.669   4.307  15.142 -0.3720  0.3724  0.3539
  669TMC3     H 9956   3.529   4.347  14.969 -0.2115  1.1895  0.4531
  669TMC3    H1 9957   3.941   4.435  14.894  0.1801  1.0790 -0.5396
  669TMC3    H2 9958   3.655   4.512  14.589 -1.4076 -0.3929 -0.1026
  669TMC3    C7 9959   3.906   4.484  14.637 -0.1218  0.3256  0.2439
  669TMC3    C8 9960   3.442   4.448  14.731  0.1514  0.0371 -0.1280
  669TMC3    O1 9961   4.010   4.522  14.689  0.4409 -1.0221 -0.4388
  669TMC3    O2 9962   3.356   4.377  14.775  0.1587 -0.1721  0.0649
  670MPD2     C 9963   2.178   2.086  12.732  0.1929 -0.4919  0.3378
  670MPD2    C1 9964   2.251   1.989  12.804  0.5658 -0.4392  0.2920
  670MPD2    C2 9965   2.251   2.002  12.943 -0.1269 -0.6040  0.0348
  670MPD2    C3 9966   2.205   2.116  13.003  0.4269 -0.0008 -0.1039
  670MPD2    C4 9967   2.137   2.213  12.928  0.6349 -0.1979  0.1080
  670MPD2    C5 9968   2.124   2.195  12.792  0.0320 -0.1545 -0.0501
  670MPD2     H 9969   2.303   1.934  13.009  1.2248 -0.4940 -0.9137
  670MPD2    H1 9970   2.092   2.303  12.967 -0.1044 -0.2494 -0.6176
  670MPD2    H2 9971   2.177   2.086  12.624  1.0965  2.5915  0.3166
  670MPD2    H3 9972   2.080   2.273  12.731  2.2352 -1.0226 -2.7248
  670MPD2     N 9973   2.216   2.135  13.145 -0.7384 -0.0924  0.0161
  670MPD2    H5 9974   2.262   2.068  13.206 -0.4480 -1.9834 -2.2718
  670MPD2    N1 9975   2.311   1.878  12.738  0.6314 -0.0788  0.1200
  670MPD2    H7 9976   2.360   1.812  12.797  0.8743  0.5851  0.6650
  671TMC3    C1 9977   2.145   2.200  13.351 -0.6844  0.7922 -0.4550
  671TMC3    C2 9978   2.270   2.191  13.411  0.1131  0.8981  0.2632
  671TMC3    C3 9979   2.296   2.206  13.540 -0.0215 -0.1774  0.3938
  671TMC3    C4 9980   2.041   2.227  13.432 -0.4046  0.1505 -0.1796
  671TMC3    C5 9981   2.061   2.216  13.566  0.2455  0.3329  0.0485
  671TMC3    C6 9982   2.187   2.217  13.622 -0.4661  0.2319  0.8466
  671TMC3     C 9983   2.127   2.205  13.213  0.1446  0.2155 -0.0526
  671TMC3     O 9984   2.027   2.264  13.170  0.1469  0.1080 -0.7247
  671TMC3     H 9985   2.350   2.139  13.359 -0.6096  0.9220 -0.8682
  671TMC3    H1 9986   1.945   2.224  13.382  0.0669 -1.1161 -1.0288
  671TMC3    H2 9987   2.180   2.190  13.727  0.4794  2.7596  1.5634
  671TMC3    C7 9988   1.971   2.106  13.615 -0.6413  0.3336 -0.8634
  671TMC3    C8 9989   2.412   2.134  13.596  0.4536 -0.1060  0.3616
  671TMC3    O1 9990   1.951   2.016  13.530 -0.0543  0.4759  0.4104
  671TMC3    O2 9991   2.475   2.065  13.519  0.2882 -0.2298  0.3211
  672MPD2     C 9992   2.408   2.841   0.841 -0.1085 -0.6004  0.5161
  672MPD2    C1 9993   2.510   2.780   0.772  0.5842 -0.4087 -0.3380
  672MPD2    C2 9994   2.636   2.828   0.767 -0.2065 -0.3823  0.1558
  672MPD2    C3 9995   2.660   2.945   0.837  0.2585  0.8548 -0.0854
  672MPD2    C4 9996   2.560   3.010   0.906 -0.6602 -0.1879  0.4337
  672MPD2    C5 9997   2.434   2.958   0.903 -0.2881  0.1899 -0.3545
  672MPD2     H 9998   2.714   2.784   0.705 -0.8535 -0.0539 -0.8819
  672MPD2    H1 9999   2.576   3.100   0.964 -1.6478  0.3922 -0.1991
  672MPD2    H210000   2.304   2.811   0.851 -0.0377 -0.8230  0.5810
  672MPD2    H310001   2.358   3.008   0.962  0.1957  0.9799 -0.4053
  672MPD2     N10002   2.785   3.005   0.841 -1.4972  0.4204  0.8340
  672MPD2    H510003   2.792   3.084   0.904  3.3017 -1.7722  3.0246
  672MPD2    N110004   2.491   2.660   0.707  0.0114  0.1210  0.0649
  672MPD2    H710005   2.572   2.628   0.655 -0.8816 -0.2424 -1.0988
  673TMC3    C110006   2.366   2.524   0.561 -0.0634 -0.2675 -0.9710
  673TMC3    C210007   2.479   2.471   0.509  0.0004 -0.7000  1.1777
  673TMC3    C310008   2.499   2.440   0.374  0.0341  0.4105 -0.0992
  673TMC3    C410009   2.264   2.553   0.475  0.2219  0.1333 -0.1115
  673TMC3    C510010   2.287   2.527   0.343 -0.2118 -0.2787 -0.0479
  673TMC3    C610011   2.393   2.457   0.297  0.1880 -0.1213  0.6031
  673TMC3     C10012   2.371   2.596   0.683  0.5754  0.9601  0.2334
  673TMC3     O10013   2.263   2.621   0.736 -0.0183  0.3676  0.1112
  673TMC3     H10014   2.558   2.446   0.579 -0.5487  0.5786  2.2628
  673TMC3    H110015   2.178   2.610   0.507 -0.1812  1.6177 -3.8487
  673TMC3    H210016   2.402   2.432   0.191 -1.3871  2.3792 -0.1205
  673TMC3    C710017   2.207   2.596   0.239 -0.7206  0.2196  0.1709
  673TMC3    C810018   2.575   2.316   0.340  0.7423 -0.5309  0.0457
  673TMC3    O110019   2.174   2.522   0.149  0.8180  0.0544 -0.3797
  673TMC3    O210020   2.564   2.277   0.225 -0.4328  0.2770  0.0081
  674MPD2     C10021   1.984   3.104  17.317  0.3250  0.8689  0.6241
  674MPD2    C110022   1.980   2.975  17.365  0.1978 -0.1220  0.7382
  674MPD2    C210023   1.866   2.926  17.428  0.2966 -0.7449  0.6697
  674MPD2    C310024   1.760   3.010  17.457 -0.1701  0.7449 -0.1636
  674MPD2    C410025   1.762   3.136  17.404  0.3174 -0.2502  0.1616
  674MPD2    C510026   1.872   3.183  17.335 -0.3136  0.2556 -0.6826
  674MPD2     H10027   1.866   2.825  17.467 -0.0487 -1.1501 -0.4072
  674MPD2    H110028   1.677   3.203  17.410  0.2255 -0.3996  0.5790
  674MPD2    H210029   2.077   3.138  17.273  0.0569 -0.3962 -0.9003
  674MPD2    H310030   1.868   3.280  17.288 -0.4492 -0.3206 -1.8675
  674MPD2     N10031   1.665   2.957  17.541  0.3313 -0.2572 -0.1874
  674MPD2    H510032   1.677   2.858  17.560  1.9237 -0.1890 -0.8333
  674MPD2    N110033   2.089   2.886  17.336 -0.5379  0.7663 -0.3282
  674MPD2    H710034   2.181   2.929  17.328  0.0009 -0.0177  1.5024
  675TMC3    C110035   2.204   2.695  17.413  0.2980 -0.1510  0.2392
  675TMC3    C210036   2.193   2.563  17.423 -0.8963  0.1038 -0.2794
  675TMC3    C310037   2.246   2.498  17.529 -0.4672 -0.0497  0.1453
  675TMC3    C410038   2.255   2.774  17.514 -0.3170  0.3409 -0.0736
  675TMC3    C510039   2.307   2.705  17.622  0.9224 -0.0274 -0.3120
  675TMC3    C610040   2.308   2.567  17.633 -0.4741  0.7309  0.2122
  675TMC3     C10041   2.087   2.751  17.352  0.1095  0.3394 -0.3315
  675TMC3     O10042   2.002   2.676  17.308  0.1279  0.1332 -0.2869
  675TMC3     H10043   2.147   2.507  17.343 -1.6441  0.1717  0.1016
  675TMC3    H110044   2.270   2.881  17.512  0.0958  0.3016  0.8110
  675TMC3    H210045   2.352   2.514  17.717  2.6174 -0.4589 -2.1696
  675TMC3    C710046   2.377   2.781  17.722 -0.1830  0.1593 -0.5220
  675TMC3    C810047   2.197   2.364  17.548  0.6141 -0.3568  0.5753
  675TMC3    O110048   2.327   2.889   0.015  0.3738  0.1999 -0.4795
  675TMC3    O210049   2.186   2.296  17.453 -0.2589 -0.0576  0.6153
  676MPD2     C10050   4.731   0.463  10.915  0.2917 -0.9264  0.5298
  676MPD2    C110051   4.677   0.394  11.015 -0.5600 -0.7215  0.3873
  676MPD2    C210052   4.648   0.260  10.998 -0.1219  0.6662  0.4280
  676MPD2    C310053   4.660   0.200  10.878 -0.4345  0.5615 -0.3104
  676MPD2    C410054   4.713   0.275  10.773  0.2894  0.0328  0.9229
  676MPD2    C510055   0.012   0.409  10.792  1.0516  0.0526  0.0608
  676MPD2     H10056   4.602   0.205  11.080  0.6134 -1.6615 -0.7389
  676MPD2    H110057   4.730   0.229  10.676  0.6169  1.3926  0.3303
  676MPD2    H210058   0.037   0.563  10.923 -1.0662 -0.4827  1.9425
  676MPD2    H310059   0.071   0.469  10.724  2.4632 -1.6547 -0.2105
  676MPD2     N10060   4.635   0.065  10.840  0.5404 -0.1990  0.0874
  676MPD2    H510061   4.650   0.029  10.746 -2.6833 -0.9422 -0.1257
  676MPD2    N110062   4.669   0.439  11.147 -0.0375  0.7790  0.4531
  676MPD2    H710063   4.656   0.371  11.221 -1.4514  1.4455  0.8289
  677TMC3    C110064   4.660   0.597  11.322 -0.2304 -0.1153  0.3305
  677TMC3    C210065   4.666   0.494  11.411  0.1057 -0.2977  0.2345
  677TMC3    C310066   4.607   0.518  11.535 -0.1973 -0.7185 -0.2575
  677TMC3    C410067   4.623   0.724  11.347  0.4446 -0.1418  0.3076
  677TMC3    C510068   4.587   0.747  11.478 -0.3658  0.4401  0.3262
  677TMC3    C610069   4.583   0.649  11.573  0.3935 -0.2947  0.1729
  677TMC3     C10070   4.686   0.570  11.176  0.2074 -0.2408  0.2929
  677TMC3     O10071   4.699   0.670  11.106  0.1881  0.0187 -0.0782
  677TMC3     H10072   4.719   0.403  11.385  2.2336  1.3840 -1.2505
  677TMC3    H110073   4.617   0.796  11.267 -0.7575 -0.8807 -0.2818
  677TMC3    H210074   4.528   0.677  11.662  0.0515  1.3247 -0.5526
  677TMC3    C710075   4.567   0.882  11.529 -0.6731  0.4057 -0.2326
  677TMC3    C810076   4.625   0.422  11.651 -0.0159  0.5485  0.4554
  677TMC3    O110077   4.564   0.892  11.654 -0.4113 -0.5297 -0.0001
  677TMC3    O210078   4.708   0.331  11.644 -0.0877 -0.0727 -0.6428
  678MPD2     C10079   1.251   0.721   1.258 -0.2811  0.2491  0.2726
  678MPD2    C110080   1.217   0.684   1.123 -0.3776 -0.1230 -0.7106
  678MPD2    C210081   1.085   0.699   1.095 -0.2998  0.0801  0.4328
  678MPD2    C310082   0.988   0.745   1.176 -0.7049 -0.3858  0.6642
  678MPD2    C410083   1.029   0.786   1.301 -0.8165  0.2567  0.1649
  678MPD2    C510084   1.154   0.763   1.340  0.2701 -0.5600  0.7670
  678MPD2     H10085   1.066   0.671   0.992  0.5466 -2.7391  1.0641
  678MPD2    H110086   0.952   0.807   1.375 -0.1484 -0.2501  1.0037
  678MPD2    H210087   1.352   0.718   1.299 -0.1051 -1.9507 -0.3571
  678MPD2    H310088   1.189   0.781   1.441 -1.7320 -2.3868  1.8025
  678MPD2     N10089   0.858   0.767   1.122 -0.4655 -0.0700 -0.2628
  678MPD2    H510090   0.832   0.733   1.031 -0.9058  0.1576 -0.2206
  678MPD2    N110091   1.302   0.655   1.019 -0.0543 -0.0653 -0.5551
  678MPD2    H710092   1.258   0.654   0.927 -2.0981 -1.1319  0.4371
  679TMC3    C110093   1.717   0.655   0.794 -0.7754 -0.2756 -0.1713
  679TMC3    C210094   1.640   0.621   0.901 -0.6146  0.2254 -0.0727
  679TMC3    C310095   1.505   0.650   0.901 -0.9681 -0.6906 -0.1737
  679TMC3    C410096   1.665   0.719   0.685  0.2386  0.9136 -0.0938
  679TMC3    C510097   1.543   0.776   0.706  0.5293  0.1024  0.2069
  679TMC3    C610098   1.465   0.745   0.818  0.2717  0.3608  0.1919
  679TMC3     C10099   1.853   0.612   0.785  0.1657 -0.1264  0.1188
  679TMC3     O10100   1.887   0.512   0.849  0.3327 -0.1974  0.5487
  679TMC3     H10101   1.684   0.574   0.988 -0.4471 -0.2592 -0.4180
  679TMC3    H110102   1.726   0.741   0.598 -0.5211  0.2006 -0.8102
  679TMC3    H210103   1.372   0.798   0.836 -1.2228 -1.9506 -0.7067
  679TMC3    C710104   1.492   0.858   0.594  0.4182  0.5259 -0.3420
  679TMC3    C810105   1.435   0.631   1.032  0.1638 -0.2387 -0.4602
  679TMC3    O110106   1.570   0.903   0.510  0.1612 -0.6327  0.3574
  679TMC3    O210107   1.501   0.610   1.132  0.2530  0.1319  0.4805
  680MPD2     C10108   1.557   3.893  13.365  0.2407  0.1885  0.9860
  680MPD2    C110109   1.621   3.816  13.454 -0.5677  0.5254 -0.4067
  680MPD2    C210110   1.673   3.876  13.568 -0.3316  0.3939  0.1559
  680MPD2    C310111   1.653   4.014  13.588 -0.7000 -1.0307  1.0035
  680MPD2    C410112   1.586   4.087  13.494  0.6266  0.1041 -0.4436
  680MPD2    C510113   1.541   4.024  13.382 -0.2067  0.1834  0.3985
  680MPD2     H10114   1.724   3.819  13.645 -1.9930 -0.2674  0.7706
  680MPD2    H110115   1.587   4.194  13.512  2.4140  0.1327 -0.7641
  680MPD2    H210116   1.518   3.852  13.272 -1.5076  0.4802  1.5919
  680MPD2    H310117   1.491   4.075  13.301  1.8534  2.4825  0.5640
  680MPD2     N10118   1.691   4.081  13.711 -0.7784 -0.3758 -0.3207
  680MPD2    H510119   1.668   4.180  13.706  0.4425  0.0199  1.8336
  680MPD2    N110120   1.650   3.683  13.429  1.0495  0.8423 -0.1167
  680MPD2    H710121   1.703   3.627  13.495  0.0153  0.7534  0.6234
  681TMC3    C110122   1.638   3.473  13.340  0.5308 -0.1168  0.4922
  681TMC3    C210123   1.556   3.401  13.421  0.2610  0.4285 -0.0748
  681TMC3    C310124   1.616   3.319  13.507 -0.3974  0.6485  0.0185
  681TMC3    C410125   1.771   3.453  13.338  0.6270 -0.5095  0.6362
  681TMC3    C510126   1.827   3.356  13.412 -0.1991  0.3085  0.7052
  681TMC3    C610127   1.748   3.283  13.497 -0.0197 -0.4958  0.2461
  681TMC3     C10128   1.598   3.614  13.329  0.2423 -0.3553  0.6797
  681TMC3     O10129   1.506   3.630  13.254  0.1425  0.1066 -0.2056
  681TMC3     H10130   1.452   3.425  13.436  0.3059 -0.8142  2.1685
  681TMC3    H110131   1.823   3.518  13.268 -0.3253 -0.3654  0.0589
  681TMC3    H210132   1.789   3.207  13.562  1.8354 -0.2083 -0.5771
  681TMC3    C710133   1.961   3.323  13.402 -0.7840 -0.0745  0.1876
  681TMC3    C810134   1.597   3.367  13.645 -0.3296  0.8958 -0.2319
  681TMC3    O110135   1.996   3.215  13.449 -0.6766 -0.3730  0.0422
  681TMC3    O210136   1.681   3.343  13.729  0.3302  0.8352 -0.5612
  682MPD2     C10137   3.846   0.683  11.225 -0.6401  0.0765 -0.0472
  682MPD2    C110138   3.900   0.559  11.231  0.0904  0.5949 -0.4544
  682MPD2    C210139   3.925   0.500  11.355 -0.3554  0.7091  0.1127
  682MPD2    C310140   3.890   0.566  11.462  0.1933 -0.0253  0.1714
  682MPD2    C410141   3.837   0.692  11.448  0.4350 -0.2013 -0.8745
  682MPD2    C510142   3.813   0.753  11.332 -0.8492 -0.2900 -0.7150
  682MPD2     H10143   3.977   0.405  11.354 -2.1631 -0.2821 -1.7372
  682MPD2    H110144   3.793   0.743  11.533 -1.0243  0.1104 -1.8063
  682MPD2    H210145   3.831   0.728  11.127  0.6303 -0.5357 -0.5238
  682MPD2    H310146   3.744   0.837  11.334 -0.6557 -0.0943 -2.0834
  682MPD2     N10147   3.903   0.494  11.581 -0.2963 -0.2391 -0.3872
  682MPD2    H510148   3.920   0.395  11.569 -1.6351 -0.5932  0.6472
  682MPD2    N110149   3.944   0.489  11.116  0.2255  0.0055  0.3637
  682MPD2    H710150   3.969   0.393  11.136 -1.5374 -0.3055  1.1107
  683TMC3    C110151   3.834   0.373  12.036 -0.4716 -0.2503  0.1209
  683TMC3    C210152   3.787   0.249  12.005  0.8699  0.4701  0.1805
  683TMC3    C310153   3.789   0.212  11.876 -0.1472 -0.2138  0.2997
  683TMC3    C410154   3.867   0.463  11.935  1.3587 -0.1069  0.3913
  683TMC3    C510155   3.846   0.430  11.803  0.0984 -0.6303  0.2120
  683TMC3    C610156   3.808   0.301  11.768  0.5782  0.6510  0.0903
  683TMC3     C10157   3.855   0.417  12.172  0.1853 -0.0026  0.2215
  683TMC3     O10158   3.840   0.539  12.184 -0.5386  0.3802  0.4598
  683TMC3     H10159   3.765   0.185  12.090 -1.1669 -0.4677 -1.0605
  683TMC3    H110160   3.906   0.561  11.961  0.1026  0.6454 -0.5619
  683TMC3    H210161   3.774   0.278  11.668 -2.4281  0.6395  1.0934
  683TMC3    C710162   3.870   0.539  11.707 -0.8603 -0.0564  0.2714
  683TMC3    C810163   3.735   0.095  11.824 -0.2306  0.3079  0.0224
  683TMC3    O110164   3.868   0.654  11.748  0.0123  0.7009 -0.2990
  683TMC3    O210165   3.615   0.077  11.849  0.4844  0.0646  0.1851
  684MPD2     C10166   2.319   0.347  16.220 -0.0675 -0.4080 -0.0986
  684MPD2    C110167   2.266   0.400  16.108  0.1649 -0.3225 -0.3804
  684MPD2    C210168   2.214   0.523  16.105 -0.2117 -0.3838 -0.3303
  684MPD2    C310169   2.217   0.603  16.221 -0.2344  0.8152 -0.1437
  684MPD2    C410170   2.268   0.550  16.339 -1.0418  0.0894 -0.0297
  684MPD2    C510171   2.317   0.423  16.331  0.0176 -0.2340  0.3814
  684MPD2     H10172   2.169   0.554  16.011 -1.6347  0.4761  0.6308
  684MPD2    H110173   2.279   0.610  16.428  1.8696  0.9507 -0.9824
  684MPD2    H210174   2.380   0.258  16.232  0.2579 -0.1966 -0.1591
  684MPD2    H310175   2.355   0.372  16.419 -1.7958 -0.2202  1.1639
  684MPD2     N10176   2.169   0.735  16.220 -0.6910  0.0809  0.1258
  684MPD2    H510177   2.181   0.788  16.306  1.0368  0.7647 -0.5214
  684MPD2    N110178   2.281   0.332  15.985  0.3862  0.7374  0.0223
  684MPD2    H710179   2.271   0.376  15.894 -0.8241 -0.4168 -0.3933
  685TMC3    C110180   2.369   0.172  15.841  0.3747 -0.0598 -0.0043
  685TMC3    C210181   2.348   0.251  15.732 -0.4853  0.2172  0.5611
  685TMC3    C310182   2.436   0.237  15.630  0.7793 -0.4022  0.2813
  685TMC3    C410183   2.479   0.089  15.849 -0.6269  0.3906  0.0521
  685TMC3    C510184   2.563   0.080  15.741 -0.3815  0.3502 -0.3918
  685TMC3    C610185   2.546   0.157  15.631 -0.6240  0.2191 -0.4524
  685TMC3     C10186   2.317   0.200  15.974  0.3986  0.1082  0.8328
  685TMC3     O10187   2.332   0.111  16.056 -0.4550 -0.1029 -0.2653
  685TMC3     H10188   2.257   0.311  15.732 -0.0468  0.8831 -1.0786
  685TMC3    H110189   2.514   0.051  15.944 -0.3261 -1.5450 -0.8509
  685TMC3    H210190   2.611   0.143  15.545 -0.8130  1.1967 -0.7565
  685TMC3    C710191   2.699   0.030  15.773  0.6310  0.4456 -0.0734
  685TMC3    C810192   2.421   0.321  15.509  0.8359  0.8053 -0.3035
  685TMC3    O110193   2.698   4.677  15.860  0.1530 -0.6623 -0.4146
  685TMC3    O210194   2.517   0.349  15.441  0.7661 -0.0924  0.3606
  686MPD2     C10195   3.906   0.269  15.339  0.8701 -0.2753 -0.4265
  686MPD2    C110196   3.928   0.194  15.458 -0.3584  0.2223 -0.7110
  686MPD2    C210197   4.032   0.102  15.458  0.4059 -0.2682  0.0704
  686MPD2    C310198   4.107   0.076  15.341  0.1311  0.1706 -0.3542
  686MPD2    C410199   4.097   0.171  15.238 -0.5271 -0.4304 -0.8059
  686MPD2    C510200   3.996   0.264  15.236 -0.1712 -0.9418  0.6707
  686MPD2     H10201   4.049   0.040  15.544  0.8269 -0.9469 -0.5054
  686MPD2    H110202   4.160   0.157  15.151  0.4505  0.2709 -0.2059
  686MPD2    H210203   3.842   0.356  15.339  2.2692  0.7336  1.7238
  686MPD2    H310204   3.977   0.340  15.161  4.3638  0.8092  1.2900
  686MPD2     N10205   4.197   4.708  15.334  0.0654  0.7032  0.0461
  686MPD2    H510206   4.278   4.726  15.275 -0.0542 -0.3506 -0.4311
  686MPD2    N110207   3.850   0.224  15.567 -0.5217  0.3813  0.0961
  686MPD2    H710208   3.777   0.290  15.545 -0.9895  0.0499  0.6663
  687TMC3    C110209   4.067   4.551  15.465  0.1623 -0.5799 -0.4357
  687TMC3    C210210   3.962   4.547  15.380 -0.0392 -0.3756 -0.4178
  687TMC3    C310211   3.840   4.522  15.428  0.0678 -0.2105 -0.5731
  687TMC3    C410212   4.055   4.528  15.603  0.0606 -0.3240  0.0266
  687TMC3    C510213   3.932   4.502  15.655  0.1845  0.8382 -0.0040
  687TMC3    C610214   3.824   4.505  15.566 -0.1575  0.8506  0.4680
  687TMC3     C10215   4.195   4.588  15.411  0.1891  0.8191  0.3223
  687TMC3     O10216   4.280   4.502  15.422  0.1672 -0.0110 -0.2054
  687TMC3     H10217   3.985   4.561  15.274 -3.0566 -0.6317 -1.1085
  687TMC3    H110218   4.137   4.546  15.670  0.1842  1.2782 -0.5597
  687TMC3    H210219   3.720   4.499  15.596 -0.3973  0.3387 -0.4493
  687TMC3    C710220   3.915   4.516  15.791 -0.5505  0.8405  0.1450
  687TMC3    C810221   3.724   4.557  15.347  0.6056  0.6135 -0.3107
  687TMC3    O110222   3.805   4.557  15.821  0.0938 -0.6900 -0.4085
  687TMC3    O210223   3.628   4.485  15.370  0.2953 -0.2428  0.2750
  688MPD2     C10224   2.723   3.908  17.337 -0.1789  0.1521 -0.6023
  688MPD2    C110225   2.724   3.776  17.375 -0.2732  0.2348 -0.0616
  688MPD2    C210226   2.821   3.697  17.313  0.3118 -0.4232  0.5284
  688MPD2    C310227   2.915   3.749  17.230  0.0043  0.0105  0.8931
  688MPD2    C410228   2.910   3.882  17.196  0.6811  0.4389 -0.6224
  688MPD2    C510229   2.813   3.967  17.248  0.2408  0.3466  0.4730
  688MPD2     H10230   2.811   3.590  17.331 -1.4908 -0.1926  0.9079
  688MPD2    H110231   2.976   3.932  17.127 -0.3460 -1.8681 -3.2813
  688MPD2    H210232   2.642   3.972  17.372 -0.5439  0.0355 -1.2267
  688MPD2    H310233   2.796   4.065  17.207  0.5447  1.0461  2.0158
  688MPD2     N10234   3.019   3.672  17.166 -0.9991 -0.3434  0.0840
  688MPD2    H510235   3.080   3.704  17.091  2.4633 -2.8683  1.8251
  688MPD2    N110236   2.623   3.720  17.461 -0.0523  0.8766  0.4500
  688MPD2    H710237   2.619   3.619  17.474  2.5829  0.7376  0.2836
  689TMC3    C110238   2.439   3.699  17.590  0.0604 -0.6911  0.6424
  689TMC3    C210239   2.377   3.738  17.701  0.0096  0.4440  0.6916
  689TMC3    C310240   2.315   3.650   0.040  0.1096 -0.3902  0.2785
  689TMC3    C410241   2.445   3.568  17.555  0.0482  0.1975 -0.5838
  689TMC3    C510242   2.390   3.483  17.648 -0.0864  0.0626  0.3105
  689TMC3    C610243   2.332   3.515   0.027  0.2900 -0.5309  0.5934
  689TMC3     C10244   2.522   3.788  17.525  0.4330  0.8602 -0.1980
  689TMC3     O10245   2.502   3.907  17.533 -0.8211 -0.4650 -0.1886
  689TMC3     H10246   2.390   3.842  17.725 -0.2747  0.7093 -0.2826
  689TMC3    H110247   2.453   3.541  17.450  0.6114 -0.3563 -0.3999
  689TMC3    H210248   2.295   3.442   0.098  1.1559  1.3254  2.9750
  689TMC3    C710249   2.409   3.336  17.622  0.2101 -0.0815  0.9525
  689TMC3    C810250   2.282   3.705   0.170  0.1441  0.7422 -0.0589
  689TMC3    O110251   2.402   3.262  17.722  0.2837  0.5996 -0.6987
  689TMC3    O210252   2.299   3.627   0.264  0.4913 -0.1395  0.3115
  690MPD2     C10253   0.505   1.363  15.895  0.8980 -0.5166  0.0832
  690MPD2    C110254   0.432   1.315  15.790  0.3243 -0.2550  1.0916
  690MPD2    C210255   0.487   1.316  15.662 -0.4466  0.3062 -0.5674
  690MPD2    C310256   0.614   1.362  15.644  0.4974  0.3039  0.7625
  690MPD2    C410257   0.690   1.401  15.757  0.5197 -0.2876 -0.9642
  690MPD2    C510258   0.639   1.399  15.885 -0.3424 -0.6575 -0.0255
  690MPD2     H10259   0.420   1.285  15.583  0.0768 -0.6441 -0.6338
  690MPD2    H110260   0.793   1.431  15.740  1.0911 -1.1212  0.9993
  690MPD2    H210261   0.474   1.354  15.998 -1.0723 -0.6167 -0.5169
  690MPD2    H310262   0.702   1.431  15.968 -1.3077 -2.7771  1.5096
  690MPD2     N10263   0.664   1.346  15.513  0.3700  0.0949 -0.1777
  690MPD2    H510264   0.611   1.304  15.437  0.5442 -0.2055 -0.1335
  690MPD2    N110265   0.301   1.274  15.808  0.2699  0.0221  0.3713
  690MPD2    H710266   0.266   1.217  15.731 -0.5887  0.9659  0.0589
  691TMC3    C110267   0.110   1.210  15.928  0.1428  0.1302 -1.0912
  691TMC3    C210268   0.006   1.267  15.990  0.1536 -0.0096  0.7552
  691TMC3    C310269   4.665   1.186  16.070  0.5757  0.6659  0.5713
  691TMC3    C410270   0.142   1.077  15.924 -0.0873  0.4968  0.4119
  691TMC3    C510271   0.057   0.998  15.999  0.3901 -0.5604 -0.9670
  691TMC3    C610272   4.681   1.050  16.074  0.6503 -0.8483  0.1833
  691TMC3     C10273   0.227   1.296  15.917 -0.0960  0.1664 -0.3404
  691TMC3     O10274   0.250   1.370  16.011  0.8207 -0.0124 -0.2548
  691TMC3     H10275   0.004   1.376  15.992 -1.2896 -0.0077 -0.4675
  691TMC3    H110276   0.239   1.053  15.883 -0.3347  1.1977 -0.5867
  691TMC3    H210277   4.625   0.989  16.144  2.1842 -2.4809 -0.0245
  691TMC3    C710278   0.099   0.855  16.010  0.5264 -0.5893  1.2740
  691TMC3    C810279   4.546   1.244  16.138 -0.0964 -0.0563 -0.0117
  691TMC3    O110280   0.216   0.829  15.973  0.2255 -0.0323  0.0619
  691TMC3    O210281   4.493   1.184  16.229  0.2141 -0.1462  0.3265
  692TMC3    C110282   1.583   2.032  15.625 -0.1187  0.7533 -0.0945
  692TMC3    C210283   1.710   2.075  15.634  0.3679  0.2569  0.2397
  692TMC3    C310284   1.811   1.988  15.642 -0.2698 -0.7780  0.3722
  692TMC3    C410285   1.547   1.901  15.630 -0.3162  1.0017  0.4142
  692TMC3    C510286   1.651   1.812  15.650  0.2805  0.2905 -0.0660
  692TMC3    C610287   1.780   1.858  15.662  0.0490 -0.2570  0.4132
  692TMC3     C10288   1.474   2.113  15.671  0.5382 -0.4515  0.6287
  692TMC3     O10289   1.363   2.062  15.689 -0.5056 -0.8396  0.3398
  692TMC3     H10290   1.738   2.177  15.609  0.6925  0.1256  0.0594
  692TMC3    H110291   1.445   1.865  15.620  0.3719 -0.8190 -0.0979
  692TMC3    H210292   1.861   1.786  15.650 -0.0141 -0.4110  0.9259
  692TMC3    C710293   1.618   1.670  15.672  0.4682 -0.0942 -0.4795
  692TMC3    C810294   1.920   2.025  15.736  0.1117  0.3218 -0.3346
  692TMC3    O110295   1.525   1.624  15.610 -0.1731  0.8997  0.3205
  692TMC3    O210296   2.004   1.936  15.761 -0.1546  0.0791  0.0692
  693MPD2     C10297   1.532   4.375  11.357 -0.4078  0.2595 -0.2443
  693MPD2    C110298   1.496   4.273  11.274  0.3629  0.1193  0.7759
  693MPD2    C210299   1.559   4.154  11.291 -1.1523 -0.8282  0.6047
  693MPD2    C310300   1.657   4.126  11.383  0.5500 -0.6212 -0.2381
  693MPD2    C410301   1.688   4.237  11.461  0.0785  0.2165  0.1836
  693MPD2    C510302   1.627   4.358  11.451 -0.9675  0.0401  0.1963
  693MPD2     H10303   1.526   4.065  11.239  1.6176 -0.7842 -1.2327
  693MPD2    H110304   1.757   4.214  11.542  0.8893 -0.2664 -0.6412
  693MPD2    H210305   1.495   4.475  11.336  0.3319  0.4032 -0.8668
  693MPD2    H310306   1.637   4.438  11.525 -1.4372  0.6798 -0.4305
  693MPD2     N10307   1.708   4.000  11.423  0.1025 -0.3063  0.4475
  693MPD2    H510308   1.768   4.001  11.505 -0.9668  0.4854  1.2424
  693MPD2    N110309   1.395   4.306  11.176  0.5076 -0.0701 -0.3970
  693MPD2    H710310   1.377   4.406  11.172  0.3725 -0.1347 -1.4195
  694TMC3    C110311   1.226   4.273  11.009 -0.3812 -0.4017 -0.3817
  694TMC3    C210312   1.199   4.205  10.893 -1.0099  0.3314  0.9911
  694TMC3    C310313   1.097   4.266  10.819 -0.4593  0.6409 -0.0811
  694TMC3    C410314   1.153   4.375  11.069  0.4773 -0.6508  0.3785
  694TMC3    C510315   1.054   4.428  10.992  0.0433  0.2563 -0.6453
  694TMC3    C610316   1.033   4.378  10.866 -0.0061 -0.5396  0.0458
  694TMC3     C10317   1.346   4.223  11.082 -0.9485  0.3625 -0.2913
  694TMC3     O10318   1.384   4.112  11.050  1.0938  0.5149  0.5353
  694TMC3     H10319   1.253   4.116  10.863 -1.4474  0.8013 -1.2310
  694TMC3    H110320   1.166   4.412  11.170  0.5329  2.1118 -0.6494
  694TMC3    H210321   0.952   4.415  10.804  1.1813  0.1856 -1.0632
  694TMC3    C710322   0.934   4.467  11.066 -0.4742  0.2286  0.1193
  694TMC3    C810323   1.039   4.191  10.707  0.8159 -0.0666  0.2194
  694TMC3    O110324   0.868   4.560  11.024  0.0845  0.1661 -0.1950
  694TMC3    O210325   0.934   4.234  10.658 -0.0949 -0.4679  0.0279
  695MPD2     C10326   2.269   1.226  13.336 -0.5582  0.9421  0.1891
  695MPD2    C110327   2.242   1.283  13.459  0.0270  0.8550  0.0589
  695MPD2    C210328   2.119   1.337  13.482  0.1180 -0.2066  0.0126
  695MPD2    C310329   2.022   1.347  13.382 -0.0034  0.1657  0.2417
  695MPD2    C410330   2.059   1.298  13.260 -0.3152 -0.1227  0.0450
  695MPD2    C510331   2.174   1.234  13.236  0.0201  0.1096 -0.3027
  695MPD2     H10332   2.095   1.378  13.580  1.5365 -2.0240  1.1262
  695MPD2    H110333   1.989   1.305  13.178 -2.5086 -1.3413  1.8174
  695MPD2    H210334   2.361   1.173  13.312 -1.5373 -0.6391 -0.0697
  695MPD2    H310335   2.191   1.173  13.149 -0.6766 -1.2131  0.4876
  695MPD2     N10336   1.900   1.416  13.405 -0.4789  0.0426  0.2145
  695MPD2    H510337   1.877   1.435  13.503  0.1320  0.9582  0.1853
  695MPD2    N110338   2.335   1.292  13.564 -0.1401  0.5597 -0.1106
  695MPD2    H710339   2.302   1.344  13.644 -1.1057 -3.7138  2.3025
  696TMC3    C110340   1.691   1.514  13.378 -0.5434  0.3892 -0.3221
  696TMC3    C210341   1.672   1.499  13.514 -0.5566 -0.3705 -0.7658
  696TMC3    C310342   1.595   1.594  13.578  0.2614  0.4024  0.1790
  696TMC3    C410343   1.638   1.621  13.312 -0.1826  0.5508  0.6477
  696TMC3    C510344   1.564   1.718  13.380  0.2839  0.4230  0.3054
  696TMC3    C610345   1.528   1.688  13.507 -0.1289  0.5492  1.2949
  696TMC3     C10346   1.800   1.445  13.315  0.9281  0.5529 -0.1732
  696TMC3     O10347   1.805   1.446  13.192 -0.1295  0.0488 -0.1251
  696TMC3     H10348   1.719   1.425  13.577  0.2693  0.2272 -0.6865
  696TMC3    H110349   1.666   1.646  13.211  1.0702 -2.1855  0.3154
  696TMC3    H210350   1.462   1.757  13.557 -1.8864  0.2124 -0.5507
  696TMC3    C710351   1.599   1.856  13.338 -0.0684  0.0985  0.1785
  696TMC3    C810352   1.673   1.658  13.678  0.3457  0.7839 -0.4397
  696TMC3    O110353   1.648   1.869  13.228 -0.2511 -0.4039 -0.2016
  696TMC3    O210354   1.794   1.641  13.665  0.6701  0.2760 -0.8695
  697MPD2     C10355   1.490   3.409  15.861  0.6191  0.0348 -0.6541
  697MPD2    C110356   1.472   3.375  15.726  0.1369  0.5095 -0.5591
  697MPD2    C210357   1.505   3.467  15.633  0.4527 -0.2249 -0.5568
  697MPD2    C310358   1.543   3.600  15.668 -0.4016  0.3988 -0.2282
  697MPD2    C410359   1.563   3.622  15.803 -0.7224 -0.1082 -0.4475
  697MPD2    C510360   1.526   3.534  15.899  0.1349 -0.1904  0.6691
  697MPD2     H10361   1.512   3.432  15.531  1.1173  2.3297 -1.4050
  697MPD2    H110362   1.610   3.715  15.834  1.1206 -1.4727  0.8729
  697MPD2    H210363   1.475   3.331  15.935 -1.7825  0.5880 -0.5482
  697MPD2    H310364   1.561   3.562  15.998  0.4328 -1.7976  1.0238
  697MPD2     N10365   1.589   3.689  15.569 -0.2364 -0.1958  0.1972
  697MPD2    H510366   1.629   3.775  15.606 -3.8730  1.7016 -0.3326
  697MPD2    N110367   1.448   3.242  15.684 -0.4189  0.2554 -0.2284
  697MPD2    H710368   1.434   3.236  15.583  0.8951  1.0484 -0.4556
  698TMC3    C110369   1.633   3.775  15.357  0.1086  0.0488  0.8239
  698TMC3    C210370   1.740   3.843  15.400 -0.4089 -0.7031 -0.3770
  698TMC3    C310371   1.821   3.900  15.296  0.7092 -0.0463  0.6557
  698TMC3    C410372   1.600   3.770  15.225 -0.0527  0.4656 -0.1917
  698TMC3    C510373   1.683   3.813  15.132  0.0789  0.2478  0.3940
  698TMC3    C610374   1.801   3.880  15.163 -0.1342  0.4045 -0.1054
  698TMC3     C10375   1.574   3.663  15.438 -0.0166  0.4542 -0.4598
  698TMC3     O10376   1.497   3.586  15.382 -0.4027 -0.5494 -0.0428
  698TMC3     H10377   1.766   3.838  15.505 -0.0110 -0.5341 -0.4665
  698TMC3    H110378   1.512   3.716  15.191  0.7820 -1.3146  0.4688
  698TMC3    H210379   1.858   3.925  15.082 -0.2104 -0.3183 -0.5661
  698TMC3    C710380   1.672   3.752  15.004 -0.0472 -0.1058 -0.4297
  698TMC3    C810381   1.912   4.000  15.343 -0.4744  0.3876 -0.3258
  698TMC3    O110382   1.565   3.712  14.970 -0.2322 -0.7337  0.4212
  698TMC3    O210383   1.878   4.053  15.449 -0.3787  0.2097  0.3287
  699TMC3    C110384   1.584   1.593  12.831  0.4215  0.2456  0.2297
  699TMC3    C210385   1.565   1.457  12.840 -0.2489  0.0143 -0.5339
  699TMC3    C310386   1.482   1.421  12.942  0.5655  0.0534 -0.7069
  699TMC3    C410387   1.508   1.682  12.907  0.6254  0.5472 -0.0735
  699TMC3    C510388   1.420   1.636  12.995  0.3907 -0.1650  0.0382
  699TMC3    C610389   1.419   1.507  13.023 -0.4972  0.2284  1.3006
  699TMC3     C10390   1.649   1.646  12.712 -0.5684  0.7648 -0.2577
  699TMC3     O10391   1.639   1.585  12.608  0.0492 -0.2609  0.2241
  699TMC3     H10392   1.634   1.393  12.785 -0.8253 -1.2605  0.2450
  699TMC3    H110393   1.516   1.786  12.876 -1.8828 -0.6528 -4.8840
  699TMC3    H210394   1.355   1.468  13.102 -0.8586  1.3181  1.5488
  699TMC3    C710395   1.339   1.723  13.069 -0.3021 -0.2221  0.4474
  699TMC3    C810396   1.527   1.294  13.002  0.0701 -0.1463  0.8666
  699TMC3    O110397   1.274   1.676  13.166 -0.3034 -0.3354 -0.3891
  699TMC3    O210398   1.435   1.239  13.060  0.3609 -0.2017  0.0914
  700TMC3    C110399   0.519   4.024  17.266  0.1182 -0.1377  0.9424
  700TMC3    C210400   0.620   3.966  17.197 -0.5633 -0.4092  0.6630
  700TMC3    C310401   0.693   3.872  17.262  0.1588  0.1769 -0.4785
  700TMC3    C410402   0.480   3.985  17.392  0.0124 -0.2471  0.4569
  700TMC3    C510403   0.568   3.892  17.457 -0.0232 -0.3995  0.1719
  700TMC3    C610404   0.676   3.835  17.392  0.4948  0.2217 -0.0360
  700TMC3     C10405   0.450   4.135  17.201  0.2698 -0.3366  0.3836
  700TMC3     O10406   0.329   4.133  17.204  0.6140  0.2169  0.0986
  700TMC3     H10407   0.641   3.980  17.091  3.0111 -0.3452  1.3661
  700TMC3    H110408   0.401   4.034  17.448 -0.5310 -0.3360 -0.2309
  700TMC3    H210409   0.744   3.771  17.447 -0.0042 -0.1433  0.1529
  700TMC3    C710410   0.607   3.936  17.588 -0.0781 -0.0701  1.1194
  700TMC3    C810411   0.781   3.803  17.177  0.0384  0.1283 -0.0109
  700TMC3    O110412   0.727   3.936  17.622  0.2052  0.1314  0.0195
  700TMC3    O210413   0.841   3.869  17.093  0.1403  0.0299  0.3494
  701TMC3    C110414   0.695   2.906  15.576 -0.8212  0.2815 -0.3274
  701TMC3    C210415   0.699   2.841  15.463  0.6067  0.2612 -0.5323
  701TMC3    C310416   0.812   2.857  15.382  0.6778 -0.0384 -0.0294
  701TMC3    C410417   0.781   3.011  15.607 -0.5573  0.5692 -0.2824
  701TMC3    C510418   0.878   3.041  15.517  0.0606  0.5371  0.0572
  701TMC3    C610419   0.892   2.965  15.400 -0.2113 -0.3440  0.3362
  701TMC3     C10420   0.596   2.883  15.675  0.1751  0.3079 -0.5636
  701TMC3     O10421   0.604   2.936  15.787 -0.2135 -0.1881  0.3484
  701TMC3     H10422   0.621   2.770  15.437  2.3178 -1.7646 -0.1516
  701TMC3    H110423   0.767   3.069  15.698 -0.5599  0.2258 -0.0622
  701TMC3    H210424   0.969   2.994  15.330  0.1556 -0.1401  0.8227
  701TMC3    C710425   0.955   3.160  15.524 -0.2733  0.3669  0.0446
  701TMC3    C810426   0.808   2.781  15.255  0.0413 -0.1702  0.3756
  701TMC3    O110427   1.017   3.193  15.424 -0.1133 -0.5115  0.8028
  701TMC3    O210428   0.708   2.719  15.222  1.0151 -0.0700  0.0060
  702MPD2     C10429   4.697   4.352  10.292  0.5286 -0.3803  0.2309
  702MPD2    C110430   4.678   4.463  10.371 -0.6567  0.2586 -0.8908
  702MPD2    C210431   4.684   4.585  10.306 -0.3210 -0.1276 -0.8587
  702MPD2    C310432   4.694   4.602  10.168 -0.1645 -0.6638  0.4708
  702MPD2    C410433   4.718   4.491  10.086 -0.5545  0.0599 -0.1748
  702MPD2    C510434   4.726   4.372  10.158  0.4020 -0.4888  0.3340
  702MPD2     H10435   4.693   4.671  10.373  0.3308 -1.3684  0.6553
  702MPD2    H110436   0.002   4.501   9.980  0.3174  1.2224  0.0962
  702MPD2    H210437   4.703   4.251  10.332 -1.0877  0.2622  2.1278
  702MPD2    H310438   0.032   4.294  10.096  0.6731  0.3456 -0.5272
  702MPD2     N10439   4.674   4.733  10.108  0.0839 -0.1416 -0.3307
  702MPD2    H510440   4.703   0.006  10.012  1.5471  1.3154  0.2467
  702MPD2    N110441   4.680   4.463  10.518  0.4742  0.0746  1.4372
  702MPD2    H710442   4.670   4.559  10.547  2.1444 -0.2603  3.1313
  703TMC3    C110443   4.642   0.233  10.123  0.1951 -1.1017 -0.0633
  703TMC3    C210444   4.574   0.332  10.192 -0.3915  0.0633  0.6441
  703TMC3    C310445   4.633   0.451  10.206 -0.4171 -0.4915 -0.2767
  703TMC3    C410446   0.029   0.255  10.066  0.6433 -0.1777  0.6196
  703TMC3    C510447   0.083   0.377  10.095  0.3313 -0.6733 -0.3135
  703TMC3    C610448   0.022   0.480  10.164  0.1666  0.3216  0.0860
  703TMC3     C10449   4.614   0.100  10.178  0.2218  0.0952  0.4734
  703TMC3     O10450   4.546   0.099  10.279  0.3195 -0.0285 -0.6287
  703TMC3     H10451   4.473   0.325  10.232  0.3322 -1.9596  2.1522
  703TMC3    H110452   0.084   0.176  10.018  1.2120  1.2639 -1.1186
  703TMC3    H210453   0.071   0.574  10.181 -1.7482  1.9045 -3.0863
  703TMC3    C710454   0.222   0.361  10.125  1.4421 -0.2638  0.3102
  703TMC3    C810455   4.558   0.566  10.231 -0.4116 -0.2677  0.2216
  703TMC3    O110456   0.298   0.454  10.119  0.1308  0.7658  0.7932
  703TMC3    O210457   4.596   0.665  10.170 -0.4277  0.2823 -1.1713
  704TMC3    C110458   3.458   3.255  12.380  0.2218  0.1985  0.4793
  704TMC3    C210459   3.395   3.297  12.260 -0.2826 -0.2646  0.1569
  704TMC3    C310460   3.292   3.219  12.225 -0.4755 -0.3238  0.1507
  704TMC3    C410461   3.414   3.150  12.458 -0.2710  0.2138 -0.0384
  704TMC3    C510462   3.313   3.073  12.403  0.3480  0.2413 -0.7691
  704TMC3    C610463   3.256   3.102  12.286 -0.0139 -0.6709 -0.5970
  704TMC3     C10464   3.599   3.286  12.405 -1.1132 -0.5152 -0.0324
  704TMC3     O10465   3.649   3.282  12.517  0.3994 -0.7780  0.2343
  704TMC3     H10466   3.445   3.372  12.200 -0.4626  0.0204  0.3607
  704TMC3    H110467   3.474   3.113  12.541 -1.4661  0.1623  0.8117
  704TMC3    H210468   3.171   3.042  12.256 -0.9882  0.4710 -0.1506
  704TMC3    C710469   3.255   2.955  12.466 -0.0971 -0.7871 -0.1830
  704TMC3    C810470   3.266   3.225  12.087 -0.5924 -0.2965 -0.2550
  704TMC3    O110471   3.154   2.902  12.420  0.6003 -0.0332 -0.7196
  704TMC3    O210472   3.363   3.241  12.012  0.1743  0.3727  0.1174
  705MPD2     C10473   2.183   2.014  16.693 -0.1886  0.7623 -0.4455
  705MPD2    C110474   2.140   2.003  16.563 -0.9738  0.0557 -0.7821
  705MPD2    C210475   2.011   2.050  16.534  0.0282  0.1171 -0.2257
  705MPD2    C310476   1.929   2.096  16.636  0.9340  0.0125 -0.2241
  705MPD2    C410477   1.972   2.097  16.767  0.4376  0.6665 -0.0152
  705MPD2    C510478   2.098   2.056  16.791 -0.6155  0.2780 -0.3856
  705MPD2     H10479   1.975   2.048  16.432  1.7783  0.0534 -0.8548
  705MPD2    H110480   1.904   2.108  16.851  0.2180  0.4906 -0.1721
  705MPD2    H210481   2.281   1.978  16.723 -1.1199 -1.9031 -0.5621
  705MPD2    H310482   2.137   2.067  16.891  1.0633 -3.1018 -0.6941
  705MPD2     N10483   1.795   2.150  16.613  0.1493 -0.5552 -0.0322
  705MPD2    H510484   1.750   2.194  16.693 -2.7912 -1.3482 -1.2787
  705MPD2    N110485   2.219   1.955  16.463  0.0134  0.5761 -0.4481
  705MPD2    H710486   2.179   1.956  16.369  0.0512 -0.5853 -0.4813
  706TMC3    C110487   2.409   1.680  16.166  0.1798  0.3780 -0.2827
  706TMC3    C210488   2.423   1.779  16.074  0.5077 -0.5189 -0.1925
  706TMC3    C310489   2.402   1.901  16.118  0.2458  0.3238 -1.3091
  706TMC3    C410490   2.384   1.699  16.301  0.0563 -0.3017  0.4608
  706TMC3    C510491   2.368   1.832  16.335  0.3135  0.1028  0.2770
  706TMC3    C610492   2.385   1.935  16.252 -0.5419 -0.0982 -0.0351
  706TMC3     C10493   2.387   1.547  16.105 -0.2549 -0.0091 -0.2782
  706TMC3     O10494   2.403   1.449  16.179  0.2833  0.0059 -0.4507
  706TMC3     H10495   2.469   1.757  15.979 -1.4796  1.5702 -1.6304
  706TMC3    H110496   2.376   1.611  16.365  0.7943 -2.2076 -2.0538
  706TMC3    H210497   2.387   2.039  16.285 -1.5391 -0.3382  0.7864
  706TMC3    C710498   2.332   1.870  16.470 -0.3671  0.0557 -0.1460
  706TMC3    C810499   2.415   2.002  16.020 -0.2401  0.1887  0.2559
  706TMC3    O110500   2.375   1.807  16.569 -0.1289  0.0285  0.2603
  706TMC3    O210501   2.409   1.977  15.901 -0.2004 -0.3548  0.0670
  707TMC3    C110502   3.632   0.192   1.391  0.5092 -0.0281  0.0443
  707TMC3    C210503   3.686   0.106   1.484  0.4970  0.1174  0.2013
  707TMC3    C310504   3.695   4.714   1.450 -0.0697 -0.4359  0.7936
  707TMC3    C410505   3.567   0.156   1.273  0.4484 -0.3269  0.3766
  707TMC3    C510506   3.568   0.022   1.243  0.1451  0.5182  0.2610
  707TMC3    C610507   3.643   4.674   1.325  0.0945 -0.4022 -0.0442
  707TMC3     C10508   3.717   0.305   1.363 -0.1546 -0.3386 -0.4984
  707TMC3     O10509   3.838   0.284   1.376 -0.1628 -0.3465 -0.0348
  707TMC3     H10510   3.716   0.144   1.580  1.1634  0.7554 -0.2699
  707TMC3    H110511   3.523   0.227   1.203  1.4243 -1.7207 -1.6521
  707TMC3    H210512   3.637   4.569   1.299  1.6127  0.1316 -2.4604
  707TMC3    C710513   3.552   4.715   1.107  0.7521  0.0227 -0.3470
  707TMC3    C810514   3.781   4.615   1.521 -0.3511 -0.5141  0.2483
  707TMC3    O110515   3.591   4.602   1.072  0.0221  0.3632  0.0891
  707TMC3    O210516   3.824   4.524   1.454 -0.1075  0.9397  0.4007
  708MPD2     C10517   0.947   4.463  13.637  0.1697  0.6271 -0.4117
  708MPD2    C110518   0.834   4.508  13.702 -0.4019  0.5560  0.3128
  708MPD2    C210519   0.819   4.483  13.836  0.1312 -0.6539  0.0339
  708MPD2    C310520   0.920   4.405  13.902 -0.2461  0.2331  0.3902
  708MPD2    C410521   1.036   4.365  13.836  1.0117 -0.6472 -0.6539
  708MPD2    C510522   1.039   4.382  13.701 -0.3330 -0.6274 -0.0808
  708MPD2     H10523   0.738   4.524  13.895  1.0682 -2.4529  2.5926
  708MPD2    H110524   1.112   4.304  13.883 -0.5107 -1.1022  1.1996
  708MPD2    H210525   0.959   4.486  13.532  1.6405 -0.6578 -0.5255
  708MPD2    H310526   1.129   4.344  13.653  1.1312  1.6637  0.8517
  708MPD2     N10527   0.919   4.368  14.042  0.3480  0.3786 -0.0618
  708MPD2    H510528   1.001   4.332  14.091  0.2991  0.9898  0.4676
  708MPD2    N110529   0.730   4.579  13.643 -0.1420 -0.6753 -0.3672
  708MPD2    H710530   0.646   4.598  13.697  0.5847  2.7020 -0.3984
  709TMC3    C110531   0.570   4.642  13.487  0.5260  0.2148  0.1764
  709TMC3    C210532   0.510   4.563  13.394  0.4435 -0.4703  0.4250
  709TMC3    C310533   0.373   4.550  13.410  0.3203  0.1099  0.1114
  709TMC3    C410534   0.509   4.704  13.594 -0.3720 -0.7290 -0.1072
  709TMC3    C510535   0.382   4.669  13.615  0.3239 -0.3320 -0.2659
  709TMC3    C610536   0.310   4.600  13.520 -0.5126  0.7853  0.1343
  709TMC3     C10537   0.709   4.616  13.509  0.0622 -0.2753 -0.2577
  709TMC3     O10538   0.781   4.577  13.419  0.8284  0.0277 -0.7147
  709TMC3     H10539   0.561   4.523  13.306  3.3826  1.1110  1.4008
  709TMC3    H110540   0.559   0.032  13.666 -1.2462 -0.2136  0.0348
  709TMC3    H210541   0.209   4.570  13.547 -0.3626 -1.7666 -2.1329
  709TMC3    C710542   0.386   4.607  13.743  0.3504  0.0500  0.5218
  709TMC3    C810543   0.315   4.438  13.332 -0.5255 -0.2926  0.0621
  709TMC3    O110544   0.501   4.594  13.790 -0.2798 -0.0436  0.0330
  709TMC3    O210545   0.244   4.363  13.394 -0.1036 -0.7661 -0.4173
  710TMC3    C110546   1.500   1.369  17.708  0.4055  0.5786 -0.7364
  710TMC3    C210547   1.620   1.329  17.641 -0.5576 -0.8038  0.2667
  710TMC3    C310548   1.654   1.203  17.649 -0.9320 -0.5295 -0.2005
  710TMC3    C410549   1.425   1.279   0.030 -0.4989 -1.0441  0.2390
  710TMC3    C510550   1.463   1.147   0.026  0.6380 -0.4724 -0.6758
  710TMC3    C610551   1.576   1.114  17.710 -0.0817  0.3302  0.1820
  710TMC3     C10552   1.489   1.515  17.733 -0.0559 -0.3786  1.0824
  710TMC3     O10553   1.547   1.579  17.651  0.0358 -0.1256  0.8295
  710TMC3     H10554   1.692   1.395  17.594  1.9375 -3.2832  0.6114
  710TMC3    H110555   1.340   1.306   0.092  0.1829 -2.0895  1.6219
  710TMC3    H210556   1.605   1.009  17.713  2.2662  0.9187 -1.6889
  710TMC3    C710557   1.404   1.048   0.113  0.1467  0.8401  0.2602
  710TMC3    C810558   1.750   1.160  17.548 -0.4941  0.2784 -0.3924
  710TMC3    O110559   1.482   0.955   0.141 -0.1992  0.3821  0.2350
  710TMC3    O210560   1.830   1.243  17.501 -0.3030 -0.2523 -0.3791
  711TMC3    C110561   1.385   2.266  14.605 -0.3267 -0.4715  0.0642
  711TMC3    C210562   1.327   2.297  14.727  0.2639  0.3537  0.4058
  711TMC3    C310563   1.364   2.409  14.791  0.0761 -0.1741  0.9575
  711TMC3    C410564   1.479   2.340  14.551 -0.3757 -0.1494 -0.6715
  711TMC3    C510565   1.515   2.451  14.625 -0.3795 -0.7782 -0.6607
  711TMC3    C610566   1.471   2.484  14.749  0.1833 -0.2865 -0.4766
  711TMC3     C10567   1.296   2.200  14.515  0.3087 -0.9922 -0.7657
  711TMC3     O10568   1.179   2.187  14.548  0.8217 -0.1076 -0.2928
  711TMC3     H10569   1.234   2.248  14.752  0.7697 -0.7943  0.0638
  711TMC3    H110570   1.523   2.314  14.455  1.0597  0.1897 -0.1127
  711TMC3    H210571   1.508   2.570  14.805 -1.1307 -1.1650  1.7480
  711TMC3    C710572   1.648   2.487  14.599  1.0181 -0.0459 -0.4417
  711TMC3    C810573   1.347   2.389  14.929  0.4251 -0.1872 -0.0672
  711TMC3    O110574   1.724   2.395  14.582 -0.1221 -0.1556  0.1422
  711TMC3    O210575   1.237   2.355  14.973 -0.9141 -0.1189 -0.7765
  712MPD2     C10576   3.094   2.921  13.460  0.1856 -0.0003 -0.0728
  712MPD2    C110577   2.976   2.926  13.531 -0.2718 -0.3368  0.3584
  712MPD2    C210578   2.938   3.043  13.589  0.6989  0.0353  0.0133
  712MPD2    C310579   3.022   3.153  13.583 -0.2904  0.5911  0.3387
  712MPD2    C410580   3.143   3.147  13.516 -0.3787 -0.2895  0.9899
  712MPD2    C510581   3.180   3.031  13.452 -0.5093  0.0210  0.0086
  712MPD2     H10582   2.852   3.050  13.655  0.8945 -2.8067  0.5923
  712MPD2    H110583   3.214   3.229  13.508 -0.6138 -0.2738 -1.1236
  712MPD2    H210584   3.118   2.831  13.405 -0.9201 -1.8679  2.5425
  712MPD2    H310585   3.277   3.033  13.403 -0.9350 -0.2038 -0.8445
  712MPD2     N10586   2.998   3.272  13.656  0.3160  0.4138 -0.2775
  712MPD2    H510587   3.066   3.347  13.652  2.3269 -1.4675 -1.2967
  712MPD2    N110588   2.884   2.824  13.514  0.4391 -0.2888  0.5279
  712MPD2    H710589   2.923   2.745  13.464  0.8946 -0.5326  1.2750
  713TMC3    C110590   2.897   3.406  13.815 -0.6633  1.0048  0.7030
  713TMC3    C210591   3.021   3.412  13.869  0.0679  0.7040 -0.0725
  713TMC3    C310592   3.041   3.521  13.955  0.0132  0.3866 -0.6738
  713TMC3    C410593   2.797   3.497  13.828 -0.0212 -0.2205  0.1663
  713TMC3    C510594   2.822   3.604  13.912  0.0815  0.1779  0.1692
  713TMC3    C610595   2.942   3.619  13.977  0.4286  0.0519  0.0437
  713TMC3     C10596   2.875   3.300  13.723 -0.2143  0.0949 -0.3027
  713TMC3     O10597   2.762   3.262  13.701 -1.0260 -0.2273 -0.3495
  713TMC3     H10598   3.096   3.335  13.861  0.7826  1.2418  1.5451
  713TMC3    H110599   2.697   3.468  13.797  0.1877 -2.2283  1.3116
  713TMC3    H210600   2.966   3.702  14.042  1.3423 -0.3923  0.2814
  713TMC3    C710601   2.716   3.701  13.934 -0.9945 -0.6707 -0.5735
  713TMC3    C810602   3.182   3.559  13.980  0.7758 -1.1521 -0.0536
  713TMC3    O110603   2.733   3.761  14.039 -0.5156 -0.6330  0.2261
  713TMC3    O210604   3.270   3.509  13.906 -0.0952 -0.2225 -0.3676
  714MPD2     C10605   0.149   2.591   1.637  0.2190  0.3923 -0.2161
  714MPD2    C110606   0.139   2.468   1.564 -0.0487 -0.2288 -0.6659
  714MPD2    C210607   0.018   2.428   1.517  0.1137 -0.2371  0.6367
  714MPD2    C310608   4.645   2.507   1.538  0.3459 -0.4449 -0.3824
  714MPD2    C410609   4.648   2.622   1.608  0.4324 -0.5785 -0.8214
  714MPD2    C510610   0.032   2.663   1.656 -0.6559 -0.5548 -0.0650
  714MPD2     H10611   0.002   2.332   1.469  1.9157 -0.3381  0.2500
  714MPD2    H110612   4.562   2.684   1.633 -0.3513 -2.5671  1.4554
  714MPD2    H210613   0.241   2.632   1.677  0.5478  1.4747 -2.0791
  714MPD2    H310614   0.037   2.757   1.710 -0.8548 -0.6522  0.1225
  714MPD2     N10615   4.522   2.455   1.491 -0.2658 -0.5548 -0.0186
  714MPD2    H510616   4.518   2.358   1.461  2.9903 -0.5378 -0.4654
  714MPD2    N110617   0.260   2.400   1.526 -0.4035 -0.5658  0.8250
  714MPD2    H710618   0.345   2.442   1.562 -0.9416 -0.1502  1.6380
  715TMC3    C110619   0.404   2.229   1.436 -0.0594  0.2980  0.2713
  715TMC3    C210620   0.426   2.104   1.376 -0.1471  0.5004 -0.0040
  715TMC3    C310621   0.553   2.055   1.368  0.4704 -0.1814  0.2454
  715TMC3    C410622   0.508   2.302   1.484 -0.3087  0.6162 -0.2098
  715TMC3    C510623   0.632   2.244   1.470  0.5171 -0.5818 -0.4971
  715TMC3    C610624   0.663   2.127   1.406 -0.7848 -0.1261 -0.2962
  715TMC3     C10625   0.266   2.279   1.459 -0.8313  0.0488  0.1515
  715TMC3     O10626   0.172   2.220   1.406 -0.7405  0.2064 -0.4837
  715TMC3     H10627   0.346   2.038   1.344  0.5867 -0.5036  0.2187
  715TMC3    H110628   0.496   2.396   1.537  1.5612 -1.7015  4.2426
  715TMC3    H210629   0.766   2.092   1.403 -1.4439 -1.9176 -1.4119
  715TMC3    C710630   0.744   2.324   1.509 -0.3745  0.2945  0.4177
  715TMC3    C810631   0.581   1.924   1.318  0.5989 -0.5898  0.4066
  715TMC3    O110632   0.843   2.305   1.440 -0.1705  0.2445 -0.1721
  715TMC3    O210633   0.521   1.887   1.216  0.1943 -0.3369  0.3405
  716MPD2     C10634   0.323   0.484   9.382  0.4495  0.2827  0.2582
  716MPD2    C110635   0.241   0.385   9.422 -0.2748  0.2983  0.1774
  716MPD2    C210636   0.298   0.270   9.467  0.3789  0.2481 -0.0117
  716MPD2    C310637   0.435   0.252   9.487 -1.2695 -0.1834 -0.3363
  716MPD2    C410638   0.517   0.363   9.464 -0.1578  0.5456 -0.1667
  716MPD2    C510639   0.455   0.475   9.410 -0.5203 -0.0795  0.3157
  716MPD2     H10640   0.230   0.192   9.500  0.4705 -0.4615 -1.4953
  716MPD2    H110641   0.618   0.360   9.502 -0.1069 -3.7747 -0.6304
  716MPD2    H210642   0.290   0.576   9.335  0.7479  0.8757  1.1894
  716MPD2    H310643   0.520   0.559   9.387  1.1985 -1.3540  0.4664
  716MPD2     N10644   0.468   0.131   9.556 -0.1530  0.2796 -0.0686
  716MPD2    H510645   0.395   0.066   9.581  0.3437 -0.5044 -0.6736
  716MPD2    N110646   0.098   0.415   9.399 -0.5510  0.7197 -0.4034
  716MPD2    H710647   0.080   0.509   9.366 -2.4230  0.4305 -0.2079
  717TMC3    C110648   0.603   4.691   9.644 -0.3587 -0.1988 -0.0190
  717TMC3    C210649   0.494   4.610   9.637  0.3578  0.8848  0.1780
  717TMC3    C310650   0.508   4.477   9.659 -0.6179 -0.5213 -0.6184
  717TMC3    C410651   0.726   4.643   9.683  0.5565  0.0231  0.2238
  717TMC3    C510652   0.746   4.507   9.691 -0.5091  0.0977 -0.4729
  717TMC3    C610653   0.632   4.430   9.694  0.0860 -0.1356  0.0188
  717TMC3     C10654   0.596   0.097   9.594  0.2634  0.7141 -0.0572
  717TMC3     O10655   0.701   0.150   9.564 -0.5888 -0.2960 -0.2711
  717TMC3     H10656   0.397   4.654   9.615 -0.5682 -1.5610 -0.6019
  717TMC3    H110657   0.807   4.715   9.680  0.6089 -0.1034 -1.6801
  717TMC3    H210658   0.630   4.323   9.713  0.8390 -0.0775  0.4359
  717TMC3    C710659   0.871   4.467   9.745  0.1717 -0.6925 -0.1151
  717TMC3    C810660   0.397   4.392   9.624  0.3977  0.7570 -0.2000
  717TMC3    O110661   0.935   4.559   9.793 -0.1244  0.5937  0.1619
  717TMC3    O210662   0.292   4.447   9.587  0.5539  0.0538 -0.4728
  718MPD2     C10663   0.092   3.325  13.289 -0.1767  0.0236 -0.5469
  718MPD2    C110664   4.720   3.305  13.199  0.8477 -0.1781 -0.1368
  718MPD2    C210665   4.641   3.196  13.228 -0.0433  0.4820  0.1946
  718MPD2    C310666   4.670   3.112  13.332  0.5054 -0.0635 -0.7513
  718MPD2    C410667   0.034   3.136  13.425  0.5178 -0.2919 -0.3537
  718MPD2    C510668   0.110   3.253  13.404 -0.2868 -0.0816 -0.4597
  718MPD2     H10669   4.553   3.170  13.171 -0.9517  0.1569  1.7390
  718MPD2    H110670   0.045   3.074  13.513  2.0131  1.2578  0.5399
  718MPD2    H210671   0.154   3.409  13.261  0.5053 -0.1714  0.3898
  718MPD2    H310672   0.189   3.276  13.475  0.6210  3.1477 -2.5145
  718MPD2     N10673   4.583   2.998  13.343 -0.4016 -0.5522 -0.6106
  718MPD2    H510674   4.504   2.998  13.279  0.2650 -1.4046 -1.4403
  718MPD2    N110675   4.716   3.388  13.086 -0.0318  0.0406  0.8791
  718MPD2    H710676   0.069   3.431  13.062 -0.5029  0.7610  0.4302
  719TMC3    C110677   4.645   3.407  12.864 -0.6971  0.0585 -0.7975
  719TMC3    C210678   4.553   3.336  12.789  0.0024  0.2325  0.2499
  719TMC3    C310679   4.601   3.252  12.686  0.2236 -0.8454  0.4490
  719TMC3    C410680   0.043   3.408  12.819  0.0972 -0.0135 -0.2690
  719TMC3    C510681   0.078   3.333  12.711 -0.2744  0.1456 -0.5602
  719TMC3    C610682   4.726   3.251  12.653  0.1270  0.4558 -0.3353
  719TMC3     C10683   4.612   3.387  13.001  0.1420 -0.0905  0.3987
  719TMC3     O10684   4.497   3.351  13.036  0.3511 -0.7655  0.4225
  719TMC3     H10685   4.448   3.328  12.818 -0.9113  2.2618 -2.5394
  719TMC3    H110686   0.120   3.470  12.863  0.0953 -0.5948  0.5450
  719TMC3    H210687   0.033   3.183  12.580  2.0588  2.8642 -1.4622
  719TMC3    C710688   0.176   3.394  12.621 -0.1640  0.2248 -0.2204
  719TMC3    C810689   4.542   3.119  12.707  0.0268  0.0509  0.4762
  719TMC3    O110690   0.191   3.516  12.627  0.1090 -0.4133  0.8333
  719TMC3    O210691   4.629   3.030  12.710  0.6789 -0.4491 -0.4444
  720MPD2     C10692   2.531   0.114  13.456 -0.2689 -0.9696  0.1355
  720MPD2    C110693   2.607   0.218  13.425  0.2446  0.0251 -0.0982
  720MPD2    C210694   2.695   0.270  13.522 -0.2008 -0.2065 -0.5032
  720MPD2    C310695   2.694   0.226  13.656 -0.5949  0.0903  0.1519
  720MPD2    C410696   2.600   0.130  13.683  0.2606  0.7683  0.1380
  720MPD2    C510697   2.526   0.078  13.583 -0.5867  0.0192  0.4855
  720MPD2     H10698   2.760   0.350  13.489  0.7660 -1.0864 -0.7235
  720MPD2    H110699   2.579   0.100  13.785  0.4795 -1.0859 -0.3594
  720MPD2    H210700   2.473   0.058  13.384  0.8400  0.9218 -2.2430
  720MPD2    H310701   2.455   0.002  13.614  1.1170 -1.5624  0.5001
  720MPD2     N10702   2.772   0.299  13.752 -0.0452 -0.4708  0.4633
  720MPD2    H510703   2.835   0.371  13.718  0.8335 -1.9364 -1.0075
  720MPD2    N110704   2.612   0.274  13.294  0.0258 -0.3618  0.0221
  720MPD2    H710705   2.673   0.350  13.265 -1.0403  0.1326 -0.9481
  721TMC3    C110706   2.869   0.354  13.955 -0.2284  0.2555 -0.2950
  721TMC3    C210707   2.834   0.419  14.076  0.3457 -0.0803  0.5666
  721TMC3    C310708   2.930   0.486  14.147 -0.5238  0.5137 -0.1491
  721TMC3    C410709   3.001   0.359  13.908  0.0845 -1.1259 -0.1783
  721TMC3    C510710   3.090   0.436  13.982  0.4962  0.0613  0.3319
  721TMC3    C610711   3.055   0.515  14.098  0.6187 -0.3070 -0.6866
  721TMC3     C10712   2.769   0.283  13.888 -0.3786 -0.2217 -0.6118
  721TMC3     O10713   2.675   0.233  13.950  0.4887  0.0671  0.6938
  721TMC3     H10714   2.735   0.404  14.117 -0.1325  0.5742 -0.3399
  721TMC3    H110715   3.040   0.292  13.832  1.3965 -1.5022  0.8292
  721TMC3    H210716   3.128   0.570  14.155 -0.7304  0.2730  0.4836
  721TMC3    C710717   3.226   0.426  13.956  0.1711 -0.3382  1.1883
  721TMC3    C810718   2.892   0.542  14.275 -0.1990  0.0378  0.0265
  721TMC3    O110719   3.294   0.525  13.976 -0.3848 -0.4431 -0.2088
  721TMC3    O210720   2.775   0.529  14.305 -0.2885 -0.2158 -0.4371
  722MPD2     C10721   1.880   3.587  13.035  0.3342 -0.6783  0.3864
  722MPD2    C110722   1.804   3.697  13.058 -0.1820  0.7159 -0.0344
  722MPD2    C210723   1.680   3.703  12.995  0.3184 -0.6129 -0.0209
  722MPD2    C310724   1.633   3.594  12.919 -0.1459 -0.5858  0.2814
  722MPD2    C410725   1.717   3.485  12.894  0.7894 -0.4193 -0.0706
  722MPD2    C510726   1.836   3.481  12.957  0.7098 -0.4155  0.2090
  722MPD2     H10727   1.607   3.783  13.004 -0.2304 -1.3021  1.7216
  722MPD2    H110728   1.684   3.408  12.825 -1.6282 -1.9111  2.7267
  722MPD2    H210729   1.978   3.575  13.080  0.6073 -2.8120 -0.7516
  722MPD2    H310730   1.903   3.396  12.950  0.9419 -0.3558  1.7002
  722MPD2     N10731   1.497   3.607  12.866  0.5365  0.0796  0.0687
  722MPD2    H510732   1.456   3.697  12.891  0.8314 -0.7218  3.4713
  722MPD2    N110733   1.838   3.808  13.146  0.0393 -0.2093  0.2469
  722MPD2    H710734   1.783   3.893  13.154 -0.5872 -0.2956 -3.0226
  723TMC3    C110735   1.285   3.547  12.774  0.4979 -0.9817 -0.3491
  723TMC3    C210736   1.201   3.474  12.847  0.6592  0.7242  0.6994
  723TMC3    C310737   1.083   3.527  12.886 -0.0864 -0.9752 -0.3954
  723TMC3    C410738   1.263   3.679  12.738  0.6107 -0.4535 -0.2736
  723TMC3    C510739   1.149   3.730  12.782 -0.5531  0.4581 -0.4484
  723TMC3    C610740   1.059   3.666  12.862  0.4444  0.2035 -0.4141
  723TMC3     C10741   1.426   3.510  12.795 -0.1507 -0.6795  0.4577
  723TMC3     O10742   1.453   3.394  12.770 -0.3070 -0.0466 -0.0504
  723TMC3     H10743   1.231   3.375  12.880 -1.1594 -0.8703 -2.4153
  723TMC3    H110744   1.343   3.727  12.684 -0.3208  1.4934  0.0825
  723TMC3    H210745   0.957   3.702  12.873  0.4069  0.3778 -1.3286
  723TMC3    C710746   1.102   3.837  12.698  0.3281  0.4501 -0.6544
  723TMC3    C810747   0.980   3.457  12.955 -0.5842 -0.3044 -0.0973
  723TMC3    O110748   1.159   3.853  12.592  0.1708  0.0130  0.5443
  723TMC3    O210749   0.896   3.513  13.019  0.2527  0.2224  0.3452
  724TMC3    C110750   2.279   1.275  11.314  0.3376 -0.4880 -0.7630
  724TMC3    C210751   2.337   1.181  11.230  0.2715 -0.3033 -0.4621
  724TMC3    C310752   2.404   1.233  11.123 -0.7425 -0.7197 -0.6039
  724TMC3    C410753   2.288   1.411  11.298 -0.1312  0.2633 -0.2677
  724TMC3    C510754   2.363   1.458  11.186 -0.3344  0.5179 -0.3616
  724TMC3    C610755   2.414   1.366  11.101 -0.3688  0.2918  0.1306
  724TMC3     C10756   2.263   1.219  11.448  0.2987  0.6264  0.2951
  724TMC3     O10757   2.267   1.098  11.464 -0.4706  0.3058 -0.1285
  724TMC3     H10758   2.306   1.078  11.235  0.2040 -0.3212 -1.2520
  724TMC3    H110759   2.227   1.475  11.361 -0.3896  0.2147 -0.4731
  724TMC3    H210760   2.474   1.406  11.020 -3.2405 -0.2062 -2.2704
  724TMC3    C710761   2.350   1.595  11.141  0.2745  0.3031 -1.1800
  724TMC3    C810762   2.389   1.161  11.000 -0.4652  0.0711 -0.3764
  724TMC3    O110763   2.396   1.626  11.031  0.2622 -0.2727 -0.6199
  724TMC3    O210764   2.385   1.039  11.002  0.4116 -0.2600  0.0422
  725TMC3    C110765   3.812   4.695  12.868  0.5564 -0.2967  0.2260
  725TMC3    C210766   3.726   0.001  12.771  0.9042 -0.0786 -0.1689
  725TMC3    C310767   3.703   4.657  12.663  0.5030  0.0376 -0.0125
  725TMC3    C410768   3.865   4.568  12.860  0.4129 -0.0763 -0.0807
  725TMC3    C510769   3.836   4.492  12.756 -0.3944 -0.5815  0.6931
  725TMC3    C610770   3.753   4.530  12.651 -0.1169  0.5546  0.0784
  725TMC3     C10771   3.893   0.064  12.925 -0.4150  0.6386  0.0470
  725TMC3     O10772   3.845   0.172  12.955  0.6379  0.6544  0.2596
  725TMC3     H10773   3.673   0.096  12.772 -0.4032 -0.8349  3.9405
  725TMC3    H110774   3.908   4.518  12.946  0.2157  0.3129  0.2479
  725TMC3    H210775   3.747   4.476  12.558  1.4088 -1.8020  1.3540
  725TMC3    C710776   3.956   4.422  12.720 -0.8258 -0.6227 -0.6061
  725TMC3    C810777   3.621   4.695  12.548 -0.7879 -0.5437 -0.0738
  725TMC3    O110778   4.063   4.483  12.753 -0.3575  0.2774 -0.4329
  725TMC3    O210779   3.577   4.604  12.478  0.5447  0.2002 -0.0365
  726MPD2     C10780   0.900   1.879   9.691  0.3404 -0.9888 -0.1575
  726MPD2    C110781   0.931   1.796   9.795 -0.2225 -0.2304  1.1573
  726MPD2    C210782   0.837   1.714   9.848  0.0451 -0.5213 -0.1889
  726MPD2    C310783   0.704   1.712   9.807  0.2816 -0.1477 -0.5823
  726MPD2    C410784   0.674   1.789   9.695 -0.0343  0.3016 -0.1157
  726MPD2    C510785   0.769   1.876   9.640  0.2424 -0.6539 -0.5050
  726MPD2     H10786   0.870   1.659   9.935  1.8597  2.6365  1.1206
  726MPD2    H110787   0.576   1.789   9.648  0.3800 -0.1435 -0.9847
  726MPD2    H210788   0.961   1.962   9.660 -0.0504  0.1257  2.0549
  726MPD2    H310789   0.737   1.950   9.568 -0.0356  0.0982  0.3953
  726MPD2     N10790   0.613   1.643   9.895  0.6103  0.2456 -0.3432
  726MPD2    H510791   0.654   1.592   9.972 -1.4790 -1.0532 -0.0794
  726MPD2    N110792   1.059   1.798   9.861  0.1728 -0.1027 -1.2351
  726MPD2    H710793   1.069   1.732   9.938  0.0930 -0.1998 -1.3073
  727TMC3    C110794   1.270   1.862   9.948 -0.0987 -0.3168  1.1907
  727TMC3    C210795   1.340   1.970   9.995  0.3755 -0.4124  0.0212
  727TMC3    C310796   1.412   1.961  10.111 -0.5917 -0.3538 -0.2380
  727TMC3    C410797   1.284   1.743  10.010 -0.6697 -0.3663 -0.1209
  727TMC3    C510798   1.357   1.731  10.127  0.1667  0.0541  0.4781
  727TMC3    C610799   1.416   1.840  10.182 -0.3106 -0.7508 -0.0070
  727TMC3     C10800   1.170   1.880   9.846  0.2910 -0.3906  0.5000
  727TMC3     O10801   1.182   1.967   9.767 -0.1067 -0.0265  0.0986
  727TMC3     H10802   1.332   2.065   9.944 -1.8566 -0.9626 -0.6738
  727TMC3    H110803   1.233   1.652   9.981 -1.4625 -0.0989  0.4297
  727TMC3    H210804   1.474   1.842  10.273 -0.6915 -2.5594  0.2803
  727TMC3    C710805   1.350   1.612  10.212  1.3210 -0.0699 -0.7927
  727TMC3    C810806   1.420   2.078  10.198  0.4896 -0.2780 -0.3697
  727TMC3    O110807   1.337   1.507  10.153  0.4629 -0.2906 -0.0626
  727TMC3    O210808   1.453   2.054  10.314 -0.4009 -0.3198  0.2974
  728TMC3    C110809   0.793   1.413  15.326 -0.1762 -0.1400 -0.2874
  728TMC3    C210810   0.902   1.472  15.274  0.4914 -0.1766  0.2889
  728TMC3    C310811   0.918   1.503  15.141 -0.3624 -0.5115 -0.2420
  728TMC3    C410812   0.692   1.371  15.242 -0.0770 -0.2716  1.2051
  728TMC3    C510813   0.705   1.384  15.109  0.3618 -0.2479 -0.2041
  728TMC3    C610814   0.819   1.453  15.058  0.8325 -0.1745  0.2817
  728TMC3     C10815   0.781   1.404  15.471  0.6496  0.0125 -0.5072
  728TMC3     O10816   0.855   1.467  15.544 -0.0571 -0.0486 -0.0233
  728TMC3     H10817   0.967   1.523  15.344  0.2594 -0.6416  0.8468
  728TMC3    H110818   0.617   1.300  15.273 -3.0377  2.0065 -0.7956
  728TMC3    H210819   0.832   1.479  14.953  2.0873  0.1823  0.5258
  728TMC3    C710820   0.584   1.366  15.032 -0.1406  0.0192 -0.3629
  728TMC3    C810821   0.996   1.607  15.091 -0.2617 -0.0715  0.2480
  728TMC3    O110822   0.481   1.364  15.102  0.0497 -0.2844  0.1446
  728TMC3    O210823   0.996   1.621  14.970  0.4596 -0.3253  0.7029
  729MPD2     C10824   2.725   2.328  17.146 -0.0234 -0.5099 -0.1907
  729MPD2    C110825   2.852   2.330  17.097  0.5875  0.3502  0.1761
  729MPD2    C210826   2.963   2.348  17.192  0.1402 -0.2938  0.8076
  729MPD2    C310827   2.934   2.346  17.328  1.3534 -0.3826 -1.0518
  729MPD2    C410828   2.804   2.329  17.372 -0.0894  0.4178 -0.2231
  729MPD2    C510829   2.709   2.327  17.275  0.6376 -0.4750 -0.2790
  729MPD2     H10830   3.061   2.376  17.155 -0.7175  1.6132 -0.0104
  729MPD2    H110831   2.765   2.348  17.472  1.4781 -3.2757  1.0827
  729MPD2    H210832   2.640   2.319  17.080 -0.2339  0.1767 -0.0083
  729MPD2    H310833   2.607   2.325  17.312 -0.1433  0.6234 -2.3859
  729MPD2     N10834   3.035   2.386  17.420 -0.0843 -0.1933 -0.1847
  729MPD2    H510835   3.010   2.369  17.517 -2.7245  0.1739 -0.7885
  729MPD2    N110836   2.873   2.316  16.957  0.0617 -0.1582  0.3078
  729MPD2    H710837   2.793   2.318  16.894 -1.0364  1.7157  1.8022
  730TMC3    C110838   3.201   2.528  17.503 -0.2789  0.4959  0.4155
  730TMC3    C210839   3.320   2.584  17.477  0.6789 -0.1981 -0.1342
  730TMC3    C310840   3.360   2.698  17.543  0.5414  0.1136  0.4945
  730TMC3    C410841   3.111   2.587  17.585  0.1503 -0.6312 -0.2532
  730TMC3    C510842   3.143   2.707  17.637 -0.6105  0.7228  0.1221
  730TMC3    C610843   3.272   2.761  17.626  0.1387  0.4245 -0.7546
  730TMC3     C10844   3.148   2.460  17.387 -0.1316 -0.4941 -0.0620
  730TMC3     O10845   3.212   2.475  17.286  0.0174  0.1138 -0.3778
  730TMC3     H10846   3.389   2.537  17.408  1.6869  0.0168  0.7394
  730TMC3    H110847   3.007   2.557  17.586 -0.3768  1.2390  1.2115
  730TMC3    H210848   3.298   2.844  17.690  0.1723 -1.2734  1.4226
  730TMC3    C710849   3.035   2.807  17.599  0.1534 -0.1543  0.0042
  730TMC3    C810850   3.430   2.796  17.463  0.7791 -0.6521 -0.6730
  730TMC3    O110851   2.968   2.778  17.496 -0.2398  0.3136  0.5525
  730TMC3    O210852   3.428   2.767  17.342  0.1413  0.1056 -0.5125
  731MPD2     C10853   3.241   4.192  12.541  0.4327 -0.3157  0.2839
  731MPD2    C110854   3.184   4.315  12.507 -0.2152  0.3043 -0.6631
  731MPD2    C210855   3.078   4.356  12.585  0.4076  0.6882 -0.1925
  731MPD2    C310856   3.019   4.282  12.678  0.1662  0.4776 -0.2986
  731MPD2    C410857   3.069   4.156  12.703  0.3978  0.0219 -0.4855
  731MPD2    C510858   3.180   4.113  12.641  0.0577 -0.3611  1.0725
  731MPD2     H10859   3.047   4.458  12.566 -0.1379  0.5486 -0.0490
  731MPD2    H110860   3.012   4.082  12.758 -0.4426  0.8743 -0.2089
  731MPD2    H210861   3.317   4.146  12.478  0.2942 -1.9647  1.3482
  731MPD2    H310862   3.200   4.009  12.662 -1.4072 -0.9681 -0.5328
  731MPD2     N10863   2.918   4.334  12.760  0.3679 -0.1994  0.0849
  731MPD2    H510864   2.897   4.430  12.737 -1.7041 -0.8622 -0.7178
  731MPD2    N110865   3.243   4.397  12.408  0.6414 -0.1505 -0.2661
  731MPD2    H710866   3.185   4.473  12.375 -0.5701 -1.6722 -1.6577
  732TMC3    C110867   3.382   4.442  12.214  0.3810  0.8031  0.0969
  732TMC3    C210868   3.276   4.510  12.160  0.6476  0.2040  0.1421
  732TMC3    C310869   3.308   4.589  12.055 -0.3489  0.0059  0.4993
  732TMC3    C410870   3.512   4.458  12.171  0.2916  0.0385  0.0901
  732TMC3    C510871   3.538   4.537  12.064  0.6935 -0.1181  0.2282
  732TMC3    C610872   3.437   4.612  12.009  0.0805  0.5378  0.1383
  732TMC3     C10873   3.364   4.374  12.345  0.1537  0.5578  0.5377
  732TMC3     O10874   3.462   4.324  12.398  0.0861  0.2708 -0.3035
  732TMC3     H10875   3.175   4.475  12.180  1.5604 -1.6366  1.5213
  732TMC3    H110876   3.594   4.401  12.214  0.5342  0.0472 -0.3575
  732TMC3    H210877   3.448   4.656  11.911  1.2015  1.0507  0.4898
  732TMC3    C710878   3.628   4.485  11.967  0.2555  0.1012 -0.9388
  732TMC3    C810879   3.197   4.597  11.956 -0.3097 -0.2370 -1.0305
  732TMC3    O110880   3.584   4.480  11.851 -0.2146 -0.4242  0.3689
  732TMC3    O210881   3.219   4.608  11.836  0.7496  0.1008  0.0579
  733TMC3    C110882   4.311   2.657  13.476 -0.1945  0.4334 -0.2228
  733TMC3    C210883   4.402   2.747  13.521 -0.7954  0.3478 -0.3136
  733TMC3    C310884   4.480   2.803  13.419  0.0205 -0.5420 -0.0449
  733TMC3    C410885   4.296   2.622  13.346  0.6025 -0.1222  0.0486
  733TMC3    C510886   4.372   2.677  13.251 -0.1305 -0.5663  0.0449
  733TMC3    C610887   4.463   2.773  13.287 -1.0804 -1.1474  0.2121
  733TMC3     C10888   4.190   2.654  13.553  0.3200 -0.0744  0.2997
  733TMC3     O10889   4.145   2.762  13.586  0.1189 -0.0142 -0.2980
  733TMC3     H10890   4.419   2.772  13.625 -1.0422  0.3829 -0.2815
  733TMC3    H110891   4.230   2.539  13.321 -0.7358  0.5106  1.4330
  733TMC3    H210892   4.535   2.803  13.212 -1.8188  0.3422  0.0937
  733TMC3    C710893   4.286   2.716  13.147  0.1787 -0.0117 -0.1678
  733TMC3    C810894   4.581   2.903  13.445 -0.6215  0.0969  0.2660
  733TMC3    O110895   4.169   2.733  13.181 -1.1675  0.4752  0.1712
  733TMC3    O210896   4.651   2.892  13.544 -0.1943  0.0458 -0.6204
  734MPD2     C10897   1.197   0.777  12.695 -0.3547 -0.0084  0.1958
  734MPD2    C110898   1.117   0.673  12.653 -0.1372  1.3808 -0.5832
  734MPD2    C210899   1.085   0.663  12.518 -1.0613  0.1644  0.2797
  734MPD2    C310900   1.126   0.758  12.429  0.0123 -0.3038  0.4463
  734MPD2    C410901   1.213   0.858  12.471  0.4427  0.2312 -0.2234
  734MPD2    C510902   1.246   0.871  12.605  0.4595  0.0667 -0.5156
  734MPD2     H10903   1.030   0.578  12.480  0.3280 -0.7950  0.4135
  734MPD2    H110904   1.242   0.931  12.396 -1.3614  0.9982 -0.1605
  734MPD2    H210905   1.217   0.797  12.800  0.6426  0.7196 -0.1243
  734MPD2    H310906   1.298   0.958  12.644  0.1954  0.0174 -0.0453
  734MPD2     N10907   1.097   0.728  12.296 -0.2776 -0.2655 -0.5757
  734MPD2    H510908   1.043   0.643  12.285 -0.7375  0.2464 -2.2700
  734MPD2    N110909   1.075   0.577  12.747  0.6957  0.0778 -0.2996
  734MPD2    H710910   1.107   0.591  12.842 -2.6352 -0.8754  0.9614
  735TMC3    C110911   0.933   0.405  12.837  0.6644 -0.1308  0.0422
  735TMC3    C210912   0.812   0.355  12.817 -0.0784  0.4298  0.2050
  735TMC3    C310913   0.795   0.220  12.797 -0.6509 -0.1201 -0.7048
  735TMC3    C410914   1.042   0.323  12.854 -0.3116  0.6462  0.3770
  735TMC3    C510915   1.021   0.186  12.837 -0.2425 -0.6098 -0.9773
  735TMC3    C610916   0.900   0.135  12.823  0.9570  0.2862 -0.3969
  735TMC3     C10917   0.960   0.510  12.734  0.3206 -0.1999  0.7328
  735TMC3     O10918   0.885   0.514  12.638  0.2863  0.0930 -0.3123
  735TMC3     H10919   0.720   0.413  12.814 -0.5022 -0.3595 -2.5088
  735TMC3    H110920   1.138   0.371  12.846 -0.0159 -0.2656 -1.5766
  735TMC3    H210921   0.886   0.032  12.795 -1.5437  0.0180  1.8618
  735TMC3    C710922   1.127   0.136  12.749 -0.2869  0.3252  0.1954
  735TMC3    C810923   0.715   0.191  12.674 -0.7474 -0.0356 -0.5662
  735TMC3    O110924   1.222   0.209  12.723 -0.6552 -0.3155  0.7018
  735TMC3    O210925   0.661   0.084  12.668 -0.2310  0.4732 -0.4746
  736MPD2     C10926   1.151   4.525  12.631 -0.1360 -0.2398 -0.4982
  736MPD2    C110927   1.182   4.660  12.640 -0.4477  0.5558  0.3172
  736MPD2    C210928   1.295   4.703  12.568 -0.1217  0.0433  0.6979
  736MPD2    C310929   1.350   4.624  12.474  0.8255  0.6700 -0.1307
  736MPD2    C410930   1.320   4.485  12.470  0.2595 -0.8163  0.4301
  736MPD2    C510931   1.215   4.442  12.547  0.0217 -0.9191  0.5785
  736MPD2     H10932   1.329   0.069  12.574  0.5557 -0.3159  3.1643
  736MPD2    H110933   1.372   4.420  12.401 -0.2344  1.3291 -1.9618
  736MPD2    H210934   1.065   4.482  12.680 -0.9043  1.6890 -0.1453
  736MPD2    H310935   1.186   4.338  12.542 -0.0270 -0.7745 -1.9566
  736MPD2     N10936   1.445   4.672  12.372  0.1164 -0.5070 -0.2028
  736MPD2    H510937   1.461   4.604  12.297 -0.4630 -0.7410 -0.1128
  736MPD2    N110938   1.095   0.005  12.717  0.3599  0.0735  0.1870
  736MPD2    H710939   1.023   4.693  12.770 -1.8282  0.4981 -2.3892
  737TMC3    C110940   1.570   0.083  12.250 -0.0723  1.1768 -0.0853
  737TMC3    C210941   1.595   0.214  12.214  0.0344  0.2231 -0.0603
  737TMC3    C310942   1.696   0.250  12.128  0.3899 -0.2656  0.0034
  737TMC3    C410943   1.672   4.726  12.211 -0.0523 -0.0603 -0.0441
  737TMC3    C510944   1.773   0.033  12.128 -0.1256 -0.3641 -0.3210
  737TMC3    C610945   1.786   0.159  12.083  0.1119  0.8786  0.8335
  737TMC3     C10946   1.501   0.061  12.369  0.4900  0.0481  0.1900
  737TMC3     O10947   1.502   0.154  12.448 -0.0966  0.2614 -0.5060
  737TMC3     H10948   1.521   0.290  12.239  1.3304  1.5697 -0.2878
  737TMC3    H110949   1.656   4.620  12.228  0.7649 -0.3220 -0.8697
  737TMC3    H210950   1.868   0.189  12.018 -2.1005  1.4768 -1.6987
  737TMC3    C710951   1.854   4.665  12.074 -0.0627 -0.0823  0.1063
  737TMC3    C810952   1.702   0.384  12.068  1.1565 -0.0412  0.5217
  737TMC3    O110953   1.837   4.557  12.132  0.1430  0.3210  0.5448
  737TMC3    O210954   1.808   0.444  12.054 -0.1241  0.1810 -0.3603
  738MPD2     C10955   2.144   4.170  15.418 -0.5601  0.1473  0.1355
  738MPD2    C110956   2.124   4.116  15.292 -0.1747 -0.3342  0.3691
  738MPD2    C210957   2.209   4.154  15.192  0.2121  0.0446 -0.4641
  738MPD2    C310958   2.303   4.261  15.210 -0.3691  0.4977  0.3137
  738MPD2    C410959   2.313   4.315  15.331 -0.0949 -0.1171  0.1702
  738MPD2    C510960   2.243   4.261  15.440 -0.2268  0.0906 -0.4826
  738MPD2     H10961   2.193   4.110  15.094 -0.3692 -2.1057  0.5811
  738MPD2    H110962   2.388   4.391  15.347 -0.9382  0.9127 -0.7416
  738MPD2    H210963   2.084   4.147  15.505 -0.4833 -0.4381  0.0339
  738MPD2    H310964   2.237   4.309  15.537 -1.3970 -1.7339  0.3493
  738MPD2     N10965   2.398   4.307  15.111 -0.2416  0.6059  0.1016
  738MPD2    H510966   2.459   4.379  15.149 -0.7982  1.1837 -0.0922
  738MPD2    N110967   2.022   4.029  15.261 -0.6725 -0.4259  0.1729
  738MPD2    H710968   2.034   3.979  15.173 -0.7909  0.1412 -0.1712
  739TMC3    C110969   2.467   4.334  14.895 -0.5698 -0.9186  0.0085
  739TMC3    C210970   2.432   4.303  14.767 -0.6677  1.0735 -0.6955
  739TMC3    C310971   2.419   4.405  14.679 -0.0339 -0.0073  0.4422
  739TMC3    C410972   2.499   4.461  14.929  0.6620  0.3318  0.5993
  739TMC3    C510973   2.493   4.563  14.839  0.1377 -0.6635  0.4606
  739TMC3    C610974   2.454   4.531  14.707 -0.0529 -0.2420  0.0435
  739TMC3     C10975   2.418   4.246  14.989 -0.7908  0.2348  0.0569
  739TMC3     O10976   2.367   4.147  14.944 -0.1883  0.1510 -0.0411
  739TMC3     H10977   2.413   4.202  14.731  1.9636  0.5349 -0.5570
  739TMC3    H110978   2.560   4.482  15.016 -2.2103  0.9249  2.4994
  739TMC3    H210979   2.422   4.617  14.649  2.0698  0.4237 -0.1682
  739TMC3    C710980   2.581   4.674  14.877 -0.4024  0.6886 -0.0262
  739TMC3    C810981   2.352   4.372  14.558  0.3869  0.3251 -0.4920
  739TMC3    O110982   2.591   4.698  14.997 -0.3854 -0.1176  0.2748
  739TMC3    O210983   2.301   4.263  14.560 -0.0909 -0.5352 -0.0361
  740TMC3    C110984   1.976   1.119  14.340  0.2001 -0.1393  0.1631
  740TMC3    C210985   2.110   1.109  14.381 -0.1473  0.2904  0.0051
  740TMC3    C310986   2.206   1.106  14.288  0.2078 -0.5994  0.4116
  740TMC3    C410987   1.941   1.111  14.207 -0.3838  0.5293 -0.5795
  740TMC3    C510988   2.045   1.109  14.120 -0.2225  0.2364  0.5887
  740TMC3    C610989   2.183   1.111  14.158  0.0233  0.1079  0.4297
  740TMC3     C10990   1.901   1.209  14.422  0.0462  0.2983 -0.5330
  740TMC3     O10991   1.832   1.290  14.364  0.1483  0.6490  0.3185
  740TMC3     H10992   2.131   1.114  14.487  0.0650  0.6500 -0.0519
  740TMC3    H110993   1.838   1.113  14.173  0.0899 -0.5696 -2.0803
  740TMC3    H210994   2.268   1.142  14.097 -0.8313  0.1169 -0.7745
  740TMC3    C710995   2.009   1.123  13.977  0.2864 -0.0927  0.5122
  740TMC3    C810996   2.331   1.046  14.329  0.2567  0.0571  0.0397
  740TMC3    O110997   1.903   1.166  13.939 -0.2308 -0.7138 -0.2533
  740TMC3    O210998   2.352   1.046  14.452 -0.0968 -0.4934  0.3698
  741TMC3    C110999   2.157   0.636  14.340  0.2621  0.2802  0.2151
  741TMC3    C211000   2.149   0.503  14.368  0.2594 -0.4921  0.1283
  741TMC3    C311001   2.106   0.471  14.494 -0.0259  0.0218  0.1221
  741TMC3    C411002   2.134   0.736  14.433  0.6166 -0.3059 -0.0111
  741TMC3    C511003   2.093   0.705  14.556  0.3217  0.1738  0.0136
  741TMC3    C611004   2.079   0.570  14.599 -0.0044 -0.3093 -0.2327
  741TMC3     C11005   2.164   0.686  14.200 -0.5948 -0.0203 -0.4454
  741TMC3     O11006   2.141   0.805  14.178 -0.0089 -1.2306 -0.5867
  741TMC3     H11007   2.149   0.431  14.288  2.3180 -0.4751  0.1137
  741TMC3    H111008   2.143   0.841  14.408  1.4715 -0.9321 -2.3855
  741TMC3    H211009   2.049   0.542  14.699 -0.0757  0.8774  0.0711
  741TMC3    C711010   2.094   0.812  14.653 -0.0889  0.3517 -0.6440
  741TMC3    C811011   2.021   0.353  14.496  0.1665 -0.6647  0.2841
  741TMC3    O111012   2.021   0.911  14.630 -0.5231 -0.5114  0.0986
  741TMC3    O211013   1.926   0.364  14.568  0.1009  0.6110 -0.0746
  742TMC3    C111014   2.087   3.584  15.174  0.2125  0.2797  0.1594
  742TMC3    C211015   2.017   3.487  15.109 -0.3436 -0.6562  0.2532
  742TMC3    C311016   2.073   3.418  15.005  0.5878  0.0532  0.2395
  742TMC3    C411017   2.221   3.589  15.136  0.2339  0.9186 -0.1910
  742TMC3    C511018   2.285   3.509  15.047 -1.0330 -0.5865 -0.1330
  742TMC3    C611019   2.210   3.424  14.973  0.2503  0.6440  0.4429
  742TMC3     C11020   2.062   3.626  15.313  0.0647 -0.1999 -0.6161
  742TMC3     O11021   2.133   3.703  15.375  0.4886  0.3774 -0.4555
  742TMC3     H11022   1.910   3.501  15.122 -0.0527  2.7721 -1.0179
  742TMC3    H111023   2.283   3.672  15.169  1.8849 -0.8331  1.0980
  742TMC3    H211024   2.241   3.355  14.896 -0.0283  0.1230  0.7915
  742TMC3    C711025   2.432   3.497  15.036 -0.5441 -0.4024 -0.5351
  742TMC3    C811026   1.990   3.342  14.906 -0.8182  0.2964  0.4622
  742TMC3    O111027   2.481   3.452  14.931  0.8057 -0.1695  0.5074
  742TMC3    O211028   2.049   3.302  14.806 -0.0933  0.7825  0.2738
  743MPD2     C11029   0.014   4.717   1.807 -0.1555  0.4580 -0.4650
  743MPD2    C111030   0.053   4.646   1.692 -0.5351  0.4074  0.2259
  743MPD2    C211031   0.185   4.663   1.642  0.1337 -0.1529 -0.5440
  743MPD2    C311032   0.274   0.012   1.706 -0.1766 -0.0134 -0.8526
  743MPD2    C411033   0.230   0.076   1.822 -0.7743 -0.2311 -0.9339
  743MPD2    C511034   0.106   0.061   1.872 -0.0869 -0.3754 -0.0630
  743MPD2     H11035   0.225   4.614   1.554  1.2090 -0.5157  0.1370
  743MPD2    H111036   0.286   0.154   1.872  0.8655 -1.6628 -0.5078
  743MPD2    H211037   4.655   4.696   1.855 -0.0781 -0.2181 -0.5987
  743MPD2    H311038   0.086   0.107   1.968  0.6903  1.9139 -0.9996
  743MPD2     N11039   0.398   0.035   1.645  0.2221 -0.1896 -0.1377
  743MPD2    H511040   0.416   4.714   1.562  1.2341 -0.7953  0.4897
  743MPD2    N111041   4.700   4.553   1.640 -0.4235  0.5523 -0.3942
  743MPD2    H711042   4.607   4.569   1.678 -0.1760 -2.9149  1.6405
  744TMC3    C111043   4.610   4.381   1.504 -0.1858  0.4165  0.0256
  744TMC3    C211044   4.491   4.380   1.577 -0.8183 -0.5573 -0.1968
  744TMC3    C311045   4.384   4.317   1.511  0.3126 -0.4024 -0.2060
  744TMC3    C411046   4.626   4.325   1.379  0.3391 -0.0434 -0.1300
  744TMC3    C511047   4.520   4.268   1.322  0.2529 -0.3263 -0.6234
  744TMC3    C611048   4.397   4.264   1.384 -0.1624 -0.8321  0.0672
  744TMC3     C11049   4.728   4.460   1.546  0.5658  0.2556 -0.1536
  744TMC3     O11050   0.098   4.422   1.504  0.3510 -0.5953 -0.1970
  744TMC3     H11051   4.485   4.430   1.673  2.5532 -1.3509  0.4141
  744TMC3    H111052   4.721   4.335   1.326  0.1407 -1.8826 -0.8090
  744TMC3    H211053   4.310   4.232   1.328  0.2972  0.8062 -1.6001
  744TMC3    C711054   4.527   4.266   1.182 -0.1433  0.2654  0.1356
  744TMC3    C811055   4.251   4.355   1.547  0.8083  0.0439  0.0123
  744TMC3    O111056   4.603   4.350   1.124 -0.8181 -0.1006 -0.2255
  744TMC3    O211057   4.172   4.361   1.456 -0.9848 -0.0211 -0.1207
  745TMC3    C111058   2.674   2.731  13.477 -0.1496 -0.2540  0.2289
  745TMC3    C211059   2.542   2.751  13.514 -0.2931  0.0640 -0.1330
  745TMC3    C311060   2.469   2.808  13.414  0.2527 -0.1992 -0.6612
  745TMC3    C411061   2.716   2.732  13.344  0.4763 -0.1502 -0.1347
  745TMC3    C511062   2.640   2.790  13.249  0.1093  1.1257  0.8543
  745TMC3    C611063   2.516   2.838  13.288  0.5234 -0.3545  0.6804
  745TMC3     C11064   2.755   2.820  13.550 -0.3320 -0.3527 -0.7612
  745TMC3     O11065   2.690   2.887  13.629 -0.2229  0.1428  0.2799
  745TMC3     H11066   2.506   2.724  13.613  3.1813  1.2311  1.4531
  745TMC3    H111067   2.809   2.687  13.311  0.1944 -0.8878  0.0682
  745TMC3    H211068   2.451   2.892  13.220  2.0778  1.9814  1.0501
  745TMC3    C711069   2.692   2.842  13.123 -0.4403  0.1828 -0.0200
  745TMC3    C811070   2.389   2.918  13.459  0.2139  0.2739  0.2403
  745TMC3    O111071   2.625   2.899  13.040  0.1676 -0.3604  0.2227
  745TMC3    O211072   2.307   2.968  13.388  0.4027 -0.7330 -0.2950
  746TMC3    C111073   4.589   4.568  10.889  0.3413 -0.0846  0.0950
  746TMC3    C211074   4.652   4.531  10.778  0.6826 -0.0225 -0.2758
  746TMC3    C311075   4.656   4.396  10.748  0.2555 -0.0371  0.4350
  746TMC3    C411076   4.525   4.481  10.972  0.4447 -0.1217 -0.0320
  746TMC3    C511077   4.534   4.351  10.939  0.0809  0.4876  0.5997
  746TMC3    C611078   4.596   4.301  10.830  0.3632 -0.3449 -0.8193
  746TMC3     C11079   4.584   4.709  10.934 -0.7534 -0.4194 -0.1132
  746TMC3     O11080   4.527   4.726  11.042  0.2793  1.0200 -0.2216
  746TMC3     H11081   4.712   4.595  10.713  2.0655  1.3181  2.3122
  746TMC3    H111082   4.468   4.506  11.061  1.2047  0.8370  0.1822
  746TMC3    H211083   4.583   4.202  10.787  1.5823 -0.6070 -0.5990
  746TMC3    C711084   4.414   4.277  10.980 -0.5128  0.1277 -0.1225
  746TMC3    C811085   4.684   4.359  10.607  0.5666  0.7849  0.0570
  746TMC3    O111086   4.307   4.332  10.956 -0.1201 -0.0894  0.2454
  746TMC3    O211087   4.681   4.240  10.584  0.2872 -0.6109 -0.1912
  747TMC3    C111088   2.452   4.706  11.204  0.1484 -0.1412  0.2840
  747TMC3    C211089   2.337   4.677  11.271 -0.7095 -0.1861  0.1587
  747TMC3    C311090   2.345   4.686  11.407 -0.1565 -0.4450 -0.6659
  747TMC3    C411091   2.565   0.015  11.265 -0.3996 -0.4116  0.4176
  747TMC3    C511092   2.568   0.023  11.396 -0.3011 -0.0933  0.3895
  747TMC3    C611093   2.457   4.728  11.475 -0.0288 -0.3048 -0.6313
  747TMC3     C11094   2.468   4.706  11.061 -0.2787 -0.1017 -0.6344
  747TMC3     O11095   2.534   0.061  11.009 -0.0744  0.4978  0.1598
  747TMC3     H11096   2.244   4.644  11.225 -0.0401  1.8391 -2.6306
  747TMC3    H111097   2.652   0.026  11.201 -0.3630 -0.0365  0.5339
  747TMC3    H211098   2.457   0.012  11.582  0.6469 -0.1032 -0.6699
  747TMC3    C711099   2.674   0.083  11.472 -0.4932  0.1054 -0.7905
  747TMC3    C811100   2.256   4.588  11.482  0.1842  0.5853 -0.0965
  747TMC3    O111101   2.644   0.149  11.571 -0.0786  0.0985  0.0397
  747TMC3    O211102   2.212   4.490  11.420 -0.4042 -0.4833  0.1704
  748MPD2     C11103   3.891   1.111   1.442  0.4696  0.5496  0.4353
  748MPD2    C111104   4.008   1.046   1.417 -0.3353 -0.2694  0.0149
  748MPD2    C211105   4.117   1.123   1.385  0.1284 -0.2285 -0.6012
  748MPD2    C311106   4.106   1.260   1.359  0.2795 -0.2954 -0.3826
  748MPD2    C411107   3.987   1.323   1.399  0.2371  0.5500 -0.2826
  748MPD2    C511108   3.882   1.246   1.436 -0.5750 -0.0611  0.3879
  748MPD2     H11109   4.209   1.067   1.371  0.3583 -0.4007  1.6030
  748MPD2    H111110   3.969   1.430   1.399  0.2510  0.5588  1.4341
  748MPD2    H211111   3.802   1.056   1.467  0.0204  1.6070  1.1665
  748MPD2    H311112   3.788   1.294   1.464  0.2828  2.5390 -1.1697
  748MPD2     N11113   4.225   1.336   1.321  0.5133 -0.2295 -0.3938
  748MPD2    H511114   4.314   1.287   1.311 -0.1832 -1.3194 -1.3350
  748MPD2    N111115   4.020   0.907   1.451 -0.8489  0.3395  0.5197
  748MPD2    H711116   3.937   0.866   1.492 -1.1560  1.5622  1.1073
  749TMC3    C111117   4.349   1.544   1.283  0.9336  0.5513  0.3886
  749TMC3    C211118   4.456   1.477   1.343  1.0480  0.0620  0.0567
  749TMC3    C311119   4.557   1.566   1.372  0.6773  0.0719  0.0140
  749TMC3    C411120   4.357   1.668   1.237 -0.3217 -0.5387 -0.2133
  749TMC3    C511121   4.457   1.748   1.271  0.1255  0.3682  0.5481
  749TMC3    C611122   4.560   1.701   1.345  1.0872  0.3276 -0.1810
  749TMC3     C11123   4.221   1.472   1.281 -0.1593 -0.6161  0.3446
  749TMC3     O11124   4.125   1.540   1.251  0.0424  0.2539 -0.1093
  749TMC3     H11125   4.461   1.374   1.376  0.7870  0.8748  2.6203
  749TMC3    H111126   4.275   1.707   1.177 -2.1235 -0.7484  2.0826
  749TMC3    H211127   4.644   1.762   1.374  1.0944 -0.0573  0.6079
  749TMC3    C711128   4.468   1.883   1.220  0.1731  0.1663  0.0709
  749TMC3    C811129   4.686   1.520   1.423 -0.2386  0.4447 -0.1108
  749TMC3    O111130   4.572   1.940   1.267  0.3839  0.0867 -0.2720
  749TMC3    O211131   0.028   1.604   1.468 -0.2484  0.6171  0.2852
  750MPD2     C11132   3.727   2.194  11.620  0.7353  0.1103  0.1813
  750MPD2    C111133   3.786   2.082  11.666  0.3420 -0.4219 -0.6945
  750MPD2    C211134   3.814   1.986  11.567 -0.1207  0.6282  0.4239
  750MPD2    C311135   3.774   2.000  11.439 -0.3717  0.0668 -0.4520
  750MPD2    C411136   3.696   2.107  11.404  0.3114 -0.2192 -0.3572
  750MPD2    C511137   3.690   2.211  11.490  0.0434  1.0243 -0.4749
  750MPD2     H11138   3.866   1.894  11.589  1.5444  1.0033 -1.9121
  750MPD2    H111139   3.668   2.136  11.304  0.4426 -2.6093 -1.0998
  750MPD2    H211140   3.709   2.279  11.686  0.9351  1.5430 -1.6247
  750MPD2    H311141   3.645   2.305  11.457  0.1300  0.3258 -2.5690
  750MPD2     N11142   3.804   1.906  11.341 -0.0005  0.8029 -0.1605
  750MPD2    H511143   3.762   1.929  11.252 -2.3912 -0.9645  0.5178
  750MPD2    N111144   3.822   2.080  11.804  0.4145 -0.1656 -0.6342
  750MPD2    H711145   3.806   2.173  11.841 -1.4950 -0.2826 -1.1885
  751TMC3    C111146   3.902   1.713  11.224  0.4669  0.0889 -0.6761
  751TMC3    C211147   3.786   1.693  11.166  0.0806 -0.5330 -0.8775
  751TMC3    C311148   3.789   1.613  11.049 -0.3044 -0.2558 -0.4885
  751TMC3    C411149   4.024   1.669  11.174  0.3012 -0.0304  0.0927
  751TMC3    C511150   4.028   1.618  11.044 -0.3512 -0.3827 -0.0668
  751TMC3    C611151   3.907   1.595  10.979 -0.2895  0.1103 -0.3980
  751TMC3     C11152   3.907   1.810  11.340  0.1065  0.2891 -0.0200
  751TMC3     O11153   3.994   1.801  11.419 -1.3812  0.0705  0.4751
  751TMC3     H11154   3.692   1.721  11.212  0.2864  1.2443 -1.5180
  751TMC3    H111155   4.109   1.705  11.230  0.8935  0.2660 -1.0150
  751TMC3    H211156   3.908   1.524  10.897 -0.5930  0.0708 -0.3672
  751TMC3    C711157   4.128   1.511  11.015  0.3116  0.1958  0.5707
  751TMC3    C811158   3.719   1.485  11.068  0.7422 -1.0426  0.5846
  751TMC3    O111159   4.140   1.472  10.900  0.2189 -0.1005  0.2698
  751TMC3    O211160   3.729   1.415  10.967 -0.1999 -0.0745  0.1464
  752TMC3    C111161   3.737   2.928  17.036  0.0286  0.3532 -0.1016
  752TMC3    C211162   3.760   2.800  17.083 -0.1142 -0.8546 -0.7117
  752TMC3    C311163   3.788   2.791  17.213  0.0615  0.8027 -0.5724
  752TMC3    C411164   3.754   3.038  17.109 -0.5157 -0.5344  0.6466
  752TMC3    C511165   3.801   3.029  17.238 -0.4857 -0.4591 -0.4350
  752TMC3    C611166   3.807   2.903  17.290 -0.1968 -0.1105 -0.1473
  752TMC3     C11167   3.690   2.933  16.900 -0.4835  0.1696  0.2611
  752TMC3     O11168   3.714   3.033  16.831  0.3783 -0.2218  0.0056
  752TMC3     H11169   3.754   2.710  17.023 -1.0222 -0.3352 -1.4075
  752TMC3    H111170   3.748   3.135  17.059 -0.1959 -0.7187  0.2503
  752TMC3    H211171   3.834   2.888  17.394  1.1157 -0.6615 -0.5666
  752TMC3    C711172   3.791   3.134  17.335  0.2471 -1.0644 -0.4066
  752TMC3    C811173   3.774   2.661  17.274  0.1812  0.9715 -0.4565
  752TMC3    O111174   3.816   3.106  17.450  0.1101  0.2275 -0.0479
  752TMC3    O211175   3.797   2.570  17.200  0.3919  0.9345  0.2322
  753TMC3    C111176   0.953   2.976  13.456  0.7686 -0.2514  0.0046
  753TMC3    C211177   0.985   2.961  13.588  0.5851 -0.4674  0.4438
  753TMC3    C311178   0.960   2.841  13.652  0.4122 -0.0165  1.4217
  753TMC3    C411179   0.897   2.875  13.381  0.3061  0.1359  0.4127
  753TMC3    C511180   0.868   2.760  13.449  1.0249  0.1744  0.1377
  753TMC3    C611181   0.897   2.743  13.584  0.3939 -0.6540 -0.2117
  753TMC3     C11182   1.008   3.095  13.395 -0.2430 -0.2195 -0.3354
  753TMC3     O11183   1.040   3.186  13.474 -0.7553 -0.2073 -0.0591
  753TMC3     H11184   1.031   3.045  13.638 -2.4505  0.2914  1.9572
  753TMC3    H111185   0.873   2.882  13.276 -0.4345 -1.7458  0.4555
  753TMC3    H211186   0.876   2.648  13.633 -0.7823 -0.9655 -1.2986
  753TMC3    C711187   0.808   2.651  13.367  0.1208 -0.3611  0.2792
  753TMC3    C811188   1.026   2.801  13.775  0.0436 -0.8624 -0.4956
  753TMC3    O111189   0.821   2.661  13.247 -0.2941  0.2493 -0.8588
  753TMC3    O211190   1.040   2.682  13.798  0.3759  0.9139 -0.0143
  754MPD2     C11191   0.020   1.236  13.243  0.0502 -0.4973  0.9167
  754MPD2    C111192   0.030   1.101  13.229 -1.0504 -1.0419 -0.3417
  754MPD2    C211193   4.652   1.026  13.234  0.1559 -0.1503 -0.4636
  754MPD2    C311194   4.522   1.081  13.259  1.4975 -0.6430  0.1498
  754MPD2    C411195   4.517   1.218  13.275 -0.6803 -0.1114  0.1012
  754MPD2    C511196   4.630   1.290  13.267 -0.0330 -0.0016  0.4570
  754MPD2     H11197   4.661   0.919  13.222  1.0618 -0.3466  1.9394
  754MPD2    H111198   4.426   1.274  13.290 -2.7941 -3.4519 -0.3959
  754MPD2    H211199   0.110   1.297  13.240 -0.3715  0.0178 -1.0942
  754MPD2    H311200   4.630   1.397  13.280  0.9288  0.0511  0.0331
  754MPD2     N11201   4.405   1.004  13.272 -0.0545 -0.3240  0.2124
  754MPD2    H511202   4.320   1.051  13.301 -0.1892 -0.8698  0.7045
  754MPD2    N111203   0.161   1.046  13.217 -0.0994 -0.0092 -0.4041
  754MPD2    H711204   0.231   1.110  13.182  0.2191 -1.3017 -2.1599
  755MPD2     C11205   3.684   1.120  13.698 -0.2954 -0.4201 -0.8806
  755MPD2    C111206   3.661   1.100  13.562 -0.1993 -0.3750  0.7431
  755MPD2    C211207   3.755   1.034  13.486  0.3522 -0.7487 -0.2524
  755MPD2    C311208   3.863   0.984  13.542  0.1540  0.1571 -0.5303
  755MPD2    C411209   3.893   1.009  13.672 -0.8779  0.1643 -0.3467
  755MPD2    C511210   3.795   1.060  13.755  0.0926  0.0613  0.5892
  755MPD2     H11211   3.738   1.023  13.379  0.9052  0.9931 -0.5220
  755MPD2    H111212   3.986   0.981  13.718 -2.2738 -0.1537  2.3040
  755MPD2    H211213   3.612   1.160  13.768 -0.8990 -2.9611 -0.0549
  755MPD2    H311214   3.814   1.067  13.861  0.8271  0.5499  0.4270
  755MPD2     N11215   3.965   0.927  13.458 -0.0091  0.1022 -0.3867
  755MPD2    H511216   4.055   0.909  13.500 -0.4025 -0.1412  0.3542
  755MPD2    N111217   3.546   1.155  13.507 -0.0620 -0.0927 -0.3789
  755MPD2    H711218   3.527   1.135  13.409 -0.4047 -0.0336 -0.3255
  756MPD2     C11219   0.015   1.854   9.133  0.1261  0.3637 -0.2414
  756MPD2    C111220   4.707   1.954   9.214  0.4187 -0.2952 -0.2089
  756MPD2    C211221   4.583   2.009   9.190 -0.0271  0.5100 -0.0825
  756MPD2    C311222   4.503   1.969   9.079  0.5834  0.2299  0.0315
  756MPD2    C411223   4.554   1.869   8.995 -0.5445 -0.4928 -0.1865
  756MPD2    C511224   4.679   1.814   9.023 -0.2643  0.2302 -0.4001
  756MPD2     H11225   4.536   2.070   9.266 -1.4977 -0.1249 -0.4874
  756MPD2    H111226   4.491   1.833   8.914  2.8673 -1.7582 -2.2803
  756MPD2    H211227   0.108   1.799   9.147 -0.7919 -1.1986 -0.3096
  756MPD2    H311228   4.731   1.752   8.950  0.8986 -0.0167  0.6465
  756MPD2     N11229   4.377   2.028   9.063  0.2097 -0.2051 -0.2405
  756MPD2    H511230   4.344   2.090   9.136  0.2128  0.0837 -0.4874
  756MPD2    N111231   0.043   2.002   9.323 -0.4801  0.0785  0.0332
  756MPD2    H711232   0.002   2.080   9.373  0.7575  2.7572 -3.1693
  757MPD2     C11233   4.054   2.110   9.784 -1.0910 -0.3085  0.2073
  757MPD2    C111234   3.983   2.012   9.718  0.4523 -0.2068  0.2100
  757MPD2    C211235   3.972   2.028   9.579  0.7911 -0.2991 -0.1569
  757MPD2    C311236   4.018   2.144   9.512 -0.4377  0.1829 -1.1077
  757MPD2    C411237   4.092   2.237   9.581  0.4412  0.4210  0.1262
  757MPD2    C511238   4.116   2.210   9.715 -0.0532  0.0761  0.0762
  757MPD2     H11239   3.919   1.949   9.527  4.1573 -2.6198 -0.0364
  757MPD2    H111240   4.154   2.307   9.527 -0.1086  1.3195  0.6653
  757MPD2    H211241   4.071   2.087   9.889  1.5638 -1.3472 -0.4540
  757MPD2    H311242   4.181   2.280   9.766 -1.8299  2.0544 -0.3858
  757MPD2     N11243   3.997   2.146   9.372 -0.1606  0.3894 -0.4810
  757MPD2    H511244   3.939   2.070   9.337 -0.2839  1.3026 -2.3070
  757MPD2    N111245   3.921   1.908   9.784 -0.4128  0.8215 -0.0141
  757MPD2    H711246   3.944   1.904   9.883  2.5018  2.2222 -0.6435
  758MPD2     C11247   4.496   1.969  15.745  0.4019  0.2937 -0.6943
  758MPD2    C111248   4.532   1.884  15.850 -0.2353 -0.3887 -0.8149
  758MPD2    C211249   4.431   1.854  15.941  0.0372 -0.5027  0.4016
  758MPD2    C311250   4.311   1.920  15.949 -0.6200 -1.1708  0.5527
  758MPD2    C411251   4.274   1.993  15.841  0.0498  0.6228  0.4494
  758MPD2    C511252   4.362   2.007  15.733  0.2684  0.0605  0.2086
  758MPD2     H11253   4.444   1.782  16.021  0.1673  1.0772  1.8042
  758MPD2    H111254   4.170   2.024  15.836 -0.4907 -0.9122  2.2500
  758MPD2    H211255   4.566   1.990  15.666  1.5802  2.2580  0.8657
  758MPD2    H311256   4.325   2.064  15.649 -1.0655  0.4831  1.0837
  758MPD2     N11257   4.235   1.903  16.068 -0.4678 -0.1842  0.3713
  758MPD2    H511258   4.289   1.861  16.143  1.5589  4.8084  1.7217
  758MPD2    N111259   4.663   1.837  15.852 -0.8078 -0.0241 -0.1346
  758MPD2    H711260   4.720   1.853  15.769  0.0063  1.0644  0.6328
  759MPD2     C11261   3.317   3.569   9.917 -0.6524  0.3774  0.3011
  759MPD2    C111262   3.250   3.651  10.006 -0.5267  0.9411 -0.3573
  759MPD2    C211263   3.278   3.782  10.015  0.7130  0.3647  0.3697
  759MPD2    C311264   3.373   3.839   9.931 -0.6897  0.7224 -0.2778
  759MPD2    C411265   3.441   3.763   9.845  0.1677  0.5288  0.0063
  759MPD2    C511266   3.412   3.627   9.847 -0.1639 -1.2243  0.0391
  759MPD2     H11267   3.235   3.841  10.094  0.2475  0.8247 -0.2317
  759MPD2    H111268   3.520   3.798   9.781 -0.6620 -2.7906 -2.8225
  759MPD2    H211269   3.298   3.463   9.926 -0.0000  0.4382  2.3347
  759MPD2    H311270   3.460   3.557   9.779  3.0205  0.9087  0.0893
  759MPD2     N11271   3.395   3.980   9.942 -0.1066 -0.0604 -0.1443
  759MPD2    H511272   3.345   4.028  10.015 -1.0995  2.5922 -2.5518
  759MPD2    N111273   3.158   3.602  10.105 -0.0286 -0.1998  0.1533
  759MPD2    H711274   3.129   3.662  10.181  0.1731  1.5264 -1.1280
  760MPD2     C11275   2.987   1.335  12.097  0.2251  0.4938  0.5339
  760MPD2    C111276   3.113   1.374  12.088 -0.6731  0.3619  0.3617
  760MPD2    C211277   3.219   1.291  12.121  0.1208 -0.1756  0.2741
  760MPD2    C311278   3.190   1.157  12.161 -0.5958  0.8124  0.7176
  760MPD2    C411279   3.063   1.114  12.162 -0.6942 -0.1525  0.7434
  760MPD2    C511280   2.966   1.204  12.129  0.3661 -0.2809 -0.2293
  760MPD2     H11281   3.320   1.328  12.111  0.4953 -0.7552  1.8608
  760MPD2    H111282   3.044   1.013  12.196  2.6943 -0.9400  0.2791
  760MPD2    H211283   2.903   1.403  12.083 -0.1826 -0.3444 -1.0489
  760MPD2    H311284   2.863   1.171  12.130  0.2312  0.1992  1.1148
  760MPD2     N11285   3.290   1.058  12.180  0.1360  0.4228 -0.2436
  760MPD2    H511286   3.258   0.966  12.208 -1.2034  0.5594 -1.3715
  760MPD2    N111287   3.144   1.509  12.053 -0.0312  0.3229  0.8233
  760MPD2    H711288   3.238   1.541  12.070  0.3219  0.9588 -2.3971
  761MPD2     C11289   3.834   1.114  11.405  0.2829 -0.0696  0.4003
  761MPD2    C111290   3.873   1.134  11.274 -0.1476  0.4267 -0.2443
  761MPD2    C211291   3.829   1.245  11.200  0.3572 -0.1163 -0.3191
  761MPD2    C311292   3.751   1.342  11.264 -0.2185  0.2865 -0.2255
  761MPD2    C411293   3.711   1.323  11.392  0.1432  0.1638  0.2984
  761MPD2    C511294   3.754   1.208  11.464 -0.4155  0.5610  0.1724
  761MPD2     H11295   3.862   1.256  11.097 -0.4527  1.9600 -0.3505
  761MPD2    H111296   3.660   1.397  11.452 -0.1874 -0.5151  0.8540
  761MPD2    H211297   3.876   1.030  11.457 -0.6182 -0.7110  0.0946
  761MPD2    H311298   3.740   1.205  11.571  1.8336  1.6401  0.4982
  761MPD2     N11299   3.701   1.457  11.199  0.0860 -0.3595 -1.4078
  761MPD2    H511300   3.665   1.529  11.261 -0.1087 -1.1332 -0.6162
  761MPD2    N111301   3.954   1.028  11.214 -0.4523 -0.2548 -0.3124
  761MPD2    H711302   3.989   0.960  11.281 -1.3344  1.2612  1.7079
  762MPD2     C11303   4.247   0.864  10.507 -0.1057  0.1249  0.1465
  762MPD2    C111304   4.273   0.753  10.583  0.2821  0.4056  0.6517
  762MPD2    C211305   4.342   0.645  10.525  0.1100 -0.5598  0.1761
  762MPD2    C311306   4.394   0.659  10.396 -0.1911 -0.0669  0.0784
  762MPD2    C411307   4.357   0.773  10.321 -0.0179 -0.9288  0.4947
  762MPD2    C511308   4.284   0.871  10.380  0.4714  0.0797 -0.0408
  762MPD2     H11309   4.374   0.560  10.584 -2.6514 -0.3498  1.9830
  762MPD2    H111310   4.380   0.777  10.215 -1.8493  0.9687  0.1597
  762MPD2    H211311   4.200   0.952  10.549 -2.8293 -0.3044 -2.0000
  762MPD2    H311312   4.260   0.964  10.330 -1.2106 -0.3692 -0.0691
  762MPD2     N11313   4.476   0.553  10.339  0.3768  0.0815 -0.1311
  762MPD2    H511314   4.476   0.473  10.401 -0.5804 -0.1770 -0.4636
  762MPD2    N111315   4.231   0.767  10.723  0.2147 -0.0754  0.5813
  762MPD2    H711316   4.193   0.858  10.745  1.8598  1.6474 -3.5721
  763MPD2     C11317   1.545   1.970  16.009  0.1367  0.4492 -0.0882
  763MPD2    C111318   1.414   2.018  16.022  0.2728  0.5135 -0.5253
  763MPD2    C211319   1.401   2.152  16.056 -0.4663  0.0636 -0.2126
  763MPD2    C311320   1.517   2.239  16.073  0.7624 -0.4394 -0.5625
  763MPD2    C411321   1.638   2.178  16.057 -0.3516 -0.4763  0.7043
  763MPD2    C511322   1.651   2.049  16.015 -0.4493  1.1131  0.3865
  763MPD2     H11323   1.306   2.204  16.058 -1.1369 -1.2387  2.3292
  763MPD2    H111324   1.733   2.229  16.066 -1.1233  0.7608  1.8420
  763MPD2    H211325   1.566   1.869  15.975 -3.1016  0.3766 -1.8803
  763MPD2    H311326   1.750   2.008  16.002 -0.5713  0.9224  0.0415
  763MPD2     N11327   1.520   2.375  16.102 -0.0727 -0.0858 -0.2668
  763MPD2    H511328   1.605   2.424  16.075 -0.3774  0.2350 -0.6384
  763MPD2    N111329   1.301   1.942  15.983  0.5481 -0.2636  0.4355
  763MPD2    H711330   1.217   1.996  15.966  1.5576  0.3584 -2.5481
  764MPD2     C11331   4.428   3.493   0.256  0.1015  0.2042 -0.1042
  764MPD2    C111332   4.299   3.539   0.257 -0.0265  0.5919 -0.3157
  764MPD2    C211333   4.225   3.531   0.377  0.2230  0.0363  0.2123
  764MPD2    C311334   4.279   3.462   0.486  0.3007 -0.4840  0.5827
  764MPD2    C411335   4.413   3.416   0.480  0.3977 -0.1233  0.0175
  764MPD2    C511336   4.482   3.432   0.365  0.2461  0.4485  0.2337
  764MPD2     H11337   4.126   3.573   0.377 -0.4746 -1.5899 -1.0486
  764MPD2    H111338   4.469   3.369   0.560 -0.6262 -1.3532  0.0041
  764MPD2    H211339   4.490   3.501   0.168  1.1128 -1.1872  0.4576
  764MPD2    H311340   4.578   3.382   0.354 -0.7226 -1.6054  1.1918
  764MPD2     N11341   4.195   3.437   0.593 -0.2490 -0.3140  0.1182
  764MPD2    H511342   4.108   3.488   0.589  0.3445  0.5925 -1.5506
  764MPD2    N111343   4.245   3.609   0.150 -0.2223  0.1793  0.3944
  764MPD2    H711344   4.144   3.617   0.156 -0.2956  0.6767 -1.4665
  765MPD2     C11345   4.097   1.497  16.090 -0.6288  0.7626  0.5200
  765MPD2    C111346   4.172   1.524  15.982 -0.7199  0.3530 -0.7353
  765MPD2    C211347   4.297   1.467  15.974 -0.5842 -0.1792 -0.4598
  765MPD2    C311348   4.355   1.397  16.076 -0.0935 -0.0085  0.4693
  765MPD2    C411349   4.281   1.382  16.191 -0.4425 -0.0861 -0.5417
  765MPD2    C511350   4.153   1.439  16.194 -0.0620  0.3325 -0.7166
  765MPD2     H11351   4.365   1.484  15.892 -0.6732 -1.0077 -0.7014
  765MPD2    H111352   4.312   1.329  16.281 -1.2217 -0.0879 -0.2774
  765MPD2    H211353   4.006   1.554  16.100 -1.3364 -0.3704  0.5620
  765MPD2    H311354   4.096   1.437  16.286  1.6314 -1.6066  0.2784
  765MPD2     N11355   4.490   1.343  16.059 -0.2994  0.1357  1.2284
  765MPD2    H511356   4.529   1.371  15.970 -0.1657 -2.0163  0.6264
  765MPD2    N111357   4.113   1.589  15.867  0.5362 -0.2278  0.0038
  765MPD2    H711358   4.016   1.617  15.880  0.3704 -0.5753 -0.4930
  766MPD2     C11359   3.714   1.233  15.557 -0.2041  0.1160 -0.2241
  766MPD2    C111360   3.768   1.321  15.467  0.5724  0.4864  0.5471
  766MPD2    C211361   3.788   1.272  15.338 -0.1276  0.4919  0.4986
  766MPD2    C311362   3.766   1.141  15.294  0.5440  0.1379 -0.4487
  766MPD2    C411363   3.721   1.057  15.391  0.0287 -0.1511  0.4556
  766MPD2    C511364   3.686   1.106  15.514 -0.4521  0.1478 -0.0978
  766MPD2     H11365   3.828   1.339  15.263  0.8901 -2.3324 -1.4810
  766MPD2    H111366   3.692   0.957  15.362  0.7132 -0.1765 -0.1246
  766MPD2    H211367   3.680   1.252  15.659 -3.3824 -0.8525 -1.0867
  766MPD2    H311368   3.638   1.040  15.585  0.9452 -0.4445  0.2941
  766MPD2     N11369   3.805   1.083  15.167  0.1813 -0.8143  0.9654
  766MPD2    H511370   3.809   0.982  15.153  0.2677 -1.0497  2.6764
  766MPD2    N111371   3.794   1.448  15.514  0.5831 -0.0671  0.2441
  766MPD2    H711372   3.777   1.457  15.614  0.4323  2.0429  0.0379
  767MPD2     C11373   3.504   1.846  14.519  0.3349 -0.0066 -0.3391
  767MPD2    C111374   3.569   1.762  14.606 -0.2684  0.5130  0.0630
  767MPD2    C211375   3.553   1.624  14.599 -0.5939 -0.1707 -0.6769
  767MPD2    C311376   3.478   1.569  14.503 -0.1165 -0.2899 -0.7599
  767MPD2    C411377   3.409   1.652  14.416  0.3465 -0.3373 -0.3396
  767MPD2    C511378   3.427   1.789  14.423  0.2670  0.1790  0.1907
  767MPD2     H11379   3.615   1.574  14.673 -0.1094  0.6333 -0.5336
  767MPD2    H111380   3.331   1.623  14.346  0.3964 -1.2554 -0.0140
  767MPD2    H211381   3.508   1.954  14.511  0.1605  0.0630  0.4760
  767MPD2    H311382   3.385   1.857  14.350  2.0721 -0.8530 -1.7971
  767MPD2     N11383   3.462   1.431  14.501  0.3916 -0.1208 -0.2528
  767MPD2    H511384   3.496   1.389  14.587 -0.4199 -1.2793 -0.5026
  767MPD2    N111385   3.668   1.804  14.698 -0.0967 -0.0252  0.2202
  767MPD2    H711386   3.711   1.727  14.749  0.3212 -1.5965 -2.5184
  768MPD2     C11387   4.259   4.083  10.318  0.1094 -0.1983  0.4584
  768MPD2    C111388   4.217   4.009  10.425 -0.2444  0.1946  0.2057
  768MPD2    C211389   4.319   3.942  10.500 -0.2056 -0.2268  0.0464
  768MPD2    C311390   4.455   3.961  10.473  0.8838  0.2273  0.3168
  768MPD2    C411391   4.483   4.034  10.366 -0.1524 -0.2351 -0.5232
  768MPD2    C511392   4.388   4.089  10.286 -0.0351 -0.4505 -0.2572
  768MPD2     H11393   4.285   3.884  10.585 -1.3802  1.6689  0.8657
  768MPD2    H111394   4.586   4.053  10.341  0.3845 -2.0430  0.3029
  768MPD2    H211395   4.190   4.132  10.250 -0.1541 -1.6239 -0.2872
  768MPD2    H311396   4.412   4.144  10.196 -0.9763  1.8947  0.9339
  768MPD2     N11397   4.550   3.907  10.564 -0.3311  0.3629 -0.2460
  768MPD2    H511398   4.644   3.941  10.548  0.7533 -3.8828 -2.8811
  768MPD2    N111399   4.083   3.992  10.471  0.0627  0.1592  0.1106
  768MPD2    H711400   4.067   3.919  10.539  1.1043 -0.1784 -0.0097
  769MPD2     C11401   1.045   2.605  14.831 -0.5363  0.0249  0.3420
  769MPD2    C111402   0.914   2.593  14.873  0.1343  0.7451  0.5607
  769MPD2    C211403   0.882   2.641  15.003 -0.1896 -1.1157 -0.0155
  769MPD2    C311404   0.970   2.716  15.080  0.0934  0.4826 -0.2985
  769MPD2    C411405   1.100   2.713  15.041  0.7401  0.7049 -0.2513
  769MPD2    C511406   1.136   2.664  14.916  0.0700 -0.5898 -0.2218
  769MPD2     H11407   0.778   2.628  15.032 -0.1220  1.7182  1.5063
  769MPD2    H111408   1.184   2.754  15.097  2.2204 -1.8439 -0.6493
  769MPD2    H211409   1.077   2.583  14.730  1.5923  0.5082  0.8913
  769MPD2    H311410   1.234   2.692  14.879 -0.4272 -2.1971 -2.7559
  769MPD2     N11411   0.934   2.777  15.200 -0.6942  0.2349  0.3852
  769MPD2    H511412   1.005   2.828  15.250 -1.4331 -0.3020  1.9956
  769MPD2    N111413   0.818   2.533  14.788  0.0117 -0.2575  0.2616
  769MPD2    H711414   0.850   2.491  14.702 -0.2172  1.0910 -0.4679
  770MPD2     C11415   0.006   2.147  14.538  0.1486  0.3882  0.4178
  770MPD2    C111416   0.090   2.184  14.642  0.3730 -0.8610 -0.2657
  770MPD2    C211417   0.156   2.304  14.631 -0.0391 -0.0511 -0.6595
  770MPD2    C311418   0.128   2.400  14.524 -0.9710 -0.0175  0.5264
  770MPD2    C411419   0.031   2.366  14.439  0.1108  0.0335 -0.2426
  770MPD2    C511420   4.715   2.239  14.436 -0.8201 -0.5950 -0.3165
  770MPD2     H11421   0.219   2.335  14.714 -0.6754  1.1390 -0.6198
  770MPD2    H111422   4.727   2.435  14.365 -1.2621 -0.5644 -0.0565
  770MPD2    H211423   4.691   2.051  14.536  1.2337 -0.2555  3.2617
  770MPD2    H311424   4.642   2.211  14.361 -1.7757  1.6470 -0.2291
  770MPD2     N11425   0.191   2.521  14.497 -0.3362  0.1320  0.0075
  770MPD2    H511426   0.136   2.580  14.436 -1.4072 -0.5971  0.2749
  770MPD2    N111427   0.118   2.082  14.736  0.8284  0.4739  0.4398
  770MPD2    H711428   0.080   1.991  14.711 -1.0440  1.0404  1.2265
  771MPD2     C11429   1.395   0.086  13.440 -0.7662 -0.4486  0.3240
  771MPD2    C111430   1.303   0.185  13.410  0.1914 -0.0422  0.2673
  771MPD2    C211431   1.179   0.149  13.349 -0.7067 -0.1177 -0.1662
  771MPD2    C311432   1.158   0.015  13.315  0.5643  0.1174 -0.0376
  771MPD2    C411433   1.249   4.652  13.354 -0.2912  0.4912  0.2621
  771MPD2    C511434   1.365   4.690  13.415  0.9219 -0.3854  0.0116
  771MPD2     H11435   1.107   0.228  13.333 -1.0996 -0.9502 -2.5408
  771MPD2    H111436   1.234   4.546  13.336 -0.9387  0.7701 -0.8456
  771MPD2    H211437   1.486   0.099  13.497 -0.2313 -1.7749 -0.2368
  771MPD2    H311438   1.444   4.619  13.438 -0.1116 -1.5353 -0.0012
  771MPD2     N11439   1.044   4.727  13.243 -0.4763  0.4886  0.0579
  771MPD2    H511440   0.996   0.073  13.209 -0.6611  0.7162  0.8722
  771MPD2    N111441   1.324   0.326  13.435  0.1624  0.8956 -0.2361
  771MPD2    H711442   1.258   0.391  13.395 -0.9413 -0.1676 -0.1341
  772MPD2     C11443   1.018   0.996  13.646  0.1659  0.5168 -0.0177
  772MPD2    C111444   1.018   0.862  13.687  0.3644  0.1503  0.0145
  772MPD2    C211445   0.914   0.806  13.756 -0.0707  0.5135 -0.0198
  772MPD2    C311446   0.803   0.881  13.781  0.1734  0.1480  0.6710
  772MPD2    C411447   0.802   1.013  13.750 -0.1976 -0.7346  0.3930
  772MPD2    C511448   0.906   1.069  13.679  1.2870 -1.3298  0.9955
  772MPD2     H11449   0.913   0.699  13.777 -1.5075  0.5933  0.2971
  772MPD2    H111450   0.713   1.074  13.762  0.8022  0.8198 -0.1050
  772MPD2    H211451   1.102   1.040  13.594  0.8652 -1.2789 -0.4335
  772MPD2    H311452   0.910   1.175  13.657  0.2100 -1.4126  0.4066
  772MPD2     N11453   0.688   0.833  13.838  0.0427 -0.3814  0.0612
  772MPD2    H511454   0.618   0.905  13.849  1.5151  0.7315  2.0942
  772MPD2    N111455   1.133   0.782  13.647  0.9891  0.1578  0.2631
  772MPD2    H711456   1.159   0.691  13.684  0.4874  0.8594  2.2874
  773MPD2     C11457   0.278   2.026   0.292 -0.2668 -0.4728  0.0187
  773MPD2    C111458   0.183   1.943   0.254 -0.4241 -0.1888 -0.0499
  773MPD2    C211459   0.188   1.808   0.274  1.0092  0.3638  0.7442
  773MPD2    C311460   0.289   1.754   0.337  0.0202  0.5611 -0.5624
  773MPD2    C411461   0.368   1.843   0.411 -0.3081  0.6379 -0.8386
  773MPD2    C511462   0.362   1.975   0.386 -0.2261 -0.3442 -0.0710
  773MPD2     H11463   0.109   1.743   0.238  2.1026 -0.3746 -0.3205
  773MPD2    H111464   0.447   1.809   0.477 -1.4889 -0.6782 -0.1201
  773MPD2    H211465   0.266   2.133   0.296 -0.9160 -0.4461 -3.2892
  773MPD2    H311466   0.414   2.045   0.451 -0.6516  1.1183 -1.2903
  773MPD2     N11467   0.301   1.615   0.332 -0.2477  0.1900 -0.3080
  773MPD2    H511468   0.236   1.560   0.278  0.0892  0.8745 -1.4004
  773MPD2    N111469   0.071   1.989   0.181  0.5446  0.4898 -0.3102
  773MPD2    H711470   0.000   1.921   0.156  0.4331 -0.0588  1.5131
  774MPD2     C11471   4.189   0.419  13.473  0.5830 -0.2897 -0.0786
  774MPD2    C111472   4.207   0.539  13.540 -0.4077  0.2734  0.0697
  774MPD2    C211473   4.335   0.601  13.543 -0.0256 -0.6317  0.1849
  774MPD2    C311474   4.440   0.541  13.475  0.2526 -0.9747 -0.5370
  774MPD2    C411475   4.425   0.425  13.404 -0.8366  0.1950  0.1936
  774MPD2    C511476   4.301   0.372  13.402 -0.6617 -0.2962  0.1991
  774MPD2     H11477   4.353   0.690  13.601 -3.3860  0.3509 -0.3215
  774MPD2    H111478   4.504   0.375  13.350  1.1535  2.3912  1.0943
  774MPD2    H211479   4.090   0.378  13.458  1.2154 -2.1599  0.9906
  774MPD2    H311480   4.285   0.280  13.347  0.9416 -0.3745 -0.1257
  774MPD2     N11481   4.562   0.599  13.492 -0.0162 -0.2845  0.0450
  774MPD2    H511482   4.563   0.688  13.541 -1.4119  0.5067 -1.3664
  774MPD2    N111483   4.096   0.595  13.615  0.4406 -0.0947 -0.1917
  774MPD2    H711484   4.020   0.532  13.637  1.0792 -0.8899 -0.2500
  775MPD2     C11485   0.659   2.516  15.804 -1.2403  0.2943 -0.5785
  775MPD2    C111486   0.728   2.599  15.893  0.3896  0.3589 -0.6572
  775MPD2    C211487   0.844   2.666  15.851 -0.2930 -0.4344 -0.1628
  775MPD2    C311488   0.911   2.621  15.741  0.4333  0.6088 -0.2812
  775MPD2    C411489   0.860   2.514  15.671  0.2649  0.0553  0.6592
  775MPD2    C511490   0.738   2.467  15.700 -0.3271  0.0656  0.4397
  775MPD2     H11491   0.874   2.749  15.914 -0.5923 -0.4853  0.0517
  775MPD2    H111492   0.903   2.487  15.575 -1.4801  0.5058 -0.2423
  775MPD2    H211493   0.560   2.472  15.810 -0.9483  0.0556  2.4696
  775MPD2    H311494   0.695   2.406  15.621 -0.8310  0.1523  0.6476
  775MPD2     N11495   1.023   2.683  15.681 -0.2710  0.1518 -0.0146
  775MPD2    H511496   1.067   2.624  15.611  0.8399  1.0656 -0.1026
  775MPD2    N111497   0.654   2.622  16.016 -0.7939 -0.4251 -0.1932
  775MPD2    H711498   0.562   2.582  16.036 -1.6848  1.7774  0.1716
  776MPD2     C11499   4.571   2.322  12.060  0.7264  0.1156  0.2642
  776MPD2    C111500   4.444   2.340  12.013  0.7950 -0.0375 -0.5193
  776MPD2    C211501   4.416   2.449  11.930 -0.2251 -0.2282  0.0013
  776MPD2    C311502   4.516   2.544  11.903  0.3824 -0.4033  0.3160
  776MPD2    C411503   4.642   2.526  11.960 -0.3088 -0.0801 -0.4824
  776MPD2    C511504   4.676   2.414  12.037  0.2682 -0.0960 -0.4191
  776MPD2     H11505   4.325   2.447  11.871 -0.5427  2.7230  0.4033
  776MPD2    H111506   4.716   2.598  11.927 -1.4680  1.0307 -0.6443
  776MPD2    H211507   4.589   2.244  12.134 -2.0731 -0.2369  0.5643
  776MPD2    H311508   0.036   2.406  12.087 -1.4209 -1.7309  2.5809
  776MPD2     N11509   4.502   2.639  11.806  0.5406 -0.6468  0.1238
  776MPD2    H511510   4.588   2.683  11.772  1.4974 -0.7330  2.4180
  776MPD2    N111511   4.349   2.242  12.056 -0.3816 -0.3649  0.4736
  776MPD2    H711512   4.388   2.156  12.093  1.7150  1.0799  1.6066
  777MPD2     C11513   4.566   0.620   0.790  0.2661  0.0390 -0.4636
  777MPD2    C111514   4.643   0.524   0.848  0.7678  0.7587 -0.0391
  777MPD2    C211515   4.647   0.400   0.796  0.3119  0.8202 -1.4369
  777MPD2    C311516   4.585   0.364   0.681  0.0289  0.2340  0.3123
  777MPD2    C411517   4.507   0.460   0.619  0.3129  0.1348 -0.9488
  777MPD2    C511518   4.503   0.584   0.674 -0.7366 -0.3643  0.4296
  777MPD2     H11519   4.699   0.331   0.862 -0.3306  1.2953 -0.4425
  777MPD2    H111520   4.459   0.447   0.523 -0.6303 -3.3346 -0.0220
  777MPD2    H211521   4.547   0.722   0.820 -0.6271  0.0733 -1.1105
  777MPD2    H311522   4.438   0.660   0.630  1.2772  1.4711  0.6523
  777MPD2     N11523   4.593   0.230   0.650  0.8028  0.4054 -0.2507
  777MPD2    H511524   4.623   0.168   0.724  0.0737 -0.1630 -0.4338
  777MPD2    N111525   4.721   0.572   0.959 -0.2898  0.1079 -0.3940
  777MPD2    H711526   4.696   0.665   0.990  1.2771 -0.6349  3.1175
  778MPD2     C11527   1.428   0.838  14.765 -0.1413  0.0059 -0.2405
  778MPD2    C111528   1.459   0.707  14.730  0.1217 -0.4217 -0.2056
  778MPD2    C211529   1.527   0.695  14.608  0.3680 -0.3965  0.9415
  778MPD2    C311530   1.558   0.804  14.537 -0.4497 -0.1312  0.2192
  778MPD2    C411531   1.547   0.929  14.595 -0.0268 -0.1764  0.1518
  778MPD2    C511532   1.485   0.941  14.709 -0.1599 -0.7903  0.5192
  778MPD2     H11533   1.550   0.595  14.576 -0.2963 -0.4179  0.5313
  778MPD2    H111534   1.605   1.012  14.556 -1.8515  0.4838 -1.1415
  778MPD2    H211535   1.371   0.855  14.856 -1.8322 -0.6167 -1.1943
  778MPD2    H311536   1.473   1.038  14.757  0.4479 -0.0967 -0.7452
  778MPD2     N11537   1.612   0.780  14.412 -0.5320  0.1614  0.3976
  778MPD2    H511538   1.642   0.684  14.400  0.4861  0.8447 -2.3636
  778MPD2    N111539   1.412   0.588  14.791 -0.2312  0.5621  0.0661
  778MPD2    H711540   1.458   0.501  14.767  1.8672  1.9976 -1.0644
  779MPD2     C11541   1.056   3.943  14.486 -0.1192 -0.2061 -0.6064
  779MPD2    C111542   1.194   3.933  14.456 -0.7794 -0.0063 -0.8709
  779MPD2    C211543   1.267   4.048  14.440 -0.1553 -0.1578 -0.0110
  779MPD2    C311544   1.206   4.168  14.448 -0.3747  0.3640 -0.5119
  779MPD2    C411545   1.075   4.176  14.485 -0.5103 -0.2548 -0.1585
  779MPD2    C511546   1.006   4.068  14.512  0.0537  0.1044 -0.3047
  779MPD2     H11547   1.375   4.054  14.427 -0.1359 -1.7092 -0.5340
  779MPD2    H111548   1.018   4.268  14.489 -0.8742 -0.4341 -1.2057
  779MPD2    H211549   0.993   3.856  14.505  0.4267  0.0133  2.1805
  779MPD2    H311550   0.900   4.083  14.533 -0.5003  0.4966 -3.4832
  779MPD2     N11551   1.287   4.278  14.415  0.3001 -0.0930 -0.3133
  779MPD2    H511552   1.383   4.259  14.387 -0.1609 -0.4748 -1.6205
  779MPD2    N111553   1.259   3.810  14.437  0.5368  0.7349 -0.4762
  779MPD2    H711554   1.357   3.809  14.410  0.8915 -0.1561  0.8164
  780MPD2     C11555   1.432   4.056   0.926  0.5541  0.0916 -0.3870
  780MPD2    C111556   1.295   4.041   0.920  0.1417  0.1627  0.1473
  780MPD2    C211557   1.231   4.106   0.816 -0.6269 -0.3799  0.0821
  780MPD2    C311558   1.297   4.171   0.721 -0.2017 -0.4796 -0.3384
  780MPD2    C411559   1.432   4.186   0.723 -0.0514 -0.5920 -1.0072
  780MPD2    C511560   1.502   4.125   0.830 -0.0189 -0.3590  0.3817
  780MPD2     H11561   1.124   4.097   0.826 -0.4339 -1.6631  0.9438
  780MPD2    H111562   1.495   4.245   0.657 -0.3094  0.4816 -0.3062
  780MPD2    H211563   1.492   4.009   1.004 -2.1761 -2.0623  0.4367
  780MPD2    H311564   1.611   4.131   0.831 -0.0195 -0.5450  1.7578
  780MPD2     N11565   1.215   4.237   0.627  0.0655  0.1537 -0.0972
  780MPD2    H511566   1.117   4.223   0.650  0.1661  0.8630  0.7559
  780MPD2    N111567   1.222   3.973   1.017 -0.1580  0.2767 -0.6041
  780MPD2    H711568   1.122   3.976   1.004 -0.2461 -0.0613  0.0459
  781MPD2     C11569   2.331   0.638  11.864 -0.1638 -0.1425  0.4196
  781MPD2    C111570   2.389   0.690  11.981 -0.2342  0.1417 -0.2204
  781MPD2    C211571   2.508   0.642  12.027 -0.0566 -0.3397 -0.8421
  781MPD2    C311572   2.579   0.553  11.953 -0.0894  0.0980  0.1921
  781MPD2    C411573   2.530   0.504  11.831  0.2765  0.7209 -0.7100
  781MPD2    C511574   2.409   0.557  11.786 -0.0310  0.3669  0.0255
  781MPD2     H11575   2.542   0.675  12.124 -1.0972 -0.3555 -0.4631
  781MPD2    H111576   2.581   0.423  11.781 -1.1293  0.1514 -1.2392
  781MPD2    H211577   2.242   0.671  11.812  1.3878  0.0981 -2.0619
  781MPD2    H311578   2.369   0.506  11.699  0.3189 -0.6378  0.4428
  781MPD2     N11579   2.708   0.499  11.992  0.5357 -0.3688 -0.3327
  781MPD2    H511580   2.730   0.415  11.939  3.5719 -0.6046  1.2853
  781MPD2    N111581   2.318   0.783  12.069  0.1251 -0.3350 -0.1663
  781MPD2    H711582   2.360   0.791  12.161 -0.1733  0.2923 -0.0808
  782MPD2     C11583   4.505   1.052  10.091  0.8099 -0.6291 -0.6347
  782MPD2    C111584   4.574   1.085  10.208  0.2722  0.9285 -0.7262
  782MPD2    C211585   4.656   1.197  10.202  0.1682  0.1807 -0.1156
  782MPD2    C311586   4.667   1.284  10.098 -0.7674 -1.0134 -0.5708
  782MPD2    C411587   4.608   1.244   9.979  0.4018 -0.9310 -0.5774
  782MPD2    C511588   4.524   1.133   9.976 -0.4176  0.2074  0.0010
  782MPD2     H11589   4.708   1.222  10.294 -1.5749  1.7787  0.4454
  782MPD2    H111590   4.622   1.303   9.889  0.9374 -1.2890 -0.7280
  782MPD2    H211591   4.438   0.967  10.082 -0.3597  0.4381 -2.0909
  782MPD2    H311592   4.468   1.110   9.886 -2.0090  0.1185  1.0295
  782MPD2     N11593   0.029   1.385  10.115 -0.4726  0.8230  0.2825
  782MPD2    H511594   0.063   1.386  10.211 -2.9774 -0.3982  1.1894
  782MPD2    N111595   4.562   1.011  10.330  0.2943  0.4083  0.1450
  782MPD2    H711596   4.519   0.920  10.314 -1.6090  1.4438 -0.6500
  783MPD2     C11597   4.262   1.273  11.263 -0.4801  0.1831 -0.5315
  783MPD2    C111598   4.244   1.338  11.139 -0.4396 -0.2863  0.0227
  783MPD2    C211599   4.301   1.273  11.027 -0.4396  0.3495 -0.4513
  783MPD2    C311600   4.363   1.144  11.035  0.0736 -0.0028 -0.3293
  783MPD2    C411601   4.373   1.086  11.163 -0.0592  0.0264  0.3821
  783MPD2    C511602   4.322   1.151  11.271 -0.1373 -0.2784 -0.2832
  783MPD2     H11603   4.312   1.329  10.935 -0.5205 -1.1800 -1.4022
  783MPD2    H111604   4.407   0.986  11.186 -2.9820 -0.3875  2.9022
  783MPD2    H211605   4.220   1.317  11.353  3.9047 -0.8192  2.0213
  783MPD2    H311606   4.328   1.101  11.367 -1.9375 -2.0316 -1.0839
  783MPD2     N11607   4.410   1.082  10.916  0.3945 -0.2400 -0.5184
  783MPD2    H511608   4.403   1.136  10.830 -0.9393 -0.3254 -0.4530
  783MPD2    N111609   4.172   1.457  11.132  0.6117  0.0133 -0.2956
  783MPD2    H711610   4.125   1.488  11.217  1.0616  2.2418 -0.8551
  784MPD2     C11611   3.007   2.050   0.410 -0.3843  0.2756 -0.2178
  784MPD2    C111612   2.975   2.121   0.521  0.2620  0.3570  0.5044
  784MPD2    C211613   2.862   2.197   0.528  0.3121 -0.2051  0.1838
  784MPD2    C311614   2.777   2.203   0.424  0.7926 -0.5159  0.0456
  784MPD2    C411615   2.808   2.119   0.315  0.4135 -0.2360  0.7664
  784MPD2    C511616   2.925   2.052   0.300  0.3865  0.5554 -0.5499
  784MPD2     H11617   2.845   2.258   0.617 -0.3427 -0.0906 -0.0248
  784MPD2    H111618   2.751   2.125   0.223  3.0551  0.0068 -0.8752
  784MPD2    H211619   3.100   1.995   0.400 -0.2092  0.7727 -1.3985
  784MPD2    H311620   2.947   2.000   0.208  0.8688  1.0111 -0.6911
  784MPD2     N11621   2.676   2.300   0.428 -0.1223  0.1233 -0.5476
  784MPD2    H511622   2.669   2.365   0.505  2.9276  1.3004 -1.2477
  784MPD2    N111623   3.060   2.112   0.636 -0.4170 -0.5086 -0.5637
  784MPD2    H711624   3.031   2.163   0.719  0.4773  0.3913 -0.8067
  785MPD2     C11625   3.555   0.144  10.755 -0.6104 -0.2827  0.1033
  785MPD2    C111626   3.476   0.160  10.864 -0.2173 -0.2197  0.0293
  785MPD2    C211627   3.367   0.082  10.880 -0.5975 -0.3335 -0.3998
  785MPD2    C311628   3.339   4.723  10.785 -0.1982  0.2158  0.9196
  785MPD2    C411629   3.422   4.697  10.680 -0.0491  0.7151 -0.0833
  785MPD2    C511630   3.535   0.040  10.666 -0.0970  0.5137  0.2031
  785MPD2     H11631   3.312   0.085  10.974 -0.1196  0.0300 -0.1284
  785MPD2    H111632   3.398   4.624  10.603 -2.3089  1.6211 -0.2260
  785MPD2    H211633   3.637   0.209  10.729 -2.6065  2.0552 -0.3637
  785MPD2    H311634   3.604   0.049  10.583  0.3019  0.7318  0.5623
  785MPD2     N11635   3.213   4.657  10.797 -0.0226 -0.2165 -0.2598
  785MPD2    H511636   3.160   4.676  10.881  3.8597  1.2327  1.8522
  785MPD2    N111637   3.493   0.268  10.951 -0.4256  0.2544 -0.3624
  785MPD2    H711638   3.421   0.275  11.023  0.4742 -0.8360  0.6395
  786MPD2     C11639   1.545   3.202  14.669 -0.4020 -0.2408  0.4343
  786MPD2    C111640   1.677   3.174  14.634  0.1905  0.0330 -0.4520
  786MPD2    C211641   1.784   3.207  14.716 -0.1842 -0.2868 -0.5889
  786MPD2    C311642   1.757   3.268  14.839 -0.6231 -0.3983  0.1731
  786MPD2    C411643   1.629   3.292  14.874  0.1438  0.0210  0.1425
  786MPD2    C511644   1.520   3.260  14.795 -0.1197 -0.4895 -0.1697
  786MPD2     H11645   1.885   3.195  14.679  0.5244  1.0853  0.9445
  786MPD2    H111646   1.611   3.335  14.972  1.6409  2.3442 -0.6026
  786MPD2    H211647   1.460   3.191  14.602 -1.0076 -0.0924  1.1695
  786MPD2    H311648   1.416   3.282  14.812  0.1327  0.2702  0.3452
  786MPD2     N11649   1.857   3.319  14.929 -0.0329 -0.4675 -0.0359
  786MPD2    H511650   1.813   3.356  15.013  1.9207  0.8630  0.3885
  786MPD2    N111651   1.712   3.124  14.506  0.8685 -0.2143  0.3220
  786MPD2    H711652   1.809   3.126  14.474  0.4583 -0.5869 -0.9401
  787MPD2     C11653   2.239   2.918  14.559 -0.2489 -0.3519 -0.0011
  787MPD2    C111654   2.179   2.845  14.455  0.3683 -1.0238  0.3350
  787MPD2    C211655   2.203   2.711  14.450  0.0752  0.7349 -0.3094
  787MPD2    C311656   2.296   2.657  14.537  0.1048  0.6009  0.1697
  787MPD2    C411657   2.371   2.728  14.628  0.1236 -0.6804 -0.8662
  787MPD2    C511658   2.348   2.864  14.629 -0.6294  0.0046  0.5297
  787MPD2     H11659   2.183   2.646  14.366 -0.7679  0.6348 -0.0272
  787MPD2    H111660   2.448   2.685  14.690 -0.7111  3.2395  2.8920
  787MPD2    H211661   2.211   3.022  14.575  1.9206 -0.0476  1.8029
  787MPD2    H311662   2.399   2.916  14.709  2.6664  0.9055 -2.1892
  787MPD2     N11663   2.311   2.518  14.514  0.5919  0.0524 -0.0933
  787MPD2    H511664   2.246   2.486  14.443 -0.7162 -1.5189  1.8198
  787MPD2    N111665   2.081   2.903  14.373  0.1746 -0.2997  0.0621
  787MPD2    H711666   2.063   3.003  14.383  2.8538  0.0406  1.3312
  788MPD2     C11667   3.762   1.828   1.223 -0.2563  0.2399  0.0170
  788MPD2    C111668   3.689   1.776   1.116 -0.3167  0.1790 -0.0473
  788MPD2    C211669   3.659   1.862   1.007 -0.5571  0.9734 -0.2767
  788MPD2    C311670   3.699   1.995   1.004  0.0318 -0.5656  0.0659
  788MPD2    C411671   3.772   2.035   1.115  0.0220  0.0651 -1.0404
  788MPD2    C511672   3.807   1.955   1.223 -0.0589  0.5511 -0.0507
  788MPD2     H11673   3.615   1.821   0.917  0.2137 -1.2495  0.3637
  788MPD2    H111674   3.815   2.135   1.110 -0.0056  0.0490 -1.6336
  788MPD2    H211675   3.794   1.765   1.305  1.1723  4.7632  2.9280
  788MPD2    H311676   3.863   1.988   1.310  0.3619  0.9806 -0.4871
  788MPD2     N11677   3.677   2.089   0.897 -0.7071  0.4342  0.0856
  788MPD2    H511678   3.731   2.175   0.904 -0.8507  0.5381 -0.0775
  788MPD2    N111679   3.636   1.651   1.110  0.1610  0.2445 -0.9322
  788MPD2    H711680   3.598   1.616   1.022  0.6745  2.0551 -1.8735
  789MPD2     C11681   4.256   1.692  17.031  0.5815  0.3487 -0.1056
  789MPD2    C111682   4.147   1.643  16.963  0.4193 -0.5940 -0.6879
  789MPD2    C211683   4.056   1.736  16.911  0.0335  0.2837 -0.0672
  789MPD2    C311684   4.075   1.872  16.922  0.1413 -0.5865 -0.0388
  789MPD2    C411685   4.186   1.919  16.987  0.2634  0.3969 -0.0588
  789MPD2    C511686   4.271   1.826  17.050  0.0550  0.0587  0.2309
  789MPD2     H11687   3.966   1.701  16.862 -0.2288 -0.7245  1.1355
  789MPD2    H111688   4.194   2.026  16.996  1.7481  0.3669 -0.9471
  789MPD2    H211689   4.327   1.631  17.086  2.5396  1.9236 -0.8836
  789MPD2    H311690   4.361   1.860  17.100 -0.3200 -0.2417  1.1036
  789MPD2     N11691   3.982   1.971  16.879 -0.4643 -0.4706 -0.5404
  789MPD2    H511692   3.992   2.061  16.924  0.0893 -0.5523 -0.4966
  789MPD2    N111693   4.115   1.509  16.945  0.3197  0.2583  0.2532
  789MPD2    H711694   4.028   1.483  16.899  1.0215  0.7864 -1.3733
  790MPD2     C11695   0.256   3.102  13.102  0.3279 -0.0289  0.1930
  790MPD2    C111696   0.304   3.017  13.192  0.4234  0.0298  0.3623
  790MPD2    C211697   0.256   2.883  13.197 -0.2485 -0.4463 -0.0066
  790MPD2    C311698   0.155   2.846  13.117  0.0049 -0.3638 -0.6719
  790MPD2    C411699   0.098   2.943  13.033  0.0325  0.1914 -0.0865
  790MPD2    C511700   0.153   3.067  13.017  0.1589  0.0008 -0.7682
  790MPD2     H11701   0.291   2.812  13.271 -1.4449 -0.2577  0.7346
  790MPD2    H111702   0.011   2.919  12.973  0.4648 -0.1183 -0.5743
  790MPD2    H211703   0.293   3.203  13.091 -1.4870  0.8288  2.0321
  790MPD2    H311704   0.109   3.133  12.943  1.1334  0.8904 -0.5635
  790MPD2     N11705   0.116   2.710  13.118  0.2166 -0.0969 -0.5439
  790MPD2    H511706   0.167   2.656  13.187 -1.1181 -0.4852  0.1388
  790MPD2    N111707   0.398   3.065  13.289  0.0654  0.0498 -0.2954
  790MPD2    H711708   0.405   3.166  13.293 -0.7531  0.0646  0.6405
  791MPD2     C11709   4.199   2.428  12.789 -0.1570  0.8462  0.0022
  791MPD2    C111710   4.279   2.326  12.833  0.6208  0.2588  0.2044
  791MPD2    C211711   4.224   2.193  12.816 -0.2035  0.0049  0.7568
  791MPD2    C311712   4.087   2.174  12.811 -1.0548 -0.2767 -0.0507
  791MPD2    C411713   4.004   2.288  12.797  0.0337  0.9640  0.4149
  791MPD2    C511714   4.066   2.405  12.770 -0.1132  0.3129  0.7970
  791MPD2     H11715   4.304   2.119  12.817  1.9317  2.2175 -2.6026
  791MPD2    H111716   3.896   2.287  12.793  0.0773  0.6235 -0.8408
  791MPD2    H211717   4.232   2.532  12.791 -0.0165  0.7814  0.8694
  791MPD2    H311718   4.015   2.495  12.738 -0.1949  0.4395  1.2785
  791MPD2     N11719   4.046   2.040  12.801 -0.0268  0.2539 -0.3188
  791MPD2    H511720   4.116   1.975  12.767 -0.1767  0.1035 -0.3432
  791MPD2    N111721   4.412   2.354  12.853  0.5947  0.1558  0.0678
  791MPD2    H711722   4.445   2.448  12.831  0.6329 -0.1377 -1.1132
  792MPD2     C11723   0.530   2.470  11.356  0.5411 -0.0855  0.5545
  792MPD2    C111724   0.489   2.541  11.246  0.1752  0.4339  0.5346
  792MPD2    C211725   0.407   2.483  11.156  0.3771  0.7647 -0.7901
  792MPD2    C311726   0.370   2.350  11.161  0.0885 -0.4006  0.0716
  792MPD2    C411727   0.404   2.279  11.281 -0.1055 -0.4622  0.2005
  792MPD2    C511728   0.486   2.336  11.375  0.5046 -0.1456  0.1564
  792MPD2     H11729   0.387   2.539  11.066 -0.9607 -0.0488 -0.9993
  792MPD2    H111730   0.381   2.175  11.302 -3.4116 -0.1262 -1.8330
  792MPD2    H211731   0.590   2.522  11.430  2.1241  1.5816 -1.9398
  792MPD2    H311732   0.520   2.287  11.466  1.3881  0.2364  0.0403
  792MPD2     N11733   0.290   2.281  11.062 -0.5366 -0.4094  0.6310
  792MPD2    H511734   0.256   2.188  11.086 -1.0751 -0.3490  0.0995
  792MPD2    N111735   0.547   2.666  11.225  0.1509 -0.3993 -0.5719
  792MPD2    H711736   0.631   2.684  11.280 -0.0119 -0.3523 -0.3398
  793MPD2     C11737   4.628   2.256  10.039  0.5626  0.3556 -0.6629
  793MPD2    C111738   4.735   2.170  10.055 -0.3259  0.2865  0.2320
  793MPD2    C211739   0.051   2.137  10.180 -0.0846  0.3738 -0.6167
  793MPD2    C311740   4.730   2.191  10.294 -0.7334 -0.2438  0.2914
  793MPD2    C411741   4.631   2.282  10.277 -0.3248  0.9373  0.1028
  793MPD2    C511742   4.582   2.313  10.153 -0.3573 -0.3493  0.0306
  793MPD2     H11743   0.133   2.067  10.192 -0.8578 -0.6806 -1.4131
  793MPD2    H111744   4.583   2.326  10.364  0.3926  1.8544  0.0280
  793MPD2    H211745   4.591   2.281   9.941 -0.7024  0.9898 -0.0187
  793MPD2    H311746   4.490   2.369  10.146 -0.2200 -0.1328 -0.0193
  793MPD2     N11747   0.049   2.152  10.417 -0.6918 -0.0226  0.5153
  793MPD2    H511748   0.109   2.071  10.423  1.3243  1.2924 -1.6377
  793MPD2    N111749   0.075   2.126   9.938 -0.4370 -0.3921 -0.4955
  793MPD2    H711750   0.159   2.071   9.952 -0.2543  0.9198  3.6415
  794MPD2     C11751   4.647   2.365  17.156 -0.3865  0.7737  0.0251
  794MPD2    C111752   4.542   2.375  17.246 -0.1176  0.6960 -0.1111
  794MPD2    C211753   4.422   2.438  17.201 -0.0355 -0.3630  0.2881
  794MPD2    C311754   4.405   2.482  17.073  0.2493 -0.3667 -0.3669
  794MPD2    C411755   4.510   2.458  16.984  0.1257 -1.2193 -0.0327
  794MPD2    C511756   4.629   2.410  17.029 -0.7649 -0.3124  0.2517
  794MPD2     H11757   4.338   2.434  17.269 -0.8837 -0.7281 -0.7830
  794MPD2    H111758   4.497   2.486  16.880  0.7240  1.8231  0.7126
  794MPD2    H211759   0.010   2.324  17.172 -1.6118 -1.8957  0.6218
  794MPD2    H311760   4.710   2.385  16.961 -1.4251 -1.9451  0.0747
  794MPD2     N11761   4.295   2.553  17.023  0.0418  0.1243 -0.6860
  794MPD2    H511762   4.289   2.557  16.922 -0.1318 -3.1768 -0.8271
  794MPD2    N111763   4.541   2.321  17.377 -0.4285 -0.2023 -0.5103
  794MPD2    H711764   4.454   2.340  17.426  0.3705 -0.3064  0.9481
  795MPD2     C11765   2.308   4.000  13.856  0.4628 -0.4116 -0.4151
  795MPD2    C111766   2.332   3.943  13.734 -0.5066  0.2966 -0.1548
  795MPD2    C211767   2.436   3.851  13.729 -0.7359  0.1965 -0.4354
  795MPD2    C311768   2.517   3.826  13.844  0.6098 -0.5077  0.1211
  795MPD2    C411769   2.487   3.894  13.962 -0.4124 -0.5083  0.1085
  795MPD2    C511770   2.388   3.981  13.967  0.2118  0.1223 -0.3449
  795MPD2     H11771   2.450   3.793  13.639  3.9589 -0.4800  0.7368
  795MPD2    H111772   2.539   3.869  14.054 -2.3526 -1.1956  1.0128
  795MPD2    H211773   2.228   4.072  13.864  0.9648 -0.0337  1.3941
  795MPD2    H311774   2.374   4.033  14.061 -0.3772 -1.7409  0.5900
  795MPD2     N11775   2.626   3.728  13.833 -0.2735 -0.3779 -0.1246
  795MPD2    H511776   2.635   3.678  13.745 -0.2060  1.6938 -1.2912
  795MPD2    N111777   2.250   3.957  13.619  0.0084  0.0500  0.0350
  795MPD2    H711778   2.273   3.899  13.539 -0.4568  1.0688 -0.8291
  796MPD2     C11779   1.765   1.183  15.758 -0.4026 -0.1967  0.7023
  796MPD2    C111780   1.837   1.275  15.838  0.1505 -0.4494  0.0178
  796MPD2    C211781   1.822   1.411  15.826  0.3496 -0.1799  0.5448
  796MPD2    C311782   1.736   1.461  15.730  0.1741  0.0828 -0.7357
  796MPD2    C411783   1.660   1.368  15.654 -0.1778  0.2921 -0.0186
  796MPD2    C511784   1.689   1.232  15.659 -0.4173 -0.1935 -0.4303
  796MPD2     H11785   1.887   1.478  15.881 -0.4816 -1.4835  3.1115
  796MPD2    H111786   1.588   1.400  15.580 -0.4970  0.7584  0.4995
  796MPD2    H211787   1.781   1.076  15.760  1.4222  0.0961  1.1187
  796MPD2    H311788   1.638   1.157  15.600 -1.2333  0.3871 -0.4665
  796MPD2     N11789   1.721   1.603  15.732 -0.1086 -0.4879 -0.0416
  796MPD2    H511790   1.796   1.651  15.781  1.4377 -1.7565 -1.1332
  796MPD2    N111791   1.934   1.210  15.925  0.0195  0.4328 -0.3784
  796MPD2    H711792   1.949   1.111  15.907  0.2629  0.1134  1.5129
  797MPD2     C11793   3.140   0.648  17.274  0.3539  0.2774 -0.2362
  797MPD2    C111794   3.196   0.772  17.288  0.6843  0.7948 -0.3214
  797MPD2    C211795   3.182   0.863  17.190  0.2743 -0.1374 -0.3962
  797MPD2    C311796   3.099   0.837  17.084 -0.4857  0.6046  0.0789
  797MPD2    C411797   3.049   0.712  17.066 -0.1374  0.0509  0.7946
  797MPD2    C511798   3.067   0.617  17.166 -0.7093  0.2155  0.2887
  797MPD2     H11799   3.238   0.955  17.182  0.3124 -0.0015  1.3504
  797MPD2    H111800   2.994   0.689  16.976 -0.5833 -1.7658  1.5284
  797MPD2    H211801   3.141   0.575  17.355 -1.1590  1.2680  0.6838
  797MPD2    H311802   3.014   0.523  17.156  1.5468 -1.2114  1.8794
  797MPD2     N11803   3.094   0.945  16.990  0.8209 -0.4604  0.1393
  797MPD2    H511804   3.136   1.033  17.018  0.9877 -0.3360 -0.4920
  797MPD2    N111805   3.264   0.818  17.402 -0.5573 -0.2838 -0.6965
  797MPD2    H711806   3.288   0.916  17.401 -2.6180  0.2205 -1.2389
  798MPD2     C11807   3.211   1.560  17.262 -0.5933  0.3245 -0.3807
  798MPD2    C111808   3.210   1.430  17.211  0.5548 -0.4298 -0.2911
  798MPD2    C211809   3.257   1.326  17.291  0.2406 -0.1859  0.4329
  798MPD2    C311810   3.288   1.349  17.428  0.2701 -0.2427  0.6358
  798MPD2    C411811   3.278   1.477  17.478  0.5336 -0.3029  0.0137
  798MPD2    C511812   3.263   1.586  17.391 -0.5929 -0.0997 -0.5630
  798MPD2     H11813   3.246   1.224  17.256 -0.1598  0.2051 -0.5939
  798MPD2    H111814   3.298   1.498  17.583  1.1625 -0.2664 -0.1103
  798MPD2    H211815   3.189   1.645  17.199  0.4299  1.0813  0.2901
  798MPD2    H311816   3.272   1.692  17.414 -3.0736  0.2685 -1.2681
  798MPD2     N11817   3.312   1.236  17.505  0.3317  0.5307 -0.9291
  798MPD2    H511818   3.314   1.151  17.449  1.3676  1.3222 -2.0987
  798MPD2    N111819   3.155   1.411  17.083  0.2079 -0.0383 -0.0029
  798MPD2    H711820   3.113   1.490  17.036 -0.4506  0.5258  1.5295
  799MPD2     C11821   2.047   2.218  14.445 -0.2554 -0.7724 -0.4459
  799MPD2    C111822   2.033   2.155  14.320  0.6387  0.4586  0.1979
  799MPD2    C211823   2.009   2.240  14.209  0.1961  0.8448  0.5246
  799MPD2    C311824   2.007   2.376  14.219  0.3140  0.3732 -0.5368
  799MPD2    C411825   1.996   2.432  14.347  0.8564  0.8285 -0.4701
  799MPD2    C511826   2.029   2.357  14.452 -0.7324 -0.1622 -0.4287
  799MPD2     H11827   2.003   2.196  14.110  0.8128 -1.0983  1.3485
  799MPD2    H111828   1.985   2.539  14.362  0.4933  0.4964  1.6158
  799MPD2    H211829   2.064   2.159  14.534 -1.1466  2.9047  2.1623
  799MPD2    H311830   2.032   2.401  14.551 -0.4587 -0.0136 -0.5026
  799MPD2     N11831   2.006   2.465  14.110 -0.3498 -0.1977  0.2304
  799MPD2    H511832   2.000   2.564  14.134 -0.4945 -0.1111 -0.1628
  799MPD2    N111833   2.046   2.015  14.291  0.1991 -0.0259  0.2333
  799MPD2    H711834   2.022   1.972  14.202  3.1266 -0.1546 -0.5166
  800MPD2     C11835   2.309   3.279  13.831 -0.1276 -0.6779  0.5241
  800MPD2    C111836   2.426   3.212  13.854  0.0272  0.1362  0.1653
  800MPD2    C211837   2.474   3.120  13.764 -0.1371 -0.0198 -0.0417
  800MPD2    C311838   2.404   3.081  13.651  0.3443  0.3941  0.5898
  800MPD2    C411839   2.277   3.144  13.633 -0.4894 -0.0184  0.1820
  800MPD2    C511840   2.235   3.249  13.713 -0.2011 -0.2079  0.3177
  800MPD2     H11841   2.567   3.066  13.779  0.5895  0.8389 -1.4556
  800MPD2    H111842   2.205   3.124  13.555  0.2106 -0.2723 -0.4049
  800MPD2    H211843   2.273   3.354  13.901  0.0121  1.3028 -1.5312
  800MPD2    H311844   2.152   3.310  13.679  1.4485  1.2130 -1.1471
  800MPD2     N11845   2.453   2.975  13.568  0.6000 -0.4415  0.7916
  800MPD2    H511846   2.544   2.938  13.592  0.2459 -1.6276  0.3078
  800MPD2    N111847   2.492   3.243  13.969  0.0198  0.2258  0.4812
  800MPD2    H711848   2.448   3.321  14.016  2.6619  0.8066  2.0012
  801MPD2     C11849   2.526   3.838  14.341  0.0644  0.8461  0.3932
  801MPD2    C111850   2.450   3.724  14.321  0.1953  0.2774  0.3297
  801MPD2    C211851   2.315   3.737  14.309 -0.2652 -0.2041 -0.6232
  801MPD2    C311852   2.251   3.863  14.322  0.3746  0.9185 -0.3135
  801MPD2    C411853   2.334   3.977  14.335  0.4341 -0.2416 -0.0555
  801MPD2    C511854   2.472   3.962  14.343 -0.0564  0.4640  0.0653
  801MPD2     H11855   2.266   3.641  14.297 -1.6596  0.1152  2.4297
  801MPD2    H111856   2.295   4.078  14.333 -0.4286 -0.5818 -0.7155
  801MPD2    H211857   2.633   3.825  14.354  0.1524  0.6155 -0.5700
  801MPD2    H311858   2.534   4.050  14.353 -1.1655  1.2885 -0.3295
  801MPD2     N11859   2.108   3.881  14.330 -0.0989  0.4388 -0.2039
  801MPD2    H511860   2.068   3.974  14.338  0.7396  0.8989 -1.2673
  801MPD2    N111861   2.512   3.598  14.297 -0.1210  0.7625  0.1254
  801MPD2    H711862   2.443   3.526  14.278  1.7160 -0.9110 -0.2817
  802MPD2     C11863   1.186   4.684  17.320  0.7037  0.4202 -0.1570
  802MPD2    C111864   1.303   4.715  17.388 -0.2180 -0.5093  0.1216
  802MPD2    C211865   1.398   4.618  17.401  0.2453  2.0001  0.6819
  802MPD2    C311866   1.385   4.497  17.341  0.2477 -0.6060 -0.3376
  802MPD2    C411867   1.268   4.460  17.276  0.1264  0.1680  0.5675
  802MPD2    C511868   1.176   4.554  17.266 -0.2349  0.6271 -0.2616
  802MPD2     H11869   1.492   4.656  17.440  0.6642  1.0623  0.5941
  802MPD2    H111870   1.248   4.358  17.245 -0.8971  0.4721  0.2257
  802MPD2    H211871   1.101   0.014  17.313 -1.5118 -2.5075 -0.9394
  802MPD2    H311872   1.078   4.529  17.228  0.0845  2.3388 -2.2314
  802MPD2     N11873   1.490   4.405  17.353  0.1503  0.0237  0.0799
  802MPD2    H511874   1.567   4.436  17.413  1.8748 -0.6559 -1.7866
  802MPD2    N111875   1.329   0.102  17.457 -0.2873 -0.0032  0.2038
  802MPD2    H711876   1.420   0.113  17.502 -0.4129 -0.2975  0.5313
  803MPD2     C11877   2.476   2.803  12.299  0.1797 -0.2209  0.6704
  803MPD2    C111878   2.518   2.724  12.199 -0.1444  0.3902 -0.0959
  803MPD2    C211879   2.602   2.617  12.213  0.1020  0.2275 -0.1704
  803MPD2    C311880   2.634   2.581  12.343  0.2496  0.3085  0.5299
  803MPD2    C411881   2.596   2.663  12.444  0.2522  0.3754  0.7642
  803MPD2    C511882   2.519   2.770  12.425  0.2611  0.5314 -0.6512
  803MPD2     H11883   2.631   2.551  12.132  0.3178  0.8919 -0.6342
  803MPD2    H111884   2.630   2.648  12.546  0.0409 -1.1606  0.6001
  803MPD2    H211885   2.432   2.899  12.278  0.8037  0.4690  2.5201
  803MPD2    H311886   2.480   2.833  12.505  2.3900  4.0614 -2.4181
  803MPD2     N11887   2.721   2.474  12.382  0.7699  0.2297  0.6310
  803MPD2    H511888   2.732   2.455  12.482  2.0479  0.7082  0.5848
  803MPD2    N111889   2.496   2.758  12.063  0.1666 -0.0704  0.3420
  803MPD2    H711890   2.553   2.710  11.994 -2.2734  1.1507 -2.5278
  804MPD2     C11891   2.436   4.436  16.995  0.1162 -0.4552  0.5471
  804MPD2    C111892   2.467   4.364  17.108  0.3806  0.2281  0.0656
  804MPD2    C211893   2.544   4.417  17.211 -0.0931 -0.3609 -0.4901
  804MPD2    C311894   2.607   4.538  17.186  0.6021 -0.1748 -0.1588
  804MPD2    C411895   2.568   4.613  17.074 -0.1490 -0.1491 -0.0844
  804MPD2    C511896   2.481   4.564  16.979 -0.0772  0.5881  0.4502
  804MPD2     H11897   2.554   4.375  17.311 -1.3733  0.0418 -0.2016
  804MPD2    H111898   2.601   4.716  17.065  4.0697 -1.5232 -0.0681
  804MPD2    H211899   2.356   4.406  16.928  0.7116 -0.7314 -0.0361
  804MPD2    H311900   2.447   4.619  16.892 -1.7544 -2.1522 -0.6336
  804MPD2     N11901   2.679   4.599  17.295  0.1286 -0.5811  0.3708
  804MPD2    H511902   2.679   4.552  17.384 -2.1726  0.8944  1.1823
  804MPD2    N111903   2.409   4.229  17.130 -0.4467 -0.7291 -0.0207
  804MPD2    H711904   2.427   4.177  17.216 -0.5844  0.6979  0.8841
  805MPD2     C11905   1.385   2.379  15.227  1.0280 -0.0579  0.0875
  805MPD2    C111906   1.480   2.433  15.137  0.0213  0.2670  0.3072
  805MPD2    C211907   1.598   2.483  15.187  0.0053  0.0016 -0.6286
  805MPD2    C311908   1.639   2.452  15.313  0.2896 -0.0636  0.5515
  805MPD2    C411909   1.548   2.389  15.395 -0.1517  0.5938  0.9683
  805MPD2    C511910   1.421   2.369  15.360 -0.4447  0.0510  0.4812
  805MPD2     H11911   1.668   2.531  15.120  1.9963 -0.2820  1.2528
  805MPD2    H111912   1.588   2.358  15.491 -0.6353  1.9693  1.6174
  805MPD2    H211913   1.282   2.358  15.200  0.4915  1.1330  1.1822
  805MPD2    H311914   1.348   2.333  15.432  0.1099 -0.9016  0.5726
  805MPD2     N11915   1.771   2.490  15.351 -1.0199 -0.2068 -0.2455
  805MPD2    H511916   1.818   2.545  15.280  1.6683 -2.5928 -0.3267
  805MPD2    N111917   1.460   2.430  14.992 -0.5408  0.0192 -0.2513
  805MPD2    H711918   1.542   2.433  14.933 -0.1816  0.1409  0.2530
  806MPD2     C11919   1.946   2.028   0.098  0.1381 -0.2373 -0.1009
  806MPD2    C111920   1.960   2.146   0.172  0.7333 -0.0574 -0.2596
  806MPD2    C211921   2.040   2.243   0.108 -0.4263 -0.4297  0.6038
  806MPD2    C311922   2.087   2.235  17.723  0.0395  0.3769  0.0249
  806MPD2    C411923   2.051   2.125  17.650 -0.5440 -0.5337 -0.0024
  806MPD2    C511924   1.976   2.025  17.706 -0.1406  0.7254  0.6288
  806MPD2     H11925   2.057   2.334   0.165 -0.5135 -1.0454  1.6013
  806MPD2    H111926   2.072   2.102  17.546 -0.2531 -0.4161  0.0304
  806MPD2    H211927   1.891   1.950   0.148  0.9872 -0.2359  0.8390
  806MPD2    H311928   1.952   1.938  17.646 -2.1479  2.2720 -0.8173
  806MPD2     N11929   2.161   2.342  17.675 -0.0756  0.3098  0.6217
  806MPD2    H511930   2.171   2.421  17.738 -0.0708  0.7815  0.0350
  806MPD2    N111931   1.919   2.165   0.304 -0.2175 -0.2067  0.8841
  806MPD2    H711932   1.875   2.084   0.347  3.2286 -1.5761  1.8345
  807MPD2     C11933   1.634   1.710   0.828  0.6184  0.0872  0.0135
  807MPD2    C111934   1.759   1.752   0.864  0.0769 -0.2101 -0.6552
  807MPD2    C211935   1.840   1.667   0.942 -1.3365 -0.0480 -0.2982
  807MPD2    C311936   1.797   1.546   0.984 -0.4062 -0.1794  0.4644
  807MPD2    C411937   1.672   1.502   0.939  0.2994  0.3609  0.2377
  807MPD2    C511938   1.593   1.583   0.867  0.5244 -0.3147  0.0854
  807MPD2     H11939   1.934   1.702   0.982 -1.1671 -0.3329 -0.4492
  807MPD2    H111940   1.638   1.400   0.950  2.3494 -0.4304 -0.7213
  807MPD2    H211941   1.572   1.774   0.766  1.6752  0.5088 -0.6109
  807MPD2    H311942   1.492   1.552   0.843  0.1806 -1.1006  2.5754
  807MPD2     N11943   1.870   1.474   1.079 -0.4232 -0.4560  0.0388
  807MPD2    H511944   1.941   1.532   1.123 -0.3383 -0.2058 -0.4309
  807MPD2    N111945   1.827   1.870   0.817  0.0511 -0.3871 -0.1772
  807MPD2    H711946   1.921   1.888   0.849  0.4705 -2.7908 -0.0717
  808MPD2     C11947   2.563   1.712   9.982  0.8129 -0.0194 -0.9844
  808MPD2    C111948   2.515   1.824  10.045  0.1904 -0.1280 -0.3102
  808MPD2    C211949   2.581   1.938  10.030 -0.2455 -0.1411 -0.5632
  808MPD2    C311950   2.706   1.949   9.964 -0.1476 -0.1207  0.3565
  808MPD2    C411951   2.758   1.833   9.914  0.4238 -0.3689  0.4705
  808MPD2    C511952   2.686   1.716   9.913  0.5479 -0.0365  0.4292
  808MPD2     H11953   2.533   2.026  10.073 -0.8938 -0.0710 -1.4146
  808MPD2    H111954   2.859   1.829   9.876  0.4786  0.5515  0.5144
  808MPD2    H211955   2.518   1.616  10.005  1.9792 -0.7066 -1.5637
  808MPD2    H311956   2.731   1.629   9.869  1.4823  0.1735  0.9735
  808MPD2     N11957   2.783   2.068   9.948  0.1423 -1.1777  0.7474
  808MPD2    H511958   2.876   2.061   9.908 -0.4281  2.2437 -1.1631
  808MPD2    N111959   2.387   1.821  10.120  0.4223 -0.5106  0.0737
  808MPD2    H711960   2.381   1.905  10.177 -0.5761  0.3913 -1.3722
  809MPD2     C11961   3.326   2.300   9.386 -0.1054  0.2395  0.1773
  809MPD2    C111962   3.350   2.402   9.473 -0.6661 -0.0084 -0.0378
  809MPD2    C211963   3.309   2.389   9.602 -0.1282  0.0833  0.1556
  809MPD2    C311964   3.220   2.288   9.639  0.6542 -0.2128  0.4773
  809MPD2    C411965   3.200   2.185   9.554  0.1362  0.1688 -0.4259
  809MPD2    C511966   3.251   2.195   9.423  0.0989  0.1101  0.2762
  809MPD2     H11967   3.331   2.468   9.673 -0.8506  1.2652 -0.9339
  809MPD2    H111968   3.128   2.105   9.567  1.9044 -1.3075  0.3612
  809MPD2    H211969   3.366   2.299   9.285 -0.1348 -1.2880  0.1768
  809MPD2    H311970   3.228   2.117   9.352 -2.7989  1.5195 -0.3107
  809MPD2     N11971   3.153   2.280   9.759 -0.0281 -0.4833  0.0663
  809MPD2    H511972   3.076   2.214   9.764 -0.3007 -0.4663 -3.6483
  809MPD2    N111973   3.409   2.523   9.439  0.2463 -0.0199  0.0609
  809MPD2    H711974   3.421   2.590   9.515  1.1685 -0.0207 -0.0854
  810MPD2     C11975   1.688   1.894  11.319  0.2431  0.3119 -0.5271
  810MPD2    C111976   1.701   1.900  11.184 -1.0961  0.3009  0.9688
  810MPD2    C211977   1.668   2.010  11.117 -0.3236 -0.5272  0.5591
  810MPD2    C311978   1.611   2.119  11.176 -0.2853 -0.9308 -0.2401
  810MPD2    C411979   1.594   2.119  11.312  0.3605 -0.7487  0.2176
  810MPD2    C511980   1.646   2.010  11.384  0.7577  0.3024 -0.4064
  810MPD2     H11981   1.687   2.007  11.010  0.3398 -0.9923  0.6891
  810MPD2    H111982   1.567   2.208  11.368 -2.3455 -2.4372  1.5972
  810MPD2    H211983   1.723   1.811  11.379 -0.8225  2.1569  2.6287
  810MPD2    H311984   1.652   2.016  11.492  1.5074  0.8495 -0.4812
  810MPD2     N11985   1.569   2.237  11.109  0.0443 -0.2538  0.1943
  810MPD2    H511986   1.545   2.320  11.162 -2.2298 -2.0066  1.8715
  810MPD2    N111987   1.738   1.792  11.104  0.4830 -0.5366  0.0571
  810MPD2    H711988   1.773   1.816  11.012 -2.8619 -2.0338 -1.6347
  811MPD2     C11989   1.760   1.532  10.330 -0.0995  0.2723  0.5648
  811MPD2    C111990   1.782   1.615  10.433 -0.0686 -0.4679  0.1405
  811MPD2    C211991   1.792   1.755  10.420  1.0362 -0.3186  0.3920
  811MPD2    C311992   1.798   1.818  10.299 -0.6424  0.4430 -0.0327
  811MPD2    C411993   1.788   1.731  10.188  0.3545 -0.4930  0.3493
  811MPD2    C511994   1.766   1.594  10.211 -0.4043  0.1352  0.6110
  811MPD2     H11995   1.820   1.823  10.499  0.3137 -0.8495  1.1010
  811MPD2    H111996   1.777   1.774  10.089 -1.2810  0.6169  1.0034
  811MPD2    H211997   1.735   1.427  10.341  2.7929 -0.3671  1.1993
  811MPD2    H311998   1.749   1.539  10.119  0.8286 -1.7529  1.4967
  811MPD2     N11999   1.797   1.955  10.292  0.2108 -0.1086  0.1673
  811MPD2    H512000   1.780   2.004  10.379  3.0850  0.6073  0.3473
  811MPD2    N112001   1.791   1.552  10.563  0.1863 -0.2934  0.2467
  811MPD2    H712002   1.775   1.453  10.576  0.0901 -0.2372  0.5678
  812MPD2     C12003   0.819   2.245  12.046 -0.0895 -0.7644 -0.4348
  812MPD2    C112004   0.810   2.333  12.146 -0.5928  0.4395  0.3342
  812MPD2    C212005   0.876   2.296  12.273 -0.5891 -0.2090  0.5160
  812MPD2    C312006   0.935   2.173  12.277 -0.2958 -0.7500  0.9518
  812MPD2    C412007   0.934   2.087  12.169 -0.4726 -0.2380 -0.2058
  812MPD2    C512008   0.875   2.122  12.051 -0.1593  0.3194  0.0408
  812MPD2     H12009   0.882   2.362  12.359 -1.7328 -0.0855  0.5050
  812MPD2    H112010   0.991   1.996  12.176  1.5879  1.0703  0.0699
  812MPD2    H212011   0.775   2.265  11.949 -1.8872  1.0985  0.7831
  812MPD2    H312012   0.876   2.060  11.963  0.9448  2.2360 -1.3052
  812MPD2     N12013   1.000   2.134  12.402 -0.1214  0.5369 -0.2328
  812MPD2    H512014   0.994   2.211  12.468 -2.2908  0.9151 -0.8703
  812MPD2    N112015   0.743   2.454  12.111 -0.2488  1.2394  0.2798
  812MPD2    H712016   0.720   2.477  12.014 -1.2908  1.7654  0.6575
  813MPD2     C12017   4.670   4.067  12.639 -0.0706 -0.5339  0.1136
  813MPD2    C112018   0.034   4.145  12.692  0.0513 -0.3600  0.8821
  813MPD2    C212019   0.036   4.170  12.826  0.1136  0.7180  0.6309
  813MPD2    C312020   4.674   4.113  12.915  0.2517  0.2338 -0.1199
  813MPD2    C412021   4.556   4.068  12.856  0.0444  0.0068 -0.0448
  813MPD2    C512022   4.562   4.040  12.718  0.0331 -0.0485 -0.2677
  813MPD2     H12023   0.117   4.232  12.863  1.3196  0.5213 -1.6462
  813MPD2    H112024   4.463   4.057  12.911 -0.9764  1.3544 -1.5058
  813MPD2    H212025   4.663   4.045  12.533  1.6983 -0.7710  0.0577
  813MPD2    H312026   4.472   4.008  12.667  1.5032 -3.1499 -0.9689
  813MPD2     N12027   4.699   4.117  13.051  0.1781 -0.3323  1.0200
  813MPD2    H512028   0.046   4.167  13.082  0.8459 -2.0816  2.0411
  813MPD2    N112029   0.137   4.200  12.614 -0.1197  0.1250 -0.3258
  813MPD2    H712030   0.195   4.262  12.668  1.1120 -1.6526  0.4071
  814MPD2     C12031   0.424   0.770  12.536  0.4105  0.3852 -0.3199
  814MPD2    C112032   0.474   0.748  12.405  0.5856  0.3210 -0.3283
  814MPD2    C212033   0.540   0.844  12.343 -0.3120  0.5161  0.3372
  814MPD2    C312034   0.552   0.971  12.393 -0.1557  0.3308 -0.4000
  814MPD2    C412035   0.512   0.989  12.518  0.5968  0.6201  0.0184
  814MPD2    C512036   0.454   0.888  12.587  0.0490  0.0557 -0.2564
  814MPD2     H12037   0.585   0.815  12.249 -0.1081 -3.0871  1.5615
  814MPD2    H112038   0.538   1.084  12.563  1.6079  0.4012 -0.1233
  814MPD2    H212039   0.361   0.699  12.589 -1.2828  2.1525  0.0350
  814MPD2    H312040   0.433   0.896  12.693 -0.4425  0.1029 -0.3590
  814MPD2     N12041   0.633   1.074  12.335  0.1100  0.6067  0.7299
  814MPD2    H512042   0.648   1.158  12.389  1.3690  0.9839 -0.2037
  814MPD2    N112043   0.478   0.618  12.346  0.0421 -0.2059 -0.0702
  814MPD2    H712044   0.538   0.601  12.266 -2.8878  1.6523 -2.6946
  815MPD2     C12045   0.742   4.314  11.773  0.2180 -0.0597 -0.2762
  815MPD2    C112046   0.808   4.195  11.771 -0.2029 -0.0835  0.7369
  815MPD2    C212047   0.736   4.083  11.810  0.1105  0.0603 -0.6812
  815MPD2    C312048   0.609   4.089  11.857  0.0348  0.2071 -0.2158
  815MPD2    C412049   0.544   4.213  11.867 -1.2076  0.0791 -0.1472
  815MPD2    C512050   0.621   4.324  11.824 -0.0269 -0.1050 -0.1344
  815MPD2     H12051   0.785   3.987  11.800  1.0990  0.4895  0.1186
  815MPD2    H112052   0.440   4.229  11.893 -1.1293  0.5942 -0.1687
  815MPD2    H212053   0.800   4.395  11.731 -3.0945  1.6788 -1.4992
  815MPD2    H312054   0.578   4.423  11.834  0.1843 -0.1692  1.5349
  815MPD2     N12055   0.538   3.966  11.888  0.6972 -0.1112  0.7521
  815MPD2    H512056   0.591   3.880  11.889 -0.8363 -1.0867 -1.0038
  815MPD2    N112057   0.934   4.183  11.698 -0.6153 -0.2913 -0.4151
  815MPD2    H712058   0.957   4.258  11.634  1.1370  1.3888  2.1882
  816MPD2     C12059   0.880   3.445  17.225 -0.4647 -0.0079  0.0892
  816MPD2    C112060   0.869   3.567  17.157 -0.5484 -0.2928  0.0091
  816MPD2    C212061   0.933   3.578  17.030  0.1094 -0.2184  0.4962
  816MPD2    C312062   1.017   3.475  16.989  0.0859  0.3183 -0.2838
  816MPD2    C412063   1.031   3.356  17.064  0.5430  0.6270  0.4038
  816MPD2    C512064   0.958   3.344  17.183 -0.2979 -0.5107 -0.5488
  816MPD2     H12065   0.916   3.671  16.976  0.3528  0.0828  0.9362
  816MPD2    H112066   1.080   3.266  17.029  2.4584  1.4137  1.0737
  816MPD2    H212067   0.830   3.439  17.322 -0.5667 -2.5728 -0.1251
  816MPD2    H312068   0.976   3.257  17.245  1.1995  0.1562 -0.0245
  816MPD2     N12069   1.085   3.497  16.867 -0.6032 -0.2121 -0.2906
  816MPD2    H512070   1.062   3.587  16.825 -0.5446 -0.9120 -1.8375
  816MPD2    N112071   0.790   3.671  17.216 -0.1310  0.1113 -0.1973
  816MPD2    H712072   0.740   3.648  17.302  0.6610 -0.6069  0.0673
  817MPD2     C12073   0.441   4.396  10.000  0.0766 -0.5427  0.1256
  817MPD2    C112074   0.558   4.459  10.022  0.1255  0.0870  0.5776
  817MPD2    C212075   0.564   4.594   9.986 -0.7850  0.0829 -0.2060
  817MPD2    C312076   0.452   4.667   9.945  0.2440 -0.6898 -1.0029
  817MPD2    C412077   0.336   4.597   9.929  0.4134  0.1337  0.6195
  817MPD2    C512078   0.327   4.467   9.958  0.0425  0.2608  0.0765
  817MPD2     H12079   0.657   4.643  10.011  0.6111 -2.6152 -0.1752
  817MPD2    H112080   0.246   4.636   9.882  0.4107 -1.5322 -0.7645
  817MPD2    H212081   0.426   4.292  10.023 -0.9168  0.3729  3.6908
  817MPD2    H312082   0.233   4.418   9.934  1.8280 -2.3383 -1.6398
  817MPD2     N12083   0.464   0.068   9.913  0.4584 -0.0472 -0.1180
  817MPD2    H512084   0.562   0.096   9.921  0.7994 -1.5638  0.9915
  817MPD2    N112085   0.675   4.399  10.075  0.8388  0.2421 -0.6977
  817MPD2    H712086   0.747   4.469  10.088 -2.2371  3.2465  0.1184
  818MPD2     C12087   3.878   0.313  10.235 -0.4491  1.2483 -0.2548
  818MPD2    C112088   3.862   0.222  10.339 -0.5459  0.3252 -0.4714
  818MPD2    C212089   3.820   0.091  10.316  0.1054  0.5567  0.0959
  818MPD2    C312090   3.806   0.052  10.189  0.3520 -0.1408  0.4519
  818MPD2    C412091   3.821   0.145  10.086  0.1800  0.2047  0.4781
  818MPD2    C512092   3.856   0.268  10.103 -0.0840 -0.5994 -0.2701
  818MPD2     H12093   3.808   0.019  10.397 -0.3089 -0.1995 -0.6353
  818MPD2    H112094   3.812   0.108   9.985 -3.2915 -1.0914  1.2473
  818MPD2    H212095   3.899   0.418  10.253  0.7439  0.3227  3.6654
  818MPD2    H312096   3.841   0.334  10.018  2.1714  0.0312 -0.1820
  818MPD2     N12097   3.780   4.656  10.140 -0.5206  1.3804 -0.4028
  818MPD2    H512098   3.795   4.639  10.041 -1.1936  0.5763 -0.3695
  818MPD2    N112099   3.885   0.254  10.477  0.2868 -0.9891 -0.1329
  818MPD2    H712100   3.861   0.184  10.548  0.9405 -1.5506 -0.4668
  819MPD2     C12101   2.624   2.704  15.441  0.0252  0.2060 -0.5045
  819MPD2    C112102   2.557   2.587  15.469 -0.5378  0.7678 -0.5678
  819MPD2    C212103   2.574   2.524  15.593  0.3249 -0.3614  0.8773
  819MPD2    C312104   2.679   2.564  15.674 -0.2210  0.1143 -0.5220
  819MPD2    C412105   2.749   2.678  15.648 -0.0382 -0.2154 -0.0982
  819MPD2    C512106   2.725   2.747  15.532 -0.1411  0.1458  0.2752
  819MPD2     H12107   2.511   2.440  15.617 -1.0173  0.6992  1.0674
  819MPD2    H112108   2.833   2.712  15.707 -0.6861 -0.2951  0.8660
  819MPD2    H212109   2.608   2.752  15.345 -2.3998  1.5666  0.5714
  819MPD2    H312110   2.775   2.842  15.517 -1.1572  0.7673  0.8021
  819MPD2     N12111   2.723   2.479  15.780  0.0521 -0.6974 -0.1411
  819MPD2    H512112   2.695   2.382  15.769  1.5842 -1.1117 -0.3780
  819MPD2    N112113   2.456   2.560  15.374 -0.3624 -0.4712 -0.4038
  819MPD2    H712114   2.467   2.616  15.291  0.2680 -0.5937 -0.4002
  820MPD2     C12115   1.807   2.809  14.684  0.3818 -0.0571  0.3057
  820MPD2    C112116   1.789   2.669  14.667 -0.0379 -0.3242 -0.2127
  820MPD2    C212117   1.897   2.597  14.718  0.8085 -0.4517 -0.4446
  820MPD2    C312118   2.015   2.648  14.766  0.5258  0.2293 -0.4795
  820MPD2    C412119   2.028   2.785  14.780 -0.1508  0.5423 -0.0036
  820MPD2    C512120   1.922   2.865  14.739  0.7452  0.2128 -0.7202
  820MPD2     H12121   1.898   2.489  14.708 -2.5890 -0.4826 -0.4218
  820MPD2    H112122   2.110   2.834  14.831 -2.9638  2.3711  2.7277
  820MPD2    H212123   1.733   2.885  14.659  1.8341  1.8154  1.7365
  820MPD2    H312124   1.928   2.972  14.752 -0.1028 -0.0359  1.6624
  820MPD2     N12125   2.103   2.562  14.845 -0.2931 -0.7877 -0.4189
  820MPD2    H512126   2.064   2.469  14.835 -0.4893 -0.8655  0.9594
  820MPD2    N112127   1.669   2.621  14.631 -0.1432  0.4527 -0.1031
  820MPD2    H712128   1.597   2.692  14.638  0.3258  1.1409 -2.4224
  821MPD2     C12129   2.889   2.931  12.908 -0.2399  0.2670 -0.5704
  821MPD2    C112130   2.922   2.866  13.029 -0.7520 -0.4381 -0.0823
  821MPD2    C212131   3.061   2.857  13.057  0.1906 -0.0769 -0.0897
  821MPD2    C312132   3.152   2.920  12.980 -0.0717  0.0464  0.0076
  821MPD2    C412133   3.117   2.974  12.858  0.5005  0.6803  0.0867
  821MPD2    C512134   2.983   2.966  12.817  0.8453  0.9141 -0.1788
  821MPD2     H12135   3.090   2.806  13.148 -0.6206  0.2232  0.3258
  821MPD2    H112136   3.191   3.008  12.787  0.0133 -0.2024 -0.8536
  821MPD2    H212137   2.787   2.945  12.872 -0.0382  2.5385 -0.2763
  821MPD2    H312138   2.965   2.988  12.713  1.3541  0.6808 -0.3161
  821MPD2     N12139   3.287   2.920  13.012 -0.0790  0.5559  0.4383
  821MPD2    H512140   3.346   2.992  12.973  1.2494 -0.5185  0.4444
  821MPD2    N112141   2.825   2.814  13.122  0.6126 -0.2151 -0.4837
  821MPD2    H712142   2.864   2.778  13.209 -0.7732 -2.3142 -0.7195
  822MPD2     C12143   3.349   3.528  15.843 -0.7590  0.3054 -0.1905
  822MPD2    C112144   3.331   3.487  15.978 -0.2185  0.0967  0.1703
  822MPD2    C212145   3.251   3.557  16.057  0.7311 -0.0302 -0.1421
  822MPD2    C312146   3.188   3.675  16.010 -0.0045 -1.2772  0.4950
  822MPD2    C412147   3.208   3.717  15.878 -0.0092 -0.9773 -0.2971
  822MPD2    C512148   3.296   3.643  15.802  0.1567  0.4692 -0.0966
  822MPD2     H12149   3.238   3.528  16.161  2.0568 -0.0468  0.0217
  822MPD2    H112150   3.159   3.803  15.834  0.8579  0.3660  1.3629
  822MPD2    H212151   3.419   3.482  15.774 -1.1583 -1.1709  0.4084
  822MPD2    H312152   3.319   3.681  15.703 -2.5785  0.8017 -0.5992
  822MPD2     N12153   3.118   3.749  16.103 -0.0799 -0.6169  1.1417
  822MPD2    H512154   3.112   3.698  16.191 -0.8744  0.4518  1.7087
  822MPD2    N112155   3.402   3.372  16.030  0.2722 -0.2363  0.3234
  822MPD2    H712156   3.392   3.356  16.130 -0.7501 -0.0867  0.2437
  823MPD2     C12157   2.703   4.047  16.816  0.2627 -0.2043 -0.2776
  823MPD2    C112158   2.755   3.940  16.739 -0.0332 -0.2334  0.5734
  823MPD2    C212159   2.735   3.805  16.784 -0.5230  0.0030  0.1416
  823MPD2    C312160   2.669   3.781  16.908 -0.9680 -0.3977 -0.2859
  823MPD2    C412161   2.629   3.888  16.978  0.0358 -0.5944  0.5390
  823MPD2    C512162   2.638   4.016  16.936  0.5347 -0.4240  0.4149
  823MPD2     H12163   2.772   3.728  16.717  2.8958  0.5020  1.4420
  823MPD2    H112164   2.577   3.878  17.073 -1.6669  1.2618 -0.1784
  823MPD2    H212165   2.708   4.152  16.789  0.6737 -0.0152  0.5554
  823MPD2    H312166   2.595   4.093  16.998  1.6137 -1.2021  2.1006
  823MPD2     N12167   2.643   3.654  16.963 -0.4150 -0.8338  0.3072
  823MPD2    H512168   2.604   3.651  17.056 -0.2976  1.2877  0.4141
  823MPD2    N112169   2.808   3.977  16.613 -0.0333  0.0117  0.2516
  823MPD2    H712170   2.799   4.077  16.599 -1.6537 -0.3993 -1.5735
  824MPD2     C12171   3.755   2.612  15.857 -0.0831 -0.0892 -0.6478
  824MPD2    C112172   3.712   2.722  15.780  0.1330  0.3093  0.0729
  824MPD2    C212173   3.767   2.744  15.648 -0.3843  0.5237 -0.3142
  824MPD2    C312174   3.851   2.645  15.588  0.1526 -0.3822 -0.2009
  824MPD2    C412175   3.900   2.545  15.671 -0.1256  0.3055 -0.1841
  824MPD2    C512176   3.852   2.532  15.800  0.9781  0.1204  0.3885
  824MPD2     H12177   3.738   2.835  15.597  0.1538  1.2253  0.6346
  824MPD2    H112178   3.980   2.475  15.652  0.2214  0.6847 -0.1296
  824MPD2    H212179   3.715   2.578  15.952  0.7754 -0.5548 -0.4548
  824MPD2    H312180   3.892   2.445  15.850 -2.1791  0.2564  3.1252
  824MPD2     N12181   3.890   2.653  15.455  0.0340  0.1117  0.0762
  824MPD2    H512182   3.853   2.728  15.397 -0.0914 -0.7173 -0.9072
  824MPD2    N112183   3.612   2.804  15.840  0.1283 -0.1801 -0.5522
  824MPD2    H712184   3.571   2.874  15.778 -2.3946  0.3443  1.6807
  825MPD2     C12185   4.537   3.093  15.214  0.3211  0.5685  0.4347
  825MPD2    C112186   4.399   3.086  15.202  0.6878 -0.1184 -0.1571
  825MPD2    C212187   4.334   3.207  15.221  0.5173  0.6255  0.4467
  825MPD2    C312188   4.401   3.326  15.246  0.2062 -0.3050  0.2949
  825MPD2    C412189   4.539   3.323  15.267 -0.3483 -0.0954 -0.3170
  825MPD2    C512190   4.600   3.206  15.246  0.3287 -0.2684 -0.2394
  825MPD2     H12191   4.227   3.214  15.213  0.5183  0.8196  0.6116
  825MPD2    H112192   4.601   3.407  15.298  0.0285 -0.3029 -0.5088
  825MPD2    H212193   4.601   3.006  15.200 -2.2947 -1.5078  1.4292
  825MPD2    H312194   4.706   3.193  15.261  0.1039 -0.4277  1.2078
  825MPD2     N12195   4.346   3.456  15.249 -0.1014  0.0047  0.5849
  825MPD2    H512196   4.397   3.535  15.286 -0.6067  0.7561 -0.3355
  825MPD2    N112197   4.335   2.962  15.186  0.0047 -0.0817  0.6341
  825MPD2    H712198   4.401   2.885  15.186 -0.1847 -0.2441  2.2190
  826MPD2     C12199   4.034   1.803  13.505 -0.2952 -0.1171 -0.1304
  826MPD2    C112200   4.120   1.903  13.555  0.1022  0.2649  0.0414
  826MPD2    C212201   4.065   2.006  13.635 -0.4608  0.3023 -0.1097
  826MPD2    C312202   3.929   2.003  13.658 -0.0908 -0.1780  0.5772
  826MPD2    C412203   3.849   1.897  13.618 -0.0339 -0.0590 -0.1985
  826MPD2    C512204   3.902   1.795  13.537  0.0598 -0.2226  0.5079
  826MPD2     H12205   4.128   2.088  13.666 -0.6894  0.3758  0.1658
  826MPD2    H112206   3.744   1.894  13.643 -0.3488 -0.5911 -1.5971
  826MPD2    H212207   4.076   1.736  13.431  0.2332 -3.2240  2.9565
  826MPD2    H312208   3.844   1.710  13.500  1.9091 -1.8484  1.3314
  826MPD2     N12209   3.871   2.120  13.723  0.1742  0.4977 -0.1188
  826MPD2    H512210   3.942   2.190  13.742 -0.8785  1.5092  0.0802
  826MPD2    N112211   4.257   1.888  13.526  0.0701 -0.6056 -0.3599
  826MPD2    H712212   4.281   1.801  13.479  2.2563  0.0705 -0.5116
  827MPD2     C12213   0.415   3.735   9.959 -0.5472 -0.6309 -0.4744
  827MPD2    C112214   0.359   3.650  10.048  0.3924 -0.7261 -1.4778
  827MPD2    C212215   0.241   3.578  10.011 -1.0443 -0.2526 -0.2900
  827MPD2    C312216   0.180   3.600   9.890  0.3906  0.2621 -0.0876
  827MPD2    C412217   0.236   3.685   9.803 -0.1382  0.5983  0.1660
  827MPD2    C512218   0.357   3.743   9.831  0.0265 -0.8720  0.5950
  827MPD2     H12219   0.185   3.517  10.080 -0.7885  0.1298  0.2549
  827MPD2    H112220   0.197   3.690   9.702 -0.0913 -1.6306  0.0341
  827MPD2    H212221   0.507   3.782   9.993  0.5443 -2.2622 -1.2028
  827MPD2    H312222   0.394   3.814   9.758 -2.5202 -1.2799 -1.1236
  827MPD2     N12223   0.054   3.537   9.865  0.2648  0.0473  0.5653
  827MPD2    H512224   0.027   3.468   9.934 -2.2757 -0.7454 -1.2270
  827MPD2    N112225   0.420   3.639  10.178  0.0461  0.0200  0.2644
  827MPD2    H712226   0.491   3.710  10.190  0.4388 -0.2722 -0.3299
  828MPD2     C12227   3.550   3.513  11.969  0.6101  0.5382  0.0028
  828MPD2    C112228   3.425   3.566  11.975  0.7931  0.1304 -0.4711
  828MPD2    C212229   3.348   3.555  11.860  0.9184 -0.2401 -0.1070
  828MPD2    C312230   3.399   3.495  11.743  0.5742 -0.1491 -0.1653
  828MPD2    C412231   3.533   3.452  11.743  0.3936 -0.1940  0.5030
  828MPD2    C512232   3.604   3.465  11.857  0.0987  0.4369 -0.3299
  828MPD2     H12233   3.244   3.585  11.863  0.7210 -0.9962  0.6471
  828MPD2    H112234   3.576   3.402  11.657  1.5789 -1.2539  1.7182
  828MPD2    H212235   3.612   3.526  12.056  0.5648 -0.3305  0.1642
  828MPD2    H312236   3.710   3.443  11.860 -0.4193 -1.9993  0.2586
  828MPD2     N12237   3.319   3.467  11.630 -0.1962  0.5004 -0.0391
  828MPD2    H512238   3.366   3.415  11.556  0.4019 -0.8660  1.3003
  828MPD2    N112239   3.367   3.626  12.087  0.4394  0.4507 -0.0137
  828MPD2    H712240   3.269   3.645  12.072  0.1211 -0.9094  0.3558
  829MPD2     C12241   3.180   4.246  11.805  0.2608 -0.0210 -0.1171
  829MPD2    C112242   3.066   4.222  11.881  0.6020  0.0662  0.2726
  829MPD2    C212243   3.085   4.186  12.017 -0.5496 -0.1875  0.4772
  829MPD2    C312244   3.213   4.168  12.065  0.6545  0.1840 -0.1235
  829MPD2    C412245   3.318   4.195  11.983 -0.0879  0.0662  0.5514
  829MPD2    C512246   3.306   4.240  11.855  0.1023  0.1137 -0.7538
  829MPD2     H12247   2.995   4.150  12.064 -2.4225  0.0075 -2.9650
  829MPD2    H112248   3.416   4.155  12.010 -0.7161 -2.6336 -1.1625
  829MPD2    H212249   3.173   4.273  11.700  0.8113  0.1447 -0.1079
  829MPD2    H312250   3.399   4.246  11.799  1.1168  1.0036  0.9852
  829MPD2     N12251   3.242   4.087  12.177  0.8016 -0.0017 -0.0080
  829MPD2    H512252   3.336   4.049  12.187  0.4453 -0.2926  2.1444
  829MPD2    N112253   2.938   4.237  11.816  0.4478 -0.0299  0.5760
  829MPD2    H712254   2.931   4.265  11.719 -0.3845  0.0744  0.6660
  830MPD2     C12255   2.943   1.799  15.796  0.2198 -0.3936  0.0166
  830MPD2    C112256   2.951   1.924  15.750 -0.2082  0.1060 -0.0597
  830MPD2    C212257   3.022   1.959  15.637  0.4557 -0.2653 -0.0031
  830MPD2    C312258   3.079   1.854  15.560 -0.3320  0.8452 -0.3131
  830MPD2    C412259   3.089   1.726  15.614  0.6478  0.0047 -0.0790
  830MPD2    C512260   3.011   1.701  15.729  0.9631 -0.4299 -0.7772
  830MPD2     H12261   3.026   2.062  15.605  1.3937 -0.0147  0.9178
  830MPD2    H112262   3.130   1.641  15.560 -0.9037 -2.7794  3.1479
  830MPD2    H212263   2.892   1.777  15.889 -0.6304 -1.9306 -0.8235
  830MPD2    H312264   3.020   1.598  15.764 -1.5724 -0.5253 -0.3892
  830MPD2     N12265   3.129   1.879  15.429  0.1635 -0.0452 -0.3239
  830MPD2    H512266   3.191   1.818  15.377  0.2007 -0.9483  0.7916
  830MPD2    N112267   2.915   2.039  15.823  0.1514 -0.3299 -0.4562
  830MPD2    H712268   2.936   2.127  15.777 -2.1398 -0.3748 -1.5848
  831MPD2     C12269   3.323   3.944  16.484  0.6150  0.0984  0.3567
  831MPD2    C112270   3.340   3.848  16.393 -0.0492 -2.1349  0.4059
  831MPD2    C212271   3.268   3.727  16.412 -0.7143 -0.2889  0.1302
  831MPD2    C312272   3.184   3.712  16.521 -0.3739 -0.0899  0.2868
  831MPD2    C412273   3.170   3.810  16.612 -0.1971 -0.7748  0.2663
  831MPD2    C512274   3.252   3.924  16.598  0.2160 -0.8166 -0.1504
  831MPD2     H12275   3.270   3.648  16.338  0.2296  0.6108 -0.8081
  831MPD2    H112276   3.113   3.806  16.704  0.0461  3.3137  0.5976
  831MPD2    H212277   3.383   4.033  16.469 -1.0413  0.6066 -3.1089
  831MPD2    H312278   3.248   4.008  16.666  0.7316  0.3190 -1.5338
  831MPD2     N12279   3.102   3.597  16.540 -0.1590 -0.1382 -0.3996
  831MPD2    H512280   3.047   3.592  16.626  1.5974  2.8271  0.8849
  831MPD2    N112281   3.414   3.872  16.276  0.4850  0.0696  0.4657
  831MPD2    H712282   3.446   3.967  16.263  0.0424  0.0383 -0.8894
  832MPD2     C12283   1.645   4.634  17.117  0.2591 -0.5355  0.1816
  832MPD2    C112284   1.594   0.022  17.138  0.3594 -0.6662  1.0095
  832MPD2    C212285   1.474   0.061  17.080  0.2113 -0.5683  0.0560
  832MPD2    C312286   1.410   4.723  16.985  0.1011  0.0454 -0.0751
  832MPD2    C412287   1.461   4.603  16.958  0.3348 -0.0484  0.2029
  832MPD2    C512288   1.576   4.556  17.026 -1.5538 -0.4306  0.0447
  832MPD2     H12289   1.442   0.163  17.097 -0.9541 -0.5824 -2.0754
  832MPD2    H112290   1.404   4.533  16.899  2.9187 -2.9259  1.1157
  832MPD2    H212291   1.731   4.600  17.172  1.7825 -0.7032 -2.2713
  832MPD2    H312292   1.610   4.453  17.019  1.5244  0.6424 -0.7088
  832MPD2     N12293   1.289   0.015  16.926  0.2592  0.1282 -0.1254
  832MPD2    H512294   1.247   4.676  16.871  0.9966 -2.1591  2.4063
  832MPD2    N112295   1.666   0.096  17.235  0.4823  0.7897 -0.2030
  832MPD2    H712296   1.721   0.040  17.298 -1.2580 -1.3179 -0.5633
  833MPD2     C12297   3.649   1.419  13.246  0.5549  0.2883  0.8609
  833MPD2    C112298   3.598   1.394  13.119 -0.2441  0.4300 -0.2749
  833MPD2    C212299   3.674   1.323  13.027 -0.2820  0.6284  0.1698
  833MPD2    C312300   3.781   1.248  13.066  0.2367 -0.0519 -0.0897
  833MPD2    C412301   3.820   1.249  13.194 -0.4889 -0.7044 -0.2211
  833MPD2    C512302   3.756   1.336  13.282  1.1997 -0.2794  0.1680
  833MPD2     H12303   3.641   1.334  12.924  2.0978  1.6374 -0.4924
  833MPD2    H112304   3.901   1.190  13.234  0.7391  1.7481  0.9674
  833MPD2    H212305   3.595   1.481  13.316 -0.2681  0.8050 -0.2384
  833MPD2    H312306   3.786   1.342  13.386  1.0063  0.3833  0.1849
  833MPD2     N12307   3.845   1.168  12.975  0.0794  0.1000  0.0603
  833MPD2    H512308   3.805   1.171  12.881  0.4064 -1.0601 -0.1193
  833MPD2    N112309   3.486   1.467  13.062  0.6951  0.0067 -0.3944
  833MPD2    H712310   3.461   1.455  12.965 -1.1722 -1.5186  0.2742
  834MPD2     C12311   3.969   0.244  12.472  0.3326  0.7800  0.6363
  834MPD2    C112312   3.931   0.350  12.394 -1.1941 -0.2256  0.4679
  834MPD2    C212313   3.918   0.473  12.456  0.5570 -0.1574 -0.1012
  834MPD2    C312314   3.943   0.485  12.593 -0.2731 -0.0135  0.1280
  834MPD2    C412315   3.981   0.377  12.669  0.6959  0.6806 -0.1548
  834MPD2    C512316   3.993   0.255  12.609 -0.4145 -0.0499  0.4533
  834MPD2     H12317   3.910   0.563  12.396  0.5840 -1.1557 -1.5818
  834MPD2    H112318   3.990   0.385  12.776  2.5934 -0.5565 -0.2154
  834MPD2    H212319   3.976   0.143  12.433  0.1473  0.7652  0.6390
  834MPD2    H312320   4.021   0.167  12.665  1.5807  0.5308  0.3791
  834MPD2     N12321   3.926   0.617  12.638  0.3602 -0.2144 -0.4603
  834MPD2    H512322   3.891   0.678  12.565 -1.9403 -1.8362 -0.7159
  834MPD2    N112323   3.902   0.320  12.256 -0.0831 -0.2821 -0.4432
  834MPD2    H712324   3.926   0.229  12.219 -3.6908 -1.5768  0.4767
  835MPD2     C12325   4.143   3.459  11.067 -0.4802  0.7195 -0.0514
  835MPD2    C112326   4.081   3.536  11.156 -1.2609 -0.0111  0.8830
  835MPD2    C212327   4.149   3.574  11.270 -0.3489  0.4555 -0.1244
  835MPD2    C312328   4.281   3.543  11.300  1.6062  0.3307 -0.5361
  835MPD2    C412329   4.336   3.460  11.213  0.2776 -0.0630  0.2267
  835MPD2    C512330   4.273   3.414  11.098 -0.3878 -0.0574 -0.5546
  835MPD2     H12331   4.097   3.644  11.335  0.7599 -1.2213  2.5693
  835MPD2    H112332   4.430   3.417  11.246 -0.5950 -0.9834  1.4750
  835MPD2    H212333   4.103   3.423  10.973  1.3106 -3.2939  0.7405
  835MPD2    H312334   4.324   3.347  11.031  1.4294  0.5323  0.2414
  835MPD2     N12335   4.358   3.582  11.411  0.2674  0.0984  0.6492
  835MPD2    H512336   4.458   3.565  11.403  0.6476  1.9124  1.4879
  835MPD2    N112337   3.953   3.594  11.137 -0.2665 -0.2897  0.4651
  835MPD2    H712338   3.920   3.654  11.212 -0.2491  1.1081 -0.6393
  836MPD2     C12339   3.932   3.771  11.801  1.1742  0.2134 -0.0643
  836MPD2    C112340   4.029   3.764  11.901  0.2869  0.2054  0.1834
  836MPD2    C212341   3.998   3.745  12.033  0.7627 -0.3563 -0.2799
  836MPD2    C312342   3.863   3.737  12.061 -0.0467 -0.1018 -0.7742
  836MPD2    C412343   3.766   3.746  11.959 -0.3429  0.7437 -0.8023
  836MPD2    C512344   3.803   3.749  11.828 -0.4897  0.3570  0.1501
  836MPD2     H12345   4.076   3.734  12.107 -0.6128  0.4449  1.3070
  836MPD2    H112346   3.659   3.752  11.975 -0.2362  0.1531  0.1451
  836MPD2    H212347   3.965   3.799  11.701 -1.8879  1.5342 -0.6739
  836MPD2    H312348   3.727   3.758  11.751 -2.4444 -0.3412  1.9803
  836MPD2     N12349   3.821   3.713  12.187  0.2022 -0.7021 -0.0708
  836MPD2    H512350   3.722   3.697  12.200  0.1897  0.3627  1.1490
  836MPD2    N112351   4.153   3.771  11.850 -0.5894  0.7691  0.5473
  836MPD2    H712352   4.159   3.783  11.750 -1.9190 -2.7462  0.0462
  837MPD2     C12353   1.803   2.608  10.722  0.1315  0.0485 -0.5313
  837MPD2    C112354   1.835   2.627  10.585  0.9132  0.2604 -0.2982
  837MPD2    C212355   1.875   2.752  10.547 -0.3574  0.0379  0.1276
  837MPD2    C312356   1.878   2.862  10.636  0.1201 -0.9136  0.7272
  837MPD2    C412357   1.858   2.834  10.766  0.3825  0.2181 -0.4616
  837MPD2    C512358   1.817   2.714  10.805  0.3209 -0.1960  0.4584
  837MPD2     H12359   1.912   2.767  10.446  0.2051  2.4168  0.6781
  837MPD2    H112360   1.849   2.909  10.844 -1.1669  1.7167 -2.0927
  837MPD2    H212361   1.756   2.522  10.769  1.6688 -1.2176 -1.2912
  837MPD2    H312362   1.800   2.707  10.912 -0.6457  0.5878  0.3549
  837MPD2     N12363   1.875   2.985  10.576  0.0356 -0.1779 -0.5284
  837MPD2    H512364   1.875   2.981  10.474 -0.7597 -0.9161 -0.5037
  837MPD2    N112365   1.830   2.529  10.487 -0.2667 -0.3596 -0.3955
  837MPD2    H712366   1.875   2.561  10.402 -1.2693 -0.3378 -0.9187
  838MPD2     C12367   0.622   1.741  11.576 -0.0601 -0.1195 -0.6265
  838MPD2    C112368   0.540   1.634  11.593 -0.0879  0.1551 -0.6244
  838MPD2    C212369   0.503   1.603  11.718 -0.0186 -0.1675  0.0979
  838MPD2    C312370   0.536   1.682  11.829 -0.3459 -0.9170 -0.0505
  838MPD2    C412371   0.618   1.791  11.811  0.8590  0.5250 -0.3200
  838MPD2    C512372   0.659   1.821  11.684  0.2262 -0.0461 -0.4978
  838MPD2     H12373   0.441   1.517  11.739 -0.3421  0.4371  1.5994
  838MPD2    H112374   0.644   1.863  11.888 -0.2349  0.4791  0.0964
  838MPD2    H212375   0.649   1.782  11.480  1.2132  1.1520  0.2612
  838MPD2    H312376   0.724   1.906  11.670  0.8612 -0.5756 -0.8042
  838MPD2     N12377   0.483   1.635  11.954 -0.1502 -0.0703 -0.8994
  838MPD2    H512378   0.419   1.557  11.943  3.0175 -2.7136 -0.9795
  838MPD2    N112379   0.495   1.548  11.486 -0.4217 -0.2112 -0.3362
  838MPD2    H712380   0.434   1.470  11.508 -0.6674  0.0322 -0.1477
  839MPD2     C12381   4.566   1.179  11.586  0.1042  0.4623  0.0855
  839MPD2    C112382   4.605   1.122  11.471 -0.2955  0.4069  0.4186
  839MPD2    C212383   4.666   1.207  11.371  0.0112 -0.0300 -0.0704
  839MPD2    C312384   4.711   1.330  11.412  0.4230  0.3147 -1.0639
  839MPD2    C412385   4.686   1.377  11.538 -0.2446 -0.0067 -0.0419
  839MPD2    C512386   4.605   1.305  11.619 -1.0557 -1.2539  0.5508
  839MPD2     H12387   4.691   1.160  11.277  1.0720  0.6927 -0.1463
  839MPD2    H112388   4.722   1.477  11.561 -1.7772 -0.5704  4.8139
  839MPD2    H212389   4.511   1.127  11.664 -2.4007  1.5408 -0.9563
  839MPD2    H312390   4.570   1.346  11.714 -0.5478 -1.0280  0.6402
  839MPD2     N12391   0.056   1.409  11.328  0.4246 -0.2498 -0.1580
  839MPD2    H512392   0.085   1.502  11.359  0.0482 -0.1371 -0.1465
  839MPD2    N112393   4.590   0.980  11.436 -0.3550 -0.0390 -0.2272
  839MPD2    H712394   4.625   0.956  11.343  3.4127  0.0688  1.1407
  840MPD2     C12395   1.016   3.749  10.448  0.8108  0.4268  0.3630
  840MPD2    C112396   0.917   3.828  10.508  0.7729 -0.0765 -0.1572
  840MPD2    C212397   0.956   3.940  10.582  0.5927  0.0819  0.3954
  840MPD2    C312398   1.088   3.986  10.582  0.1251  0.4428  1.0052
  840MPD2    C412399   1.180   3.909  10.518 -0.5949 -0.3538 -0.7721
  840MPD2    C512400   1.150   3.787  10.464  0.7357  0.0226  0.5605
  840MPD2     H12401   0.884   3.995  10.643 -0.0469  0.2049 -0.4673
  840MPD2    H112402   1.282   3.943  10.525 -1.0963  0.9980 -0.0759
  840MPD2    H212403   0.984   3.664  10.389 -0.3726  0.8680  0.3538
  840MPD2    H312404   1.232   3.722  10.438  1.3308  0.4750  1.3150
  840MPD2     N12405   1.129   4.102  10.652 -0.1085  0.1867  1.0626
  840MPD2    H512406   1.225   4.121  10.678 -0.2029  1.7672  0.2180
  840MPD2    N112407   0.784   3.782  10.500 -0.2856 -0.0318  0.4804
  840MPD2    H712408   0.768   3.690  10.458  1.8387 -0.1184 -0.1150
  841MPD2     C12409   0.028   3.904  14.746  0.7190  0.3387 -0.6622
  841MPD2    C112410   0.088   3.951  14.637  0.8944 -0.3338  0.3941
  841MPD2    C212411   0.218   3.991  14.635 -0.5863  0.5190  0.3951
  841MPD2    C312412   0.284   3.998  14.758  0.7602  0.1404 -0.2163
  841MPD2    C412413   0.214   3.966  14.875  0.2439  0.2924 -0.0379
  841MPD2    C512414   0.088   3.912  14.871  0.1834 -0.0962  0.4175
  841MPD2     H12415   0.266   4.011  14.539 -0.7749 -1.2847 -0.0805
  841MPD2    H112416   0.257   3.958  14.974 -0.6142  0.0695  0.3161
  841MPD2    H212417   4.669   3.852  14.740  1.0848 -0.2663 -1.1658
  841MPD2    H312418   0.034   3.876  14.958  0.1293 -1.2862 -0.1172
  841MPD2     N12419   0.421   4.039  14.772  0.1806 -0.0801  0.2310
  841MPD2    H512420   0.476   4.032  14.687 -1.4091 -1.6453 -0.6534
  841MPD2    N112421   0.021   3.958  14.519 -0.1590 -0.6746  0.1586
  841MPD2    H712422   0.072   3.996  14.440  1.6750 -1.7855  0.8161
  842MPD2     C12423   0.708   0.400  16.968  0.6081  0.2998  0.1384
  842MPD2    C112424   0.587   0.334  16.956  0.0116  0.0526  0.3093
  842MPD2    C212425   0.562   0.222  17.037 -0.5209  0.6984  0.0297
  842MPD2    C312426   0.663   0.185  17.132  0.5629  0.2224  0.3229
  842MPD2    C412427   0.780   0.253  17.143 -0.0436 -0.2209 -0.1814
  842MPD2    C512428   0.802   0.358  17.056  0.6285  0.1262 -0.5035
  842MPD2     H12429   0.461   0.183  17.037 -0.8164  1.4475 -0.3862
  842MPD2    H112430   0.858   0.209  17.204 -0.1839 -0.9633 -0.5444
  842MPD2    H212431   0.722   0.488  16.906  1.9786  0.4710  0.6851
  842MPD2    H312432   0.897   0.409  17.051 -0.3970  2.1469  0.5369
  842MPD2     N12433   0.640   0.076  17.224  0.3490  0.2910  0.5342
  842MPD2    H512434   0.714   0.047  17.287  0.6856  0.7254  0.3398
  842MPD2    N112435   0.490   0.398  16.875  0.2300 -0.0883 -0.1162
  842MPD2    H712436   0.498   0.492  16.838 -1.3882  0.0640 -0.0965
  843MPD2     C12437   2.817   1.174  17.181 -0.1716 -0.3315  0.3935
  843MPD2    C112438   2.841   1.089  17.285 -0.0745  0.3169 -0.0262
  843MPD2    C212439   2.883   1.136  17.411  0.6612  0.2850 -0.2231
  843MPD2    C312440   2.908   1.271  17.430 -0.3193  0.3444  0.4264
  843MPD2    C412441   2.883   1.358  17.323  0.5104  0.1351  0.2861
  843MPD2    C512442   2.836   1.303  17.204 -0.0132  0.3701  0.1104
  843MPD2     H12443   2.896   1.065  17.492  0.5601 -1.2583 -1.5394
  843MPD2    H112444   2.886   1.467  17.321  1.9683  0.0850 -0.6217
  843MPD2    H212445   2.791   1.139  17.082 -1.8112  2.0744 -0.0022
  843MPD2    H312446   2.812   1.369  17.122 -0.0471 -0.8743 -0.8734
  843MPD2     N12447   2.963   1.330  17.543  0.2689 -0.0952  0.3234
  843MPD2    H512448   2.994   1.427  17.538  2.1424 -0.7145 -0.3525
  843MPD2    N112449   2.824   0.951  17.251  0.5564  0.0634  0.2489
  843MPD2    H712450   2.786   0.938  17.158  3.6977  0.0295 -1.0567
  844MPD2     C12451   1.173   4.699  16.378  0.1843  0.3306 -0.2471
  844MPD2    C112452   1.297   4.675  16.321 -0.4141 -0.2921 -0.2655
  844MPD2    C212453   1.407   4.735  16.385  0.0634  0.7198 -0.0728
  844MPD2    C312454   1.390   0.086  16.497 -0.9110  0.3043  0.1021
  844MPD2    C412455   1.264   0.101  16.548  0.1342  0.0630 -0.0469
  844MPD2    C512456   1.158   0.041  16.490  0.0690  0.2150 -0.0578
  844MPD2     H12457   1.509   4.713  16.356  0.4164  1.1355  0.8310
  844MPD2    H112458   1.247   0.162  16.636 -0.0480  0.4236 -0.3348
  844MPD2    H212459   1.081   4.657  16.337  0.5188 -1.2018  0.5658
  844MPD2    H312460   1.058   0.054  16.530 -0.0903 -4.5144  1.1236
  844MPD2     N12461   1.502   0.123  16.574 -0.2063 -0.3991  0.0301
  844MPD2    H512462   1.591   0.083  16.548 -0.1363  1.5032 -2.6867
  844MPD2    N112463   1.332   4.578  16.224  0.1946 -0.3505  0.7373
  844MPD2    H712464   1.426   4.586  16.186  0.1251  0.8277  0.8155
  845MPD2     C12465   1.580   0.985  17.050  0.1826  0.0761  0.8728
  845MPD2    C112466   1.498   0.884  17.078  0.1524 -1.1130 -0.0367
  845MPD2    C212467   1.528   0.755  17.038 -0.9550 -0.6231 -0.2357
  845MPD2    C312468   1.644   0.728  16.976 -0.6828  0.5549  0.0720
  845MPD2    C412469   1.723   0.832  16.936 -0.2624 -0.0737  0.2695
  845MPD2    C512470   1.700   0.959  16.988  0.4067 -0.5604 -0.1690
  845MPD2     H12471   1.466   0.669  17.057  1.1376 -2.1222 -0.1519
  845MPD2    H112472   1.818   0.808  16.889 -1.5433  0.4334 -2.5561
  845MPD2    H212473   1.565   1.083  17.094  1.5351 -0.7874  3.2475
  845MPD2    H312474   1.776   1.036  16.973 -0.3693  0.3008  0.3244
  845MPD2     N12475   1.660   0.600  16.920  0.1157 -0.1378  0.0797
  845MPD2    H512476   1.587   0.530  16.926  2.3019 -2.3081  1.3573
  845MPD2    N112477   1.371   0.912  17.144 -0.1655  0.3053 -0.4625
  845MPD2    H712478   1.360   1.007  17.177  0.1051  0.7924 -1.7693
  846MPD2     C12479   2.074   0.939  13.493  0.4544  0.7586  0.5756
  846MPD2    C112480   2.197   0.951  13.551 -0.2778 -0.5354 -0.1287
  846MPD2    C212481   2.210   1.004  13.680 -0.0093  0.2217  0.8295
  846MPD2    C312482   2.101   1.043  13.754 -0.1697  0.1278 -1.0257
  846MPD2    C412483   1.974   1.036  13.692  0.0581 -0.1741  0.2266
  846MPD2    C512484   1.963   0.981  13.567 -0.1672 -0.3122 -0.5505
  846MPD2     H12485   2.309   0.989  13.721  0.6282  1.0886 -0.3719
  846MPD2    H112486   1.881   1.049  13.747 -0.5322 -0.4875 -0.7047
  846MPD2    H212487   2.052   0.908  13.391  0.6931  1.0665  0.4320
  846MPD2    H312488   1.862   0.954  13.538  0.1976  0.5915 -2.6836
  846MPD2     N12489   2.114   1.075  13.897  0.4326  1.0406 -1.0302
  846MPD2    H512490   2.204   1.047  13.934 -1.0203 -1.9549  0.1472
  846MPD2    N112491   2.315   0.922  13.481 -0.1365 -0.3187 -0.4937
  846MPD2    H712492   2.392   0.968  13.529  0.3198 -0.1038 -1.4389
  847MPD2     C12493   3.141   1.809  14.835 -0.0888 -0.2387  0.3094
  847MPD2    C112494   3.259   1.880  14.823  0.7654 -0.2188  0.7228
  847MPD2    C212495   3.352   1.874  14.932  0.0980 -0.9105 -0.3555
  847MPD2    C312496   3.337   1.787  15.040 -0.4374 -0.0082 -0.1593
  847MPD2    C412497   3.223   1.709  15.048  0.2157  0.1950  0.6670
  847MPD2    C512498   3.129   1.727  14.940  0.8114 -0.4871  0.9737
  847MPD2     H12499   3.445   1.928  14.922  0.5553 -1.6327  0.0391
  847MPD2    H112500   3.199   1.641  15.129  1.1541  0.3129  1.0477
  847MPD2    H212501   3.060   1.816  14.763  0.5729 -0.6878 -0.4679
  847MPD2    H312502   3.035   1.677  14.961  0.7804 -1.7701 -2.2390
  847MPD2     N12503   3.437   1.782  15.138 -0.5323  0.4579 -0.6288
  847MPD2    H512504   3.521   1.828  15.104  1.5593 -2.1069  1.0941
  847MPD2    N112505   3.291   1.960  14.710  0.2171 -0.1750  0.2153
  847MPD2    H712506   3.389   1.984  14.706 -0.0938  0.9976 -0.1018
  848MPD2     C12507   0.880   0.270  16.340 -0.0592 -0.0695 -0.1244
  848MPD2    C112508   0.946   0.343  16.426 -0.5249 -0.0732  0.3181
  848MPD2    C212509   1.010   0.457  16.382 -0.4140 -0.0638  0.6651
  848MPD2    C312510   0.988   0.499  16.256  0.4909 -0.1911  0.4264
  848MPD2    C412511   0.917   0.424  16.164 -0.5617 -0.1722  0.2135
  848MPD2    C512512   0.869   0.301  16.206  0.8331  0.0154  0.8711
  848MPD2     H12513   1.067   0.515  16.454  1.2504 -0.3895 -0.3815
  848MPD2    H112514   0.896   0.464  16.065  0.8231  0.3723  0.1503
  848MPD2    H212515   0.838   0.173  16.365  1.8629 -1.2257 -1.3992
  848MPD2    H312516   0.816   0.232  16.142 -2.4659  1.4230  2.0953
  848MPD2     N12517   1.021   0.628  16.212  0.1358 -0.2669 -0.5880
  848MPD2    H512518   0.982   0.654  16.122 -0.0524 -2.4034 -1.1302
  848MPD2    N112519   0.948   0.313  16.563 -0.1977 -0.4088 -0.2359
  848MPD2    H712520   1.012   0.363  16.624 -1.0392  0.5646 -0.1378
  849MPD2     C12521   0.118   4.509  13.976 -0.5718 -0.4996 -0.1015
  849MPD2    C112522   0.243   4.524  13.927  0.1366 -0.7172  0.3518
  849MPD2    C212523   0.345   4.479  14.015  0.5601  0.2718 -0.0625
  849MPD2    C312524   0.330   4.442  14.145  0.7033  0.2801 -0.3169
  849MPD2    C412525   0.206   4.435  14.194  0.0376 -0.2020 -0.1659
  849MPD2    C512526   0.104   4.463  14.107 -0.5021  0.1985  0.2840
  849MPD2     H12527   0.447   4.486  13.979  1.6109 -0.9343  2.6388
  849MPD2    H112528   0.180   4.383  14.286  0.9233 -1.6990 -0.7622
  849MPD2    H212529   0.028   4.529  13.919 -0.7535  3.4806  1.5820
  849MPD2    H312530   0.008   4.436  14.147 -0.9430  1.0954 -0.1492
  849MPD2     N12531   0.448   4.395  14.213  1.3209  0.1456  0.1367
  849MPD2    H512532   0.535   4.411  14.164 -0.6646 -0.5748 -3.5930
  849MPD2    N112533   0.262   4.578  13.794 -0.1924  0.2451 -0.0141
  849MPD2    H712534   0.185   4.598  13.731  0.1759  1.9562  0.0800
  850MPD2     C12535   3.331   2.983  14.464 -0.1544  1.1749 -0.2409
  850MPD2    C112536   3.279   3.058  14.559 -0.1225 -0.2489  0.0863
  850MPD2    C212537   3.360   3.145  14.635  0.4321  0.0076  0.4374
  850MPD2    C312538   3.494   3.157  14.601  0.0533 -0.1629 -0.7003
  850MPD2    C412539   3.546   3.076  14.494 -0.0965 -0.0419  0.6461
  850MPD2    C512540   3.464   2.993  14.430  0.3833 -0.0864  0.2901
  850MPD2     H12541   3.315   3.207  14.712 -1.0924 -2.8257  1.8232
  850MPD2    H112542   3.652   3.073  14.473 -0.8425  0.2188 -3.1567
  850MPD2    H212543   3.269   2.914  14.406 -0.1473  2.0396 -1.2697
  850MPD2    H312544   3.505   2.931  14.351  1.6225 -0.2298  1.0598
  850MPD2     N12545   3.590   3.231  14.675 -0.5310  0.6710 -0.1735
  850MPD2    H512546   3.683   3.248  14.638 -0.3556 -0.3976 -0.2045
  850MPD2    N112547   3.135   3.045  14.565 -0.6503  0.5085  0.3445
  850MPD2    H712548   3.096   2.986  14.493  1.9219 -1.1453  0.2775
  851MPD2     C12549   3.461   2.775  15.311 -0.3439 -0.3751 -0.0574
  851MPD2    C112550   3.368   2.756  15.211 -0.0601  0.2393 -0.0530
  851MPD2    C212551   3.316   2.627  15.191 -0.0868 -0.2707  0.2114
  851MPD2    C312552   3.368   2.517  15.256 -0.1919 -0.3911 -0.4535
  851MPD2    C412553   3.475   2.538  15.344 -0.5812  0.0892 -0.3239
  851MPD2    C512554   3.518   2.666  15.371 -0.0074 -0.1981 -0.0859
  851MPD2     H12555   3.229   2.618  15.127 -1.5065 -4.1775  2.6935
  851MPD2    H112556   3.533   2.463  15.397 -0.4853  0.2287 -0.2326
  851MPD2    H212557   3.501   2.874  15.332 -3.7472  1.0358 -0.2979
  851MPD2    H312558   3.610   2.679  15.427 -0.1707  2.7439 -0.5033
  851MPD2     N12559   3.330   2.382  15.221 -0.0266  1.0282  0.2894
  851MPD2    H512560   3.271   2.367  15.140 -1.2732  0.9907  1.1881
  851MPD2    N112561   3.314   2.866  15.144 -0.2999  0.3715 -0.2845
  851MPD2    H712562   3.337   2.960  15.173  2.4807  0.2408 -2.0936
  852MPD2     C12563   2.676   0.140  10.327  0.1323  0.2533  0.4338
  852MPD2    C112564   2.749   0.192  10.420 -0.4868 -0.5843 -0.0381
  852MPD2    C212565   2.793   0.324  10.405  0.1831 -0.3917  0.4993
  852MPD2    C312566   2.762   0.399  10.296  0.3039 -0.7484 -0.1046
  852MPD2    C412567   2.677   0.347  10.202  0.2865  0.2558 -0.0210
  852MPD2    C512568   2.633   0.216  10.219 -0.7578  0.0988 -0.3086
  852MPD2     H12569   2.876   0.352  10.470 -1.2881  0.2964  2.0859
  852MPD2    H112570   2.640   0.412  10.123  0.4251 -3.1026 -2.8210
  852MPD2    H212571   2.635   0.041  10.346  1.6514 -0.5218 -0.3736
  852MPD2    H312572   2.565   0.171  10.148 -2.0817  1.8838 -0.1892
  852MPD2     N12573   2.825   0.538  10.287 -0.3460  0.3903  0.3625
  852MPD2    H512574   2.885   0.566  10.364 -0.5464 -1.7920  1.3107
  852MPD2    N112575   2.785   0.122  10.537 -0.2147 -0.1531 -0.0473
  852MPD2    H712576   2.826   0.174  10.614  0.5012 -0.5509 -0.1600
  853MPD2     C12577   0.155   4.566  12.098  0.5558 -0.9974  0.1546
  853MPD2    C112578   0.026   4.615  12.097  0.2982  0.5394  0.3968
  853MPD2    C212579   4.681   4.589  11.990  0.2493 -0.2534  0.0648
  853MPD2    C312580   4.731   4.506  11.891  0.2010  0.3669 -0.0996
  853MPD2    C412581   0.127   4.456  11.892  0.0128  0.0140  0.1153
  853MPD2    C512582   0.211   4.497  11.997  0.0674  0.6280 -0.2955
  853MPD2     H12583   4.580   4.627  11.982  0.6755  0.9481  0.3316
  853MPD2    H112584   0.168   4.385  11.821 -0.3316 -0.8997  0.8251
  853MPD2    H212585   0.223   4.581  12.181  1.6615 -2.3323 -0.4892
  853MPD2    H312586   0.315   4.466  12.004 -0.4906 -1.2349 -0.4422
  853MPD2     N12587   4.658   4.466  11.774 -0.4751 -0.1008  0.3532
  853MPD2    H512588   4.720   4.424  11.705 -3.0282  0.2796 -2.1584
  853MPD2    N112589   4.721   4.679  12.212  0.2913  0.7614 -0.0526
  853MPD2    H712590   0.048   4.691  12.291 -0.3750 -0.3722  0.6527
  854MPD2     C12591   1.417   0.048  12.961 -0.5301 -0.5844  0.5048
  854MPD2    C112592   1.506   0.154  12.956 -0.2685  0.2124 -0.8702
  854MPD2    C212593   1.617   0.151  13.040 -0.2006  0.3126 -0.6519
  854MPD2    C312594   1.636   0.047  13.128  0.2196 -0.0106  0.6462
  854MPD2    C412595   1.543   4.681  13.143  0.1506 -0.3673  0.1508
  854MPD2    C512596   1.434   4.685  13.056  0.7112 -0.3767  0.2530
  854MPD2     H12597   1.696   0.225  13.039 -0.2067  0.2874 -2.5991
  854MPD2    H112598   1.557   4.605  13.219 -0.8054 -2.1710 -1.4637
  854MPD2    H212599   1.331   0.041  12.896 -0.7858 -0.3726  0.8169
  854MPD2    H312600   1.357   4.609  13.049 -0.1185  0.6018 -1.2846
  854MPD2     N12601   1.748   0.035  13.214  0.7676  0.6673  0.1751
  854MPD2    H512602   1.739   4.705  13.291  2.4148  1.6176  1.1791
  854MPD2    N112603   1.483   0.258  12.861  0.0912 -0.0151  0.1330
  854MPD2    H712604   1.401   0.237  12.805 -1.0185  1.1156  1.3408
  855MPD2     C12605   1.691   4.674  13.987  0.2714  0.8417 -1.0578
  855MPD2    C112606   1.739   4.565  13.926  0.6940  0.0959  0.8252
  855MPD2    C212607   1.815   4.582  13.810  0.0120  0.2065 -0.0954
  855MPD2    C312608   1.854   4.707  13.775  0.3879  0.3289 -0.3528
  855MPD2    C412609   1.793   0.084  13.830  0.3952  0.1482  0.0978
  855MPD2    C512610   1.711   0.069  13.940  0.3904 -0.1696  0.3954
  855MPD2     H12611   1.857   4.498  13.757 -2.3510 -0.4848 -0.8748
  855MPD2    H112612   1.804   0.185  13.792 -1.8014  0.9729  1.6885
  855MPD2    H212613   1.626   4.660  14.073  0.4799  0.8180 -0.9040
  855MPD2    H312614   1.676   0.151  14.001 -2.1995 -1.4526  0.6317
  855MPD2     N12615   1.937   4.729  13.657 -0.2460 -0.3596  0.3265
  855MPD2    H512616   1.930   0.085  13.615  2.3810 -1.1171 -1.7320
  855MPD2    N112617   1.714   4.432  13.970  0.6187 -0.6239  0.8562
  855MPD2    H712618   1.750   4.362  13.906  1.8370  1.2547 -0.5030
  856MPD2     C12619   4.126   0.877  14.187  0.3805 -0.2390 -0.1015
  856MPD2    C112620   4.101   1.005  14.145 -0.1772  0.5109 -0.5942
  856MPD2    C212621   3.968   1.045  14.119 -0.0260  0.2361 -1.4113
  856MPD2    C312622   3.871   0.954  14.162 -0.5723  0.0161 -0.6296
  856MPD2    C412623   3.898   0.826  14.201  0.2334 -0.5293 -0.7541
  856MPD2    C512624   4.028   0.790  14.217 -0.7960 -0.0094 -0.1420
  856MPD2     H12625   3.948   1.148  14.092  0.4275  0.1126 -2.2202
  856MPD2    H112626   3.821   0.751  14.209 -0.1685  0.1492  1.6952
  856MPD2    H212627   4.226   0.834  14.193 -0.3127 -1.9030 -0.5300
  856MPD2    H312628   4.059   0.691  14.247 -2.0834 -0.4601 -0.2653
  856MPD2     N12629   3.736   0.990  14.163  0.0860  0.5462  0.0492
  856MPD2    H512630   3.672   0.920  14.199 -0.2509  1.3699  1.0587
  856MPD2    N112631   4.213   1.098  14.125 -0.7398  0.3126  0.2196
  856MPD2    H712632   4.192   1.181  14.070  1.9593  1.1403  0.4468
  857MPD2     C12633   0.788   2.978  13.037 -0.1420  0.3445 -0.8344
  857MPD2    C112634   0.907   2.970  12.971  0.0040  0.6499 -0.2638
  857MPD2    C212635   0.973   3.091  12.939 -0.2697  0.8468  0.1772
  857MPD2    C312636   0.924   3.213  12.973 -0.3919 -0.3266  0.0344
  857MPD2    C412637   0.815   3.214  13.062  0.1075  0.4054  0.0574
  857MPD2    C512638   0.745   3.099  13.082  0.6462  0.3337  0.4338
  857MPD2     H12639   1.069   3.094  12.889  0.6242 -1.4025  1.7861
  857MPD2    H112640   0.775   3.296  13.122 -1.1553 -0.6260  0.6419
  857MPD2    H212641   0.740   2.884  13.060 -0.3660  0.2904 -1.5399
  857MPD2    H312642   0.653   3.097  13.140 -0.9058  2.4605 -1.9207
  857MPD2     N12643   1.002   3.322  12.934 -0.6711 -0.0938 -0.1985
  857MPD2    H512644   1.073   3.299  12.865 -0.3558 -0.3450  0.2082
  857MPD2    N112645   0.953   2.843  12.922 -0.0186  0.7088 -0.3394
  857MPD2    H712646   0.877   2.777  12.927  0.3088  0.2986 -0.8158
  858MPD2     C12647   1.942   2.472  16.651 -0.1455  0.3357  0.3698
  858MPD2    C112648   1.832   2.553  16.647 -0.4245  0.4669  0.3878
  858MPD2    C212649   1.780   2.597  16.767  0.6321  0.0704 -0.1332
  858MPD2    C312650   1.840   2.557  16.882  0.0824 -0.1460 -0.1814
  858MPD2    C412651   1.949   2.476  16.876 -0.6327  0.0013  0.5631
  858MPD2    C512652   2.010   2.440  16.762  0.0124  0.3814  0.2064
  858MPD2     H12653   1.693   2.661  16.773 -0.6110 -1.7303  1.2311
  858MPD2    H112654   2.001   2.443  16.965  1.3638 -0.0379 -0.6119
  858MPD2    H212655   1.982   2.433  16.559  0.8308 -0.4086  1.1076
  858MPD2    H312656   2.102   2.383  16.762 -0.4353 -0.3383 -0.6365
  858MPD2     N12657   1.805   2.599  17.009  0.5117 -0.0043 -0.4355
  858MPD2    H512658   1.847   2.561  17.094 -0.3024  1.5451  0.6729
  858MPD2    N112659   1.781   2.584  16.520  0.4980 -1.0573  0.2103
  858MPD2    H712660   1.831   2.549  16.439  2.9640  1.2967  0.7312
  859MPD2     C12661   0.003   0.036  15.819 -0.7676  0.4970  0.3556
  859MPD2    C112662   0.097   4.734  15.733 -0.1095 -0.2334 -0.0212
  859MPD2    C212663   0.154   4.613  15.752 -0.3264  1.1548  0.6285
  859MPD2    C312664   0.113   4.534  15.862 -0.0013  0.0555 -0.0051
  859MPD2    C412665   0.014   4.575  15.946  0.4482 -0.4903 -0.0659
  859MPD2    C512666   4.686   4.690  15.912 -0.0260  0.1512 -0.1181
  859MPD2     H12667   0.233   4.566  15.694 -2.2954 -0.2145 -0.9375
  859MPD2    H112668   4.711   4.515  16.027 -1.0119  0.2351 -0.2339
  859MPD2    H212669   4.689   0.128  15.791  0.0764  1.3094  1.5026
  859MPD2    H312670   4.598   4.717  15.969  0.8531  1.6253  0.5465
  859MPD2     N12671   0.180   4.418  15.913 -0.0913  0.7859 -0.3726
  859MPD2    H512672   0.148   4.379  16.001 -1.6414 -0.3554 -1.4172
  859MPD2    N112673   0.153   0.091  15.636  0.8663 -0.2486  0.0667
  859MPD2    H712674   0.099   0.174  15.613 -0.3928 -0.6219  1.6966
  860MPD2     C12675   2.933   4.609  11.812  0.3770  0.3747 -0.7374
  860MPD2    C112676   2.942   4.602  11.949  0.8329  0.1513  0.1742
  860MPD2    C212677   2.827   4.604  12.030  0.2268  0.0184  0.6537
  860MPD2    C312678   2.707   4.597  11.966  0.4056  0.6356 -0.6638
  860MPD2    C412679   2.694   4.594  11.829 -0.0643 -0.2190 -0.4715
  860MPD2    C512680   2.805   4.616  11.759  0.8243  0.3106  0.2921
  860MPD2     H12681   2.849   4.594  12.136  0.9529 -3.7606  0.1218
  860MPD2    H112682   2.597   4.577  11.783  0.0595  0.0676 -0.8391
  860MPD2    H212683   3.015   4.631  11.745  1.0776  0.2127  0.0672
  860MPD2    H312684   2.801   4.605  11.651 -1.4361 -2.3568  0.6415
  860MPD2     N12685   2.594   4.574  12.042  0.6472 -0.8954  0.2557
  860MPD2    H512686   2.607   4.553  12.140 -0.4773 -0.1810  0.5561
  860MPD2    N112687   3.070   4.598  12.015  0.4978 -0.3738  0.3555
  860MPD2    H712688   3.068   4.598  12.116 -2.3055 -0.3298  0.2923
  861MPD2     C12689   1.169   2.678  11.348 -0.1260 -0.4892  0.1301
  861MPD2    C112690   1.245   2.794  11.332 -0.0412  0.6710  0.0008
  861MPD2    C212691   1.229   2.871  11.216 -0.2605 -0.1675  0.1342
  861MPD2    C312692   1.137   2.836  11.117 -0.5314 -0.1831  0.5123
  861MPD2    C412693   1.065   2.712  11.134  0.1702  0.2546 -0.1650
  861MPD2    C512694   1.090   2.634  11.244 -0.5273  0.3976 -0.3914
  861MPD2     H12695   1.273   2.970  11.212  0.1737 -0.3683 -0.0594
  861MPD2    H112696   1.021   2.661  11.049  0.6112  2.0621 -1.4780
  861MPD2    H212697   1.170   2.615  11.436 -0.5628  0.1914  0.6176
  861MPD2    H312698   1.050   2.533  11.249 -1.3286  0.7391 -0.0568
  861MPD2     N12699   1.125   2.917  11.000  0.9127  0.0819 -0.1502
  861MPD2    H512700   1.050   2.903  10.934  0.9494 -0.3561 -0.1000
  861MPD2    N112701   1.323   2.830  11.446 -0.6655 -0.2877 -0.5619
  861MPD2    H712702   1.316   2.765  11.524  1.6657 -2.1397 -1.8665
  862MPD2     C12703   0.825   3.042  10.385 -0.3672  0.3749  0.0396
  862MPD2    C112704   0.933   2.975  10.452  0.5337 -0.1862  0.7171
  862MPD2    C212705   0.969   2.849  10.409  0.1312 -0.8465 -0.0198
  862MPD2    C312706   0.911   2.790  10.297  0.6929  0.4671 -0.4703
  862MPD2    C412707   0.801   2.857  10.233 -0.3237  0.1796 -1.0200
  862MPD2    C512708   0.766   2.983  10.272 -0.7786 -0.1283 -0.3590
  862MPD2     H12709   1.060   2.800  10.443  1.2850  1.7649  0.6218
  862MPD2    H112710   0.741   2.815  10.153  1.4340 -2.3982 -0.9806
  862MPD2    H212711   0.772   3.132  10.414 -0.8692  0.1434 -0.1645
  862MPD2    H312712   0.676   3.031  10.236 -0.7603 -0.4214 -0.7915
  862MPD2     N12713   0.960   2.664  10.248 -0.1712  0.3106 -0.0675
  862MPD2    H512714   1.030   2.622  10.308 -0.2986 -0.5769 -0.5451
  862MPD2    N112715   1.007   3.034  10.555 -0.4679 -0.0443 -0.4194
  862MPD2    H712716   1.061   2.974  10.616 -0.3902 -0.8097 -1.2304
  863MPD2     C12717   4.276   1.476  16.564 -0.2056  0.2880  0.4433
  863MPD2    C112718   4.312   1.601  16.599 -0.2730  0.2002 -0.4325
  863MPD2    C212719   4.400   1.625  16.704 -0.5587  0.5552  0.0920
  863MPD2    C312720   4.451   1.521  16.776 -0.6111  0.1806 -0.0640
  863MPD2    C412721   4.410   1.391  16.747  0.4270  0.1062 -0.2789
  863MPD2    C512722   4.326   1.375  16.643  0.2372 -0.3617  0.3969
  863MPD2     H12723   4.431   1.726  16.730  0.7829 -0.1215  1.1554
  863MPD2    H112724   4.428   1.309  16.815  0.8166  1.4965  1.2884
  863MPD2    H212725   4.198   1.459  16.491  0.1047 -0.0557  0.1890
  863MPD2    H312726   4.296   1.274  16.619  0.1966  0.0781 -1.3797
  863MPD2     N12727   4.546   1.536  16.881  0.3894 -0.3100 -0.4790
  863MPD2    H512728   4.572   1.454  16.935 -0.0398 -0.4277 -0.4526
  863MPD2    N112729   4.249   1.701  16.525 -0.0813 -0.4599 -0.7552
  863MPD2    H712730   4.181   1.663  16.459  0.0974 -1.1913 -0.5232
  864MPD2     C12731   0.276   2.480  17.466 -0.0315  0.1949  0.4291
  864MPD2    C112732   0.355   2.426  17.374  0.3504 -0.3455 -0.8282
  864MPD2    C212733   0.447   2.509  17.313 -0.6278 -0.2831 -0.7783
  864MPD2    C312734   0.469   2.633  17.360  0.0201  0.1121 -0.1160
  864MPD2    C412735   0.393   2.689  17.464  0.2817 -0.0307  0.5852
  864MPD2    C512736   0.299   2.606  17.518 -0.4101  0.1100 -0.3527
  864MPD2     H12737   0.492   2.485  17.217 -0.6479  0.3253 -0.9349
  864MPD2    H112738   0.402   2.794  17.487  2.7054 -0.5776  2.1728
  864MPD2    H212739   0.189   2.427  17.504  0.2290  0.9480  2.0824
  864MPD2    H312740   0.238   2.647  17.598 -0.0677  0.3389 -0.2112
  864MPD2     N12741   0.566   2.719  17.292  0.3909  0.5809  0.0064
  864MPD2    H512742   0.584   2.810  17.332 -1.7492  1.4184 -0.9465
  864MPD2    N112743   0.320   2.295  17.332  0.4113  0.1638 -0.1221
  864MPD2    H712744   0.240   2.258  17.382  1.0338 -0.1384  0.6442
  865MPD2     C12745   0.723   3.210  16.527  0.1249  1.1131  0.6575
  865MPD2    C112746   0.664   3.097  16.585 -0.9907 -0.5846  0.4257
  865MPD2    C212747   0.654   3.103  16.726 -0.0560  0.0639 -0.5918
  865MPD2    C312748   0.677   3.216  16.795 -0.1216  0.5241 -0.2931
  865MPD2    C412749   0.721   3.329  16.735 -0.2608 -0.2222  0.5029
  865MPD2    C512750   0.751   3.321  16.600  1.2953 -0.9558  0.6111
  865MPD2     H12751   0.630   3.012  16.781  1.5770  0.9258  1.5252
  865MPD2    H112752   0.765   3.413  16.789 -0.2170  0.2721 -0.2934
  865MPD2    H212753   0.750   3.215  16.422  0.2455  0.0833  0.6370
  865MPD2    H312754   0.782   3.411  16.548 -2.1887 -0.5615 -0.7468
  865MPD2     N12755   0.644   3.227  16.930 -0.3635 -0.7281  0.1271
  865MPD2    H512756   0.637   3.323  16.964  1.9899 -0.8275  0.9235
  865MPD2    N112757   0.634   2.981  16.510  0.3360 -0.1445  0.2716
  865MPD2    H712758   0.651   2.992  16.410  1.4245 -1.5039  0.3082
  866MPD2     C12759   1.988   2.683  11.155 -0.4211  0.3132  0.3529
  866MPD2    C112760   2.065   2.785  11.110  0.2156  1.0180 -0.8542
  866MPD2    C212761   2.010   2.914  11.112 -0.7528  0.8243  0.2417
  866MPD2    C312762   1.883   2.939  11.162 -0.5802  0.2950 -1.2189
  866MPD2    C412763   1.815   2.832  11.216 -0.1246  0.0663 -0.3293
  866MPD2    C512764   1.876   2.708  11.224  0.0166  0.2002  0.1881
  866MPD2     H12765   2.070   2.998  11.078  0.2773  0.9032  2.2280
  866MPD2    H112766   1.720   2.838  11.268 -0.4717  1.8860 -1.1712
  866MPD2    H212767   2.030   2.584  11.154 -0.8973  0.1308 -1.4163
  866MPD2    H312768   1.832   2.621  11.271 -0.7337 -0.2717 -1.4128
  866MPD2     N12769   1.814   3.065  11.161  0.0752 -0.2036 -0.3253
  866MPD2    H512770   1.725   3.077  11.208  1.3603  0.5645  1.9458
  866MPD2    N112771   2.200   2.755  11.081 -0.4132  0.0124  0.5806
  866MPD2    H712772   2.211   2.654  11.072  0.0865  0.1939 -0.9313
  867MPD2     C12773   3.934   3.372  16.907 -0.9125 -0.5975 -0.0656
  867MPD2    C112774   4.002   3.310  17.003 -0.5541  0.2392 -0.7076
  867MPD2    C212775   4.022   3.374  17.123  0.1291 -0.8457 -0.0330
  867MPD2    C312776   3.999   3.503  17.143 -0.2219 -0.9649  0.2454
  867MPD2    C412777   3.932   3.570  17.040 -0.0625 -0.0770  0.8827
  867MPD2    C512778   3.895   3.498  16.928 -0.3462  0.5428  0.7770
  867MPD2     H12779   4.064   3.317  17.205  2.5610  2.3854  0.9372
  867MPD2    H112780   3.888   3.669  17.053  0.8663  0.0167  3.3828
  867MPD2    H212781   3.926   3.336  16.805 -1.3830  0.5063 -0.4163
  867MPD2    H312782   3.841   3.547  16.848 -0.8727 -1.5849 -0.1624
  867MPD2     N12783   4.022   3.572  17.264  0.4582  0.4242  0.3049
  867MPD2    H512784   3.974   3.661  17.265  1.1847  0.8253 -0.6478
  867MPD2    N112785   4.036   3.178  16.971  0.2935  0.8252 -0.0542
  867MPD2    H712786   3.999   3.148  16.881  3.8992  4.4075 -2.7466
  868MPD2     C12787   1.359   2.094  13.067 -0.5709  0.5079 -0.7186
  868MPD2    C112788   1.333   1.965  13.119 -0.4118 -0.2442 -0.4167
  868MPD2    C212789   1.299   1.955  13.252  0.4197 -0.6738  0.1390
  868MPD2    C312790   1.284   2.065  13.332 -0.7443  0.0002  0.4693
  868MPD2    C412791   1.301   2.197  13.283 -0.3511  0.3828 -0.3966
  868MPD2    C512792   1.345   2.203  13.151  0.7592  0.7067 -0.6157
  868MPD2     H12793   1.298   1.860  13.303 -2.0273 -0.2939  0.7814
  868MPD2    H112794   1.297   2.286  13.344 -1.4368  0.1619 -0.1398
  868MPD2    H212795   1.367   2.110  12.960  3.3666  0.8801 -0.3654
  868MPD2    H312796   1.362   2.301  13.109  1.5265  0.2982 -1.2621
  868MPD2     N12797   1.253   2.042  13.468 -0.4725  0.0685  0.0441
  868MPD2    H512798   1.235   1.946  13.493 -0.1993  0.1862  0.6861
  868MPD2    N112799   1.348   1.854  13.030  0.7102  0.6396  0.0596
  868MPD2    H712800   1.391   1.870  12.940 -0.4341  1.1429 -0.3936
  869MPD2     C12801   1.941   4.333   0.626  0.0151  0.1391 -0.1017
  869MPD2    C112802   1.942   4.399   0.503  0.7884  0.2702  0.4449
  869MPD2    C212803   2.050   4.483   0.475 -0.0123 -0.0477 -0.2204
  869MPD2    C312804   2.157   4.498   0.562 -0.3021 -0.2026 -0.2671
  869MPD2    C412805   2.156   4.424   0.681 -0.1578 -0.3391 -0.1272
  869MPD2    C512806   2.051   4.337   0.704  0.4376 -0.3120 -0.4714
  869MPD2     H12807   2.048   4.557   0.396  1.7933  1.8328  1.5053
  869MPD2    H112808   2.233   4.426   0.758 -2.0237  1.1452  1.7066
  869MPD2    H212809   1.858   4.270   0.656 -0.1313 -0.0694 -0.9621
  869MPD2    H312810   2.046   4.282   0.798  1.2060  0.8809  0.2572
  869MPD2     N12811   2.264   4.586   0.532  0.4580  0.3298 -0.8134
  869MPD2    H512812   2.343   4.595   0.594  0.4180  0.1723 -0.7405
  869MPD2    N112813   1.821   4.391   0.434  0.7999 -0.2262  0.3003
  869MPD2    H712814   1.745   4.350   0.487  2.1650 -1.7794  1.0468
  870MPD2     C12815   2.496   3.578   1.499  0.1958 -0.1658 -0.6738
  870MPD2    C112816   2.450   3.485   1.413  0.3718  0.5738  0.2986
  870MPD2    C212817   2.318   3.489   1.374 -0.2529  0.6848  0.4293
  870MPD2    C312818   2.230   3.578   1.425 -0.1349 -0.0918 -0.2988
  870MPD2    C412819   2.279   3.676   1.516 -0.2304  0.7790 -0.6256
  870MPD2    C512820   2.415   3.671   1.556  0.1334  0.1915 -0.7587
  870MPD2     H12821   2.290   3.425   1.291  0.0681  0.0266  0.8291
  870MPD2    H112822   2.220   3.749   1.568 -0.5777  1.1902 -1.5961
  870MPD2    H212823   2.598   3.574   1.538  0.0589  1.0819 -0.1697
  870MPD2    H312824   2.447   3.740   1.633  1.1321 -2.1436  0.9247
  870MPD2     N12825   2.098   3.575   1.378  0.3011 -0.6080 -1.0536
  870MPD2    H512826   2.077   3.529   1.290 -0.9643 -0.4403 -0.8444
  870MPD2    N112827   2.551   3.400   1.370 -0.8108  0.2766 -0.6090
  870MPD2    H712828   2.645   3.415   1.406 -1.2928  0.0279  0.7588
  871MPD2     C12829   2.507   2.965  16.605  0.2195  0.4568 -0.7915
  871MPD2    C112830   2.576   2.940  16.721  0.2588 -0.3972 -0.1304
  871MPD2    C212831   2.654   2.828  16.727 -0.1566 -0.0971  0.4570
  871MPD2    C312832   2.641   2.730  16.636  0.3937 -0.7102 -0.3032
  871MPD2    C412833   2.557   2.752  16.525  0.2889  0.1872  0.8152
  871MPD2    C512834   2.509   2.876  16.504 -0.2580  0.3063  0.1104
  871MPD2     H12835   2.705   2.810  16.821 -0.7327 -1.1539  0.5640
  871MPD2    H112836   2.524   2.676  16.455 -1.2489  1.5100  0.1051
  871MPD2    H212837   2.452   3.059  16.598 -0.1906  0.2801  0.0268
  871MPD2    H312838   2.448   2.904  16.419  0.3302 -2.4073 -1.2088
  871MPD2     N12839   2.724   2.612  16.650 -0.2692  0.1849 -0.3767
  871MPD2    H512840   2.787   2.595  16.728 -0.4684 -1.8886 -0.6631
  871MPD2    N112841   2.593   3.051  16.814  0.4927 -0.2886  0.4637
  871MPD2    H712842   2.542   3.137  16.796  0.5772  0.1180  2.1783
  872MPD2     C12843   3.669   0.188  13.938 -0.0352 -0.8551 -0.6287
  872MPD2    C112844   3.646   0.320  13.912 -0.1615 -0.2801  0.6288
  872MPD2    C212845   3.512   0.360  13.899  0.1202  0.2200 -1.2033
  872MPD2    C312846   3.412   0.273  13.926 -0.6421  0.4313  0.3368
  872MPD2    C412847   3.437   0.144  13.951 -0.3575 -0.8742 -0.1127
  872MPD2    C512848   3.568   0.100  13.958  0.3730  0.2264  0.6829
  872MPD2     H12849   3.500   0.467  13.891 -1.4090  0.2020  0.9686
  872MPD2    H112850   3.363   0.066  13.960 -0.8724 -0.2841  0.7970
  872MPD2    H212851   3.771   0.152  13.946  0.6374  1.0795 -0.5247
  872MPD2    H312852   3.598   4.736  13.985 -0.1660 -0.2605 -0.5122
  872MPD2     N12853   3.274   0.302  13.929 -0.6085 -0.3778 -0.0420
  872MPD2    H512854   3.221   0.216  13.939 -2.1681  0.5332 -0.6607
  872MPD2    N112855   3.749   0.417  13.895  0.0890  0.3116 -0.5036
  872MPD2    H712856   3.715   0.509  13.868  0.1344  1.3245  2.9282
  873MPD2     C12857   0.161   0.661   0.639 -0.1215 -0.1072  0.4425
  873MPD2    C112858   0.274   0.613   0.711  0.0503  0.1311 -0.1448
  873MPD2    C212859   0.319   0.490   0.671 -0.2764  0.8881  0.6743
  873MPD2    C312860   0.274   0.416   0.562 -0.4751  0.5753 -0.1096
  873MPD2    C412861   0.155   0.456   0.503 -0.5382 -0.5021  0.4881
  873MPD2    C512862   0.108   0.578   0.538  0.3471 -0.4562 -0.4684
  873MPD2     H12863   0.403   0.449   0.724 -0.9006 -0.1165  0.8889
  873MPD2    H112864   0.106   0.408   0.419  2.3089 -0.1956 -1.3492
  873MPD2    H212865   0.104   0.742   0.683 -2.5797 -0.1368 -2.6334
  873MPD2    H312866   0.015   0.621   0.503  1.0495 -1.5673 -3.7515
  873MPD2     N12867   0.336   0.302   0.514  0.4249  1.0042 -0.4834
  873MPD2    H512868   0.282   0.252   0.444 -1.4315  0.4873  1.3032
  873MPD2    N112869   0.321   0.687   0.822 -0.0555  0.3214  0.0998
  873MPD2    H712870   0.283   0.778   0.844 -1.8764 -0.9644  2.2517
  874MPD2     C12871   0.267   0.952  16.286  0.3448  0.4979 -0.2040
  874MPD2    C112872   0.348   0.850  16.328  0.1276 -0.6042  0.0659
  874MPD2    C212873   0.484   0.854  16.285  0.0234 -0.0998  0.5644
  874MPD2    C312874   0.537   0.953  16.203 -0.6490 -0.7293  0.6940
  874MPD2    C412875   0.454   1.055  16.165  0.0563  0.0638 -0.3941
  874MPD2    C512876   0.317   1.052  16.204 -0.1101  0.0554  0.0250
  874MPD2     H12877   0.554   0.775  16.307  0.4377  0.0705 -0.1265
  874MPD2    H112878   0.491   1.140  16.109  0.2618 -0.0487 -0.4295
  874MPD2    H212879   0.163   0.940  16.314 -0.0735 -0.0465 -1.9994
  874MPD2    H312880   0.255   1.135  16.173  0.4743  1.1171  1.6751
  874MPD2     N12881   0.672   0.939  16.160 -0.5079 -0.5358 -0.2148
  874MPD2    H512882   0.720   0.853  16.187 -2.5355 -0.7508  2.7816
  874MPD2    N112883   0.291   0.760  16.419 -0.4750  0.5271  0.4141
  874MPD2    H712884   0.191   0.770  16.435 -0.7107  3.9263 -3.0932
  875MPD2     C12885   1.881   3.554  14.578  0.9797  0.0046  0.0738
  875MPD2    C112886   1.748   3.564  14.622  0.2020  0.2888 -0.2293
  875MPD2    C212887   1.719   3.624  14.738 -0.1571  0.1527 -0.4714
  875MPD2    C312888   1.816   3.682  14.813 -0.2204  0.3205 -0.4180
  875MPD2    C412889   1.948   3.672  14.771 -0.3973  0.0597 -0.0331
  875MPD2    C512890   1.982   3.604  14.655  0.1038 -0.1551  0.3265
  875MPD2     H12891   1.612   3.622  14.759  0.0818 -0.8615  0.7189
  875MPD2    H112892   2.026   3.703  14.840  1.4371  0.0159 -2.0927
  875MPD2    H212893   1.903   3.507  14.483  0.3241 -1.5617  0.7055
  875MPD2    H312894   2.080   3.614  14.610 -0.0384 -0.4720 -0.0513
  875MPD2     N12895   1.797   3.743  14.938  0.1327 -0.9798 -0.2995
  875MPD2    H512896   1.884   3.774  14.979 -0.0980  0.9504 -1.2809
  875MPD2    N112897   1.643   3.528  14.542 -0.0370  0.8698  0.3127
  875MPD2    H712898   1.553   3.549  14.583  1.0098  0.2225  2.9697
  876MPD2     C12899   0.303   0.381  15.832  1.1830  0.3622 -0.0529
  876MPD2    C112900   0.441   0.382  15.809  0.6226 -0.3836 -0.4797
  876MPD2    C212901   0.516   0.272  15.854  0.8045 -0.0850 -0.2228
  876MPD2    C312902   0.458   0.168  15.936  0.7853 -0.3996 -0.5408
  876MPD2    C412903   0.324   0.175  15.963 -0.0900  0.1017  0.5977
  876MPD2    C512904   0.250   0.281  15.913 -0.2574  0.3592 -0.4449
  876MPD2     H12905   0.622   0.269  15.836  0.7052  0.7479 -0.9422
  876MPD2    H112906   0.265   0.105  16.021 -0.0829  1.3268  2.1010
  876MPD2    H212907   0.232   0.453  15.794  0.5333 -0.6215 -0.7167
  876MPD2    H312908   0.143   0.287  15.929 -0.0948 -1.9345  1.4148
  876MPD2     N12909   0.533   0.063  15.984  0.1366 -0.6822 -0.7729
  876MPD2    H512910   0.631   0.060  15.960  0.1426  1.1482 -0.9825
  876MPD2    N112911   0.489   0.490  15.731  0.1180  0.6452 -0.0995
  876MPD2    H712912   0.421   0.549  15.685 -4.7390 -2.0503  3.7065
  877MPD2     C12913   0.275   0.620  15.071  0.4793 -0.4064  0.0452
  877MPD2    C112914   0.401   0.660  15.069  0.3617 -0.2798 -0.2110
  877MPD2    C212915   0.459   0.683  14.946  0.5297 -0.3965 -0.0972
  877MPD2    C312916   0.404   0.643  14.829  0.8113 -0.6467 -0.3790
  877MPD2    C412917   0.275   0.596  14.840  0.0703 -0.1710 -0.1037
  877MPD2    C512918   0.208   0.583  14.959 -0.2161  0.8189 -0.4902
  877MPD2     H12919   0.560   0.723  14.952 -0.3203  1.9189 -1.4770
  877MPD2    H112920   0.235   0.549  14.751 -0.0506 -1.4522  0.6156
  877MPD2    H212921   0.223   0.602  15.164 -0.5185  0.0271 -0.4320
  877MPD2    H312922   0.104   0.552  14.962 -0.4310  1.8160  2.0449
  877MPD2     N12923   0.468   0.641  14.703  0.1570  0.7466 -0.1478
  877MPD2    H512924   0.419   0.599  14.625 -2.6057  0.6267  1.6769
  877MPD2    N112925   0.477   0.698  15.184 -0.2787 -0.2682  0.6102
  877MPD2    H712926   0.572   0.731  15.168 -0.5282  0.1055 -0.1301
  878MPD2     C12927   0.355   4.111  12.946  0.0921 -0.1429 -0.0692
  878MPD2    C112928   0.397   4.236  12.899  0.3914 -0.2761 -0.1886
  878MPD2    C212929   0.388   4.348  12.984  0.0370 -0.2108 -0.9595
  878MPD2    C312930   0.354   4.325  13.116 -0.2768 -0.7956 -0.0781
  878MPD2    C412931   0.319   4.195  13.160 -0.8669  0.0546 -0.1589
  878MPD2    C512932   0.313   4.087  13.076  0.0824 -0.2455  0.0275
  878MPD2     H12933   0.419   4.448  12.957 -0.2675 -0.0567 -0.7301
  878MPD2    H112934   0.308   4.169  13.264 -0.0787 -1.1756 -0.3866
  878MPD2    H212935   0.350   4.029  12.875  0.2186  1.4862 -1.9487
  878MPD2    H312936   0.283   3.988  13.110 -1.5726 -0.6000 -2.4434
  878MPD2     N12937   0.364   4.436  13.205 -0.0102 -0.2451 -0.2373
  878MPD2    H512938   0.394   4.526  13.169 -1.1257  0.8607  1.5538
  878MPD2    N112939   0.441   4.238  12.767  0.4227 -0.2018  0.7422
  878MPD2    H712940   0.443   4.146  12.724 -1.4776  1.2471 -2.4916
  879MPD2     C12941   0.848   1.468  17.200 -0.3957 -0.1985  0.7947
  879MPD2    C112942   0.811   1.343  17.238  0.5765  0.3705 -0.1119
  879MPD2    C212943   0.724   1.266  17.162  0.2425 -0.0340  0.2415
  879MPD2    C312944   0.673   1.325  17.049 -0.4153  0.3651 -0.3933
  879MPD2    C412945   0.715   1.448  17.009  1.1134 -0.3374 -0.8697
  879MPD2    C512946   0.796   1.527  17.088  0.7510 -0.2340 -0.1717
  879MPD2     H12947   0.696   1.166  17.194 -0.1040 -0.6848 -2.1046
  879MPD2    H112948   0.683   1.497  16.918  2.0745  2.6746  0.4315
  879MPD2    H212949   0.933   1.511  17.253  0.4090 -0.7641 -0.0452
  879MPD2    H312950   0.834   1.625  17.062  0.8495 -0.7526 -2.0233
  879MPD2     N12951   0.584   1.255  16.958 -0.3919 -0.5575 -0.7968
  879MPD2    H512952   0.564   1.298  16.868 -1.4707 -3.4293 -1.9052
  879MPD2    N112953   0.883   1.280  17.337  0.2414  0.0021  0.1509
  879MPD2    H712954   0.948   1.342  17.384  2.4785 -2.2163  0.0134
  880MPD2     C12955   1.942   2.977   0.039 -0.2368 -0.1079 -0.7121
  880MPD2    C112956   2.011   3.031   0.142 -0.5136 -0.1659  0.3993
  880MPD2    C212957   2.085   2.943   0.223 -0.1500 -1.0510 -0.2052
  880MPD2    C312958   2.095   2.808   0.193 -0.5614 -0.9381 -0.3494
  880MPD2    C412959   2.033   2.758   0.077 -0.1051  0.0092  0.2734
  880MPD2    C512960   1.957   2.846   0.004 -0.2505 -0.2968  0.0773
  880MPD2     H12961   2.135   2.981   0.311 -2.0389 -0.3935  0.5763
  880MPD2    H112962   2.035   2.654   0.048 -0.8841  0.1208 -0.1739
  880MPD2    H212963   1.882   3.040  17.717  0.2107  0.1595 -0.8728
  880MPD2    H312964   1.898   2.802  17.667 -0.4944 -2.5145  1.4901
  880MPD2     N12965   2.176   2.729   0.274  0.6459  0.2289  0.3345
  880MPD2    H512966   2.218   2.777   0.353  1.5269 -0.3268  0.1979
  880MPD2    N112967   1.995   3.173   0.161  0.3234  0.1968  0.2684
  880MPD2    H712968   1.944   3.230   0.094  2.3318 -0.2431 -1.6204
  881MPD2     C12969   1.701   3.875  17.411 -0.5203 -0.1824  0.5721
  881MPD2    C112970   1.839   3.889  17.432  0.8777  0.1397  0.5066
  881MPD2    C212971   1.877   3.861  17.558  1.1574 -0.1904  0.9166
  881MPD2    C312972   1.784   3.827  17.655 -0.2005  0.0938  0.3428
  881MPD2    C412973   1.649   3.837  17.635 -0.1950 -0.1829 -0.3700
  881MPD2    C512974   1.611   3.864  17.512  0.8054 -0.2658 -0.5845
  881MPD2     H12975   1.982   3.854  17.585  1.1529  0.6149  1.1485
  881MPD2    H112976   1.570   3.827  17.708  0.3382 -0.3068  0.1883
  881MPD2    H212977   1.651   3.890  17.316  0.2309  0.2723  0.2468
  881MPD2    H312978   1.504   3.866  17.500  0.6797  2.0700  0.8971
  881MPD2     N12979   1.821   3.768   0.037 -0.1351  0.1471 -0.2915
  881MPD2    H512980   1.750   3.758   0.109  0.1199 -0.2408 -0.0930
  881MPD2    N112981   1.931   3.904  17.326  0.8638  0.0102 -0.2679
  881MPD2    H712982   1.900   3.896  17.230  0.0431  0.8754 -0.0780
  882MPD2     C12983   0.435   0.261  14.050 -0.6971 -0.0839  0.2233
  882MPD2    C112984   0.380   0.345  14.145  0.2752  0.7817 -0.6291
  882MPD2    C212985   0.242   0.337  14.172 -0.3119  0.6853 -0.9949
  882MPD2    C312986   0.161   0.240  14.111  0.3474  0.0291  0.0023
  882MPD2    C412987   0.222   0.149  14.032  0.1832  0.0096 -0.1950
  882MPD2    C512988   0.359   0.159  13.993 -0.4224  0.1480 -0.3920
  882MPD2     H12989   0.201   0.394  14.255  1.1429 -0.1364  0.2723
  882MPD2    H112990   0.156   0.074  13.990  1.1801 -0.0140 -1.7271
  882MPD2    H212991   0.539   0.277  14.023 -1.1775  0.3617 -1.3616
  882MPD2    H312992   0.406   0.082  13.933 -0.7288 -0.0137 -0.4282
  882MPD2     N12993   0.020   0.234  14.130  0.1562  0.4479 -0.2950
  882MPD2    H512994   4.699   0.158  14.092 -1.1401  1.3507 -0.1684
  882MPD2    N112995   0.466   0.446  14.192  0.2884  0.2872  0.1200
  882MPD2    H712996   0.564   0.423  14.183  0.6465  1.4855  0.9703
  883MPD2     C12997   2.653   0.322  16.190 -0.1713 -0.6908 -0.1797
  883MPD2    C112998   2.765   0.407  16.163 -0.0027 -0.7968  0.5214
  883MPD2    C212999   2.846   0.433  16.264 -0.2938 -0.3000  0.7029
  883MPD2    C313000   2.827   0.380  16.389 -0.7690 -0.1073 -0.5986
  883MPD2    C413001   2.714   0.304  16.416 -0.5152  0.2916  0.0532
  883MPD2    C513002   2.630   0.270  16.313 -0.2719 -0.1245 -0.0455
  883MPD2     H13003   2.932   0.494  16.242 -1.4994  1.6814  1.4418
  883MPD2    H113004   2.697   0.268  16.517  2.3698  0.1106  0.4809
  883MPD2    H213005   2.582   0.293  16.114  0.8594  0.9436 -1.7530
  883MPD2    H313006   2.551   0.197  16.326 -1.1578  1.1087  1.4148
  883MPD2     N13007   2.930   0.413  16.482 -0.3579 -0.4234  0.2390
  883MPD2    H513008   2.999   0.483  16.456  0.4028 -1.1296  0.3580
  883MPD2    N113009   2.779   0.473  16.037 -0.1121 -0.5464  0.0008
  883MPD2    H713010   2.860   0.535  16.034  0.4197 -1.3506 -2.7912
  884MPD2     C13011   4.512   1.551  15.087 -0.1362 -0.4457  0.3671
  884MPD2    C113012   4.519   1.656  14.996 -0.0361 -0.3318 -0.1388
  884MPD2    C213013   4.409   1.735  14.970 -0.6543  0.3245 -0.2603
  884MPD2    C313014   4.285   1.702  15.021 -0.1417  0.1435  0.0042
  884MPD2    C413015   4.280   1.590  15.101  0.0785  0.4705  0.5007
  884MPD2    C513016   4.391   1.517  15.137  0.0287  0.1251  0.3089
  884MPD2     H13017   4.432   1.823  14.911 -1.2578  0.0424 -0.9091
  884MPD2    H113018   4.183   1.564  15.141  0.2065  0.8235  1.0410
  884MPD2    H213019   4.598   1.491  15.114  0.3276  1.1516  2.4706
  884MPD2    H313020   4.384   1.428  15.197 -0.7127  0.8414  1.2924
  884MPD2     N13021   4.175   1.782  14.982  0.1992  0.1725  0.9320
  884MPD2    H513022   4.191   1.867  14.930  0.1012 -0.7620 -0.6131
  884MPD2    N113023   4.640   1.702  14.943 -0.0184  0.2859 -0.1781
  884MPD2    H713024   4.646   1.790  14.894  1.5572  0.2346 -0.0967
  885MPD2     C13025   2.424   1.892   0.099  0.0701 -0.5130 -0.0939
  885MPD2    C113026   2.544   1.835   0.069  0.0324  0.2696  0.0765
  885MPD2    C213027   2.602   1.873  17.687  0.0888 -0.1152 -0.2140
  885MPD2    C313028   2.531   1.937  17.590  0.1713 -0.3533  0.1372
  885MPD2    C413029   2.406   1.982  17.619  0.0027  0.4459  0.9948
  885MPD2    C513030   2.360   1.964   0.001  1.1365 -0.0462  0.3060
  885MPD2     H13031   2.707   1.849  17.674 -0.2320 -1.3410 -0.5964
  885MPD2    H113032   2.336   2.025  17.549  1.2029  0.1282 -0.4006
  885MPD2    H213033   2.375   1.862   0.190  1.0423 -0.9373  0.2968
  885MPD2    H313034   2.261   2.002   0.024  1.3411  0.2743  0.6700
  885MPD2     N13035   2.587   1.948  17.456 -0.9286  0.8470  0.1170
  885MPD2    H513036   2.676   1.906  17.432  0.1874  3.0779  0.3389
  885MPD2    N113037   2.612   1.785   0.182 -0.0001 -0.5693  0.2448
  885MPD2    H713038   2.567   1.808   0.270 -1.0330  1.1886 -0.7474
  886MPD2     C13039   3.875   0.447  16.015 -0.7833  0.7891  0.3231
  886MPD2    C113040   3.992   0.411  15.952  0.0435  0.8012  0.2001
  886MPD2    C213041   4.014   0.451  15.820  0.8845 -0.4909 -0.0460
  886MPD2    C313042   3.918   0.521  15.750 -0.2451  0.3364 -0.1524
  886MPD2    C413043   3.794   0.549  15.809  0.7718  0.3943 -0.1997
  886MPD2    C513044   3.774   0.508  15.938  0.3676 -0.8286 -0.1690
  886MPD2     H13045   4.108   0.426  15.774  1.7185  1.0025  0.8401
  886MPD2    H113046   3.710   0.603  15.767 -0.5013 -0.2579  1.5187
  886MPD2    H213047   3.848   0.400  16.109  1.1729 -0.3171  0.3217
  886MPD2    H313048   3.679   0.522  15.989  1.4726  1.0939  1.3501
  886MPD2     N13049   3.947   0.549  15.617 -0.7650 -0.5383  0.0837
  886MPD2    H513050   4.032   0.504  15.584 -2.0772 -2.1238 -1.1163
  886MPD2    N113051   4.085   0.323  16.013 -0.3155 -0.4823 -0.2143
  886MPD2    H713052   4.156   0.283  15.953 -1.2264  0.0775 -1.6660
  887MPD2     C13053   0.059   0.394  16.214 -0.2665 -0.1193 -0.0331
  887MPD2    C113054   4.667   0.445  16.208  0.0907  0.5280 -0.4498
  887MPD2    C213055   4.654   0.572  16.175  0.0077 -0.5881  0.8454
  887MPD2    C313056   0.017   0.640  16.109 -0.2501  0.3361  0.6094
  887MPD2    C413057   0.144   0.591  16.111 -0.1979 -0.4290  0.1801
  887MPD2    C513058   0.165   0.468  16.173 -0.2056  0.3912  0.3625
  887MPD2     H13059   4.555   0.617  16.185  0.9024  1.4161  0.6952
  887MPD2    H113060   0.231   0.638  16.069 -0.3414 -0.5261 -0.2278
  887MPD2    H213061   0.082   0.292  16.243 -3.1459 -0.7490  0.0893
  887MPD2    H313062   0.266   0.429  16.181  0.0009  0.7567 -0.4834
  887MPD2     N13063   4.731   0.773  16.062 -0.0498  0.3375  0.8016
  887MPD2    H513064   4.633   0.799  16.060  0.1479  1.0009 -0.6580
  887MPD2    N113065   4.545   0.381  16.252 -0.3087  0.3133 -0.5769
  887MPD2    H713066   4.458   0.431  16.239  0.4736  2.1784  1.2978
  888MPD2     C13067   1.677   0.190  15.038 -0.4866  0.1442  0.3899
  888MPD2    C113068   1.565   0.207  15.122 -0.2785  0.3631  0.0810
  888MPD2    C213069   1.528   0.341  15.145 -0.2120  0.0322  0.3203
  888MPD2    C313070   1.610   0.448  15.109  0.1595 -0.1343 -0.5729
  888MPD2    C413071   1.727   0.426  15.034 -0.6429  0.3676 -0.1414
  888MPD2    C513072   1.753   0.295  14.993  0.6972  1.2001 -0.2485
  888MPD2     H13073   1.447   0.368  15.212 -0.7560  1.2657 -0.8357
  888MPD2    H113074   1.802   0.501  15.014 -0.3046  0.1383  0.2767
  888MPD2    H213075   1.721   0.093  15.020 -0.9529  0.1137 -0.5800
  888MPD2    H313076   1.850   0.275  14.949 -0.2987  0.9960 -2.3522
  888MPD2     N13077   1.592   0.581  15.142  0.1772  0.5484 -0.0715
  888MPD2    H513078   1.666   0.642  15.109  1.7806 -1.2047  0.2710
  888MPD2    N113079   1.487   0.098  15.164  0.0010  0.5119 -0.0594
  888MPD2    H713080   1.398   0.125  15.203  0.1297  0.2154  0.4453
  889MPD2     C13081   0.974   4.087  12.581 -0.4888 -0.0789  0.2046
  889MPD2    C113082   0.971   4.048  12.717  0.1531 -0.3450 -0.6998
  889MPD2    C213083   0.886   4.120  12.797 -0.1655 -0.6787 -0.1448
  889MPD2    C313084   0.831   4.243  12.755  0.2801 -0.5066 -0.6513
  889MPD2    C413085   0.847   4.282  12.619  0.8218  0.2079 -0.3068
  889MPD2    C513086   0.909   4.200  12.536 -0.0486  0.2222 -0.1067
  889MPD2     H13087   0.884   4.096  12.902 -1.3836 -1.9615 -0.4521
  889MPD2    H113088   0.803   4.367  12.569  1.7985  0.3659 -0.9042
  889MPD2    H213089   1.017   4.023  12.506 -0.0100  0.9550 -0.3976
  889MPD2    H313090   0.921   4.225  12.431 -0.3828  2.0792  0.3132
  889MPD2     N13091   0.773   4.329  12.844 -0.1713  0.4517 -0.4598
  889MPD2    H513092   0.740   4.297  12.934 -2.5043 -1.5635 -2.0228
  889MPD2    N113093   1.026   3.927  12.768 -0.2778 -0.1760 -0.2341
  889MPD2    H713094   1.010   3.898  12.864 -1.5703  0.2701 -0.3217
  890MPD2     C13095   0.349   1.396  14.568  0.1893 -0.0795 -0.2175
  890MPD2    C113096   0.488   1.396  14.553 -0.1966  0.5584  0.1882
  890MPD2    C213097   0.568   1.381  14.661  0.1315 -0.9058 -0.0165
  890MPD2    C313098   0.520   1.380  14.791  0.5315  0.1901  0.5361
  890MPD2    C413099   0.384   1.396  14.810 -0.0400 -0.2134 -0.0793
  890MPD2    C513100   0.299   1.400  14.699  0.2501 -0.8211  0.4151
  890MPD2     H13101   0.672   1.373  14.632  1.4633  0.1987  4.5064
  890MPD2    H113102   0.332   1.397  14.905  1.4434  0.2228  0.7353
  890MPD2    H213103   0.285   1.400  14.481 -0.2381 -1.2057  0.0485
  890MPD2    H313104   0.191   1.407  14.705  0.3763  1.2587  0.5231
  890MPD2     N13105   0.610   1.361  14.896 -0.3081 -0.2569 -0.5685
  890MPD2    H513106   0.708   1.363  14.867 -0.4345 -2.6247 -1.2123
  890MPD2    N113107   0.535   1.421  14.424  0.3069 -0.5002  0.8164
  890MPD2    H713108   0.469   1.447  14.351  3.1038 -0.2578 -1.5933
  891MPD2     C13109   3.233   4.290  16.805 -0.8417 -0.1288  0.9800
  891MPD2    C113110   3.265   4.428  16.788  0.0095  0.2847  0.6501
  891MPD2    C213111   3.384   4.472  16.843  0.1928  0.7228 -0.2081
  891MPD2    C313112   3.472   4.383  16.907  0.1727  1.1397  0.2821
  891MPD2    C413113   3.439   4.256  16.918  0.3710  0.4998  0.0619
  891MPD2    C513114   3.329   4.203  16.855  0.2376 -0.0619 -0.3133
  891MPD2     H13115   3.417   4.575  16.834  0.6727  0.4433 -1.7918
  891MPD2    H113116   3.508   4.192  16.972 -1.6767 -2.2505 -0.5902
  891MPD2    H213117   3.138   4.252  16.769  0.5932 -2.1858 -0.6296
  891MPD2    H313118   3.294   4.102  16.871 -2.0188  0.3556 -2.6228
  891MPD2     N13119   3.592   4.445  16.959 -0.1955 -0.4570 -0.0560
  891MPD2    H513120   3.596   4.545  16.975  3.4584 -0.6043  0.1010
  891MPD2    N113121   3.176   4.517  16.718  0.4675  0.2134  0.3682
  891MPD2    H713122   3.089   4.476  16.683 -0.6342  1.5427  1.5370
  892MPD2     C13123   4.408   0.663  14.867  0.3184  0.4137 -0.0949
  892MPD2    C113124   4.321   0.692  14.768  0.5990  0.8982 -0.4203
  892MPD2    C213125   4.306   0.614  14.651 -0.3090  0.5427  0.6557
  892MPD2    C313126   4.397   0.508  14.630 -0.3955  0.1224 -0.3110
  892MPD2    C413127   4.494   0.484  14.730  0.3801 -0.2922 -0.0105
  892MPD2    C513128   4.498   0.556  14.844  0.6257 -0.2799  0.5198
  892MPD2     H13129   4.246   0.650  14.569  0.0733 -0.7824 -0.2061
  892MPD2    H113130   4.581   0.424  14.707 -0.7347 -0.9429 -2.5654
  892MPD2    H213131   4.425   0.709  14.964  0.9899 -3.1332  1.4728
  892MPD2    H313132   4.569   0.531  14.921  0.3694 -0.9330  0.5413
  892MPD2     N13133   4.410   0.448  14.505  0.2347  0.0328  0.3990
  892MPD2    H513134   4.498   0.406  14.478  0.5942  1.3037 -0.3932
  892MPD2    N113135   4.222   0.794  14.784 -0.0743 -0.6239  0.3261
  892MPD2    H713136   4.153   0.803  14.710 -0.2561 -1.5869  0.3761
  893MPD2     C13137   1.086   4.619   1.838  0.2961 -0.1415  0.4687
  893MPD2    C113138   1.074   4.562   1.709 -0.4179  0.0661  0.2004
  893MPD2    C213139   0.948   4.515   1.675  0.2244  0.0872  0.7182
  893MPD2    C313140   0.841   4.514   1.762 -0.3701 -0.2401 -0.3992
  893MPD2    C413141   0.860   4.572   1.887 -0.2695 -0.1475  0.5495
  893MPD2    C513142   0.983   4.613   1.928 -1.0661  0.4496 -0.6937
  893MPD2     H13143   0.931   4.469   1.578 -2.0528  2.4741 -0.0035
  893MPD2    H113144   0.782   4.570   1.963 -1.1334  0.4918 -0.3308
  893MPD2    H213145   1.181   4.660   1.870  0.3934 -1.9050  2.3902
  893MPD2    H313146   0.996   4.662   2.023  1.3004 -1.0009 -0.2484
  893MPD2     N13147   0.711   4.458   1.721 -0.4547 -0.5435  0.0192
  893MPD2    H513148   0.704   4.414   1.630 -0.2253 -3.0050  1.1759
  893MPD2    N113149   1.183   4.559   1.626  0.1506 -0.0559 -0.3225
  893MPD2    H713150   1.274   4.546   1.669  0.5313 -0.7988 -1.3628
  894MPD2     C13151   4.082   1.595   1.623 -0.3389  0.0529  0.6392
  894MPD2    C113152   3.960   1.660   1.591 -1.0828 -0.1534 -0.7286
  894MPD2    C213153   3.973   1.788   1.534 -0.0848  0.2809  0.6035
  894MPD2    C313154   4.099   1.848   1.522  0.6775 -0.2179  0.0555
  894MPD2    C413155   4.220   1.771   1.538 -0.0019  0.0613 -0.1292
  894MPD2    C513156   4.199   1.645   1.584  0.1892 -0.0789  0.0158
  894MPD2     H13157   3.876   1.836   1.524  1.0546  2.2610 -1.0085
  894MPD2    H113158   4.318   1.809   1.515  0.2835 -1.2121 -0.9960
  894MPD2    H213159   4.088   1.494   1.663 -0.8357 -0.4616 -0.6017
  894MPD2    H313160   4.277   1.573   1.607  0.5415 -0.5451 -2.5893
  894MPD2     N13161   4.099   1.984   1.481  0.1468  0.2102  0.1139
  894MPD2    H513162   4.010   2.026   1.456 -1.5519 -1.7909  2.8033
  894MPD2    N113163   3.831   1.604   1.614  0.6491  0.6103 -0.6539
  894MPD2    H713164   3.749   1.643   1.569 -0.7717 -1.6591 -0.0026
  895MPD2     C13165   3.775   0.048  13.663  1.1146  0.5390 -0.8416
  895MPD2    C113166   3.660   4.715  13.617  0.0339  0.1019  0.5333
  895MPD2    C213167   3.649   4.578  13.638  0.5410  0.0068  0.7673
  895MPD2    C313168   3.745   4.511  13.701 -0.7887  0.5089  0.1425
  895MPD2    C413169   3.856   4.568  13.755 -0.2471 -0.1372  0.2877
  895MPD2    C513170   3.866   4.705  13.735 -0.0295  0.7365 -0.7562
  895MPD2     H13171   3.555   4.531  13.610  0.5582  0.7338 -0.5561
  895MPD2    H113172   3.937   4.515  13.803 -1.0786 -0.2870  1.5271
  895MPD2    H213173   3.783   0.156  13.662  1.8749  0.4703 -2.5257
  895MPD2    H313174   3.953   0.027  13.765  0.6512  1.4307 -4.0607
  895MPD2     N13175   3.733   4.369  13.719 -0.0265 -0.7852 -0.5226
  895MPD2    H513176   3.818   4.321  13.746  1.2381  1.2081 -1.0342
  895MPD2    N113177   3.546   0.047  13.563  0.1279  0.5722  0.5319
  895MPD2    H713178   3.461   4.731  13.546 -0.9554  2.5592 -0.1982
  896MPD2     C13179   1.713   2.746   1.455  0.0747 -0.0488 -0.6170
  896MPD2    C113180   1.649   2.643   1.383 -0.4623 -0.1685  0.2148
  896MPD2    C213181   1.509   2.623   1.392 -0.2129 -0.7529 -0.0497
  896MPD2    C313182   1.436   2.713   1.466 -0.1491 -0.2372 -0.6809
  896MPD2    C413183   1.502   2.819   1.531 -0.2376  0.4743  0.6298
  896MPD2    C513184   1.640   2.838   1.525 -0.4367 -0.7018  0.3626
  896MPD2     H13185   1.458   2.546   1.335 -0.5856 -0.3951 -0.2075
  896MPD2    H113186   1.444   2.903   1.568  0.0003  1.7409 -1.8709
  896MPD2    H213187   1.820   2.760   1.451  0.1118 -0.1064  0.0393
  896MPD2    H313188   1.687   2.914   1.586 -0.0727 -1.8090  1.4623
  896MPD2     N13189   1.296   2.687   1.461  0.1896 -0.1292 -0.6324
  896MPD2    H513190   1.268   2.597   1.423 -1.0453 -0.6594  1.5251
  896MPD2    N113191   1.732   2.565   1.300 -0.1880  1.0690 -0.3866
  896MPD2    H713192   1.830   2.588   1.308  0.4078 -1.0935 -1.5566
  897MPD2     C13193   2.303   3.422  10.928  0.0897  0.1283 -0.2433
  897MPD2    C113194   2.256   3.553  10.925  0.2421 -0.6901  0.5153
  897MPD2    C213195   2.156   3.594  11.018 -0.7321  0.1940  0.2179
  897MPD2    C313196   2.116   3.513  11.123  0.8695  0.7830 -0.3459
  897MPD2    C413197   2.170   3.383  11.126 -0.3556  0.5232 -0.0753
  897MPD2    C513198   2.266   3.339  11.030 -0.0945  0.2009  0.2350
  897MPD2     H13199   2.111   3.693  11.020 -0.2858  0.4445 -1.5873
  897MPD2    H113200   2.146   3.318  11.209  0.3546 -1.6746 -1.5778
  897MPD2    H213201   2.380   3.388  10.860  1.0575  0.4199  0.7102
  897MPD2    H313202   2.296   3.235  11.044  0.3425  0.2379 -0.4588
  897MPD2     N13203   1.998   3.548  11.200  0.0748  0.4647 -0.9336
  897MPD2    H513204   1.967   3.643  11.185  0.2376  0.9748  1.9530
  897MPD2    N113205   2.315   3.644  10.827 -0.0087  0.7980  0.3865
  897MPD2    H713206   2.379   3.598  10.764 -1.9226  1.6507 -2.1622
  898MPD2     C13207   3.641   0.598  17.511 -0.2605 -0.1991 -0.2974
  898MPD2    C113208   3.737   0.611  17.607 -0.1959 -0.7803  0.0638
  898MPD2    C213209   3.783   0.734  17.640  0.0984  0.3510  0.1273
  898MPD2    C313210   3.730   0.843  17.570 -0.4252 -0.8448 -0.1803
  898MPD2    C413211   3.635   0.822  17.470  0.0876  0.4026  0.6594
  898MPD2    C513212   3.587   0.702  17.442 -0.1602 -0.2861  0.1977
  898MPD2     H13213   3.851   0.747  17.724  1.7184 -2.3197 -0.7506
  898MPD2    H113214   3.591   0.905  17.416  1.1419  0.8952  0.5513
  898MPD2    H213215   3.616   0.500  17.472  0.8135 -0.3711 -0.5458
  898MPD2    H313216   3.520   0.680  17.360  1.6182  0.0246 -1.3516
  898MPD2     N13217   3.773   0.975  17.608  0.8467  0.5171 -0.0336
  898MPD2    H513218   3.840   0.992  17.683  1.1748 -0.1483 -0.1746
  898MPD2    N113219   3.794   0.498  17.668  0.3593  0.3185  0.1620
  898MPD2    H713220   3.884   0.520  17.710  0.6818 -3.8672  1.6278
  899MPD2     C13221   4.432   1.165  17.357  0.2515  0.3294  0.3864
  899MPD2    C113222   4.508   1.265  17.416  0.1381 -0.1547  0.0765
  899MPD2    C213223   4.523   1.254  17.555 -0.4406  1.0074 -0.6651
  899MPD2    C313224   4.464   1.151  17.634  0.1707 -0.2908 -0.3716
  899MPD2    C413225   4.381   1.072  17.566  0.2716 -0.5663  0.7263
  899MPD2    C513226   4.377   1.066  17.431  0.4023 -0.1137  0.5798
  899MPD2     H13227   4.587   1.325  17.606  0.8880 -0.2632 -0.5648
  899MPD2    H113228   4.318   1.000  17.617  0.1195 -2.5042 -2.1999
  899MPD2    H213229   4.416   1.168  17.249  1.3131 -1.2655  0.1967
  899MPD2    H313230   4.320   0.986  17.384 -2.0776  1.9487  0.0740
  899MPD2     N13231   4.470   1.138   0.032  0.5081  0.0503 -0.0062
  899MPD2    H513232   4.411   1.068   0.077  1.3728 -0.9791 -0.4719
  899MPD2    N113233   4.572   1.364  17.332  0.1987 -0.6633 -0.6124
  899MPD2    H713234   4.555   1.360  17.232 -1.2466 -0.1958 -0.3764
  900MPD2     C13235   0.035   2.198  12.482 -0.1106  0.1894 -0.4328
  900MPD2    C113236   4.667   2.123  12.530  0.0989  0.3924  0.2661
  900MPD2    C213237   4.533   2.170  12.523 -0.3070 -0.4041 -0.0066
  900MPD2    C313238   4.510   2.280  12.447  0.0517  0.4474  0.1517
  900MPD2    C413239   4.613   2.355  12.397 -0.3886 -0.0144  0.2680
  900MPD2    C513240   0.008   2.316  12.417 -0.0547  1.1535 -0.8613
  900MPD2     H13241   4.452   2.117  12.572 -0.8342 -1.2441 -1.7821
  900MPD2    H113242   4.606   2.453  12.350  0.2726 -0.4041 -0.6395
  900MPD2    H213243   0.132   2.150  12.474  0.8433  1.9443  0.5759
  900MPD2    H313244   0.088   2.380  12.383  1.7533 -1.0235 -0.7290
  900MPD2     N13245   4.374   2.319  12.440 -0.3357 -0.0477 -0.1862
  900MPD2    H513246   4.317   2.261  12.500 -0.8170 -1.8558 -2.3847
  900MPD2    N113247   4.709   1.999  12.581  0.2526 -0.7639 -0.3570
  900MPD2    H713248   0.074   1.990  12.574  0.5768  1.8574  1.0185
  901MPD2     C13249   4.379   1.028  12.857 -0.5863  0.2654 -0.9313
  901MPD2    C113250   4.489   1.035  12.769 -0.1719 -0.2364 -0.0188
  901MPD2    C213251   4.554   1.150  12.761 -0.6338 -0.0757  0.4707
  901MPD2    C313252   4.534   1.260  12.843 -0.4662 -0.0850  0.2092
  901MPD2    C413253   4.428   1.250  12.931  0.5726 -0.1858 -0.0084
  901MPD2    C513254   4.352   1.135  12.937  0.5717  0.3403 -0.5502
  901MPD2     H13255   4.631   1.155  12.684 -0.5391  1.6642  0.6713
  901MPD2    H113256   4.404   1.334  12.995 -0.3577  0.0997 -0.7399
  901MPD2    H213257   4.305   0.948  12.862  1.3453 -1.4440  0.3956
  901MPD2    H313258   4.263   1.136  12.999  2.4062 -0.3112  2.0904
  901MPD2     N13259   4.611   1.376  12.818  0.4827  0.4121  0.0356
  901MPD2    H513260   4.682   1.357  12.748  0.2742 -0.4772  0.0654
  901MPD2    N113261   4.521   0.918  12.688 -0.0944 -0.3989  0.4356
  901MPD2    H713262   4.468   0.834  12.705  1.5161 -1.2017  1.4501
  902MPD2     C13263   3.988   4.080  12.605  0.4492 -0.4318  0.1747
  902MPD2    C113264   4.030   4.209  12.617 -0.6571 -0.4092  0.0033
  902MPD2    C213265   4.158   4.254  12.581 -0.1164  0.3169 -0.2871
  902MPD2    C313266   4.240   4.166  12.511 -0.3822 -0.0222  0.1590
  902MPD2    C413267   4.194   4.040  12.489 -0.1509 -0.3180  0.1122
  902MPD2    C513268   4.069   4.000  12.532  0.4149 -0.2265  0.0144
  902MPD2     H13269   4.185   4.357  12.601 -0.6472  0.4273 -0.1617
  902MPD2    H113270   4.257   3.965  12.442 -1.1800 -1.4435  0.5206
  902MPD2    H213271   3.890   4.046  12.636  0.1683 -0.1350 -0.3783
  902MPD2    H313272   4.025   3.904  12.507  0.2865  0.1002 -1.0221
  902MPD2     N13273   4.370   4.204  12.459  0.2223  0.2755  0.6609
  902MPD2    H513274   4.415   4.139  12.395  0.9803  1.8225 -0.3901
  902MPD2    N113275   3.932   4.300  12.666  0.3714  0.7932 -0.0120
  902MPD2    H713276   3.838   4.262  12.671  0.3595  0.7376 -0.6081
  903MPD2     C13277   4.104   4.400  11.815 -0.9051 -0.5544 -0.5557
  903MPD2    C113278   4.110   4.441  11.948  0.4251  0.0408 -0.2368
  903MPD2    C213279   3.992   4.472  12.014  0.7874  0.3687 -0.2341
  903MPD2    C313280   3.876   4.472  11.941  0.2172  0.0786 -0.7267
  903MPD2    C413281   3.875   4.440  11.811  0.4718  0.0910  0.6200
  903MPD2    C513282   3.988   4.402  11.749  0.0543 -0.3602 -0.8112
  903MPD2     H13283   3.974   4.494  12.118 -0.6064 -3.2774  0.3063
  903MPD2    H113284   3.790   4.449  11.744  1.1197  2.1280  0.0647
  903MPD2    H213285   4.196   4.378  11.764  0.2377 -0.3578  1.4093
  903MPD2    H313286   3.981   4.387  11.642 -2.0980  0.3792 -0.7797
  903MPD2     N13287   3.759   4.492  12.016 -0.3678 -0.1290  0.4215
  903MPD2    H513288   3.776   4.530  12.108 -0.1473  1.5668 -0.3119
  903MPD2    N113289   4.237   4.454  12.006 -0.2781 -0.4006  0.1483
  903MPD2    H713290   4.313   4.418  11.949 -1.7996 -1.0767 -1.4739
  904MPD2     C13291   3.419   4.029  14.666 -0.0771 -0.4289 -0.1492
  904MPD2    C113292   3.428   4.050  14.523  0.1294 -0.4466 -0.1346
  904MPD2    C213293   3.550   4.083  14.475 -0.9331  0.0285 -0.5771
  904MPD2    C313294   3.666   4.090  14.541 -0.0744 -0.5665  0.1481
  904MPD2    C413295   3.662   4.062  14.681  0.0103 -0.6647  0.1846
  904MPD2    C513296   3.537   4.039  14.738 -0.0468 -0.0775 -0.1256
  904MPD2     H13297   3.557   4.104  14.369 -0.0285  0.1230 -0.4968
  904MPD2    H113298   3.746   4.056  14.749  1.1480  1.8682 -1.0238
  904MPD2    H213299   3.332   3.998  14.723  0.4715 -1.0562  0.3536
  904MPD2    H313300   3.535   4.019  14.845  0.0487  1.0036  0.0799
  904MPD2     N13301   3.783   4.123  14.476 -0.6667  0.0442 -0.2251
  904MPD2    H513302   3.775   4.134  14.376 -1.4786 -1.0023 -0.2668
  904MPD2    N113303   3.313   4.042  14.431  0.3135  0.4139 -0.2040
  904MPD2    H713304   3.337   4.062  14.334 -0.8091  0.0061 -0.5658
  905MPD2     C13305   3.030   4.155  13.679  0.0483  0.2288 -0.2317
  905MPD2    C113306   3.121   4.103  13.773  0.4063  0.1665 -0.8175
  905MPD2    C213307   3.238   4.038  13.722 -0.4207  0.0679 -0.1042
  905MPD2    C313308   3.266   4.042  13.589 -0.5811 -0.5734 -0.7300
  905MPD2    C413309   3.183   4.097  13.500  0.7095 -0.1233 -0.6230
  905MPD2    C513310   3.062   4.148  13.548 -0.6638 -0.1618 -0.4046
  905MPD2     H13311   3.309   3.991  13.789 -0.2938  0.9161  0.3544
  905MPD2    H113312   3.208   4.091  13.395  1.0616 -1.0975 -0.4831
  905MPD2    H213313   2.934   4.183  13.719  0.2520  1.8081 -0.8669
  905MPD2    H313314   2.995   4.201  13.481 -0.4247 -0.0513 -0.5563
  905MPD2     N13315   3.394   3.995  13.544 -0.3677  0.0404  0.0325
  905MPD2    H513316   3.431   4.046  13.464 -1.0182  1.8020  0.8374
  905MPD2    N113317   3.070   4.091  13.903 -0.4375 -0.1477  1.0306
  905MPD2    H713318   2.977   4.131  13.918  0.1034  1.1850  0.8543
  906MPD2     C13319   0.671   4.450  11.197 -0.0038  0.4481 -1.8303
  906MPD2    C113320   0.768   4.362  11.213  0.9318  0.0126 -0.2669
  906MPD2    C213321   0.753   4.247  11.286  0.2731 -0.7879  0.1932
  906MPD2    C313322   0.643   4.233  11.375  0.4237  0.3782 -0.1708
  906MPD2    C413323   0.552   4.338  11.373 -0.5155  0.1177  0.1380
  906MPD2    C513324   0.560   4.437  11.278  0.8676 -0.4823  0.2603
  906MPD2     H13325   0.821   4.165  11.269 -0.4600 -1.7435  1.9174
  906MPD2    H113326   0.465   4.336  11.438 -0.4587  0.5745  0.2238
  906MPD2    H213327   0.674   4.527  11.122  1.2463  2.2404  0.0725
  906MPD2    H313328   0.474   4.502  11.268  0.8717 -0.4923  0.1581
  906MPD2     N13329   0.617   4.124  11.449 -0.4367  0.8275 -0.5593
  906MPD2    H513330   0.526   4.126  11.493 -0.1079  1.0363  0.1145
  906MPD2    N113331   0.893   4.367  11.147  0.3076  0.6897 -0.2426
  906MPD2    H713332   0.950   4.283  11.155 -0.6777  0.0076 -0.2598
  907MPD2     C13333   4.151   3.856  15.841 -0.4536  1.0596  0.0017
  907MPD2    C113334   4.239   3.795  15.753  0.2356  0.9795 -0.2210
  907MPD2    C213335   4.371   3.765  15.796 -0.7345  0.1917  0.2909
  907MPD2    C313336   4.409   3.780  15.924 -0.4622  0.0764 -0.7900
  907MPD2    C413337   4.319   3.839  16.010 -0.3601 -0.8247 -0.1684
  907MPD2    C513338   4.193   3.879  15.972  0.0828  1.1310 -0.6051
  907MPD2     H13339   4.451   3.728  15.732  1.0953 -1.2447  3.4434
  907MPD2    H113340   4.350   3.856  16.113 -0.1426  0.8972 -0.5282
  907MPD2    H213341   4.049   3.875  15.809 -0.8418 -0.3012  0.4249
  907MPD2    H313342   4.123   3.931  16.038  2.6417  0.8085  2.3421
  907MPD2     N13343   4.536   3.743  15.957  0.0632  0.0470  0.3768
  907MPD2    H513344   4.595   3.726  15.877  2.6266  2.3428  1.7925
  907MPD2    N113345   4.201   3.758  15.621  0.3674  0.3106  0.5524
  907MPD2    H713346   4.275   3.721  15.562  0.2242  1.6226 -0.4484
  908MPD2     C13347   2.319   3.328  10.078  0.1074  0.5505  0.0997
  908MPD2    C113348   2.381   3.300  10.197  0.1000 -0.0138 -0.5745
  908MPD2    C213349   2.409   3.410  10.280 -0.6523  0.3820  0.0367
  908MPD2    C313350   2.363   3.531  10.250 -0.3038 -0.1373 -0.6943
  908MPD2    C413351   2.297   3.554  10.128 -0.0020 -0.1013 -0.3334
  908MPD2    C513352   2.280   3.452  10.038 -0.3798  0.5426  0.1313
  908MPD2     H13353   2.458   3.400  10.376 -1.2746 -2.8960  0.0444
  908MPD2    H113354   2.262   3.654  10.104  1.4159  0.4569 -0.0993
  908MPD2    H213355   2.298   3.247  10.009 -0.9956  1.5389 -0.7224
  908MPD2    H313356   2.247   3.471   9.936 -0.6241  2.6495  0.5972
  908MPD2     N13357   2.377   3.636  10.344  0.6416 -0.2372  0.4247
  908MPD2    H513358   2.437   3.607  10.420 -0.4661 -0.6182  1.1536
  908MPD2    N113359   2.416   3.171  10.230 -0.0973 -0.7386  0.1891
  908MPD2    H713360   2.377   3.099  10.170 -0.5800 -0.3704  0.0607
  909MPD2     C13361   2.743   1.774  11.746 -0.4967  0.1699 -0.2574
  909MPD2    C113362   2.791   1.895  11.711  0.8348 -0.5761 -0.3650
  909MPD2    C213363   2.762   2.000  11.792  0.1003  0.1925 -0.3932
  909MPD2    C313364   2.687   1.992  11.903 -0.6699 -0.0017  0.6560
  909MPD2    C413365   2.644   1.868  11.947  0.4069  0.1305  0.6426
  909MPD2    C513366   2.685   1.759  11.876  0.3972  0.1159 -0.0149
  909MPD2     H13367   2.785   2.102  11.762 -2.1390  1.2365  1.4673
  909MPD2    H113368   2.585   1.857  12.037  1.3006  1.5861  1.4159
  909MPD2    H213369   2.754   1.690  11.679  0.9212  0.7559 -0.7604
  909MPD2    H313370   2.646   1.664  11.912  0.7967 -0.7190 -1.7616
  909MPD2     N13371   2.639   2.110  11.962  0.2991  0.5851  0.2927
  909MPD2    H513372   2.678   2.196  11.924 -2.3688  2.5305  1.9902
  909MPD2    N113373   2.875   1.923  11.601 -0.2768 -0.2483  0.4059
  909MPD2    H713374   2.898   2.021  11.584 -0.5631 -0.5310 -1.5447
  910MPD2     C13375   4.041   3.963  16.525 -0.6854  0.0240 -0.4547
  910MPD2    C113376   4.011   3.881  16.419  0.0191  0.1451 -0.0339
  910MPD2    C213377   3.967   3.942  16.304  0.6063  0.2541 -0.3341
  910MPD2    C313378   3.946   4.078  16.284  0.1166  0.4770 -0.1516
  910MPD2    C413379   3.959   4.158  16.392  0.2213  0.4356 -0.2592
  910MPD2    C513380   4.010   4.100  16.505  0.4348  0.1334 -1.0569
  910MPD2     H13381   3.936   3.876  16.224 -1.0769 -0.5940  0.9963
  910MPD2    H113382   3.931   4.263  16.398 -0.5928  0.2392 -0.7065
  910MPD2    H213383   4.063   3.927  16.625  0.3024  1.0733 -0.2997
  910MPD2    H313384   4.038   4.167  16.585  0.0653  0.7708 -1.4691
  910MPD2     N13385   3.887   4.134  16.169  0.3468 -0.2193 -0.0682
  910MPD2    H513386   3.864   4.230  16.189 -0.7318 -0.9194  1.9563
  910MPD2    N113387   4.006   3.743  16.423  0.2851 -0.0407 -0.1524
  910MPD2    H713388   3.953   3.697  16.350 -1.3875  0.2733  0.8524
  911MPD2     C13389   1.826   0.672  16.266 -0.0424  0.5787  0.3998
  911MPD2    C113390   1.805   0.546  16.207 -0.3109 -0.1618  1.1964
  911MPD2    C213391   1.736   0.538  16.088 -0.1521  0.5316  0.2896
  911MPD2    C313392   1.700   0.652  16.014  0.4032 -0.6333 -0.3817
  911MPD2    C413393   1.730   0.776  16.068 -0.0144  0.1691  0.0970
  911MPD2    C513394   1.785   0.777  16.197  0.2689 -0.1952  0.6985
  911MPD2     H13395   1.707   0.439  16.054  1.2826  0.3309 -0.3659
  911MPD2    H113396   1.720   0.863  16.004  1.4073 -0.2459 -0.7027
  911MPD2    H213397   1.884   0.683  16.357 -0.9359  2.2840  0.7551
  911MPD2    H313398   1.796   0.874  16.243  3.0325  0.0580 -0.4963
  911MPD2     N13399   1.638   0.635  15.883 -0.4989  0.0204 -0.2205
  911MPD2    H513400   1.617   0.541  15.851 -0.9676  0.3522 -0.8794
  911MPD2    N113401   1.859   0.435  16.273  0.4342  0.4652  0.1747
  911MPD2    H713402   1.900   0.447  16.365 -1.1559  0.1215  0.9352
  912MPD2     C13403   1.703   0.054  15.477  0.0210  0.9267 -0.1018
  912MPD2    C113404   1.600   0.120  15.542 -0.1051 -0.4584 -0.3776
  912MPD2    C213405   1.516   0.043  15.621  0.7460  0.4939  0.0134
  912MPD2    C313406   1.534   4.640  15.636 -0.9366  0.5023 -0.2253
  912MPD2    C413407   1.636   4.575  15.566  0.8298  0.3751  0.2388
  912MPD2    C513408   1.714   4.653  15.488  0.5805  0.8880 -0.4561
  912MPD2     H13409   1.436   0.094  15.673  0.3829  0.9431 -0.9746
  912MPD2    H113410   1.665   4.471  15.574 -2.2603 -0.5634 -0.7697
  912MPD2    H213411   1.782   0.108  15.427  1.5793 -0.6060  0.7030
  912MPD2    H313412   1.808   4.608  15.459 -0.2998 -0.6418 -0.9204
  912MPD2     N13413   1.440   4.572  15.727  0.7604  0.0367 -0.7604
  912MPD2    H513414   1.387   4.631  15.789 -0.6886 -0.8584 -1.1533
  912MPD2    N113415   1.594   0.262  15.522  0.6311 -0.6713  0.3133
  912MPD2    H713416   1.681   0.302  15.488  0.9749 -0.4522  1.4603
  913MPD2     C13417   1.984   0.751  11.262  0.1825  0.0729 -0.3605
  913MPD2    C113418   1.973   0.646  11.171  0.6044  0.0197  0.3359
  913MPD2    C213419   2.043   0.652  11.054  0.3561  0.4285 -0.0618
  913MPD2    C313420   2.132   0.759  11.033 -0.3633 -0.3555  0.1583
  913MPD2    C413421   2.134   0.872  11.123 -0.3395 -0.3153  0.5251
  913MPD2    C513422   2.067   0.856  11.242 -0.4029  0.3827  0.1001
  913MPD2     H13423   2.039   0.566  10.987  0.5773  0.5700 -0.2572
  913MPD2    H113424   2.196   0.961  11.116  0.0345 -0.5615  0.6934
  913MPD2    H213425   1.946   0.733  11.362 -0.1615  1.1267 -0.3048
  913MPD2    H313426   2.073   0.935  11.316 -1.5364 -1.1430  1.8212
  913MPD2     N13427   2.224   0.756  10.926 -0.2587 -0.0743 -0.4266
  913MPD2    H513428   2.280   0.839  10.907  0.9012 -0.3284  1.9219
  913MPD2    N113429   1.884   0.533  11.202  0.4287  0.4001  0.0461
  913MPD2    H713430   1.846   0.532  11.296  0.3284 -2.1770 -0.0290
  914MPD2     C13431   0.404   1.040  12.024  0.1032  0.1445  0.0589
  914MPD2    C113432   0.346   1.096  12.133 -0.1132 -0.1287  0.1683
  914MPD2    C213433   0.244   1.026  12.195  0.7460 -0.9805 -0.2809
  914MPD2    C313434   0.224   0.894  12.175  0.2783  0.4496  0.3169
  914MPD2    C413435   0.289   0.835  12.069  0.8089  0.1688 -0.1424
  914MPD2    C513436   0.374   0.909  11.988 -0.0542  0.5533 -0.0703
  914MPD2     H13437   0.183   1.069  12.274 -1.8624 -0.4491 -2.5827
  914MPD2    H113438   0.263   0.736  12.035  0.8115  0.3316 -0.6192
  914MPD2    H213439   0.485   1.088  11.970  0.2334  0.3956  0.4820
  914MPD2    H313440   0.416   0.870  11.896 -0.6312  0.0657 -0.1276
  914MPD2     N13441   0.136   0.830  12.262  0.5798  0.4935 -0.7063
  914MPD2    H513442   0.097   0.892  12.332 -0.5383 -1.1235  0.0997
  914MPD2    N113443   0.371   1.228  12.169  0.0015 -0.0178  0.2884
  914MPD2    H713444   0.392   1.291  12.092 -1.4931  0.4054  0.2133
  915MPD2     C13445   2.265   1.217  15.732  0.0134  0.5357 -0.2603
  915MPD2    C113446   2.205   1.344  15.701 -0.1817  0.0638 -0.8833
  915MPD2    C213447   2.223   1.447  15.794  0.1473  0.4553 -0.3820
  915MPD2    C313448   2.311   1.433  15.895  0.0392  0.5268 -0.0313
  915MPD2    C413449   2.375   1.308  15.919  0.7358 -0.1825 -0.4579
  915MPD2    C513450   2.345   1.201  15.845 -0.4723 -0.5416  0.4213
  915MPD2     H13451   2.178   1.545  15.783 -0.0791  0.5619  1.5958
  915MPD2    H113452   2.449   1.294  15.998  1.1928  0.6545 -0.7427
  915MPD2    H213453   2.239   1.134  15.666  1.4015  0.4471 -0.6855
  915MPD2    H313454   2.395   1.107  15.866 -0.6493 -1.2665 -2.4888
  915MPD2     N13455   2.333   1.546  15.978  0.2689  0.0406 -0.0364
  915MPD2    H513456   2.319   1.635  15.933 -0.1879 -0.1943 -0.3583
  915MPD2    N113457   2.125   1.371  15.584  0.1653 -0.0574  0.2138
  915MPD2    H713458   2.087   1.465  15.574 -0.0206 -0.3008 -1.3608
  916MPD2     C13459   1.021   4.594  15.648  0.2186  0.0477  0.4894
  916MPD2    C113460   0.971   4.480  15.718  0.1115 -0.4130 -0.4298
  916MPD2    C213461   1.019   4.356  15.678 -1.0039 -0.2359  0.5733
  916MPD2    C313462   1.101   4.340  15.569  1.0146  0.6966  0.1597
  916MPD2    C413463   1.156   4.451  15.504  0.3684  0.3796 -0.1318
  916MPD2    C513464   1.112   4.578  15.542  0.0530  0.4250 -0.2248
  916MPD2     H13465   0.965   4.269  15.713  0.5783 -0.3388  2.7898
  916MPD2    H113466   1.230   4.433  15.427 -0.3363 -0.0783 -0.7043
  916MPD2    H213467   1.002   4.694  15.684 -0.3060  0.6761 -1.5400
  916MPD2    H313468   1.156   4.670  15.508  1.7538 -0.0896  0.5665
  916MPD2     N13469   1.119   4.205  15.533  0.1048 -0.2208 -0.4512
  916MPD2    H513470   1.108   4.134  15.605  2.8257  0.2498  0.4439
  916MPD2    N113471   0.882   4.504  15.827 -0.5114 -0.2740 -0.4166
  916MPD2    H713472   0.855   4.600  15.848  1.7011  0.3406 -0.4090
  917MPD2     C13473   0.498   1.111  11.088  0.2578 -0.3016  0.2036
  917MPD2    C113474   0.614   1.180  11.122  0.1550 -0.2798  0.5244
  917MPD2    C213475   0.690   1.231  11.021  0.4988 -0.5060 -0.0200
  917MPD2    C313476   0.641   1.241  10.893  0.1807  0.2121  0.1289
  917MPD2    C413477   0.523   1.186  10.864  0.3545  0.0876  0.6669
  917MPD2    C513478   0.453   1.113  10.964  0.1545 -0.0456 -0.0872
  917MPD2     H13479   0.780   1.287  11.042 -1.3774  1.7758  1.9524
  917MPD2    H113480   0.486   1.191  10.762  0.2085  0.4144  0.7393
  917MPD2    H213481   0.439   1.059  11.163 -2.1411 -0.1053 -1.5737
  917MPD2    H313482   0.356   1.069  10.944 -1.0481  2.5409  0.0657
  917MPD2     N13483   0.713   1.310  10.791 -0.4622 -0.5282  0.3832
  917MPD2    H513484   0.681   1.299  10.695  2.7736 -0.6008 -0.6735
  917MPD2    N113485   0.650   1.170  11.261  0.0095  1.5382 -0.5355
  917MPD2    H713486   0.591   1.116  11.323  2.3620  1.1281  1.3491
  918MPD2     C13487   1.047   1.793  11.969 -0.4040 -0.2431 -0.7557
  918MPD2    C113488   1.138   1.730  11.886  0.0853 -0.4345 -0.3640
  918MPD2    C213489   1.084   1.612  11.822 -0.6687  0.0088  0.4403
  918MPD2    C313490   0.958   1.564  11.842 -0.1216  0.2583 -0.1122
  918MPD2    C413491   0.877   1.630  11.929 -0.0305 -0.0273  0.7092
  918MPD2    C513492   0.920   1.745  11.991  0.5383  0.4638 -0.1972
  918MPD2     H13493   1.151   1.550  11.762  1.5811  1.9615  0.9330
  918MPD2    H113494   0.773   1.601  11.938  0.0461 -0.1236  1.2857
  918MPD2    H213495   1.079   1.883  12.020 -1.5895 -0.0001 -0.4379
  918MPD2    H313496   0.860   1.785  12.071  0.6271 -1.5607  0.8996
  918MPD2     N13497   0.914   1.452  11.768 -0.1432 -1.3617 -0.2061
  918MPD2    H513498   0.961   1.418  11.684  0.4488  1.3993 -0.9746
  918MPD2    N113499   1.267   1.778  11.851 -0.5468 -0.2016  0.5239
  918MPD2    H713500   1.327   1.720  11.794  2.6085  1.0358  2.5353
  919MPD2     C13501   1.656   0.626  11.898  0.7126 -0.4086 -0.4313
  919MPD2    C113502   1.563   0.520  11.918  0.6797  0.0222 -0.8130
  919MPD2    C213503   1.445   0.533  11.853 -0.2294 -0.0232  0.1265
  919MPD2    C313504   1.425   0.624  11.750  0.1821 -0.5033 -0.0543
  919MPD2    C413505   1.525   0.713  11.724  0.2076 -0.8850  0.1600
  919MPD2    C513506   1.644   0.709  11.790  0.0648  0.2385 -0.8154
  919MPD2     H13507   1.376   0.451  11.870 -2.0235  1.2982 -0.7817
  919MPD2    H113508   1.523   0.785  11.643 -0.8542 -0.4325  0.5999
  919MPD2    H213509   1.743   0.638  11.962  0.7507 -2.3601 -0.0953
  919MPD2    H313510   1.721   0.781  11.768 -0.2409 -0.3944 -3.9620
  919MPD2     N13511   1.316   0.614  11.666 -0.4043 -0.2115 -0.5880
  919MPD2    H513512   1.314   0.689  11.597  0.8564 -1.1441 -1.6207
  919MPD2    N113513   1.583   0.409  12.012 -0.2747  0.1797 -0.8118
  919MPD2    H713514   1.503   0.350  12.032 -0.8123  1.3531  0.5049
  920MPD2     C13515   1.277   0.616  10.714  0.2314  0.4689 -0.7633
  920MPD2    C113516   1.156   0.552  10.725  0.4198  0.4390  0.6858
  920MPD2    C213517   1.093   0.555  10.850 -0.8200 -0.6628  0.0908
  920MPD2    C313518   1.152   0.612  10.965 -0.2441  0.3771 -0.2448
  920MPD2    C413519   1.276   0.672  10.945 -0.8133  0.1786 -0.0074
  920MPD2    C513520   1.338   0.677  10.824  0.4710 -0.1827 -0.6863
  920MPD2     H13521   0.990   0.523  10.856 -1.4636  1.6833  1.3998
  920MPD2    H113522   1.331   0.719  11.025 -2.2727  2.0571 -0.0833
  920MPD2    H213523   1.320   0.642  10.618  1.3812  1.3094 -0.0257
  920MPD2    H313524   1.437   0.719  10.814  0.5959  0.1504  2.0155
  920MPD2     N13525   1.091   0.603  11.093  0.1357 -0.1740  0.3227
  920MPD2    H513526   1.000   0.558  11.096  0.1281 -0.1081  1.0119
  920MPD2    N113527   1.095   0.481  10.619 -0.6038  0.5019 -0.5989
  920MPD2    H713528   1.004   0.439  10.635 -0.4866 -0.1590 -1.6261
  921MPD2     C13529   2.582   0.128  16.837 -0.1020 -0.6302 -0.3704
  921MPD2    C113530   2.589   0.064  16.713  0.0446  0.0315  0.0902
  921MPD2    C213531   2.473   0.069  16.638  0.5653  0.1974 -0.0205
  921MPD2    C313532   2.357   0.125  16.679  0.5779  0.3364  0.4064
  921MPD2    C413533   2.357   0.191  16.801  0.1273  0.0126  0.8655
  921MPD2    C513534   2.471   0.186  16.878 -0.4606  0.0288 -0.4392
  921MPD2     H13535   2.460   0.020  16.542  0.3436  1.9132 -0.8597
  921MPD2    H113536   2.260   0.226  16.835  0.9974  0.6373  2.6674
  921MPD2    H213537   2.674   0.138  16.893 -0.1844 -4.7107  0.4774
  921MPD2    H313538   2.483   0.232  16.975  1.9599  0.9693 -1.2109
  921MPD2     N13539   2.257   0.119  16.586  0.0842 -0.2586  0.6753
  921MPD2    H513540   2.283   0.075  16.498  0.6397  1.5284 -0.0415
  921MPD2    N113541   2.711   0.012  16.671 -0.0784 -0.6386 -0.1873
  921MPD2    H713542   2.792   0.020  16.732  1.0252 -0.4670 -1.6752
  922MPD2     C13543   3.383   3.296  17.364 -0.1819 -0.1692 -1.0556
  922MPD2    C113544   3.407   3.278  17.495  0.7990  0.0102  0.0913
  922MPD2    C213545   3.444   3.157  17.539 -0.0505  0.4686 -0.3754
  922MPD2    C313546   3.440   3.043  17.456 -0.2755  0.6501 -0.5422
  922MPD2    C413547   3.422   3.061  17.321 -0.3956 -0.4455  0.0408
  922MPD2    C513548   3.394   3.192  17.277  0.6204 -0.2942 -0.3404
  922MPD2     H13549   3.448   3.140  17.646  0.0853 -0.4451 -0.5246
  922MPD2    H113550   3.405   2.983  17.248  1.5917 -2.3109  1.5853
  922MPD2    H213551   3.362   3.397  17.329  0.4733  0.5340  0.5715
  922MPD2    H313552   3.374   3.210  17.172  1.4575  0.7241 -0.3368
  922MPD2     N13553   3.440   2.917  17.522 -0.4815 -0.2376  0.2006
  922MPD2    H513554   3.441   2.913  17.623 -3.3491  0.7510  0.2487
  922MPD2    N113555   3.396   3.382  17.594 -0.2333 -0.2578  0.6295
  922MPD2    H713556   3.416   3.363  17.692  0.1234 -1.7502  0.2627
  923MPD2     C13557   0.157   3.947   9.539  0.3337  0.5233  0.6885
  923MPD2    C113558   0.101   4.075   9.549  0.2243  0.2253 -0.4875
  923MPD2    C213559   0.189   4.173   9.593 -0.3844 -1.2574  0.5283
  923MPD2    C313560   0.324   4.153   9.607  0.4256 -0.6829  0.1090
  923MPD2    C413561   0.374   4.025   9.587  0.1087  0.0055 -0.2400
  923MPD2    C513562   0.289   3.923   9.552 -0.4713  0.2170  0.6273
  923MPD2     H13563   0.157   4.277   9.598 -1.1232 -1.5523  1.8510
  923MPD2    H113564   0.476   3.993   9.605  0.4781  1.1336 -0.2914
  923MPD2    H213565   0.097   3.862   9.507  0.7213 -0.0413  1.4667
  923MPD2    H313566   0.315   3.819   9.564  2.0727  0.9671  1.6810
  923MPD2     N13567   0.425   4.256   9.620  0.1339 -1.0261  0.3290
  923MPD2    H513568   0.521   4.221   9.625  0.9196  1.0181 -0.5191
  923MPD2    N113569   4.708   4.100   9.498  0.0716 -0.4342  0.4645
  923MPD2    H713570   4.661   4.018   9.462 -1.6475 -0.5005  2.8741
  924MPD2     C13571   0.317   3.180  15.513 -0.1918 -0.4093 -0.2756
  924MPD2    C113572   0.189   3.210  15.559  0.6082  0.0026  0.3956
  924MPD2    C213573   0.180   3.323  15.650  0.1816 -0.5182 -0.0743
  924MPD2    C313574   0.287   3.395  15.691 -0.1787  0.4159 -0.2944
  924MPD2    C413575   0.413   3.350  15.646  0.3741 -0.1296  0.1505
  924MPD2    C513576   0.426   3.246  15.551 -0.2500 -0.5744 -0.7820
  924MPD2     H13577   0.083   3.339  15.696 -0.6145 -2.2748 -1.1557
  924MPD2    H113578   0.500   3.387  15.698 -0.9570  0.7650  1.7365
  924MPD2    H213579   0.342   3.098  15.446 -2.8666  0.3629 -2.1816
  924MPD2    H313580   0.525   3.215  15.518  0.1408 -1.3422  1.0764
  924MPD2     N13581   0.277   3.494  15.788 -0.4389  0.1970  0.1406
  924MPD2    H513582   0.365   3.531  15.821  0.1960 -1.2552  0.1056
  924MPD2    N113583   0.076   3.138  15.506 -0.2798 -0.5496 -0.0696
  924MPD2    H713584   0.099   3.050  15.461 -3.5260 -0.6739 -1.4711
  925MPD2     C13585   2.887   0.668  14.547  0.3938 -0.0731  0.5202
  925MPD2    C113586   2.999   0.627  14.483 -0.3955 -0.1156 -0.4665
  925MPD2    C213587   3.120   0.641  14.555 -0.2901 -0.3592 -0.1171
  925MPD2    C313588   3.127   0.688  14.681 -0.7579 -0.2623  0.3102
  925MPD2    C413589   3.005   0.730  14.737  0.2632 -0.0145  0.1507
  925MPD2    C513590   2.889   0.724  14.669 -0.0088 -0.1803 -0.2694
  925MPD2     H13591   3.208   0.608  14.501 -1.0102 -1.7278 -0.4435
  925MPD2    H113592   3.003   0.775  14.836  3.4565 -0.6017  0.4805
  925MPD2    H213593   2.789   0.671  14.500 -0.1977  2.6259  1.9256
  925MPD2    H313594   2.793   0.747  14.713 -1.1956 -0.0721 -2.9249
  925MPD2     N13595   3.241   0.693  14.760  0.1455  0.1253  0.6267
  925MPD2    H513596   3.228   0.718  14.857 -0.8969 -1.5381  0.9109
  925MPD2    N113597   3.005   0.574  14.352 -0.1420  0.0152  0.3212
  925MPD2    H713598   3.092   0.530  14.322  0.4114  1.6300 -0.4190
  926MPD2     C13599   2.238   3.302  13.313 -0.3437 -0.2701 -0.5891
  926MPD2    C113600   2.175   3.421  13.350  0.0225 -0.0650 -0.4144
  926MPD2    C213601   2.239   3.540  13.333  0.1835 -0.3422 -0.1613
  926MPD2    C313602   2.376   3.537  13.313 -0.7685 -0.2092  0.1233
  926MPD2    C413603   2.439   3.421  13.297 -0.7604 -0.6089 -0.1738
  926MPD2    C513604   2.371   3.304  13.293  0.0567  0.0370  0.2398
  926MPD2     H13605   2.194   3.638  13.346 -2.7307 -1.8638  1.2395
  926MPD2    H113606   2.544   3.404  13.276 -1.0479 -0.8138 -1.4034
  926MPD2    H213607   2.186   3.209  13.296 -1.4556  0.3805 -0.7029
  926MPD2    H313608   2.415   3.212  13.256 -1.3563 -0.5282 -0.0303
  926MPD2     N13609   2.456   3.658  13.291 -0.2020  0.0692 -0.0903
  926MPD2    H513610   2.549   3.643  13.253 -1.8226 -0.8073 -3.6666
  926MPD2    N113611   2.032   3.426  13.361  0.1965  0.4948  0.3145
  926MPD2    H713612   1.988   3.515  13.340 -1.6657 -0.6688 -0.6638
  927MPD2     C13613   1.731   0.835  17.390  0.3924 -0.0867  0.1059
  927MPD2    C113614   1.789   0.958  17.410  0.2097  0.1440  0.2758
  927MPD2    C213615   1.875   1.013  17.316 -0.2484 -0.4667  0.8797
  927MPD2    C313616   1.925   0.939  17.214 -0.0921 -0.0274  0.7896
  927MPD2    C413617   1.882   0.803  17.213 -0.5674 -0.2017  0.8705
  927MPD2    C513618   1.786   0.754  17.296 -0.4377  0.4706  0.1922
  927MPD2     H13619   1.919   1.110  17.338  1.0224 -0.2525 -2.7021
  927MPD2    H113620   1.908   0.735  17.134 -1.0284  2.3723 -1.4958
  927MPD2    H213621   1.646   0.794  17.444  0.0370  0.4109 -0.0746
  927MPD2    H313622   1.751   0.653  17.282 -0.7207  0.2559  2.4365
  927MPD2     N13623   2.004   0.985  17.109 -0.9979 -1.0799  0.2974
  927MPD2    H513624   2.029   0.917  17.037 -0.1567 -1.2492  0.7448
  927MPD2    N113625   1.731   1.025  17.517 -0.3306  0.3890 -0.0523
  927MPD2    H713626   1.659   0.974  17.566  0.5091  0.5897  1.3722
  928MPD2     C13627   4.346   4.055   0.929  0.1547  0.1349  0.2702
  928MPD2    C113628   4.410   4.174   0.978  0.0222  1.1285  0.4597
  928MPD2    C213629   4.448   4.277   0.895  0.3805 -0.0350  0.8606
  928MPD2    C313630   4.432   4.261   0.756 -0.6532  0.0330  0.0151
  928MPD2    C413631   4.382   4.139   0.710  0.2916 -0.3530  0.3220
  928MPD2    C513632   4.338   4.046   0.796 -0.2916  0.8807 -0.4995
  928MPD2     H13633   4.484   4.372   0.933 -0.2770  0.7834 -0.5499
  928MPD2    H113634   4.382   4.115   0.604  3.6720  0.7423  0.0829
  928MPD2    H213635   4.317   3.972   0.993 -0.6863  1.3420  1.4628
  928MPD2    H313636   4.294   3.965   0.739  0.0105 -0.1511  0.7280
  928MPD2     N13637   4.475   4.356   0.659 -1.1752  0.5517  0.1244
  928MPD2    H513638   4.457   4.325   0.564  2.6244 -0.7144 -0.1604
  928MPD2    N113639   4.432   4.182   1.121  0.2680  0.6052 -0.2735
  928MPD2    H713640   4.397   4.106   1.178 -0.0314  1.3360  0.5017
  929MPD2     C13641   4.513   4.451   9.838 -0.1834 -0.4320 -0.2079
  929MPD2    C113642   4.468   4.317   9.843 -0.0882 -0.1474  0.0702
  929MPD2    C213643   4.334   4.290   9.877 -0.9053 -0.4395  0.4857
  929MPD2    C313644   4.257   4.398   9.923 -0.8227  0.2059 -0.1895
  929MPD2    C413645   4.304   4.522   9.930 -0.0987 -0.2200  0.1371
  929MPD2    C513646   4.436   4.550   9.893 -0.0155  0.5219 -0.7243
  929MPD2     H13647   4.290   4.191   9.881 -1.1671 -0.3552 -0.1997
  929MPD2    H113648   4.243   4.603   9.969  1.3517  0.9053  0.0844
  929MPD2    H213649   4.610   4.483   9.802 -0.4306 -0.3991 -0.8488
  929MPD2    H313650   4.473   4.652   9.893  2.1533 -0.2589 -1.5756
  929MPD2     N13651   4.122   4.384   9.969 -1.0955 -0.0316 -0.5748
  929MPD2    H513652   4.085   4.461  10.025 -0.0026  1.0322 -1.3112
  929MPD2    N113653   4.567   4.219   9.835 -0.5169  0.3487  0.1759
  929MPD2    H713654   4.660   4.259   9.827  0.1556 -1.4300 -1.1782
  930MPD2     C13655   1.753   2.112  13.910 -0.3103 -0.6544  1.0739
  930MPD2    C113656   1.817   2.054  13.800  0.3278 -0.1577  0.9346
  930MPD2    C213657   1.772   1.929  13.754 -0.4473 -0.2932  0.4719
  930MPD2    C313658   1.655   1.869  13.804 -0.1641  0.1054  0.3010
  930MPD2    C413659   1.594   1.927  13.915  0.4468  0.2974  0.3745
  930MPD2    C513660   1.640   2.052  13.962  0.1279  0.7016  0.1079
  930MPD2     H13661   1.822   1.892  13.666 -0.3854 -0.7628  0.7042
  930MPD2    H113662   1.514   1.875  13.965 -0.0260  0.8792  0.2178
  930MPD2    H213663   1.791   2.198  13.964  2.5955 -2.3231  1.6726
  930MPD2    H313664   1.594   2.099  14.047 -0.1002  0.7704 -0.0531
  930MPD2     N13665   1.600   1.753  13.744  0.0365 -0.5192  0.9662
  930MPD2    H513666   1.501   1.737  13.758 -0.2676  0.4574 -0.0907
  930MPD2    N113667   1.913   2.133  13.733  0.6602 -0.7033  0.1734
  930MPD2    H713668   1.933   2.221  13.780 -0.1398 -0.8295  0.7588
  931MPD2     C13669   1.099   1.053   0.323  0.2437  0.0845 -0.7857
  931MPD2    C113670   1.232   1.035   0.295 -0.1337  0.2374 -0.3770
  931MPD2    C213671   1.317   0.978   0.382 -0.4222  0.3477 -0.7255
  931MPD2    C313672   1.272   0.930   0.504  0.0189  0.7456  0.0853
  931MPD2    C413673   1.133   0.942   0.526 -0.0413 -0.7718  0.1760
  931MPD2    C513674   1.048   1.016   0.447 -0.1502  0.2513 -0.6257
  931MPD2     H13675   1.424   0.997   0.373 -0.2997 -0.8283 -1.6618
  931MPD2    H113676   1.099   0.896   0.618 -0.3374 -0.0629  0.4215
  931MPD2    H213677   1.029   1.089   0.248 -1.8327 -1.5032  0.4002
  931MPD2    H313678   0.943   1.019   0.475  0.2146  0.6204  0.6814
  931MPD2     N13679   1.353   0.877   0.604  0.9424 -0.0731  0.3130
  931MPD2    H513680   1.306   0.824   0.677 -1.9056 -0.3759 -1.7335
  931MPD2    N113681   1.281   1.081   0.170  0.0784  0.4809  0.2789
  931MPD2    H713682   1.215   1.131   0.112  0.3011  1.1017  0.5656
  932MPD2     C13683   3.647   4.644  11.604 -0.1267 -0.2635 -0.7665
  932MPD2    C113684   3.780   4.681  11.624  0.1166  0.9205  0.8507
  932MPD2    C213685   3.871   4.634  11.536  0.0324  0.4978 -0.3694
  932MPD2    C313686   3.843   4.539  11.440  0.1423 -0.2592  0.3382
  932MPD2    C413687   3.715   4.506  11.412 -0.4169 -0.1393 -0.9438
  932MPD2    C513688   3.620   4.563  11.499 -0.4932  0.4181 -0.7935
  932MPD2     H13689   3.971   4.671  11.555 -0.2500  0.1097  1.8867
  932MPD2    H113690   3.696   4.441  11.328  0.6031 -2.1078  0.3366
  932MPD2    H213691   3.562   4.693  11.652  0.5762  2.5130 -2.3648
  932MPD2    H313692   3.515   4.553  11.471 -0.3027 -1.6508 -0.7150
  932MPD2     N13693   3.936   4.477  11.357 -0.1108  0.4921 -0.8794
  932MPD2    H513694   3.907   4.398  11.301 -0.5920 -0.5950  0.9017
  932MPD2    N113695   3.816   0.034  11.727 -0.5460 -0.1938 -0.7408
  932MPD2    H713696   3.914   0.058  11.716 -0.9087  1.4241 -0.4986
  933MPD2     C13697   4.148   4.537   1.854  0.6420  0.7371  0.1914
  933MPD2    C113698   4.140   4.499   1.723  0.2439 -0.0180 -0.0344
  933MPD2    C213699   4.020   4.524   1.655 -0.1501 -0.2678 -0.1659
  933MPD2    C313700   3.920   4.602   1.716  0.2494  0.1068  0.5257
  933MPD2    C413701   3.938   4.648   1.850  0.2116  0.0327  0.3469
  933MPD2    C513702   4.052   4.620   1.913 -0.3910 -0.1867 -0.7357
  933MPD2     H13703   4.011   4.488   1.554  2.6957 -1.4596 -0.0158
  933MPD2    H113704   3.866   4.712   1.900 -1.0943  0.5186 -2.1560
  933MPD2    H213705   4.227   4.507   1.922  0.2153  0.3652  0.5316
  933MPD2    H313706   4.076   4.660   2.011 -0.0812  0.8035 -1.2154
  933MPD2     N13707   3.814   4.648   1.651  0.2076  0.2900  0.3853
  933MPD2    H513708   3.750   4.719   1.688 -1.4565 -1.0815  0.1496
  933MPD2    N113709   4.243   4.417   1.673 -0.2067 -0.4088  0.1278
  933MPD2    H713710   4.323   4.395   1.731  1.4267  1.2138 -1.5165
  934MPD2     C13711   1.034   2.559   1.860 -0.9098  0.2461 -0.4589
  934MPD2    C113712   1.067   2.486   1.749 -0.9115 -0.9900 -0.2433
  934MPD2    C213713   0.964   2.441   1.664 -0.5443  0.3406  0.2853
  934MPD2    C313714   0.835   2.463   1.692  0.4167 -0.7349  0.8558
  934MPD2    C413715   0.801   2.539   1.799  0.3789  0.2925 -0.5627
  934MPD2    C513716   0.899   2.583   1.881 -0.4280  0.0709 -0.1799
  934MPD2     H13717   0.990   2.396   1.569  0.3353 -0.1259  0.7467
  934MPD2    H113718   0.699   2.569   1.817  0.4045 -0.9529  1.6161
  934MPD2    H213719   1.100   2.612   1.927 -1.8192  1.1224 -0.2560
  934MPD2    H313720   0.865   2.642   1.966 -1.6557 -1.6138  0.4963
  934MPD2     N13721   0.727   2.403   1.618 -0.1148  0.1951 -0.4118
  934MPD2    H513722   0.632   2.406   1.653 -0.1656 -0.9588 -0.4529
  934MPD2    N113723   1.201   2.447   1.728  0.0760 -0.5819  0.5408
  934MPD2    H713724   1.208   2.404   1.636 -1.3989 -0.1035  0.2127
  935MPD2     C13725   0.862   1.499   1.307  0.0194 -0.2964 -0.4104
  935MPD2    C113726   0.755   1.540   1.225  0.1662  0.0790  0.0213
  935MPD2    C213727   0.684   1.655   1.253  0.9008  0.1828  0.6712
  935MPD2    C313728   0.717   1.726   1.374 -0.4182  0.3187  0.6408
  935MPD2    C413729   0.814   1.677   1.457 -0.2920  0.1783  0.2672
  935MPD2    C513730   0.889   1.572   1.420 -0.7900  0.0999  0.9076
  935MPD2     H13731   0.623   1.701   1.176 -0.1870 -0.7975  0.9423
  935MPD2    H113732   0.831   1.735   1.547  1.2530  3.8461 -2.4542
  935MPD2    H213733   0.930   1.420   1.280 -0.0700 -0.7487  0.6897
  935MPD2    H313734   0.974   1.538   1.480 -0.9533  1.3244  1.8192
  935MPD2     N13735   0.663   1.855   1.400  0.0315  0.4410  0.5048
  935MPD2    H513736   0.689   1.908   1.483  1.2369 -0.7264  0.8728
  935MPD2    N113737   0.711   1.467   1.108 -0.0898  0.1747 -0.1639
  935MPD2    H713738   0.639   1.503   1.047  2.0197  0.5551 -2.4327
  936MPD2     C13739   4.158   2.841  12.913  0.4665  0.9501  0.3022
  936MPD2    C113740   4.292   2.849  12.939 -0.0779 -0.0506 -0.5106
  936MPD2    C213741   4.377   2.922  12.860 -0.4849  0.2833  1.4077
  936MPD2    C313742   4.323   3.017  12.772 -0.5491 -0.5483  0.7136
  936MPD2    C413743   4.183   3.024  12.749 -0.7203  0.3605 -0.4757
  936MPD2    C513744   4.102   2.935  12.826  0.3342  0.1864  0.2459
  936MPD2     H13745   4.482   2.918  12.886 -0.5492  0.4203  1.6925
  936MPD2    H113746   4.139   3.096  12.680 -1.3576 -0.5077 -0.9769
  936MPD2    H213747   4.080   2.789  12.968 -0.2940  1.6555 -0.1005
  936MPD2    H313748   3.995   2.926  12.811  0.7037 -1.1472 -1.5361
  936MPD2     N13749   4.402   3.110  12.704  0.7826  0.4159 -0.6105
  936MPD2    H513750   4.362   3.199  12.678 -0.5054 -0.2649 -0.9358
  936MPD2    N113751   4.352   2.773  13.043 -0.2667 -0.1782 -0.1917
  936MPD2    H713752   4.453   2.770  13.049 -0.2714  1.3580  0.5617
  937MPD2     C13753   1.943   4.475  11.866 -0.2542  0.1511 -0.3370
  937MPD2    C113754   1.997   4.600  11.889  0.0826 -0.0587 -0.3351
  937MPD2    C213755   2.086   4.649  11.797 -0.4170 -0.5262  0.5288
  937MPD2    C313756   2.147   4.569  11.701 -0.1603 -0.0573 -0.2279
  937MPD2    C413757   2.107   4.434  11.702 -0.6223  0.1030  0.2716
  937MPD2    C513758   2.004   4.390  11.788 -0.2997  0.5404 -0.7686
  937MPD2     H13759   2.117   0.017  11.802 -0.3621 -0.5337  0.3394
  937MPD2    H113760   2.115   4.372  11.613  1.4933 -0.3949  0.8165
  937MPD2    H213761   1.858   4.436  11.921  0.0444  0.3766  0.2827
  937MPD2    H313762   1.960   4.291  11.778 -1.5886  1.0541 -0.1665
  937MPD2     N13763   2.233   4.629  11.608 -0.2347 -0.4020 -0.0052
  937MPD2    H513764   2.253   4.726  11.630  3.2283 -1.0876 -0.0005
  937MPD2    N113765   1.925   4.694  11.960 -0.4454 -0.5686  0.4289
  937MPD2    H713766   1.926   0.053  11.924 -0.7050 -0.2335  1.3121
  938MPD2     C13767   4.278   2.324   1.038  0.2924 -0.5124 -0.1648
  938MPD2    C113768   4.396   2.304   1.101  0.4598  0.2115 -0.4444
  938MPD2    C213769   4.427   2.167   1.128 -0.5634 -0.2973  0.6175
  938MPD2    C313770   4.340   2.060   1.106  0.3638  0.2240 -0.2027
  938MPD2    C413771   4.222   2.093   1.046  0.0222 -0.2136 -0.5851
  938MPD2    C513772   4.192   2.220   1.013 -0.3124 -0.1175  0.2678
  938MPD2     H13773   4.522   2.153   1.179 -0.8202  2.1802  1.7827
  938MPD2    H113774   4.147   2.019   1.019 -0.7140 -0.0485  0.9896
  938MPD2    H213775   4.244   2.422   1.006 -3.2419 -1.8998 -0.6655
  938MPD2    H313776   4.096   2.234   0.964 -1.3775  2.7393  3.1657
  938MPD2     N13777   4.366   1.930   1.143  0.0260 -0.1533 -0.6169
  938MPD2    H513778   4.282   1.876   1.128 -1.4665  0.9458  3.7091
  938MPD2    N113779   4.487   2.410   1.133  0.1166  0.1774  0.4193
  938MPD2    H713780   4.585   2.384   1.141  0.3369  0.4466 -1.4268
  939MPD2     C13781   1.470   2.289   0.863 -0.0854 -0.7535  1.0285
  939MPD2    C113782   1.404   2.406   0.845 -0.0783  0.8157  0.0577
  939MPD2    C213783   1.302   2.418   0.749  0.7553  0.2707 -1.1109
  939MPD2    C313784   1.280   2.313   0.668 -0.2618 -0.4843 -0.0728
  939MPD2    C413785   1.355   2.198   0.682 -0.0483 -0.3195  0.2064
  939MPD2    C513786   1.448   2.184   0.783 -1.3068  0.4003  0.2794
  939MPD2     H13787   1.250   2.511   0.732  0.7653  0.1976 -1.5326
  939MPD2    H113788   1.349   2.117   0.610 -1.4767  1.0254 -1.2018
  939MPD2    H213789   1.548   2.279   0.937 -0.7175 -0.7779  1.6806
  939MPD2    H313790   1.515   2.099   0.787  0.3693  1.5978 -2.0412
  939MPD2     N13791   1.178   2.331   0.572 -0.0750  0.6964  0.3903
  939MPD2    H513792   1.128   2.419   0.581  0.7930  1.1140  1.1891
  939MPD2    N113793   1.436   2.512   0.932  0.1095 -0.4305  0.1306
  939MPD2    H713794   1.491   2.493   1.015 -0.9839  0.7444  1.1300
  940MPD2     C13795   0.687   3.821  12.875 -0.4148  0.3792  0.2331
  940MPD2    C113796   0.633   3.725  12.961  1.3714 -0.1108 -0.8896
  940MPD2    C213797   0.612   3.597  12.920 -0.2576  0.2434 -0.0082
  940MPD2    C313798   0.654   3.559  12.793  0.1621 -0.1340  0.6198
  940MPD2    C413799   0.719   3.650  12.718 -0.3946  0.2992  0.3604
  940MPD2    C513800   0.733   3.780  12.754 -0.3549  0.6943  0.2314
  940MPD2     H13801   0.575   3.524  12.990 -0.5215  1.1317  0.7778
  940MPD2    H113802   0.747   3.621  12.618 -2.2045  1.3978 -0.4681
  940MPD2    H213803   0.696   3.922  12.912 -1.7410  0.8347 -0.7100
  940MPD2    H313804   0.787   3.845  12.686  0.8534 -2.1681 -1.5361
  940MPD2     N13805   0.649   3.428  12.749 -0.2185 -0.0288  0.1299
  940MPD2    H513806   0.700   3.398  12.666  0.6507 -0.8220  0.9482
  940MPD2    N113807   0.583   3.762  13.090 -0.3293 -0.2751  0.0586
  940MPD2    H713808   0.533   3.687  13.137 -1.3535 -0.7651 -1.8323
  941MPD2     C13809   3.875   2.509   9.332 -0.2241  0.6503  0.1227
  941MPD2    C113810   3.865   2.490   9.472  0.1507  0.2194 -0.5651
  941MPD2    C213811   3.783   2.395   9.528  0.2933 -0.8902  0.1333
  941MPD2    C313812   3.705   2.317   9.445  0.4135 -0.4112 -0.4101
  941MPD2    C413813   3.710   2.338   9.310  0.2831  0.1943  0.1981
  941MPD2    C513814   3.787   2.433   9.252 -0.5379  0.5483 -0.0329
  941MPD2     H13815   3.794   2.370   9.632  2.6471 -1.3213 -0.2173
  941MPD2    H113816   3.643   2.284   9.244  1.7418 -0.5106 -0.7201
  941MPD2    H213817   3.935   2.587   9.287 -0.3157  1.2883  1.1218
  941MPD2    H313818   3.782   2.458   9.147  2.0629  1.4750  0.0590
  941MPD2     N13819   3.630   2.206   9.490  1.1523  0.1267 -0.2728
  941MPD2    H513820   3.596   2.138   9.423 -2.0387  1.2146  0.2786
  941MPD2    N113821   3.947   2.560   9.559  0.2384  0.1340  0.0370
  941MPD2    H713822   3.930   2.536   9.656  3.7720 -1.2145  0.2948
  942MPD2     C13823   3.120   3.964   9.674 -0.2983 -0.2419  0.6125
  942MPD2    C113824   3.113   3.830   9.689 -0.8684 -0.6169  0.2993
  942MPD2    C213825   3.203   3.740   9.633 -1.0743 -0.2202 -0.0535
  942MPD2    C313826   3.312   3.800   9.563 -0.0913 -0.1746 -0.4112
  942MPD2    C413827   3.318   3.938   9.556  0.1946 -0.3269  0.0065
  942MPD2    C513828   3.218   4.019   9.600  0.4913 -0.4635  0.2078
  942MPD2     H13829   3.193   3.632   9.640  1.9914 -0.4901  0.3950
  942MPD2    H113830   3.411   3.975   9.512  0.1506 -1.8050 -1.3457
  942MPD2    H213831   3.055   4.035   9.724 -0.3482  0.4035 -0.3603
  942MPD2    H313832   3.211   4.127   9.602  1.3257 -0.3948 -0.4539
  942MPD2     N13833   3.418   3.728   9.508  0.6030  0.5020  0.2186
  942MPD2    H513834   3.489   3.786   9.464  0.4060  1.1102  0.6991
  942MPD2    N113835   3.000   3.779   9.767 -0.2457  0.7633 -0.7108
  942MPD2    H713836   2.986   3.679   9.757  0.2316  0.7800 -1.5817
  943MPD2     C13837   2.907   2.225  10.323  0.4607 -0.8082 -0.6792
  943MPD2    C113838   2.830   2.122  10.371 -0.1334 -0.0478 -0.0025
  943MPD2    C213839   2.722   2.147  10.445  0.4621 -0.0285 -0.0559
  943MPD2    C313840   2.683   2.274  10.482  0.1599 -0.0015  0.5444
  943MPD2    C413841   2.762   2.379  10.435 -0.0717 -0.0050  0.2593
  943MPD2    C513842   2.871   2.353  10.359  0.1881  0.3609 -0.6358
  943MPD2     H13843   2.671   2.065  10.495  0.3499  0.3889  0.5258
  943MPD2    H113844   2.750   2.480  10.473  2.2453 -0.6071  2.6144
  943MPD2    H213845   2.997   2.217  10.263 -0.4363  1.1880 -2.2959
  943MPD2    H313846   2.933   2.436  10.326  1.4426 -0.7748 -1.1456
  943MPD2     N13847   2.579   2.298  10.568 -0.3047  0.1293 -0.0660
  943MPD2    H513848   2.563   2.388  10.614  0.3313 -0.8892  2.1566
  943MPD2    N113849   2.878   1.984  10.352  0.3831 -0.5271  0.2603
  943MPD2    H713850   2.960   1.973  10.292  1.1210 -3.6587  1.8551
  944MPD2     C13851   2.776   1.523  11.278  0.6811 -0.7410 -1.2767
  944MPD2    C113852   2.693   1.538  11.390  0.1718 -0.2612  0.3300
  944MPD2    C213853   2.627   1.658  11.407 -0.4116 -0.1842  0.2731
  944MPD2    C313854   2.630   1.767  11.318 -0.5953  0.5778  0.3239
  944MPD2    C413855   2.714   1.747  11.212  0.2258  0.1909  0.3445
  944MPD2    C513856   2.791   1.632  11.194  0.7305  0.7034  0.0844
  944MPD2     H13857   2.569   1.678  11.496  0.2852  1.6254  0.3120
  944MPD2    H113858   2.713   1.826  11.137  0.2610 -1.4940 -1.4326
  944MPD2    H213859   2.843   1.440  11.255  0.7683 -1.3867  1.2652
  944MPD2    H313860   2.859   1.625  11.110  0.2263  2.5972 -0.4818
  944MPD2     N13861   2.557   1.888  11.344 -0.2589 -0.0458  0.1312
  944MPD2    H513862   2.515   1.893  11.436  0.8900  0.2688  0.6419
  944MPD2    N113863   2.689   1.433  11.478 -1.1860 -0.0162 -0.2224
  944MPD2    H713864   2.747   1.353  11.455 -1.6494 -0.8435  1.4528
    1TMC1    C113865   4.286   3.373  14.457  0.0404  0.0839 -0.1910
    1TMC1    C213866   4.172   3.316  14.414  0.5203 -0.0824  0.5393
    1TMC1    C313867   4.055   3.351  14.484 -0.1889 -0.6029 -0.1013
    1TMC1    C413868   4.298   3.438  14.576  0.2047  0.0729  0.6962
    1TMC1    C513869   4.181   3.456  14.648  1.0015  0.5533  0.2010
    1TMC1    C613870   4.064   3.415  14.603 -0.1828  0.3230 -0.4025
    1TMC1     C13871   4.395   3.353  14.370 -0.0955 -0.7062 -0.3280
    1TMC1     O13872   4.374   3.300  14.262  0.6014  0.9360  0.0651
    1TMC1     H13873   4.168   3.252  14.327 -0.5369  0.6800  0.0286
    1TMC1    H113874   4.396   3.434  14.621 -0.4740 -1.3180  2.0773
    1TMC1    H213875   3.977   3.414  14.668  1.4134  1.0622  1.7239
    1TMC1    C713876   4.178   3.534  14.769  0.1306 -0.3791 -0.1205
    1TMC1    C813877   3.930   3.275  14.456  0.5052  0.2172  0.2267
    1TMC1    O113878   4.079   3.551  14.836 -0.3146  0.0291 -0.1815
    1TMC1    O213879   3.833   3.283  14.534  0.3055  0.2516  0.3702
    1TMC1    O313880   4.284   3.611  14.765 -0.1175 -0.2218  0.1311
    1TMC1    H313881   4.329   3.605  14.678 -2.4330  0.9525 -1.1681
    1TMC1    O513882   3.936   3.204  14.343 -0.2131  0.4256 -1.2457
    1TMC1    H513883   4.010   3.217  14.281  0.7441  0.7660 -0.0146
    2MPD2     C13884   0.156   3.434  14.229 -0.3984  0.3409 -0.4654
    2MPD2    C113885   0.122   3.506  14.339  0.1959 -0.3187  0.3208
    2MPD2    C213886   4.729   3.499  14.389 -0.2548  0.3579 -0.0796
    2MPD2    C313887   4.630   3.416  14.340 -0.1264  0.7830 -0.0877
    2MPD2    C413888   4.668   3.323  14.246 -0.8154 -0.3899  0.3562
    2MPD2    C513889   0.063   3.339  14.194 -0.1073 -0.2537 -0.1781
    2MPD2     H13890   4.718   3.550  14.484  0.6553 -0.8807  0.6806
    2MPD2    H113891   4.607   3.235  14.228  0.4175 -1.3081  0.6929
    2MPD2    H213892   0.256   3.437  14.188  0.4272 -3.1782  1.2673
    2MPD2    H313893   0.088   3.271  14.113 -1.3297 -1.8955  0.8344
    2MPD2     N13894   4.507   3.420  14.408  0.0421 -0.5204 -0.2127
    2MPD2    H513895   4.495   3.486  14.484  0.0109 -0.3948 -0.3259
    2MPD2    N113896   0.233   3.572  14.399 -0.6650 -0.0126 -0.0035
    2MPD2    H713897   0.320   3.569  14.347 -0.9936  0.3603 -0.5856
    3TMC2    C113898   0.367   3.670  14.573  0.4003 -0.1587  0.5561
    3TMC2    C213899   0.381   3.684  14.707  0.2467 -0.3559 -0.1236
    3TMC2    C313900   0.506   3.681  14.752 -0.1791 -0.2063 -0.3498
    3TMC2    C413901   0.469   3.678  14.489  0.2008 -0.3503 -0.1627
    3TMC2    C513902   0.594   3.699  14.536  0.6113  0.0555 -0.8164
    3TMC2    C613903   0.610   3.692  14.675 -0.2645 -0.4239 -0.4736
    3TMC2     C13904   0.235   3.622  14.530 -0.7161 -0.1402 -0.1013
    3TMC2     O13905   0.145   3.645  14.608  0.9817  0.0988  0.3171
    3TMC2     H13906   0.295   3.679  14.773  1.2161  3.1804  1.3728
    3TMC2    H113907   0.455   3.666  14.382 -0.5443 -1.2831  0.0404
    3TMC2    H213908   0.709   3.718  14.712 -0.0951 -1.2472 -0.3595
    3TMC2    C713909   0.700   3.739  14.440 -0.4322  0.3867  0.0448
    3TMC2    C813910   0.525   3.688  14.894 -0.0267  0.4518 -0.1077
    3TMC2    O113911   0.808   3.702  14.484  0.6031  0.1244  0.8106
    3TMC2    O213912   0.451   3.751  14.968  0.7192 -0.5862  0.0516
    3TMC2    O513913   0.641   3.625  14.923 -0.0307  0.4255 -0.0365
    3TMC2    H513914   0.676   3.568  14.852 -0.6963  1.4942 -1.2343
    4TMC2    C113915   0.402   4.218  13.639  0.2760 -0.7082 -0.3606
    4TMC2    C213916   0.492   4.193  13.544  0.2578 -0.5790  0.4128
    4TMC2    C313917   0.627   4.191  13.582  0.2786  0.1628  0.2362
    4TMC2    C413918   0.440   4.232  13.766  0.8289  0.3222 -0.3462
    4TMC2    C513919   0.574   4.223  13.798 -0.6287 -0.5560  0.1328
    4TMC2    C613920   0.675   4.213  13.707  0.2851 -0.3260 -0.3323
    4TMC2     C13921   0.276   4.142  13.628  0.0808  0.0294 -0.3678
    4TMC2     O13922   0.269   4.066  13.534  0.3493 -0.2829  0.0372
    4TMC2     H13923   0.461   4.206  13.441  0.8462 -0.6622  0.2256
    4TMC2    H113924   0.371   4.252  13.848  0.7690 -1.2703 -0.0003
    4TMC2    H213925   0.778   4.236  13.733 -0.2022  1.8050 -0.2848
    4TMC2    C713926   0.595   4.144  13.922 -0.1933 -0.0501  0.4750
    4TMC2    C813927   0.721   4.201  13.477 -0.1621 -0.2955  0.0067
    4TMC2    O113928   0.495   4.097  13.977  0.3753 -0.1774 -0.2562
    4TMC2    O213929   0.692   4.228  13.364  0.4485  0.1101  0.3998
    4TMC2    O513930   0.843   4.153  13.511 -0.1248 -0.4311  0.6123
    4TMC2    H513931   0.862   4.135  13.606  1.0043  1.8228  0.8337
    5MPD2     C13932   4.547   4.018  13.812 -0.1701  0.0711 -0.6208
    5MPD2    C113933   4.623   3.971  13.706  0.1302 -0.4456  0.4121
    5MPD2    C213934   0.001   4.034  13.663  0.6320 -0.2157  0.3067
    5MPD2    C313935   0.055   4.138  13.736 -0.0491  0.2707 -0.7428
    5MPD2    C413936   4.710   4.191  13.836 -0.1219  0.6055  0.5456
    5MPD2    C513937   4.593   4.132  13.871  0.1292  0.1308  0.5202
    5MPD2     H13938   0.051   3.993  13.576 -0.0905 -0.3882 -0.0293
    5MPD2    H113939   0.002   4.276  13.898  0.5351  0.9580 -0.2411
    5MPD2    H213940   4.452   3.974  13.842  0.1365 -0.1914 -0.0370
    5MPD2    H313941   4.542   4.175  13.957  0.5945 -1.7531  1.7464
    5MPD2     N13942   0.183   4.189  13.715 -0.0603  0.1022 -0.3615
    5MPD2    H513943   0.207   4.264  13.779  0.3942 -1.6328  1.4988
    5MPD2    N113944   4.557   3.875  13.633  0.1736 -0.1411 -0.4915
    5MPD2    H713945   4.480   3.828  13.680  1.2069  0.1241  1.4726
    6MPD1     C13946   3.151   4.485  13.042  0.2541 -0.0268 -0.3893
    6MPD1    C113947   3.173   4.434  13.170  0.5103  0.8812 -0.6212
    6MPD1    C213948   3.252   4.321  13.168  0.1821  0.4437  0.1016
    6MPD1    C313949   3.293   4.247  13.059  0.4021  0.0652 -0.0947
    6MPD1    C413950   3.264   4.302  12.940  0.0836  0.4453  0.7682
    6MPD1    C513951   3.191   4.419  12.930 -0.3979  0.4763 -0.0388
    6MPD1     H13952   3.277   4.283  13.266 -0.7798 -0.6816 -0.0974
    6MPD1    H113953   3.310   4.266  12.849  1.1840 -1.0708  1.9470
    6MPD1    H213954   3.095   4.576  13.026 -0.7572 -0.6786 -0.5126
    6MPD1    H313955   3.154   4.455  12.834  0.9819  0.5204 -0.5567
    6MPD1     N13956   3.380   4.142  13.064 -0.0530  0.0233  0.9274
    6MPD1    H513957   3.391   4.088  12.979  1.5787  2.3862 -0.3689
    6MPD1    N113958   3.131   4.509  13.282 -0.5564 -0.4889 -0.1568
    6MPD1    H613959   3.041   4.552  13.264  0.3825  0.7677 -1.8329
    6MPD1    H713960   3.124   4.443  13.359 -1.4935  0.4417  0.5457
    7MPD2     C13961   3.757   3.572  13.576  0.4320  0.6794 -0.5454
    7MPD2    C113962   3.827   3.642  13.476  0.5613  0.3195  0.2795
    7MPD2    C213963   3.965   3.629  13.462 -0.2574  0.3885  0.2675
    7MPD2    C313964   4.037   3.550  13.554  0.2102 -0.6501  0.2535
    7MPD2    C413965   3.977   3.501  13.670  0.0680  0.5614  0.0218
    7MPD2    C513966   3.833   3.505  13.670 -0.0351 -0.0378 -0.1046
    7MPD2     H13967   4.009   3.667  13.371  1.2037 -3.1151 -0.4880
    7MPD2    H113968   4.030   3.451  13.749 -0.3397 -0.0306 -0.0828
    7MPD2    H213969   3.650   3.573  13.593  0.6611 -2.9800  1.0523
    7MPD2    H313970   3.788   3.458  13.756 -0.4332  0.7807  0.1326
    7MPD2     N13971   4.174   3.527  13.519 -0.0588 -0.5661  0.4774
    7MPD2    H513972   4.204   3.543  13.423  0.4059  0.6131  0.8144
    7MPD2    N113973   3.763   3.706  13.373  0.4626 -0.4272 -0.0350
    7MPD2    H713974   3.816   3.769  13.314 -1.4570  1.3200  0.1026
    8TMC3    C113975   4.405   3.500  13.544  0.5817 -0.3378 -0.1490
    8TMC3    C213976   4.472   3.609  13.580 -0.0825 -0.4369 -0.4160
    8TMC3    C313977   4.512   3.699  13.483 -0.3291 -0.6400  0.0414
    8TMC3    C413978   4.405   3.465  13.414 -0.1967  0.1683  0.3359
    8TMC3    C513979   4.443   3.543  13.314  0.0430 -0.2153  0.7416
    8TMC3    C613980   4.504   3.662  13.349 -0.3065 -0.0195  0.2481
    8TMC3     C13981   4.280   3.489  13.610 -0.1564 -0.1380  0.0343
    8TMC3     O13982   4.282   3.498  13.731  0.4050  0.3283 -0.6444
    8TMC3     H13983   4.468   3.640  13.684 -1.0328  0.0166 -0.5855
    8TMC3    H113984   4.347   3.380  13.379  2.5053 -1.1730 -0.8606
    8TMC3    H213985   4.530   3.735  13.274  1.9443 -0.5072  0.5541
    8TMC3    C713986   4.330   3.555  13.217  0.1556 -0.3058 -0.2758
    8TMC3    C813987   4.591   3.814  13.514  0.8234 -0.5871 -0.0618
    8TMC3    O113988   4.211   3.532  13.250 -0.1961  0.2443  0.4575
    8TMC3    O213989   4.671   3.851  13.428  0.7784  0.1300 -0.2120
    9TMC3    C113990   3.518   3.977  13.153  0.0276  0.3833 -0.0338
    9TMC3    C213991   3.617   3.980  13.062  0.2107 -0.1377 -0.2835
    9TMC3    C313992   3.702   3.881  13.055 -0.1402  0.3228 -0.2272
    9TMC3    C413993   3.518   3.874  13.239 -0.7510  0.5457 -0.3498
    9TMC3    C513994   3.599   3.764  13.227 -0.1211 -0.2048 -0.3782
    9TMC3    C613995   3.702   3.774  13.140 -0.3287 -0.1091  0.2053
    9TMC3     C13996   3.429   4.087  13.178 -1.1396 -0.1379  0.4927
    9TMC3     O13997   3.438   4.125  13.294 -0.1314  0.2194 -0.3873
    9TMC3     H13998   3.620   4.068  12.999  0.4329 -0.0106 -0.0988
    9TMC3    H113999   3.431   3.874  13.304  0.8161  0.7739  1.7443
    9TMC3    H214000   3.765   3.686  13.140  0.4053  0.4118 -0.8007
    9TMC3    C714001   3.624   3.698  13.351 -0.1425  0.1417  0.1437
    9TMC3    C814002   3.821   3.894  12.972 -0.3895  0.0832 -0.0311
    9TMC3    O114003   3.525   3.654  13.414 -0.6592 -0.1897 -0.0708
    9TMC3    O214004   3.821   3.996  12.902  0.5898 -0.6140  0.1194
   10MPD2     C14005   4.344   3.785  12.928  0.0635 -0.0744 -0.4049
   10MPD2    C114006   4.282   3.698  13.022 -0.1433  0.7625  0.1263
   10MPD2    C214007   4.145   3.703  13.029 -0.2490  0.1490  0.1715
   10MPD2    C314008   4.059   3.792  12.960  0.4653 -0.1902 -0.3036
   10MPD2    C414009   4.120   3.869  12.853 -0.6868  0.3786 -0.0573
   10MPD2    C514010   4.260   3.861  12.847 -0.0131 -0.5104  0.5630
   10MPD2     H14011   4.087   3.634  13.088 -1.5707 -0.7317 -2.1514
   10MPD2    H114012   4.059   3.940  12.799 -2.7738  0.5054  2.4440
   10MPD2    H214013   4.452   3.787  12.918  0.1609  0.6239  0.8376
   10MPD2    H314014   4.314   3.922  12.775 -2.1559 -0.5095 -1.0263
   10MPD2     N14015   3.922   3.799  12.994  0.0164 -0.9608 -0.6138
   10MPD2    H514016   3.894   3.737  13.069  2.9311 -1.0761  0.3703
   10MPD2    N114017   4.367   3.634  13.117  0.8980  0.0878 -0.1678
   10MPD2    H714018   4.465   3.660  13.116  0.8678  0.1381 -1.2371
   11MPD2     C14019   0.880   3.861  14.233 -0.1073 -0.7329  0.1904
   11MPD2    C114020   0.740   3.874  14.232  0.2528  0.1601 -0.1474
   11MPD2    C214021   0.682   3.944  14.130 -0.4644  0.2419 -0.3060
   11MPD2    C314022   0.765   4.012  14.043 -0.1548  0.4760 -0.8028
   11MPD2    C414023   0.901   3.994  14.043  0.0225  0.0682 -0.0842
   11MPD2    C514024   0.958   3.920  14.138 -0.1648  0.6421 -0.0311
   11MPD2     H14025   0.574   3.950  14.126 -0.3299  1.9644 -1.5959
   11MPD2    H114026   0.965   4.049  13.975 -0.9680  0.8645 -0.3848
   11MPD2    H214027   0.940   3.809  14.306  0.3032  0.2096  0.5257
   11MPD2    H314028   1.065   3.933  14.142 -0.0948 -0.2472  1.0624
   11MPD2     N14029   0.723   4.105  13.946 -0.3795 -0.4039 -0.3005
   11MPD2    H514030   0.804   4.142  13.897 -0.2441  1.2173  1.1808
   11MPD2    N114031   0.656   3.809  14.332  0.0120  0.0920 -0.3738
   11MPD2    H714032   0.558   3.837  14.332  0.0001  0.0711 -1.1602
    1MPD1     C14033   3.907   1.310  17.271  0.1521  0.4120  0.1818
    1MPD1    C114034   3.801   1.252  17.217  0.0136  0.7742 -0.0754
    1MPD1    C214035   3.823   1.122  17.184  0.3779  0.2814  0.0033
    1MPD1    C314036   3.918   1.043  17.247 -0.7390  0.3261  0.2278
    1MPD1    C414037   4.009   1.107  17.330 -0.0324  0.3862 -0.0453
    1MPD1    C514038   4.003   1.242  17.340  0.4096 -0.0433  0.0396
    1MPD1     H14039   3.747   1.074  17.124  1.8053 -0.0756 -1.5188
    1MPD1    H114040   4.073   1.042  17.388  1.5904  2.2974  0.3152
    1MPD1    H214041   3.898   1.417  17.289  0.8250  0.6953 -1.1207
    1MPD1    H314042   4.070   1.300  17.402  1.4483 -0.9422 -0.2520
    1MPD1     N14043   3.922   0.899  17.240 -0.2546  0.4000  0.7075
    1MPD1    H514044   3.988   0.853  17.302 -0.7218 -2.0949 -0.6735
    1MPD1    N114045   3.696   1.322  17.164 -0.3076  0.5758 -0.9160
    1MPD1    H614046   3.664   1.406  17.212 -1.5670  0.9276 -2.3444
    1MPD1    H714047   3.611   1.267  17.157 -0.4896  1.0435 -2.5360
    2MPD1     C14048   4.289   0.106  17.701  0.5452  0.3971 -0.0561
    2MPD1    C114049   4.226   0.045  17.602  0.1034 -0.0392  0.0720
    2MPD1    C214050   4.151   0.121  17.515  0.2340  0.1441 -0.1063
    2MPD1    C314051   4.140   0.256  17.521  0.8810 -0.4968 -0.4446
    2MPD1    C414052   4.219   0.318  17.618 -0.1121 -0.3606 -0.6941
    2MPD1    C514053   4.297   0.244  17.701 -0.0581 -0.2495 -0.8540
    2MPD1     H14054   4.100   0.072  17.433 -2.7277  2.1437  0.5571
    2MPD1    H114055   4.229   0.426  17.628 -2.5972 -0.0880 -1.1891
    2MPD1    H214056   4.364   0.061   0.023 -0.0860 -2.0607 -1.0492
    2MPD1    H314057   4.362   0.300   0.024 -0.9264 -1.8946  1.4388
    2MPD1     N14058   4.056   0.322  17.427  0.0940 -0.2859  0.0433
    2MPD1    H514059   3.995   0.271  17.364 -0.9120 -0.3329  1.0449
    2MPD1    N114060   4.239   4.645  17.570 -0.2083 -0.7401  0.1854
    2MPD1    H614061   4.265   4.598  17.657  0.9223  0.8634  0.7228
    2MPD1    H714062   4.166   4.589  17.527  0.8246 -1.0612 -1.1350
    3TMC3    C114063   3.979   0.508  17.305  0.9196 -0.3865  0.1222
    3TMC3    C214064   3.976   0.419  17.193 -0.4213 -0.6955  0.4551
    3TMC3    C314065   3.924   0.472  17.076 -0.4841 -0.2971  0.1467
    3TMC3    C414066   3.930   0.636  17.299  0.1325  0.2735 -0.1519
    3TMC3    C514067   3.875   0.673  17.179 -0.2528 -0.3536  0.0783
    3TMC3    C614068   3.870   0.592  17.073  0.0524  0.0666  0.3461
    3TMC3     C14069   4.037   0.455  17.426 -0.6021 -0.2185  0.9000
    3TMC3     O14070   4.063   0.535  17.516  0.2219 -0.9048  0.4231
    3TMC3     H14071   4.011   0.316  17.197 -1.7966 -1.0625  2.8266
    3TMC3    H114072   3.957   0.700  17.381 -1.6592 -0.0888  0.7296
    3TMC3    H214073   3.845   0.641  16.980 -4.2955 -1.5892  0.6286
    3TMC3    C714074   3.854   0.819  17.156 -0.3966 -0.6438  0.1481
    3TMC3    C814075   3.864   0.380  16.980 -0.4256 -0.2537  0.4710
    3TMC3    O114076   3.797   0.855  17.052  0.2179  0.3053 -0.0526
    3TMC3    O214077   3.750   0.408  16.950 -0.2739 -0.4368 -0.0454
    4MPD1     C14078   3.823   4.652  16.783  0.4127 -0.0377  0.1107
    4MPD1    C114079   3.949   4.670  16.818 -0.5112  0.5467 -0.2701
    4MPD1    C214080   3.986   0.042  16.890  0.2444 -1.0035 -0.3284
    4MPD1    C314081   3.901   0.149  16.919  0.2506 -0.5939  0.3806
    4MPD1    C414082   3.769   0.129  16.874  0.6735 -0.4077  0.6904
    4MPD1    C514083   3.735   0.011  16.810 -0.5834  0.2287  0.0042
    4MPD1     H14084   4.089   0.047  16.925  0.3387 -0.5095 -0.6613
    4MPD1    H114085   3.695   0.206  16.890 -0.8797 -1.5805 -0.7773
    4MPD1    H214086   3.794   4.569  16.718 -0.1310 -2.3386  3.2917
    4MPD1    H314087   3.635   0.007  16.770 -0.8727  0.1742  0.7399
    4MPD1     N14088   3.946   0.275  16.966 -0.2872  0.0873  0.9612
    4MPD1    H514089   4.043   0.289  16.995  0.8795 -1.7237 -2.1363
    4MPD1    N114090   4.035   4.561  16.807  0.3493  0.4674 -0.4078
    4MPD1    H614091   3.998   4.497  16.737  0.8477 -0.9950  0.6610
    4MPD1    H714092   4.131   4.592  16.791  1.3006 -2.5319 -0.4994
    1TCq1    O114093   4.232   1.096   9.505 -0.7943  0.7279 -0.3868
    1TCq1    C114094   4.161   0.981   9.504  0.2773 -0.1320  0.3890
    1TCq1    O214095   4.083   0.952   9.415  0.1786 -0.3163 -0.0517
    1TCq1    C214096   4.174   0.925   9.642 -0.1590  0.1820 -0.0846
    1TCq1    C314097   4.168   1.014   9.743  0.5502  0.3727  0.1634
    1TCq1    C414098   4.188   0.962   9.869  0.0223  0.3345  0.6055
    1TCq1    C514099   4.179   0.827   9.890  0.1034  0.5048 -0.2843
    1TCq1    C614100   4.160   0.747   9.785  0.2590 -0.8821 -0.1425
    1TCq1    C714101   4.161   0.789   9.656  0.3358  0.1349 -0.1235
    1TCq1    C814102   4.167   0.602   9.801 -0.1303  0.5381  0.1924
    1TCq1    O414103   4.180   0.529   9.701 -0.0994  0.1636  0.5670
    1TCq1    C914104   4.195   1.048   9.988  0.0068  0.4637  0.1802
    1TCq1    O514105   4.162   0.989  10.097  0.1657  0.3887  0.3544
    1TCq1    O614106   4.184   1.171   9.964  0.1479  0.3451 -0.0452
    1TCq1    H114107   4.301   1.083   9.574 -1.9062  0.4952  0.6789
    1TCq1    H214108   4.169   1.120   9.719 -1.4729  0.0630 -1.3057
    1TCq1    H314109   4.207   0.794   9.989 -1.5599  0.6447  0.2355
    1TCq1    H414110   4.172   0.731   9.565  2.1265 -1.6715  1.2541
    2MPD1     C14111   4.260   0.215  10.119  0.4382 -0.3834 -0.0651
    2MPD1    C114112   4.209   0.320  10.197 -0.2876  0.1811 -0.6386
    2MPD1    C214113   4.172   0.433  10.126  0.2782  0.2531  0.0409
    2MPD1    C314114   4.191   0.444   9.987  0.8392 -0.1449  0.0932
    2MPD1    C414115   4.238   0.334   9.914 -0.3663  0.0393  0.2154
    2MPD1    C514116   4.251   0.220   9.980 -0.1850 -0.0276  0.4515
    2MPD1     H14117   4.129   0.515  10.183  0.5299  1.0939 -0.9933
    2MPD1    H114118   4.252   0.330   9.807 -0.9883  0.7134  0.1115
    2MPD1    H214119   4.308   0.125  10.154  1.0315  0.1015  0.3740
    2MPD1    H314120   4.276   0.133   9.921 -1.4006  0.3102 -0.5385
    2MPD1     N14121   4.163   0.570   9.932 -0.3779  0.5299 -0.2560
    2MPD1    H514122   4.117   0.636   9.994  0.7360 -0.2238  1.3514
    2MPD1    N114123   4.222   0.327  10.336 -0.3893  0.1161 -0.1856
    2MPD1    H614124   4.134   0.371  10.363 -0.4767  1.2219 -2.2567
    2MPD1    H714125   4.224   0.235  10.379 -1.2360 -0.2361 -0.8861
    1TMC1    C114126   0.695   4.368   1.263 -0.4482  0.0248 -0.5802
    1TMC1    C214127   0.600   4.456   1.313 -0.6675  0.2322 -0.5499
    1TMC1    C314128   0.504   4.492   1.224 -0.2163  0.9939  0.0989
    1TMC1    C414129   0.688   4.322   1.136 -0.5890  0.7738  0.6151
    1TMC1    C514130   0.585   4.364   1.051 -0.2098 -0.0748  0.1462
    1TMC1    C614131   0.500   4.457   1.090  1.1186 -0.0237  0.1051
    1TMC1     C14132   0.795   4.329   1.355  0.0738 -0.6545  0.4050
    1TMC1     O14133   0.764   4.334   1.475 -0.8178  0.1555  0.2505
    1TMC1     H14134   0.600   4.482   1.418 -0.5900 -0.1213 -0.4613
    1TMC1    H114135   0.749   4.238   1.104 -0.5015  1.1878 -0.3127
    1TMC1    H214136   0.407   4.474   1.036  1.1170  0.0835  0.1427
    1TMC1    C714137   0.575   4.294   0.929 -0.0355  0.0007 -0.1841
    1TMC1    C814138   0.392   4.563   1.286 -0.3917  0.9244  0.1475
    1TMC1    O114139   0.672   4.229   0.892 -0.3617 -0.2085 -0.0829
    1TMC1    O214140   0.406   4.615   1.398 -0.1012  0.2635 -0.0685
    1TMC1    O314141   0.451   4.248   0.927  0.0190 -0.2687 -0.0410
    1TMC1    H314142   0.391   4.281   0.997 -0.9599 -1.3175 -0.3803
    1TMC1    O514143   0.283   4.574   1.209 -0.4346  0.6545  0.2671
    1TMC1    H514144   0.297   4.540   1.119  0.5111 -0.2893  0.7781
    2MPD1     C14145   1.274   4.193   1.492  0.2607 -0.2674  0.0989
    2MPD1    C114146   1.270   4.200   1.356 -0.7627 -0.4026  0.2086
    2MPD1    C214147   1.153   4.239   1.301  0.3027  0.6553  0.0613
    2MPD1    C314148   1.027   4.256   1.373 -0.4108 -0.1955 -0.0512
    2MPD1    C414149   1.038   4.243   1.511 -0.0239 -0.4634 -0.6573
    2MPD1    C514150   1.160   4.214   1.568 -0.1782 -0.1965  0.6001
    2MPD1     H14151   1.153   4.265   1.195 -2.1648 -1.3459 -0.4179
    2MPD1    H114152   0.947   4.250   1.568  0.2554 -2.0502 -0.0075
    2MPD1    H214153   1.362   4.161   1.546 -1.0271  0.7890  2.8392
    2MPD1    H314154   1.168   4.219   1.676 -0.2345 -0.2411  0.6064
    2MPD1     N14155   0.911   4.286   1.300 -0.1472  0.1585 -0.0113
    2MPD1    H514156   0.908   4.273   1.200 -3.0312  1.1338 -0.0634
    2MPD1    N114157   1.387   4.203   1.278  0.0333 -0.2367 -0.1312
    2MPD1    H614158   1.369   4.191   1.179 -0.8441 -0.2876  0.0343
    2MPD1    H714159   1.434   4.122   1.318  0.2524  0.7495  1.6374
    1MPD1     C14160   0.418   3.735  12.405 -0.4138  0.5110  0.0068
    1MPD1    C114161   0.343   3.841  12.375 -0.6324 -0.1500 -0.3088
    1MPD1    C214162   0.390   3.945  12.301 -0.3807  0.4171 -0.2241
    1MPD1    C314163   0.522   3.946  12.263  0.2716 -0.3655  0.2134
    1MPD1    C414164   0.603   3.832  12.285 -0.7884 -0.4019 -0.1631
    1MPD1    C514165   0.540   3.722  12.346  0.6613  0.2832  0.1804
    1MPD1     H14166   0.330   4.028  12.266 -0.9945  0.2906  0.5262
    1MPD1    H114167   0.687   3.813  12.219  0.7011  0.5363  1.4735
    1MPD1    H214168   0.375   3.649  12.454 -0.2772  0.0678 -0.6461
    1MPD1    H314169   0.594   3.629  12.350 -2.0615 -1.3112  0.2251
    1MPD1     N14170   0.575   4.065  12.209  0.2798 -0.1438 -0.1256
    1MPD1    H514171   0.511   4.141  12.188 -0.5649 -1.4191 -2.1369
    1MPD1    N114172   0.210   3.839  12.405  0.2633  1.1299  0.7975
    1MPD1    H614173   0.201   3.790  12.493  1.5910 -0.7361 -0.1071
    1MPD1    H714174   0.184   3.934  12.429 -0.4068  0.7557  1.5684
    2MPD1     C14175   0.473   4.691  11.541  0.4619  0.2016  0.1629
    2MPD1    C114176   0.339   4.702  11.495 -0.4199 -0.1712 -0.2605
    2MPD1    C214177   0.310   4.732  11.365 -0.3128 -0.1051  0.4436
    2MPD1    C314178   0.411   0.046  11.286  0.7525 -0.3002  0.6500
    2MPD1    C414179   0.543   0.046  11.336 -0.0582  0.3581 -0.3915
    2MPD1    C514180   0.573   4.734  11.460  0.0197 -0.2078  0.0153
    2MPD1     H14181   0.206   4.725  11.336 -0.2367  0.4884  0.0195
    2MPD1    H114182   0.628   0.089  11.284 -1.7405  2.4594 -1.3916
    2MPD1    H214183   0.493   4.664  11.644 -1.5657 -0.4162  0.3962
    2MPD1    H314184   0.674   4.727  11.500  0.1954 -0.4856 -0.4755
    2MPD1     N14185   0.390   0.101  11.155  0.3099 -0.7344  0.0774
    2MPD1    H514186   0.472   0.146  11.116  0.4953 -0.9899  0.1704
    2MPD1    N114187   0.239   4.653  11.580  0.2694 -0.4850  0.3331
    2MPD1    H614188   0.144   4.682  11.559  0.2043 -0.0682  1.1888
    2MPD1    H714189   0.264   4.644  11.679 -0.0243  0.9520  0.5297
    3MPD1     C14190   0.456   4.273  10.367 -0.4962 -0.2670  0.1714
    3MPD1    C114191   0.551   4.285  10.462  0.3409  0.0756 -0.7294
    3MPD1    C214192   0.534   4.383  10.555 -0.1091  0.1848 -0.1017
    3MPD1    C314193   0.412   4.458  10.560  0.8381  0.3805 -0.2925
    3MPD1    C414194   0.308   4.430  10.469 -0.6108  0.1122  0.2935
    3MPD1    C514195   0.330   4.328  10.381 -0.6334 -0.5693  0.8051
    3MPD1     H14196   0.614   4.403  10.625 -1.6356 -0.8327  1.9335
    3MPD1    H114197   0.220   4.493  10.466 -0.8493 -0.4037 -3.1467
    3MPD1    H214198   0.480   4.212  10.281 -2.6196  1.6657 -1.7908
    3MPD1    H314199   0.265   4.322  10.294  1.3959  1.5321 -0.8345
    3MPD1     N14200   0.410   4.557  10.664  0.0889  0.2135 -0.0102
    3MPD1    H514201   0.492   4.576  10.721 -0.2886 -3.2937  1.7434
    3MPD1    N114202   0.676   4.227  10.429  0.4468  0.0510  0.0348
    3MPD1    H614203   0.655   4.151  10.365 -0.5351  0.4789 -0.1575
    3MPD1    H714204   0.732   4.192  10.506  0.0363  1.1326  0.8338
    4MPD2     C14205   0.525   0.012  11.907  0.5422 -0.0201  0.8234
    4MPD2    C114206   0.660   4.710  11.935  0.0271 -0.8241 -0.0249
    4MPD2    C214207   0.762   0.017  11.854  0.6708  0.8130  0.0921
    4MPD2    C314208   0.738   0.127  11.770 -0.4793  0.1822  0.1725
    4MPD2    C414209   0.608   0.177  11.748  0.0511  0.0464 -0.4683
    4MPD2    C514210   0.503   0.118  11.819 -0.2409 -1.0641  0.0169
    4MPD2     H14211   0.859   4.709  11.871  0.5306  0.5007  0.0661
    4MPD2    H114212   0.584   0.255  11.676 -1.3630 -1.0057 -1.1428
    4MPD2    H214213   0.439   4.707  11.959 -0.8676 -0.5197 -1.8723
    4MPD2    H314214   0.403   0.144  11.785  0.6093  2.7024  0.3741
    4MPD2     N14215   0.842   0.171  11.680  0.1266  0.1307  0.2907
    4MPD2    H514216   0.809   0.226  11.601 -2.4602 -1.1604  0.4752
    4MPD2    N114217   0.698   4.602  12.018  1.0538 -0.3156 -0.0410
    4MPD2    H714218   0.796   4.578  12.012  0.8661 -0.7646 -1.4252
    5TMC3    C114219   0.685   4.458  12.199  0.3597  0.9257  0.2507
    5TMC3    C214220   0.639   4.328  12.190  0.2761 -0.5816  1.0005
    5TMC3    C314221   0.740   4.235  12.167 -0.3186 -0.7623  0.2515
    5TMC3    C414222   0.826   4.485  12.189  0.3486 -0.0117  0.5988
    5TMC3    C514223   0.915   4.385  12.153  0.6597 -0.2032 -0.4413
    5TMC3    C614224   0.867   4.255  12.132  0.3804  0.4098  0.4497
    5TMC3     C14225   0.616   4.545  12.114 -0.6031 -0.7191  0.3965
    5TMC3     O14226   0.497   4.555  12.133 -0.1514  0.0463 -0.1589
    5TMC3     H14227   0.535   4.302  12.202  0.1640 -0.4585  0.3198
    5TMC3    H114228   0.875   4.579  12.209 -0.2308  0.5248 -0.4760
    5TMC3    H214229   0.932   4.172  12.107 -0.9250  0.3654 -2.7655
    5TMC3    C714230   0.993   4.440  12.041 -0.3656  0.9894  0.7321
    5TMC3    C814231   0.711   4.094  12.202 -1.1925 -1.1201 -0.3464
    5TMC3    O114232   0.971   4.560  12.018 -0.2930  0.2441  0.8797
    5TMC3    O214233   0.800   4.014  12.218 -0.2081  0.4040 -0.0860
    6TMC3    C114234   0.284   0.148  10.950 -0.2445 -0.4902 -0.0826
    6TMC3    C214235   0.245   0.054  10.859  0.7285 -0.3764  0.3466
    6TMC3    C314236   0.346   0.016  10.774 -0.1527 -0.0846 -0.2336
    6TMC3    C414237   0.401   0.213  10.942  0.5027 -0.0507  0.1661
    6TMC3    C514238   0.490   0.172  10.845  0.4465 -0.2310 -0.0791
    6TMC3    C614239   0.471   0.069  10.762 -0.1798  0.4832  0.3778
    6TMC3     C14240   0.269   0.102  11.087  0.0654  0.1092 -0.6554
    6TMC3     O14241   0.163   0.051  11.116 -0.0618  0.6217  0.2384
    6TMC3     H14242   0.158   4.730  10.881 -0.2605  1.7042  2.0586
    6TMC3    H114243   0.422   0.300  11.002 -0.1511  0.8456 -0.9157
    6TMC3    H214244   0.538   0.042  10.681 -0.7779 -2.0318  0.7100
    6TMC3    C714245   0.626   0.192  10.902  0.7361  0.1276  0.0067
    6TMC3    C814246   0.306   4.638  10.689  0.0168 -0.8568 -0.2574
    6TMC3    O114247   0.632   0.210  11.021 -0.6225 -0.0031  0.2578
    6TMC3    O214248   0.194   4.647  10.636  0.0296 -0.0656 -0.2388
    7MPD2     C14249   1.334   4.436  11.654 -0.2199 -0.5829  0.3919
    7MPD2    C114250   1.240   4.524  11.688 -0.7499 -0.2272 -0.1249
    7MPD2    C214251   1.153   4.506  11.797 -0.3866  0.0546  0.0962
    7MPD2    C314252   1.169   4.390  11.876 -0.3940  0.1762 -0.1029
    7MPD2    C414253   1.269   4.304  11.844 -0.4294  0.1055 -0.0742
    7MPD2    C514254   1.352   4.325  11.734 -0.1868 -0.3127 -0.3994
    7MPD2     H14255   1.077   4.581  11.816 -0.1717  0.0077  1.1464
    7MPD2    H114256   1.302   4.230  11.915  1.6594 -0.1205 -1.2945
    7MPD2    H214257   1.400   4.461  11.572 -0.0340  1.3151  1.1262
    7MPD2    H314258   1.431   4.254  11.715  0.2608 -0.2385  1.2021
    7MPD2     N14259   1.092   4.361  11.995  0.3914  0.0659 -0.1651
    7MPD2    H514260   1.110   4.278  12.050 -0.7587 -2.2746 -3.3471
    7MPD2    N114261   1.237   4.647  11.631  0.1271  0.6241 -0.0035
    7MPD2    H714262   1.170   4.700  11.685 -0.1599 -0.7712  1.0051
    8TMC3    C114263   1.261   0.091  11.495 -0.1434  0.0543  0.1377
    8TMC3    C214264   1.216   0.108  11.369 -0.2271  0.2748 -0.1573
    8TMC3    C314265   1.097   0.170  11.354  0.4794 -0.1982  0.0063
    8TMC3    C414266   1.187   0.137  11.605 -0.3081 -0.1201 -0.3385
    8TMC3    C514267   1.066   0.196  11.591  0.1049 -0.6868 -0.1864
    8TMC3    C614268   1.020   0.210  11.464 -0.1101 -0.0125 -0.2718
    8TMC3     C14269   1.319   4.703  11.533 -0.0262 -0.1656  0.8096
    8TMC3     O14270   1.399   4.654  11.454 -0.7015  0.0961 -0.2614
    8TMC3     H14271   1.272   0.066  11.287  1.2463 -2.5024  2.2388
    8TMC3    H114272   1.234   0.130  11.702 -0.5361  0.3905 -0.1942
    8TMC3    H214273   0.932   0.270  11.442  0.8032  0.9461 -1.2999
    8TMC3    C714274   0.977   0.168  11.700  0.0062  0.2908  0.2938
    8TMC3    C814275   1.026   0.140  11.237  0.2139 -0.5197 -0.6301
    8TMC3    O114276   1.026   0.119  11.800 -0.1103  0.2878 -0.7086
    8TMC3    O214277   0.905   0.124  11.252  0.3689  0.0714 -0.3108
    9MPD2     C14278   1.131   0.164  10.880 -0.1307 -0.0953 -0.1220
    9MPD2    C114279   1.049   0.138  10.988  0.4399  0.0274  0.4364
    9MPD2    C214280   0.914   0.123  10.960 -0.2469  0.0931  0.2900
    9MPD2    C314281   0.856   0.142  10.834  0.0836 -0.2567  0.9594
    9MPD2    C414282   0.936   0.155  10.723  0.0698  0.4202  0.4837
    9MPD2    C514283   1.069   0.164  10.756  0.8130 -0.1127 -0.1645
    9MPD2     H14284   0.850   0.103  11.045 -0.8749 -0.5320 -0.3298
    9MPD2    H114285   0.894   0.166  10.624 -1.5632 -0.1623  1.1179
    9MPD2    H214286   1.239   0.175  10.884 -0.0259 -0.4503 -1.9970
    9MPD2    H314287   1.141   0.195  10.681  1.4513  1.7213  1.2081
    9MPD2     N14288   0.722   0.162  10.813  0.8395 -0.2121  0.2216
    9MPD2    H514289   0.692   0.163  10.716 -0.5620 -0.2505  0.6577
    9MPD2    N114290   1.102   0.138  11.119 -0.2512 -0.3741 -0.2200
    9MPD2    H714291   1.203   0.147  11.120 -0.1238 -1.9514  0.5540
    1MPD1     C14292   1.748   4.253  16.153 -0.5638 -0.8234  0.4194
    1MPD1    C114293   1.631   4.191  16.112  0.0302 -0.4566  0.9129
    1MPD1    C214294   1.520   4.211  16.185  0.4267 -0.2929  0.4212
    1MPD1    C314295   1.519   4.273  16.305 -0.2744  0.2611  0.4566
    1MPD1    C414296   1.626   4.339  16.355  0.6219  0.1270 -0.3592
    1MPD1    C514297   1.742   4.320  16.276 -0.0721 -0.8774  0.4471
    1MPD1     H14298   1.430   4.158  16.156 -0.4787  1.6405 -0.3034
    1MPD1    H114299   1.635   4.389  16.451  0.9236 -0.2812 -0.1746
    1MPD1    H214300   1.838   4.246  16.092 -1.9780 -0.7628 -1.6824
    1MPD1    H314301   1.834   4.364  16.314  0.3061 -1.3735  0.1042
    1MPD1     N14302   1.415   4.251  16.392  0.3397 -0.2477  0.0273
    1MPD1    H514303   1.430   4.299  16.480 -0.4949 -0.7686  0.4548
    1MPD1    N114304   1.632   4.092  16.015 -0.4257  0.3591  0.2080
    1MPD1    H614305   1.545   4.049  15.982 -1.5503  2.1372  0.8362
    1MPD1    H714306   1.679   4.124  15.930 -2.8272  1.2489 -0.8208
    2TMC2    C114307   1.048   4.141  16.634 -0.3465 -0.2310 -0.7927
    2TMC2    C214308   1.068   4.245  16.720  0.1225 -0.4053  0.2715
    2TMC2    C314309   1.148   4.348  16.666 -0.0704 -0.2313 -0.0991
    2TMC2    C414310   1.111   4.125  16.511 -0.5477 -0.4179  0.2849
    2TMC2    C514311   1.199   4.218  16.477 -0.2090 -0.2303 -0.1115
    2TMC2    C614312   1.214   4.334  16.549 -0.1540 -0.7035  0.5723
    2TMC2     C14313   0.939   4.057  16.665 -0.0620  1.4228 -0.5875
    2TMC2     O14314   0.881   4.070  16.774  0.5829 -0.3145 -0.0016
    2TMC2     H14315   1.014   4.255  16.814 -1.9502  1.5444 -1.1199
    2TMC2    H114316   1.104   4.041  16.443 -2.4579 -0.6822  0.7880
    2TMC2    H214317   1.265   4.419  16.506 -1.8926  0.5545  0.9549
    2TMC2    C714318   1.296   4.181  16.377  0.4776  0.5271  0.3122
    2TMC2    C814319   1.159   4.476  16.733 -0.4121  0.5673  0.6567
    2TMC2    O114320   1.258   4.102  16.286 -0.5547 -0.0196  0.1297
    2TMC2    O214321   1.252   4.556  16.731 -0.2770 -0.3859 -0.2009
    2TMC2    O514322   1.048   4.480  16.818 -0.1581  0.3139 -0.2242
    2TMC2    H514323   0.971   4.430  16.784 -0.9239  0.9916  0.5342
    3MPD1     C14324   0.655   3.649  16.556 -1.4648 -0.2678 -0.3514
    3MPD1    C114325   0.715   3.690  16.436 -0.7447 -0.2521  0.4710
    3MPD1    C214326   0.802   3.792  16.446 -0.7053  0.1148  0.4410
    3MPD1    C314327   0.828   3.851  16.571  0.3384 -0.5296  0.1492
    3MPD1    C414328   0.777   3.800  16.690  0.8997  0.3399 -0.1670
    3MPD1    C514329   0.689   3.701  16.684  0.0600 -0.0168 -0.3397
    3MPD1     H14330   0.841   3.844  16.359  0.6273 -2.4904 -0.5393
    3MPD1    H114331   0.801   3.837  16.790 -4.2203  0.0946  1.1333
    3MPD1    H214332   0.598   3.557  16.554 -1.1141 -0.5021  0.2316
    3MPD1    H314333   0.647   3.652  16.771 -0.5023 -1.6520 -1.5378
    3MPD1     N14334   0.907   3.968  16.565 -0.2610 -0.0272 -0.5002
    3MPD1    H514335   0.945   4.005  16.479 -0.9816  2.8209  0.3795
    3MPD1    N114336   0.664   3.656  16.308  0.3068 -0.7367  0.2213
    3MPD1    H614337   0.745   3.664  16.247 -1.8864  2.2381 -2.2746
    3MPD1    H714338   0.633   3.560  16.301  1.0734 -0.8087 -2.2283
    1TMC1    C114339   4.363   2.119  13.244 -0.2812 -0.1091 -0.0896
    1TMC1    C214340   4.329   1.982  13.224  0.8163 -0.2786 -0.3415
    1TMC1    C314341   4.205   1.959  13.175 -0.3739  0.2174  0.5208
    1TMC1    C414342   4.274   2.216  13.213 -0.4094 -0.1272 -0.3481
    1TMC1    C514343   4.147   2.176  13.180 -0.9250 -0.4814  0.4439
    1TMC1    C614344   4.104   2.048  13.151 -0.8055 -0.8537 -0.0004
    1TMC1     C14345   4.502   2.144  13.267 -1.0477  0.6646 -0.0866
    1TMC1     O14346   4.578   2.055  13.235 -0.8764 -0.0342 -0.1782
    1TMC1     H14347   4.402   1.906  13.250  0.3981 -0.2156  1.0130
    1TMC1    H114348   4.295   2.323  13.214 -1.2603  0.0648 -2.5326
    1TMC1    H214349   4.006   2.013  13.121 -0.8512 -0.9547  0.2617
    1TMC1    C714350   4.049   2.279  13.157  0.0958  0.6506  0.5965
    1TMC1    C814351   4.170   1.815  13.162  0.3908 -0.5111 -0.0300
    1TMC1    O114352   4.077   2.400  13.140 -0.4020 -0.3929 -0.4631
    1TMC1    O214353   4.058   1.783  13.193  0.9673  0.1052  0.6373
    1TMC1    O314354   3.928   2.230  13.200  0.2752  0.2446 -0.4349
    1TMC1    H314355   3.926   2.139  13.235 -0.6609  0.2294 -0.5214
    1TMC1    O514356   4.237   1.757  13.057 -0.0879  0.2048 -0.4600
    1TMC1    H514357   4.317   1.807  13.032 -0.2114 -0.0233 -1.3265
    2MPD2     C14358   0.038   2.259  13.311  0.5590 -0.5050  0.5742
    2MPD2    C114359   4.653   2.322  13.350 -0.2372  0.0102 -0.1665
    2MPD2    C214360   4.670   2.438  13.428 -0.5753  0.3486  0.9001
    2MPD2    C314361   0.055   2.496  13.458 -0.1473  0.4057 -0.0944
    2MPD2    C414362   0.168   2.431  13.413  0.2841  0.3080 -0.7858
    2MPD2    C514363   0.162   2.317  13.343  0.7586 -0.3443 -0.6998
    2MPD2     H14364   4.581   2.488  13.463 -1.0834 -0.4824  0.7719
    2MPD2    H114365   0.269   2.461  13.436  0.0443  0.4951  0.0067
    2MPD2    H214366   0.045   2.166  13.255 -2.0297 -0.1209 -0.3945
    2MPD2    H314367   0.256   2.267  13.319  1.9649  0.7834  1.6497
    2MPD2     N14368   0.068   2.603  13.548 -1.2478 -0.0599  0.4648
    2MPD2    H514369   4.720   2.636  13.593 -0.3913  0.0174  1.9867
    2MPD2    N114370   4.526   2.260  13.332  0.2614  0.5633 -0.2540
    2MPD2    H714371   4.441   2.306  13.363  0.3319  0.9631 -0.6640
    3TCq1    O114372   0.302   3.154  13.870 -0.3165  0.9198 -0.5069
    3TCq1    C114373   0.269   3.113  13.747  0.0636 -0.3814 -1.2471
    3TCq1    O214374   0.296   3.164  13.642 -0.1772  0.6039 -0.0481
    3TCq1    C214375   0.222   2.977  13.765 -0.4926  0.0899 -0.7763
    3TCq1    C314376   0.135   2.958  13.865  0.0289  0.8373  0.1928
    3TCq1    C414377   0.057   2.844  13.878 -0.1875  0.2700  0.4201
    3TCq1    C514378   0.075   2.747  13.782 -0.9100 -1.7705  0.3133
    3TCq1    C614379   0.157   2.775  13.675  0.4894  0.1947  0.0864
    3TCq1    C714380   0.225   2.890  13.662  0.0953  0.1394  0.4786
    3TCq1    C814381   0.184   2.676  13.575  0.5195 -0.1328 -0.3930
    3TCq1    O414382   0.298   2.676  13.528  0.4249  0.4782  0.3371
    3TCq1    C914383   4.690   2.823  13.973  0.5807 -0.2313  0.2385
    3TCq1    O514384   4.634   2.706  13.980  0.2202 -0.7080  0.2637
    3TCq1    O614385   4.670   2.914  14.057  0.3499  0.0142 -0.4440
    3TCq1    H114386   0.301   3.088  13.942 -1.9195  1.1041 -0.3654
    3TCq1    H214387   0.111   3.033  13.939  0.9757  0.0084  1.3423
    3TCq1    H314388   0.014   2.658  13.786 -2.5203 -0.6635  0.5191
    3TCq1    H414389   0.297   2.893  13.580 -1.0940 -0.7769 -0.5907
    1MPD2     C14390   2.476   3.946  15.288 -0.0810  0.0859  0.2295
    1MPD2    C114391   2.597   3.906  15.230  0.3057 -0.0581  0.4614
    1MPD2    C214392   2.709   3.887  15.307 -0.4851  0.0522  0.3317
    1MPD2    C314393   2.708   3.911  15.443  0.2159 -1.0896 -0.2243
    1MPD2    C414394   2.585   3.938  15.505  0.6004 -0.1667  0.1236
    1MPD2    C514395   2.479   3.956  15.424  0.2136  0.4595  0.3161
    1MPD2     H14396   2.809   3.860  15.274 -0.7044 -1.1168  0.6609
    1MPD2    H114397   2.566   3.955  15.610 -1.0526 -0.4928 -0.1213
    1MPD2    H214398   2.386   3.954  15.229  0.5496  3.6385 -0.2299
    1MPD2    H314399   2.382   3.980  15.467 -0.1991  1.8024 -1.3498
    1MPD2     N14400   2.823   3.873  15.508  0.3988 -0.0333  0.3264
    1MPD2    H514401   2.903   3.847  15.451  0.2537  0.5039 -0.1204
    1MPD2    N114402   2.591   3.865  15.096  0.6206 -0.6406 -0.1722
    1MPD2    H714403   2.499   3.878  15.056  1.4191  1.8776 -1.2397
    2TMC3    C114404   2.646   3.770  14.889  0.5335 -0.0493  0.1696
    2TMC3    C214405   2.716   3.660  14.854  0.2664  0.0474 -0.0743
    2TMC3    C314406   2.788   3.664  14.736  0.3223 -0.1080  0.0322
    2TMC3    C414407   2.654   3.885  14.811  0.0220  0.3566 -0.8054
    2TMC3    C514408   2.722   3.877  14.692 -0.3209 -0.0767 -0.2836
    2TMC3    C614409   2.779   3.765  14.650  0.2971  0.2027 -0.2280
    2TMC3     C14410   2.686   3.795  15.028 -0.1644 -0.2725  0.2718
    2TMC3     O14411   2.789   3.739  15.069  0.4747 -0.0847  0.6499
    2TMC3     H14412   2.719   3.568  14.911  3.8990  0.8188  0.9763
    2TMC3    H114413   2.602   3.977  14.837 -0.8373 -0.3811  0.0988
    2TMC3    H214414   2.836   3.763  14.558 -0.0587  3.4731 -0.4949
    2TMC3    C714415   2.741   3.995  14.603 -0.6902 -0.0473  0.4455
    2TMC3    C814416   2.934   3.637  14.751 -0.2819 -0.0221  0.6476
    2TMC3    O114417   2.749   3.968  14.482 -0.2729  0.4859  0.3422
    2TMC3    O214418   2.998   3.614  14.651  0.0987 -0.5983 -0.8428
    3TCq1    O114419   3.253   0.377  14.860 -0.2141 -0.5501 -0.5798
    3TCq1    C114420   3.189   0.330  14.749  0.0941 -0.5282  0.0278
    3TCq1    O214421   3.238   0.310  14.640  0.3481 -0.5452 -0.3989
    3TCq1    C214422   3.094   0.236  14.815  0.1666  0.9274 -0.1543
    3TCq1    C314423   3.099   0.194  14.950  0.0448  0.0316 -0.0650
    3TCq1    C414424   3.067   0.073  14.987  0.9987  0.2069  0.3307
    3TCq1    C514425   3.015   4.719  14.902  0.0930  0.0127  0.1675
    3TCq1    C614426   3.010   0.021  14.771 -0.1293 -0.4260 -0.5064
    3TCq1    C714427   3.043   0.148  14.731  0.4600  0.2215 -0.1584
    3TCq1    C814428   2.946   4.685  14.665 -0.5602 -0.6566  0.1981
    3TCq1    O414429   2.932   0.006  14.557 -0.0506 -0.0362 -0.4528
    3TCq1    C914430   3.056   0.049  15.128  0.1681  0.3972 -0.0507
    3TCq1    O514431   3.123   0.125  15.202  0.3248  0.0056 -0.4282
    3TCq1    O614432   2.996   4.676  15.159  0.6962 -0.3223 -0.3362
    3TCq1    H114433   3.183   0.407  14.922  0.7699  0.2045  0.1556
    3TCq1    H214434   3.136   0.267  15.022 -3.7904  2.2668 -0.3382
    3TCq1    H314435   2.990   4.620  14.939  1.9724  0.1386  1.7837
    3TCq1    H414436   3.043   0.175  14.626 -1.5410 -0.9155 -0.4475
    4MPD2     C14437   2.780   4.492  14.505 -0.1401  0.5086  1.1975
    4MPD2    C114438   2.832   4.466  14.629 -0.2972  0.2987 -0.0903
    4MPD2    C214439   2.813   4.344  14.693  0.3480 -0.1132 -0.7887
    4MPD2    C314440   2.761   4.243  14.616  0.5722  0.6039 -0.2253
    4MPD2    C414441   2.715   4.269  14.485  0.3484  0.0680 -0.3476
    4MPD2    C514442   2.723   4.396  14.432  0.1200  0.4337  0.5952
    4MPD2     H14443   2.851   4.319  14.791 -0.6599 -0.1244 -0.3918
    4MPD2    H114444   2.679   4.184  14.429 -2.1031  0.5340  0.5327
    4MPD2    H214445   2.794   4.591  14.463 -0.7129  0.0743  0.0060
    4MPD2    H314446   2.692   4.416  14.331  1.7723  0.4699  0.0894
    4MPD2     N14447   2.757   4.113  14.671 -0.7255  0.6045 -0.1137
    4MPD2    H514448   2.781   4.105  14.770 -3.4472 -0.4230  0.4529
    4MPD2    N114449   2.909   4.557  14.701  0.6774 -0.3582 -0.3613
    4MPD2    H714450   2.919   4.535  14.799 -2.0426  0.8465  0.1794
    5TMC2    C114451   3.119   3.701  15.506 -0.6237  0.1432 -0.5848
    5TMC2    C214452   3.100   3.573  15.547  0.0058  0.2096  0.5839
    5TMC2    C314453   3.014   3.544  15.649  0.0298 -0.2066 -0.1464
    5TMC2    C414454   3.051   3.803  15.570  0.4063 -0.9592  0.4620
    5TMC2    C514455   2.958   3.768  15.662 -0.4137  0.6431  0.1267
    5TMC2    C614456   2.937   3.641  15.706  0.2938  0.8800  0.1387
    5TMC2     C14457   3.130   3.714  15.361  0.2537 -0.6554  0.3743
    5TMC2     O14458   3.045   3.794  15.321  0.1058 -0.6704  0.1389
    5TMC2     H14459   3.128   3.486  15.488 -1.0764  1.2490 -1.4734
    5TMC2    H114460   3.071   3.905  15.539 -0.1792 -1.5717 -1.9311
    5TMC2    H214461   2.848   3.616  15.763  0.4265 -0.2299 -0.1568
    5TMC2    C714462   2.831   3.836  15.644 -0.2850  0.4848  0.5122
    5TMC2    C814463   3.010   3.405  15.691 -0.6234 -0.1769 -0.4744
    5TMC2    O114464   2.741   3.819  15.724 -0.2738  0.3122 -0.3460
    5TMC2    O214465   3.061   3.317  15.622  0.4694 -0.0086 -0.6996
    5TMC2    O514466   2.895   3.394  15.759  0.1913 -0.2030 -0.6227
    5TMC2    H514467   2.877   3.464  15.826 -0.0937 -1.7707  0.9307
    6MPD2     C14468   3.203   3.553  14.872 -0.7232  0.3553  0.5296
    6MPD2    C114469   3.092   3.603  14.936 -1.0537 -0.2344 -0.4354
    6MPD2    C214470   3.099   3.628  15.072 -0.4326  0.0386  1.0196
    6MPD2    C314471   3.211   3.599  15.146 -0.2633  0.5120 -0.4371
    6MPD2    C414472   3.315   3.543  15.075 -0.1106 -0.3161  0.4276
    6MPD2    C514473   3.312   3.522  14.941  0.4193  1.0102  0.4239
    6MPD2     H14474   3.009   3.681  15.102 -1.2566  0.7110 -2.5744
    6MPD2    H114475   3.408   3.514  15.123  0.8122  0.4476 -0.9075
    6MPD2    H214476   3.212   3.521  14.769 -0.5073  3.2774 -0.3279
    6MPD2    H314477   3.401   3.487  14.889 -1.7882 -1.0180 -1.9505
    6MPD2     N14478   3.222   3.633  15.289  0.1581  0.1674  0.2167
    6MPD2    H514479   3.303   3.590  15.334 -1.6451  0.1105  3.3845
    6MPD2    N114480   2.966   3.644  14.885  0.1490 -0.4516  0.3612
    6MPD2    H714481   2.886   3.674  14.939  0.1284  1.1967 -0.5778
  945NH4     N114482   2.524   0.928   9.742  0.0946 -0.1790 -0.7864
  945NH4     H214483   2.579   1.013   9.717 -1.0170  0.9662  0.6824
  945NH4     H314484   2.422   0.937   9.722 -0.5833  1.5648  3.5364
  945NH4     H414485   2.542   0.912   9.843 -0.4196 -1.2895 -0.8710
  945NH4     H514486   2.561   0.846   9.690 -0.3423  0.7291 -2.5294
  946SOD     NA14487   3.257   2.345  13.203 -0.2601 -1.3053 -0.0712
  947SOD     NA14488   3.545   4.269  15.345 -0.2668  0.0165 -0.2651
  948SOD     NA14489   2.681   3.600  11.826 -0.2294  0.2449  0.4180
  949SOD     NA14490   3.788   0.355  13.111 -0.4469 -0.0696  0.1591
  950SOD     NA14491   0.035   1.821  16.667 -0.6585  0.0355 -0.0582
  951SOD     NA14492   2.737   2.356   7.160  0.3123  0.1536  0.2392
  952SOD     NA14493   0.466   2.220   4.340  0.1463  0.0670 -0.0873
  953SOL     OW14494   4.240   3.989   7.644  0.3240 -0.1195  0.0351
  953SOL    HW114495   4.282   4.042   7.576 -0.2238  3.3899  2.4238
  953SOL    HW214496   4.245   4.052   7.716  1.7100 -1.4571  1.1141
  954SOL     OW14497   2.404   0.311   2.519 -0.1585 -0.2717 -0.2031
  954SOL    HW114498   2.339   0.380   2.534 -1.5369 -1.4473 -0.8621
  954SOL    HW214499   2.354   0.251   2.465  0.7410 -0.3949 -0.9074
  955SOL     OW14500   0.619   1.245  13.620 -0.9708 -0.0177  0.2456
  955SOL    HW114501   0.592   1.210  13.536  1.7515 -1.8370  0.1366
  955SOL    HW214502   0.557   1.211  13.685  2.1658 -0.5946  2.9158
  956SOL     OW14503   3.508   3.302   4.273  0.3345 -0.2559  0.0880
  956SOL    HW114504   3.485   3.334   4.186  2.2681 -0.1164 -0.3852
  956SOL    HW214505   3.603   3.314   4.279  0.3411  0.8039 -2.1604
  957SOL     OW14506   3.000   3.517   0.364 -0.1654 -0.1698  0.0530
  957SOL    HW114507   2.926   3.501   0.305 -1.0375  0.4787  0.9815
  957SOL    HW214508   2.948   3.552   0.436 -0.1889 -0.8283  0.3584
  958SOL     OW14509   3.675   0.696   7.025 -0.0860  0.6963  0.0809
  958SOL    HW114510   3.584   0.716   7.048  0.4742  1.8704  1.2550
  958SOL    HW214511   3.663   0.604   7.049  1.0134  0.3502 -0.6872
  959SOL     OW14512   2.431   2.572   5.510  0.2463 -0.4682 -0.2847
  959SOL    HW114513   2.503   2.565   5.447  0.1435 -0.5423 -0.3920
  959SOL    HW214514   2.361   2.612   5.459 -1.2226 -2.4912  0.1641
  960SOL     OW14515   1.750   4.181   8.230 -0.2261 -0.0662  0.1795
  960SOL    HW114516   1.703   4.257   8.197 -0.9066 -1.8936 -3.0389
  960SOL    HW214517   1.841   4.191   8.202  0.2436  0.8235  2.0194
  961SOL     OW14518   3.762   0.536   6.409  0.3888 -0.1097 -0.2754
  961SOL    HW114519   3.841   0.521   6.357  0.9786  1.2015  0.2519
  961SOL    HW214520   3.794   0.541   6.498  1.7344  1.0482 -0.8270
  962SOL     OW14521   2.473   3.158   6.886 -0.5473  0.1544  0.7077
  962SOL    HW114522   2.422   3.083   6.916 -1.0510  0.2000 -0.0437
  962SOL    HW214523   2.401   3.221   6.878 -0.9069 -0.4474 -0.7853
  963SOL     OW14524   3.649   3.487   6.544 -0.2292  0.3204  0.0504
  963SOL    HW114525   3.656   3.418   6.479  0.6041  1.4494 -1.0557
  963SOL    HW214526   3.592   3.551   6.502 -1.4331 -1.8815 -1.6510
  964SOL     OW14527   1.271   3.644  17.629 -0.5010 -0.0785 -0.6504
  964SOL    HW114528   1.198   3.605  17.581 -0.9825 -0.0015  0.0236
  964SOL    HW214529   1.312   3.697  17.560  0.1758  1.8194  1.2250
  965SOL     OW14530   3.337   2.382   1.875  0.3314  0.4479  0.2361
  965SOL    HW114531   3.350   2.476   1.889  2.7178  0.4968 -2.4216
  965SOL    HW214532   3.244   2.375   1.854  0.7252 -1.4677 -0.9301
  966SOL     OW14533   1.298   3.316   0.619  0.3464  0.4692 -0.0917
  966SOL    HW114534   1.294   3.397   0.568 -1.9875  1.0068  0.9300
  966SOL    HW214535   1.358   3.329   0.693  0.5076  2.6970 -0.6209
  967SOL     OW14536   2.858   4.704  16.923  0.0824  0.0497 -0.0755
  967SOL    HW114537   2.783   4.659  16.962 -2.6549  2.1468 -2.9034
  967SOL    HW214538   2.893   0.003  17.005 -2.5659  0.7030  0.7739
  968SOL     OW14539   0.446   2.720   1.878 -0.1929  0.1049  0.2468
  968SOL    HW114540   0.409   2.778   1.945 -1.5567 -0.4723  0.0089
  968SOL    HW214541   0.380   2.651   1.881  0.4582 -0.4047  2.6863
  969SOL     OW14542   2.896   2.812  12.467  0.2637  0.1824  0.6002
  969SOL    HW114543   2.904   2.738  12.407 -3.1212  0.4243 -0.1547
  969SOL    HW214544   2.965   2.862  12.423 -0.9212  2.0865  0.8867
  970SOL     OW14545   2.661   2.091  12.614  0.0752 -0.5843 -0.2492
  970SOL    HW114546   2.582   2.143  12.602 -1.2075 -2.4316  0.3465
  970SOL    HW214547   2.657   2.039  12.534  1.0399  0.0167 -0.6923
  971SOL     OW14548   1.579   3.016   0.686 -0.2210  0.8246 -0.1832
  971SOL    HW114549   1.511   3.042   0.624 -1.6807  2.2030  1.9721
  971SOL    HW214550   1.646   2.986   0.625 -0.0594 -2.1691  1.4578
  972SOL     OW14551   4.257   1.535   2.660  0.0300 -0.4054  0.0279
  972SOL    HW114552   4.250   1.586   2.741  2.2096 -0.4776  0.2600
  972SOL    HW214553   4.287   1.597   2.593 -1.4009  0.1618 -0.0873
  973SOL     OW14554   0.503   3.347   9.844  0.2067 -0.4805 -0.1274
  973SOL    HW114555   0.436   3.329   9.909 -0.7765 -0.0296 -1.0215
  973SOL    HW214556   0.548   3.419   9.888  1.6938 -0.9351 -0.9019
  974SOL     OW14557   1.646   3.757   5.081 -0.2782  0.0764  0.2494
  974SOL    HW114558   1.737   3.745   5.053 -0.2187 -0.1268  0.5251
  974SOL    HW214559   1.598   3.805   5.014  1.4306  1.5823  0.1172
  975SOL     OW14560   3.014   2.372   0.189 -0.3183 -0.1929 -0.0141
  975SOL    HW114561   3.060   2.426   0.253  1.3101 -0.3588 -1.0496
  975SOL    HW214562   2.986   2.293   0.237 -0.3475 -2.0487 -3.1003
  976SOL     OW14563   3.586   2.889   3.728  0.2256  0.1791 -0.6062
  976SOL    HW114564   3.626   2.924   3.648 -3.0084 -0.1844 -2.4108
  976SOL    HW214565   3.537   2.969   3.751 -0.1165 -0.3997  0.6847
  977SOL     OW14566   1.786   0.086   4.968  0.5814  0.0702 -0.2457
  977SOL    HW114567   1.751   0.115   4.883  1.2454 -0.0347 -0.5577
  977SOL    HW214568   1.735   0.135   5.032 -1.2272 -1.3335 -0.6057
  978SOL     OW14569   4.352   2.476   5.922 -1.0437  0.0947 -0.5111
  978SOL    HW114570   4.402   2.554   5.899 -0.7796  0.5468  1.5495
  978SOL    HW214571   4.269   2.514   5.951 -0.8015  0.2410 -0.0069
  979SOL     OW14572   1.979   3.839   9.770 -0.4240  0.4408 -0.5053
  979SOL    HW114573   2.036   3.857   9.846  0.6667  0.9773 -1.4470
  979SOL    HW214574   1.952   3.922   9.732 -0.6750  1.4878  1.9278
  980SOL     OW14575   1.358   4.107   6.412 -0.4183  1.0755  0.1959
  980SOL    HW114576   1.397   4.024   6.384  0.2138 -0.0229  4.4373
  980SOL    HW214577   1.283   4.107   6.352 -0.2289 -0.7838 -0.0393
  981SOL     OW14578   1.566   4.504   5.239 -0.2212  0.1561  0.0810
  981SOL    HW114579   1.473   4.512   5.218 -0.0700  0.3549 -0.5271
  981SOL    HW214580   1.546   4.494   5.332 -1.6189  0.3360 -0.1933
  982SOL     OW14581   2.741   1.091   2.654 -0.1702  0.2138  0.5061
  982SOL    HW114582   2.790   1.019   2.615 -1.3436  0.4364 -1.4240
  982SOL    HW214583   2.785   1.088   2.739  0.4940  2.8903  0.2668
  983SOL     OW14584   2.014   2.962   8.059 -0.9739  0.1419  0.0227
  983SOL    HW114585   2.083   2.897   8.068  1.0532  2.5396  1.9894
  983SOL    HW214586   1.962   2.959   8.139 -0.8655 -1.0805  0.0358
  984SOL     OW14587   1.946   3.232   3.816  0.1839 -0.5950 -0.2297
  984SOL    HW114588   1.993   3.263   3.738  0.3757 -0.1181  0.0777
  984SOL    HW214589   1.976   3.142   3.825 -0.6081 -0.5654  2.4674
  985SOL     OW14590   0.880   0.958   2.105  0.1163  0.4260 -0.2470
  985SOL    HW114591   0.819   0.884   2.111  1.7775 -0.9620 -0.5192
  985SOL    HW214592   0.949   0.914   2.056  0.4081  0.3136  0.2721
  986SOL     OW14593   3.139   3.748   6.389  0.4426  0.3299  0.9547
  986SOL    HW114594   3.048   3.777   6.399  0.0559 -0.7156  0.4273
  986SOL    HW214595   3.148   3.773   6.297 -0.4545 -1.3946  0.4020
  987SOL     OW14596   2.101   2.117   3.005 -0.1752 -0.0236  0.1894
  987SOL    HW114597   2.046   2.141   2.931 -0.9581 -1.4664  0.3048
  987SOL    HW214598   2.074   2.191   3.059 -1.3380  0.0607 -0.5155
  988SOL     OW14599   0.947   1.560   3.181  0.4337  0.7105  0.4648
  988SOL    HW114600   0.859   1.588   3.205 -1.7622 -2.9097 -3.4534
  988SOL    HW214601   0.923   1.519   3.098 -2.9195  1.3680  1.1330
  989SOL     OW14602   1.264   3.033   6.091 -0.3935 -0.4867 -0.2514
  989SOL    HW114603   1.350   3.076   6.081 -1.4490  1.9291  1.0390
  989SOL    HW214604   1.291   2.942   6.078  0.2674 -0.5202  1.3538
  990SOL     OW14605   1.794   1.825   2.801  0.1162  0.1777 -0.1695
  990SOL    HW114606   1.777   1.853   2.711 -2.7620 -0.9964  0.0037
  990SOL    HW214607   1.715   1.864   2.838  0.9069 -0.0116  1.7305
  991SOL     OW14608   2.987   2.775  14.032  0.4741 -0.1595 -0.0588
  991SOL    HW114609   2.955   2.818  14.111 -1.1291 -0.5016 -0.5142
  991SOL    HW214610   3.058   2.718  14.063  0.0713  0.4921  2.0074
  992SOL     OW14611   0.874   2.537   9.061 -0.4230 -0.0775 -0.2529
  992SOL    HW114612   0.947   2.502   9.010 -0.1967 -0.9001  0.6235
  992SOL    HW214613   0.921   2.590   9.125 -0.2575  2.1192 -2.1900
  993SOL     OW14614   4.098   0.904  17.737 -0.6558  0.3096  0.2650
  993SOL    HW114615   4.178   0.893   0.045  0.3623  0.5962 -1.2821
  993SOL    HW214616   4.086   0.996  17.713  1.5613  0.6991  0.6424
  994SOL     OW14617   0.054   1.481   2.346 -0.2087 -0.1974  0.4066
  994SOL    HW114618   0.047   1.389   2.371  1.6479 -1.1926 -2.6814
  994SOL    HW214619   0.052   1.462   2.252 -1.4813  0.1237  0.3787
  995SOL     OW14620   4.627   0.966   2.515  0.3814 -0.5245 -0.5339
  995SOL    HW114621   4.644   1.032   2.448 -0.7953 -0.6045 -0.9202
  995SOL    HW214622   4.651   0.885   2.469 -1.2066 -0.9343 -0.6522
  996SOL     OW14623   1.476   0.638   3.518 -0.0219 -0.0892 -0.2922
  996SOL    HW114624   1.432   0.574   3.463 -3.6135  0.7244  1.6501
  996SOL    HW214625   1.467   0.604   3.607  0.8159 -0.1108 -0.2144
  997SOL     OW14626   0.239   1.146   5.492 -0.2108  0.0530  0.4504
  997SOL    HW114627   0.260   1.160   5.585  2.1238 -0.3149 -0.0122
  997SOL    HW214628   0.270   1.056   5.488  2.4578  1.0622 -1.3083
  998SOL     OW14629   1.873   4.346  10.159 -0.5030 -0.7693  0.1826
  998SOL    HW114630   1.864   4.321  10.067 -0.6016  1.0006 -0.2912
  998SOL    HW214631   1.945   4.293  10.193  0.0398 -0.0231  0.1898
  999SOL     OW14632   3.944   4.080   9.647 -0.5679  0.4693  0.1901
  999SOL    HW114633   4.003   4.121   9.584 -1.3134  0.7348 -0.3320
  999SOL    HW214634   3.985   4.109   9.728 -0.0704  2.8069 -0.8942
 1000SOL     OW14635   0.373   2.276  12.573  0.1910 -0.0990  0.2547
 1000SOL    HW114636   0.375   2.370  12.556  0.6381 -0.4791 -1.8322
 1000SOL    HW214637   0.462   2.246  12.557  0.1938  0.2964 -0.5097
 1001SOL     OW14638   0.850   1.127  15.792 -0.5857  0.2641 -0.1668
 1001SOL    HW114639   0.760   1.145  15.820 -0.2800  1.6352 -0.0622
 1001SOL    HW214640   0.895   1.187  15.853 -0.0694  2.7554 -2.9996
 1002SOL     OW14641   1.503   0.828   7.313 -0.0772  0.4335 -0.2656
 1002SOL    HW114642   1.522   0.742   7.350  1.4720  0.2012 -1.6052
 1002SOL    HW214643   1.412   0.842   7.341  0.4826  1.1208  1.2557
 1003SOL     OW14644   2.619   1.293   4.797 -0.1829  0.3062 -0.2155
 1003SOL    HW114645   2.589   1.382   4.776  1.1887  1.0289  0.9095
 1003SOL    HW214646   2.683   1.305   4.867  0.1074 -0.8075 -0.2983
 1004SOL     OW14647   2.468   0.126   9.272 -0.0323  0.3658  0.0628
 1004SOL    HW114648   2.440   0.045   9.230  1.6471 -1.2073  2.0267
 1004SOL    HW214649   2.455   0.178   9.192  3.8271 -0.2357 -0.9239
 1005SOL     OW14650   2.503   0.873  16.508  0.2401  0.1936  0.2841
 1005SOL    HW114651   2.500   0.957  16.460  2.0552  0.4343  0.6047
 1005SOL    HW214652   2.547   0.816  16.445  2.2087  0.7577  1.1452
 1006SOL     OW14653   0.418   1.479   3.425 -0.1566 -0.1994 -0.4831
 1006SOL    HW114654   0.356   1.493   3.497  1.1261  0.5157  0.4797
 1006SOL    HW214655   0.438   1.569   3.401 -0.5991  0.6773  2.4298
 1007SOL     OW14656   0.416   3.577  17.617 -0.1245  0.4410 -0.1805
 1007SOL    HW114657   0.348   3.624  17.664 -0.7325 -1.1519  0.5496
 1007SOL    HW214658   0.464   3.550  17.695 -3.4559  0.2029  1.7692
 1008SOL     OW14659   4.460   0.053   6.124  0.0232  0.4748 -0.4849
 1008SOL    HW114660   4.475   0.100   6.206 -0.4435  0.7867 -0.5788
 1008SOL    HW214661   4.417   0.120   6.070 -0.4167  2.1999  2.0037
 1009SOL     OW14662   3.620   1.774   1.566 -0.2881  0.1929 -0.3725
 1009SOL    HW114663   3.532   1.737   1.567 -0.3087  0.2755  0.8986
 1009SOL    HW214664   3.607   1.857   1.520  1.2214  0.0673 -1.0343
 1010SOL     OW14665   0.774   0.811   3.810 -0.0189 -0.3006  0.0094
 1010SOL    HW114666   0.867   0.794   3.795 -0.1199  0.0418 -1.0112
 1010SOL    HW214667   0.774   0.888   3.867 -0.6420 -0.3587  0.0937
 1011SOL     OW14668   0.383   1.260  12.672  0.3465  0.0540  0.4104
 1011SOL    HW114669   0.393   1.355  12.667 -0.3901  0.2433  2.6624
 1011SOL    HW214670   0.360   1.240  12.581 -0.0504  0.1661  0.4864
 1012SOL     OW14671   4.163   3.930   2.630  0.0571  0.2585 -0.1829
 1012SOL    HW114672   4.173   3.969   2.543  3.6252 -1.0207 -0.3640
 1012SOL    HW214673   4.075   3.961   2.651 -1.2068 -2.5776 -1.2293
 1013SOL     OW14674   1.058   2.685   6.148  0.8547  0.2598  0.2443
 1013SOL    HW114675   0.968   2.653   6.158  0.9077 -1.0473 -3.6179
 1013SOL    HW214676   1.078   2.716   6.236 -1.0857 -2.0703  1.5146
 1014SOL     OW14677   4.026   4.164  16.851 -0.4793  0.0628 -0.0461
 1014SOL    HW114678   4.116   4.156  16.820 -1.2557  1.1129 -2.5649
 1014SOL    HW214679   4.013   4.083  16.901 -0.4347 -1.4364 -2.4556
 1015SOL     OW14680   4.510   4.272   5.893  0.2465  0.2266  0.3453
 1015SOL    HW114681   4.443   4.273   5.824  1.3283 -0.6129 -0.7148
 1015SOL    HW214682   4.512   4.366   5.912  1.8899  0.4098 -0.7007
 1016SOL     OW14683   4.020   2.496   0.900  0.2082 -0.6667  0.0308
 1016SOL    HW114684   4.088   2.543   0.948 -0.3821  0.5617 -0.3357
 1016SOL    HW214685   4.054   2.480   0.812  1.7327  1.2642  0.2882
 1017SOL     OW14686   1.059   2.489  10.506  0.7251  0.2996  0.3020
 1017SOL    HW114687   0.975   2.532  10.523 -0.3979 -0.0854 -4.2265
 1017SOL    HW214688   1.109   2.502  10.586  0.6515  1.6169  0.1386
 1018SOL     OW14689   3.330   4.382  13.675  0.2101 -0.7073 -0.6355
 1018SOL    HW114690   3.410   4.376  13.623  1.7366  1.1490  1.5246
 1018SOL    HW214691   3.275   4.315  13.634 -0.0252 -1.4447  0.8879
 1019SOL     OW14692   2.006   1.198  16.735 -0.2299  0.0680  0.5252
 1019SOL    HW114693   1.932   1.144  16.706 -2.1520  3.6324 -1.2029
 1019SOL    HW214694   2.080   1.138  16.733  0.2444  0.6293  1.6453
 1020SOL     OW14695   3.207   3.042   2.824 -0.1471  0.0336  0.5382
 1020SOL    HW114696   3.169   3.119   2.865  0.1250  0.9483 -0.9332
 1020SOL    HW214697   3.134   3.002   2.777  1.4537 -2.8988  0.4958
 1021SOL     OW14698   1.021   0.177   3.882  0.0826 -0.5061 -0.1103
 1021SOL    HW114699   0.930   0.147   3.881  0.9233 -3.0648  0.1988
 1021SOL    HW214700   1.027   0.209   3.972 -1.0538  0.5439 -0.4214
 1022SOL     OW14701   1.963   0.007   8.312 -0.4848  0.5628 -0.1602
 1022SOL    HW114702   1.971   0.100   8.291  1.8273  0.1152 -1.2825
 1022SOL    HW214703   1.962   4.699   8.227 -1.6000  1.0102 -0.3801
 1023SOL     OW14704   4.422   0.421   0.256  0.2597 -0.1924  0.7268
 1023SOL    HW114705   4.331   0.425   0.283  0.4500  1.2741  1.1507
 1023SOL    HW214706   4.469   0.377   0.327 -0.0566  1.6248  2.0687
 1024SOL     OW14707   2.242   3.555   8.805 -0.3871  0.3694  0.4080
 1024SOL    HW114708   2.299   3.491   8.762  0.3679  1.5192 -0.2911
 1024SOL    HW214709   2.275   3.543   8.894  2.0682  1.2842 -0.3627
 1025SOL     OW14710   2.974   2.446   9.338 -1.0388  0.1483 -0.2616
 1025SOL    HW114711   3.026   2.505   9.392 -1.6923 -0.5645  1.1459
 1025SOL    HW214712   2.966   2.501   9.259  1.6118 -1.8464 -1.8987
 1026SOL     OW14713   1.576   1.129   5.767 -0.0093  0.4789  0.1719
 1026SOL    HW114714   1.651   1.180   5.797 -0.4682  1.1998  0.0902
 1026SOL    HW214715   1.623   1.049   5.740 -0.1663  0.6029 -0.4660
 1027SOL     OW14716   1.734   2.996   3.531 -0.1108 -0.0776  0.1479
 1027SOL    HW114717   1.744   2.918   3.476  0.1782  1.5870 -2.1219
 1027SOL    HW214718   1.675   3.050   3.479 -0.5838 -0.4798  0.2708
 1028SOL     OW14719   1.297   0.556   9.659  0.5794  0.3186  0.3959
 1028SOL    HW114720   1.362   0.529   9.594  0.9882  0.4553  0.7507
 1028SOL    HW214721   1.255   0.627   9.611 -1.1266 -0.1582  1.1594
 1029SOL     OW14722   3.204   4.072  11.297 -0.2543 -0.2049  0.2924
 1029SOL    HW114723   3.184   4.115  11.214 -2.5256 -0.3778  0.7492
 1029SOL    HW214724   3.134   4.007  11.309 -1.0029  0.6878  0.7915
 1030SOL     OW14725   0.199   1.080   1.850 -0.2917 -0.2996 -0.4332
 1030SOL    HW114726   0.249   1.147   1.897 -2.1982  1.2693 -0.6391
 1030SOL    HW214727   0.268   1.017   1.828 -0.9947 -1.0555 -0.4788
 1031SOL     OW14728   4.480   1.651   1.783  0.2445 -0.2074 -0.1731
 1031SOL    HW114729   4.413   1.719   1.777  0.7427  0.3050  0.0972
 1031SOL    HW214730   4.553   1.690   1.736  0.6126 -1.5924 -0.7435
 1032SOL     OW14731   0.724   4.148   3.847  0.1702  0.1551  0.9618
 1032SOL    HW114732   0.643   4.099   3.853  0.4038 -0.3119  0.2427
 1032SOL    HW214733   0.712   4.186   3.759 -0.7051 -1.0939  0.5513
 1033SOL     OW14734   0.921   2.488   0.794  0.4492 -0.0522  0.0156
 1033SOL    HW114735   0.969   2.522   0.718 -3.8995  2.5110 -1.6028
 1033SOL    HW214736   0.957   2.401   0.807  0.3755 -0.1727 -0.5712
 1034SOL     OW14737   0.869   3.683   8.613  0.3893  0.1012  0.2172
 1034SOL    HW114738   0.899   3.680   8.522 -0.6940  0.0805 -0.1349
 1034SOL    HW214739   0.886   3.777   8.621  0.6984  0.1642 -1.1995
 1035SOL     OW14740   4.492   3.202   6.038 -0.7446 -0.4296 -0.3723
 1035SOL    HW114741   4.494   3.134   6.104 -0.5442 -0.1424 -0.0823
 1035SOL    HW214742   4.526   3.278   6.085 -0.7863  0.7462 -2.2294
 1036SOL     OW14743   1.149   3.216   4.818 -0.5763  0.7505  0.8344
 1036SOL    HW114744   1.148   3.284   4.750  2.8720  1.5043  1.5219
 1036SOL    HW214745   1.122   3.149   4.755  0.8053  0.0866  0.9449
 1037SOL     OW14746   2.654   3.128  12.583 -0.5266  0.6318 -0.1608
 1037SOL    HW114747   2.575   3.166  12.621 -0.1691 -1.4324  2.6798
 1037SOL    HW214748   2.714   3.200  12.601 -0.4631  0.5801 -0.1640
 1038SOL     OW14749   3.577   4.338   5.381  0.0027  0.4748  0.4503
 1038SOL    HW114750   3.516   4.388   5.327  2.1752  1.4065 -1.1329
 1038SOL    HW214751   3.553   4.371   5.468  0.7553  0.7211  0.5617
 1039SOL     OW14752   4.025   1.926  10.073  0.0325  0.6800 -0.3013
 1039SOL    HW114753   4.119   1.937  10.059  0.5307  0.1448  2.5408
 1039SOL    HW214754   4.015   2.004  10.128 -2.7984  1.5512 -2.0633
 1040SOL     OW14755   0.257   2.699   4.696 -0.3034 -0.0060  0.4678
 1040SOL    HW114756   0.185   2.725   4.754 -1.9048  1.2199 -2.0461
 1040SOL    HW214757   0.321   2.767   4.716 -0.1345  0.6612 -2.3108
 1041SOL     OW14758   0.307   3.277   4.936 -0.1520  0.2109  0.3289
 1041SOL    HW114759   0.297   3.194   4.984 -0.8259 -0.4360 -0.9227
 1041SOL    HW214760   0.351   3.244   4.857 -3.5226 -1.8607 -0.6912
 1042SOL     OW14761   4.665   2.884   1.971  0.2963  0.1146 -0.6567
 1042SOL    HW114762   4.632   2.907   1.884 -0.6650  1.1043 -0.0413
 1042SOL    HW214763   4.593   2.828   2.000  0.6765  0.8907  1.7924
 1043SOL     OW14764   3.595   1.422   0.500 -0.3616  0.0772 -0.1768
 1043SOL    HW114765   3.658   1.399   0.432  1.4517  0.8241  1.2468
 1043SOL    HW214766   3.513   1.379   0.478 -0.5588  1.3520 -1.8793
 1044SOL     OW14767   0.409   1.377   3.905 -0.3659 -0.3790  0.4613
 1044SOL    HW114768   0.412   1.315   3.978  0.3740 -1.6071 -0.6132
 1044SOL    HW214769   0.478   1.343   3.848  1.6405  0.0841  2.6080
 1045SOL     OW14770   4.466   2.521   6.769 -0.0377  0.0065 -0.0341
 1045SOL    HW114771   4.379   2.501   6.805  0.1694 -0.5417  0.1487
 1045SOL    HW214772   4.479   2.451   6.705  0.9030  1.7777 -1.8045
 1046SOL     OW14773   3.059   0.571   3.246 -0.5255 -0.3502  0.2585
 1046SOL    HW114774   3.094   0.633   3.310  3.7529 -0.5611 -1.8435
 1046SOL    HW214775   3.053   0.624   3.167  0.2309  1.8024  1.6462
 1047SOL     OW14776   2.692   4.384  10.875 -0.2928  0.8874 -0.2839
 1047SOL    HW114777   2.665   4.306  10.924 -0.1927  1.4976  0.7530
 1047SOL    HW214778   2.632   4.454  10.902  0.8181  1.4893  0.6254
 1048SOL     OW14779   3.329   0.036   7.301 -0.1887 -0.3661  0.3559
 1048SOL    HW114780   3.357   4.713   7.231 -0.3424 -0.2821  0.2221
 1048SOL    HW214781   3.359   0.121   7.266  2.9250 -1.1011  1.2502
 1049SOL     OW14782   4.280   3.184  16.255 -0.2751  0.2787  0.7243
 1049SOL    HW114783   4.344   3.190  16.185 -0.9250  2.5510  0.3311
 1049SOL    HW214784   4.322   3.237  16.323 -0.7848  0.8280  0.6102
 1050SOL     OW14785   3.782   3.634   5.614 -0.2009  0.3071  0.0112
 1050SOL    HW114786   3.853   3.623   5.678  3.1691  0.3425 -3.7106
 1050SOL    HW214787   3.743   3.715   5.646  0.0563  0.5792 -0.3681
 1051SOL     OW14788   1.249   1.915   2.759  0.1529 -0.1166 -0.4594
 1051SOL    HW114789   1.199   1.963   2.825 -0.6123 -3.0928  1.1035
 1051SOL    HW214790   1.259   1.836   2.811  0.2695  0.8715  1.0018
 1052SOL     OW14791   2.435   4.052   1.527 -0.3525  0.4527 -0.1340
 1052SOL    HW114792   2.347   4.022   1.548  0.0936 -1.7554 -1.4191
 1052SOL    HW214793   2.445   4.104   1.606 -2.2175 -0.4629  0.7025
 1053SOL     OW14794   4.390   2.319   4.118 -0.1388 -0.1297  0.0744
 1053SOL    HW114795   4.372   2.237   4.163 -0.2461  0.3578  0.9220
 1053SOL    HW214796   4.313   2.322   4.062 -1.0596  0.4808  1.3765
 1054SOL     OW14797   2.843   0.903  11.764 -0.1944  0.4883  0.2707
 1054SOL    HW114798   2.902   0.978  11.762  0.4431 -0.0047  0.6359
 1054SOL    HW214799   2.863   0.857  11.845  3.2365 -0.0184 -0.8499
 1055SOL     OW14800   4.507   2.658   6.334 -0.3173  0.0362  0.3563
 1055SOL    HW114801   4.541   2.733   6.383 -0.5169 -0.4479  1.2191
 1055SOL    HW214802   4.507   2.589   6.400 -0.4421 -1.2863 -1.0381
 1056SOL     OW14803   2.388   0.381   1.280  0.3356 -0.3436 -0.0596
 1056SOL    HW114804   2.338   0.366   1.200 -0.6305  0.7714  0.3383
 1056SOL    HW214805   2.396   0.476   1.280 -0.4443 -0.2692  1.9561
 1057SOL     OW14806   2.741   0.921   9.014  0.2627 -0.2253  0.3185
 1057SOL    HW114807   2.736   0.892   8.923  2.9350  0.5556 -0.0690
 1057SOL    HW214808   2.742   1.016   9.002 -0.2556 -0.4596 -1.5015
 1058SOL     OW14809   0.700   3.234   5.576  0.5277 -0.1385  0.2658
 1058SOL    HW114810   0.758   3.301   5.539  0.3623  0.0947  0.4253
 1058SOL    HW214811   0.636   3.287   5.625  1.4121  0.1922  1.0726
 1059SOL     OW14812   0.810   1.662   9.120 -0.2368  0.0659  0.0923
 1059SOL    HW114813   0.843   1.744   9.083 -1.5851  1.3526  1.7302
 1059SOL    HW214814   0.818   1.679   9.214  0.9399  0.5406 -0.0979
 1060SOL     OW14815   2.700   1.840   5.559 -0.0739 -0.4497 -0.3906
 1060SOL    HW114816   2.788   1.876   5.558 -0.1507 -0.2116  2.1408
 1060SOL    HW214817   2.649   1.912   5.523  1.3591  0.2136 -1.0994
 1061SOL     OW14818   0.754   4.673   3.219 -0.3895 -0.4217 -0.2641
 1061SOL    HW114819   0.786   0.019   3.257  1.1246 -2.3872  2.6870
 1061SOL    HW214820   0.668   4.666   3.262 -1.1333 -1.6791 -1.9666
 1062SOL     OW14821   2.913   0.145   0.709  0.7013 -0.3414  0.1148
 1062SOL    HW114822   2.915   0.074   0.772 -1.7571 -1.4465 -1.0405
 1062SOL    HW214823   2.952   0.212   0.765  1.0788 -1.3534  1.0505
 1063SOL     OW14824   1.084   2.386   8.908  0.1594  0.4717 -0.0956
 1063SOL    HW114825   1.136   2.350   8.980 -1.2373 -0.8249  0.2659
 1063SOL    HW214826   1.138   2.347   8.839  0.7132  0.3686  0.3947
 1064SOL     OW14827   1.484   4.670   9.175  0.0881  0.2893  0.0032
 1064SOL    HW114828   1.452   0.016   9.213 -0.0138 -0.3533  1.2939
 1064SOL    HW214829   1.544   4.703   9.109 -0.9540  1.9820 -0.1025
 1065SOL     OW14830   4.312   1.045   0.658 -0.6319 -0.3359  0.1470
 1065SOL    HW114831   4.241   1.098   0.622 -0.8149 -2.0217 -1.9469
 1065SOL    HW214832   4.394   1.094   0.646 -1.9756  1.7715 -0.4502
 1066SOL     OW14833   2.152   0.777   7.176 -0.1781  0.8162  0.5102
 1066SOL    HW114834   2.067   0.819   7.166  0.1297  1.2239 -0.3647
 1066SOL    HW214835   2.177   0.822   7.257 -0.0957 -0.3536  1.1441
 1067SOL     OW14836   1.480   2.714  14.395  0.2687 -0.3312 -0.1286
 1067SOL    HW114837   1.441   2.753  14.473  0.8162  0.2393 -0.1447
 1067SOL    HW214838   1.416   2.647  14.371 -1.3811  0.5766  1.7610
 1068SOL     OW14839   2.137   0.154   1.344 -0.4618 -0.8445  0.2316
 1068SOL    HW114840   2.123   0.149   1.250  1.6821  1.4570 -0.2241
 1068SOL    HW214841   2.232   0.139   1.343  0.1052  2.9063 -0.6419
 1069SOL     OW14842   0.751   0.769   4.122  0.1772  0.1557 -0.3080
 1069SOL    HW114843   0.765   0.791   4.214 -0.5106 -1.8282  0.2737
 1069SOL    HW214844   0.692   0.697   4.144 -0.5882 -0.3146 -3.9283
 1070SOL     OW14845   2.194   2.003  15.133  0.2608  0.4137 -0.1548
 1070SOL    HW114846   2.259   2.033  15.070 -0.8367  2.8998 -0.1300
 1070SOL    HW214847   2.116   1.967  15.091 -0.9844  2.7521  0.1526
 1071SOL     OW14848   2.251   0.776   3.550  0.4635  0.2659  0.2872
 1071SOL    HW114849   2.284   0.766   3.460 -2.1454 -1.1546 -0.4982
 1071SOL    HW214850   2.203   0.857   3.537 -3.5813 -1.9826  1.3491
 1072SOL     OW14851   2.968   1.991   1.622  0.4121  0.0419 -0.1499
 1072SOL    HW114852   3.010   1.931   1.561 -0.5480  0.9705 -1.7345
 1072SOL    HW214853   3.029   1.991   1.696  1.2517 -0.1766 -0.8377
 1073SOL     OW14854   3.363   4.621   6.429 -0.3023 -0.0960 -0.5445
 1073SOL    HW114855   3.412   4.543   6.456  2.7345  0.5479 -4.2525
 1073SOL    HW214856   3.322   4.601   6.344 -0.7353 -0.9311 -0.1415
 1074SOL     OW14857   1.807   1.204  10.589 -0.0264 -0.2273 -0.1251
 1074SOL    HW114858   1.853   1.123  10.610 -0.5635 -0.8477 -1.2923
 1074SOL    HW214859   1.795   1.190  10.495  0.7959  1.9429 -0.5591
 1075SOL     OW14860   0.443   1.944   2.676  0.2579 -0.1370  0.5197
 1075SOL    HW114861   0.351   1.938   2.700  0.0618 -0.0083 -0.2105
 1075SOL    HW214862   0.440   1.873   2.612  0.7249  0.2973  0.0175
 1076SOL     OW14863   0.555   0.845  13.170 -0.3351 -0.1573  0.4745
 1076SOL    HW114864   0.465   0.845  13.203 -0.7505  0.8960 -0.6477
 1076SOL    HW214865   0.597   0.892  13.242 -0.6112  1.4805 -0.4348
 1077SOL     OW14866   3.706   4.065   2.077  0.0711 -0.1337 -0.8991
 1077SOL    HW114867   3.738   4.133   2.017 -0.1410 -0.6229 -1.5585
 1077SOL    HW214868   3.676   4.108   2.157  4.1528 -1.2822  1.2764
 1078SOL     OW14869   0.364   0.331  10.549 -0.8636 -0.6731  0.1427
 1078SOL    HW114870   0.363   0.398  10.617 -0.7872 -3.0514  2.4678
 1078SOL    HW214871   0.334   0.384  10.475  2.0936  0.1347 -0.4518
 1079SOL     OW14872   2.658   3.637   8.878 -0.0633 -0.3780  0.1461
 1079SOL    HW114873   2.731   3.666   8.934 -0.3330  0.2766  0.1547
 1079SOL    HW214874   2.608   3.577   8.933 -0.7093  0.0582  0.0340
 1080SOL     OW14875   4.572   3.382   2.013 -0.2124  0.4423 -0.2752
 1080SOL    HW114876   4.634   3.314   1.987  0.1089 -0.2837  2.4316
 1080SOL    HW214877   4.498   3.351   1.962 -0.3748  0.8627 -0.2981
 1081SOL     OW14878   3.511   2.001   7.734  0.0908 -0.2796 -0.5475
 1081SOL    HW114879   3.418   1.981   7.724  0.9095 -4.2513 -0.1458
 1081SOL    HW214880   3.495   2.093   7.756  1.2985  0.5511 -3.0801
 1082SOL     OW14881   2.130   3.612  17.489 -0.0292 -0.0488 -0.4670
 1082SOL    HW114882   2.039   3.620  17.461  0.1846  0.7218 -0.9745
 1082SOL    HW214883   2.114   3.636  17.580  1.5428  0.0781 -0.2229
 1083SOL     OW14884   4.254   2.738   7.951  0.5769  0.5598 -0.4464
 1083SOL    HW114885   4.286   2.758   8.039  1.1786 -1.4526 -0.1930
 1083SOL    HW214886   4.254   2.642   7.951 -1.7761  0.5599  1.1989
 1084SOL     OW14887   0.981   1.518   2.615 -0.0966  0.3671  0.3770
 1084SOL    HW114888   0.910   1.469   2.656  0.4105 -0.2520  0.5196
 1084SOL    HW214889   1.051   1.453   2.614 -0.2018  0.2481  0.8727
 1085SOL     OW14890   4.112   0.481   3.441 -0.0595 -0.0308  0.1340
 1085SOL    HW114891   4.129   0.445   3.528 -0.9706  1.1681  0.8100
 1085SOL    HW214892   4.119   0.401   3.389  2.7663 -0.1067  0.6646
 1086SOL     OW14893   2.808   1.647   1.742  0.0847  0.0314 -0.1661
 1086SOL    HW114894   2.823   1.572   1.800  0.3508  0.5667  0.4561
 1086SOL    HW214895   2.888   1.648   1.690 -0.2008 -0.8420 -0.6204
 1087SOL     OW14896   2.201   1.167   9.318  0.2853 -0.2316  0.1793
 1087SOL    HW114897   2.245   1.252   9.331  0.6359  0.0242 -2.5294
 1087SOL    HW214898   2.113   1.198   9.336 -0.6123 -0.6980 -3.3810
 1088SOL     OW14899   3.145   2.473  11.624  0.1405 -0.1135 -0.1182
 1088SOL    HW114900   3.078   2.420  11.582 -0.1073  0.2395 -0.1646
 1088SOL    HW214901   3.115   2.469  11.715  0.1152 -5.1437 -0.3226
 1089SOL     OW14902   3.590   3.002   4.109  0.1010 -0.2023  0.4042
 1089SOL    HW114903   3.566   2.941   4.178 -0.6457 -1.7049 -1.2046
 1089SOL    HW214904   3.505   3.039   4.086  0.7747  1.6623  0.8977
 1090SOL     OW14905   0.339   1.541   4.868  0.2961  0.3541  0.4786
 1090SOL    HW114906   0.336   1.465   4.811 -3.9140  0.5974  0.3623
 1090SOL    HW214907   0.428   1.521   4.899  0.2987 -0.9737 -0.4139
 1091SOL     OW14908   0.294   0.533   0.184  0.2889  0.0610  0.5419
 1091SOL    HW114909   0.292   0.470   0.256  0.5317 -0.6601 -0.0829
 1091SOL    HW214910   0.375   0.519   0.135 -1.5330  0.8828 -2.7506
 1092SOL     OW14911   1.315   1.612   5.111 -0.1360 -0.0704 -0.0575
 1092SOL    HW114912   1.378   1.678   5.081  0.3006  0.0512  1.1381
 1092SOL    HW214913   1.363   1.531   5.093 -0.9236 -0.4822 -0.2765
 1093SOL     OW14914   3.340   0.742   1.193  0.1779  0.0967  0.3929
 1093SOL    HW114915   3.384   0.662   1.162  1.8386  0.9949  0.4227
 1093SOL    HW214916   3.270   0.756   1.129  0.4485 -1.6905 -0.3153
 1094SOL     OW14917   3.295   2.631  12.240 -0.6585 -0.2639 -0.2629
 1094SOL    HW114918   3.382   2.613  12.204 -0.1605 -0.8051  1.2206
 1094SOL    HW214919   3.318   2.619  12.332  0.6369  1.1783 -0.3971
 1095SOL     OW14920   1.791   3.889   9.278  0.1827 -0.5285  0.1015
 1095SOL    HW114921   1.800   3.949   9.204  1.7890 -0.6247  0.2269
 1095SOL    HW214922   1.737   3.938   9.340 -1.3128 -0.9980 -0.8243
 1096SOL     OW14923   0.768   1.899   7.049  0.1939  0.0658  0.2303
 1096SOL    HW114924   0.808   1.947   6.976 -1.2614  0.2028 -0.4850
 1096SOL    HW214925   0.818   1.817   7.048  1.2100  0.6757  2.0425
 1097SOL     OW14926   3.449   2.704  17.083 -0.5791  0.5279  0.8018
 1097SOL    HW114927   3.394   2.628  17.065  1.7037 -0.7502 -0.9435
 1097SOL    HW214928   3.441   2.710  17.178 -1.3549 -1.5722  0.8728
 1098SOL     OW14929   1.275   3.616   0.126  0.3311  0.5265 -0.5525
 1098SOL    HW114930   1.262   3.624   0.031 -2.2455  0.1665 -0.2400
 1098SOL    HW214931   1.355   3.662   0.150 -0.6677  1.6358  0.6257
 1099SOL     OW14932   4.377   4.083   5.531  0.1225 -0.3544 -0.7340
 1099SOL    HW114933   4.436   4.149   5.496 -1.4785  1.1689 -0.6223
 1099SOL    HW214934   4.302   4.091   5.472  0.6748  0.7554 -1.2826
 1100SOL     OW14935   1.011   3.634   9.153 -0.5597 -0.0669 -0.0820
 1100SOL    HW114936   0.920   3.651   9.130 -0.9954 -1.0839  0.9251
 1100SOL    HW214937   1.005   3.564   9.217 -0.3887  0.4605  0.5123
 1101SOL     OW14938   3.591   3.114   6.920  0.4922  0.0090 -0.1810
 1101SOL    HW114939   3.574   3.178   6.852 -1.4833 -1.3212 -0.9654
 1101SOL    HW214940   3.514   3.060   6.902 -0.2641  0.4072  1.7774
 1102SOL     OW14941   4.190   4.334   5.474  0.7471  0.5044  0.4593
 1102SOL    HW114942   4.185   4.306   5.383 -2.2514  0.2452  0.7007
 1102SOL    HW214943   4.214   4.427   5.472  0.4705  0.5766  0.4783
 1103SOL     OW14944   1.782   3.015  15.879 -0.3449 -0.1161  0.0352
 1103SOL    HW114945   1.783   3.096  15.930 -0.3366  0.5809 -1.0696
 1103SOL    HW214946   1.860   2.969  15.908  0.0958  0.2430 -0.5755
 1104SOL     OW14947   4.193   0.145   8.006  0.2581  0.0535  0.1777
 1104SOL    HW114948   4.281   0.115   8.029  0.4165 -0.7804 -1.5639
 1104SOL    HW214949   4.155   0.175   8.089  1.7815 -2.0420  1.6248
 1105SOL     OW14950   1.401   2.275   9.036  0.0971 -0.4077 -0.0472
 1105SOL    HW114951   1.343   2.201   9.053  0.6482 -0.5863  1.0365
 1105SOL    HW214952   1.414   2.264   8.942  0.8066 -2.1519  0.2656
 1106SOL     OW14953   4.701   3.156   9.003  0.3276 -0.0656 -0.3833
 1106SOL    HW114954   0.039   3.175   8.946  0.6326  0.2950  0.1332
 1106SOL    HW214955   4.640   3.092   8.967  0.4671 -0.9902  1.0122
 1107SOL     OW14956   1.904   0.162   1.515 -0.0612  0.2834  0.1175
 1107SOL    HW114957   1.826   0.157   1.460 -0.0979 -2.3795  0.3916
 1107SOL    HW214958   1.965   0.206   1.456 -0.7487  1.2346  0.1211
 1108SOL     OW14959   2.868   3.314   0.519  0.2264 -0.2786  0.2635
 1108SOL    HW114960   2.859   3.406   0.493 -2.2034 -0.2790  1.1341
 1108SOL    HW214961   2.775   3.297   0.532  0.4156 -1.9212 -0.4961
 1109SOL     OW14962   3.525   3.650   4.465  0.3624 -0.6346  0.7650
 1109SOL    HW114963   3.514   3.682   4.376  0.5128 -1.7816  0.3334
 1109SOL    HW214964   3.546   3.736   4.503  1.2069 -0.7004  0.4401
 1110SOL     OW14965   0.728   3.347   6.322  0.6463 -0.5885 -0.8375
 1110SOL    HW114966   0.634   3.337   6.309  0.4253 -0.3148  0.5612
 1110SOL    HW214967   0.756   3.355   6.231 -0.6176 -1.1696 -1.2738
 1111SOL     OW14968   1.726   3.278   1.286 -0.1793  0.2023  0.5364
 1111SOL    HW114969   1.727   3.353   1.227 -1.8077  0.7276  1.1698
 1111SOL    HW214970   1.633   3.275   1.309 -0.5822  1.1020 -0.9731
 1112SOL     OW14971   2.638   1.236   0.129  0.1111 -0.0913 -0.1162
 1112SOL    HW114972   2.696   1.213   0.202 -1.5043 -1.1211  0.8269
 1112SOL    HW214973   2.562   1.260   0.182  0.8173  1.8539  0.0371
 1113SOL     OW14974   1.973   0.634   8.850 -0.2865  0.1454  0.5517
 1113SOL    HW114975   2.006   0.699   8.788 -0.1995 -1.4769 -1.0829
 1113SOL    HW214976   1.948   0.559   8.797 -1.7394  0.5196  0.7061
 1114SOL     OW14977   3.600   3.383   5.798 -0.0653 -0.0719  0.1910
 1114SOL    HW114978   3.671   3.346   5.745 -0.1916  0.8666 -0.6304
 1114SOL    HW214979   3.528   3.328   5.769  0.4388 -0.7127  0.1448
 1115SOL     OW14980   0.243   2.533   5.041 -0.0386 -1.2754 -0.3754
 1115SOL    HW114981   0.202   2.523   5.127  1.2888 -1.0929  0.2707
 1115SOL    HW214982   0.199   2.608   5.001  0.1410 -1.6806 -1.3360
 1116SOL     OW14983   2.610   0.109   4.859 -0.2689 -0.3377  0.1799
 1116SOL    HW114984   2.672   0.168   4.904  0.4196 -0.9611  0.0397
 1116SOL    HW214985   2.589   0.171   4.789 -1.2282 -1.9796 -0.9797
 1117SOL     OW14986   3.817   3.091   0.377  0.1603 -0.2344  1.0231
 1117SOL    HW114987   3.789   3.048   0.458 -1.5177 -0.1169  0.5068
 1117SOL    HW214988   3.727   3.120   0.361  0.9225  1.6857  0.2471
 1118SOL     OW14989   4.606   0.287   7.234 -0.0849  0.4582  0.1685
 1118SOL    HW114990   4.528   0.321   7.277  0.1263  3.1612 -1.6327
 1118SOL    HW214991   4.675   0.316   7.294  0.4835 -3.8796  1.6241
 1119SOL     OW14992   0.370   2.974  16.843  0.4485  0.8786 -0.0446
 1119SOL    HW114993   0.436   2.947  16.780 -0.9568 -0.8646 -0.7513
 1119SOL    HW214994   0.302   2.989  16.777  1.3679 -2.7401 -1.7548
 1120SOL     OW14995   4.203   1.826  14.660  0.3454  0.5614 -0.2177
 1120SOL    HW114996   4.162   1.743  14.631 -1.5971  1.4234  0.0607
 1120SOL    HW214997   4.142   1.893  14.630 -2.2672 -0.7165  2.2227
 1121SOL     OW14998   0.984   4.142  13.144 -0.6027 -0.1556 -0.5646
 1121SOL    HW114999   0.905   4.193  13.130 -0.8718 -0.4255 -0.0313
 1121SOL    HW215000   1.048   4.188  13.090  0.3256  0.4167  1.0048
 1122SOL     OW15001   3.822   2.779   4.790  0.3693  0.0923  0.0617
 1122SOL    HW115002   3.881   2.724   4.737  1.7396  0.6700  0.9979
 1122SOL    HW215003   3.775   2.826   4.722  0.0730  1.8546  1.4980
 1123SOL     OW15004   4.006   1.736   8.544 -0.0217 -0.2224 -0.6006
 1123SOL    HW115005   3.939   1.703   8.604  2.4159 -0.8399  1.7278
 1123SOL    HW215006   4.075   1.754   8.607 -0.4773 -1.2019  0.1732
 1124SOL     OW15007   3.878   0.851  12.013  0.1428  0.1566 -0.4007
 1124SOL    HW115008   3.839   0.774  11.971  0.0837  0.1878 -0.4026
 1124SOL    HW215009   3.905   0.901  11.935 -1.3919  1.0718 -0.3405
 1125SOL     OW15010   3.737   2.830   7.903  0.5525  0.6549  0.8481
 1125SOL    HW115011   3.751   2.884   7.825 -0.0474 -0.1657  0.1712
 1125SOL    HW215012   3.709   2.889   7.973 -0.0280  1.2877  0.0834
 1126SOL     OW15013   4.026   0.223   5.252  0.5339  0.2246  0.1632
 1126SOL    HW115014   4.074   0.165   5.193 -0.4296  0.2141 -0.6161
 1126SOL    HW215015   3.936   0.208   5.223  0.4784  2.5916 -0.8971
 1127SOL     OW15016   3.986   4.162   8.069 -0.4991 -0.3269 -0.2011
 1127SOL    HW115017   4.017   4.094   8.010  3.0399  0.1726  1.1350
 1127SOL    HW215018   3.940   4.105   8.131 -1.1449  0.6046  0.1792
 1128SOL     OW15019   3.404   0.500   1.076 -0.2259 -0.6620 -0.4762
 1128SOL    HW115020   3.328   0.440   1.077 -1.2878  0.6548 -2.0302
 1128SOL    HW215021   3.479   0.446   1.053  0.3541  0.2848 -0.7918
 1129SOL     OW15022   1.426   3.928  15.893 -0.9226  0.3131  0.0764
 1129SOL    HW115023   1.363   3.870  15.851  1.2123 -2.0941  0.1891
 1129SOL    HW215024   1.472   3.937  15.810  1.7500  0.9362  1.6389
 1130SOL     OW15025   0.076   4.478   3.141 -0.4311 -0.1004  0.0493
 1130SOL    HW115026   0.148   4.428   3.102  0.4948  1.4802 -0.2644
 1130SOL    HW215027   0.014   4.481   3.068  0.1782 -0.5655 -0.4877
 1131SOL     OW15028   1.505   3.345  15.252  0.7287  0.1070  0.0903
 1131SOL    HW115029   1.420   3.316  15.285 -0.0733  1.3412 -0.9105
 1131SOL    HW215030   1.511   3.433  15.291 -0.0738  0.1933  0.0162
 1132SOL     OW15031   3.226   2.088   5.681 -0.1932 -0.1317 -0.0177
 1132SOL    HW115032   3.238   2.146   5.605  0.5667  0.5631  0.6273
 1132SOL    HW215033   3.304   2.101   5.734 -0.2915  0.3725  0.0087
 1133SOL     OW15034   3.231   1.494  16.323 -1.0913  0.4351  0.3542
 1133SOL    HW115035   3.267   1.574  16.360 -1.9608  1.4163 -0.8861
 1133SOL    HW215036   3.159   1.518  16.263 -0.6488  2.4892  0.6530
 1134SOL     OW15037   3.394   4.563   5.459 -0.1236  0.0302 -0.0380
 1134SOL    HW115038   3.374   4.608   5.542  2.3399  2.6105 -0.8434
 1134SOL    HW215039   3.458   4.620   5.416  1.6860 -0.7093  1.6816
 1135SOL     OW15040   0.436   0.482   2.147  0.1829 -0.0649 -0.2893
 1135SOL    HW115041   0.484   0.539   2.207  1.3609 -2.1995  0.8197
 1135SOL    HW215042   0.507   0.464   2.085  0.3843 -0.9851  0.2120
 1136SOL     OW15043   0.210   2.024   2.883 -0.4504 -0.6586 -0.2805
 1136SOL    HW115044   0.186   2.033   2.791 -0.0282  0.3500 -0.2936
 1136SOL    HW215045   0.235   2.114   2.904  0.4812 -1.2036  0.9812
 1137SOL     OW15046   0.358   1.887   1.013 -0.1248  0.1952  0.5736
 1137SOL    HW115047   0.396   1.967   0.978  2.1037 -1.6340 -1.1855
 1137SOL    HW215048   0.408   1.876   1.094  0.2118  1.1554  0.4954
 1138SOL     OW15049   4.192   4.606  13.832 -0.1124 -0.0901  0.1796
 1138SOL    HW115050   4.274   4.647  13.861 -0.4742  1.0628 -0.4341
 1138SOL    HW215051   4.156   4.667  13.768  2.9432  0.7059 -0.8022
 1139SOL     OW15052   0.404   1.937  10.211 -0.1917  0.4416  0.1077
 1139SOL    HW115053   0.499   1.936  10.202 -0.3256 -0.5631 -1.2435
 1139SOL    HW215054   0.394   1.987  10.292  0.2036 -1.7038  1.5101
 1140SOL     OW15055   2.474   2.922   6.276  0.3261  0.0509  0.1762
 1140SOL    HW115056   2.519   3.006   6.282 -1.7906  1.1924 -0.0136
 1140SOL    HW215057   2.478   2.909   6.182  1.3174 -1.3071  0.4014
 1141SOL     OW15058   1.159   3.976  17.535  0.4774 -0.5928 -0.1314
 1141SOL    HW115059   1.158   3.908  17.467  0.5661  0.0558 -0.7785
 1141SOL    HW215060   1.163   4.056  17.483  2.5683 -0.8979 -0.4538
 1142SOL     OW15061   0.342   1.791   8.011  0.4094 -0.5588 -0.1196
 1142SOL    HW115062   0.415   1.845   7.980 -0.5388  1.3637  0.9908
 1142SOL    HW215063   0.308   1.848   8.080  1.8316  0.7747 -0.5183
 1143SOL     OW15064   3.256   0.957   8.330  0.1770  0.0854 -0.4195
 1143SOL    HW115065   3.351   0.961   8.323  0.2158  0.4663  0.3491
 1143SOL    HW215066   3.239   1.050   8.315 -1.0978 -0.4534 -2.3138
 1144SOL     OW15067   0.872   2.147   2.265  0.1203  0.3460  0.5106
 1144SOL    HW115068   0.843   2.059   2.289  1.4798 -0.1911  0.1583
 1144SOL    HW215069   0.795   2.174   2.214  1.6072  1.8983 -0.9213
 1145SOL     OW15070   4.670   4.313  14.377  0.1928 -0.2604 -0.2497
 1145SOL    HW115071   4.677   4.329  14.471  2.6996  0.2063 -0.5273
 1145SOL    HW215072   4.580   4.338  14.359  0.9318  1.1972 -1.8556
 1146SOL     OW15073   3.881   1.796   2.007  0.1150 -0.4377 -0.6834
 1146SOL    HW115074   3.819   1.817   1.938 -1.8410  2.1058  1.8400
 1146SOL    HW215075   3.962   1.830   1.969  0.1537 -1.6132 -1.6225
 1147SOL     OW15076   4.064   1.654   3.288 -0.3375  0.4518  0.6760
 1147SOL    HW115077   4.050   1.572   3.240  1.2478 -0.2524  1.4248
 1147SOL    HW215078   4.072   1.617   3.377 -0.4897  0.7928  0.8300
 1148SOL     OW15079   3.638   1.452  10.619  0.1583  0.4084  0.0794
 1148SOL    HW115080   3.679   1.440  10.533 -2.6835 -0.2758 -1.1510
 1148SOL    HW215081   3.685   1.383  10.666 -0.2805 -2.6728 -3.9407
 1149SOL     OW15082   0.045   0.853   3.754  0.4396  1.1336 -0.3257
 1149SOL    HW115083   0.015   0.764   3.771 -1.5281  1.7347 -0.5452
 1149SOL    HW215084   4.721   0.879   3.683 -0.4411  0.6319  0.2342
 1150SOL     OW15085   0.862   2.610  11.592 -0.2316  0.0640 -0.1049
 1150SOL    HW115086   0.822   2.552  11.656  1.7902 -0.9517  0.2407
 1150SOL    HW215087   0.952   2.587  11.613 -0.4741 -0.9420 -0.1417
 1151SOL     OW15088   0.896   4.275   5.597 -0.0814 -0.2675 -0.6367
 1151SOL    HW115089   0.802   4.286   5.610 -0.3550 -1.1512 -1.8556
 1151SOL    HW215090   0.884   4.204   5.534  0.8582 -1.2544  0.2850
 1152SOL     OW15091   3.180   1.378   7.912 -0.2689 -0.0620 -0.2183
 1152SOL    HW115092   3.181   1.458   7.860 -1.8622 -0.3769 -0.7307
 1152SOL    HW215093   3.088   1.358   7.896 -0.5384 -0.0115  1.2157
 1153SOL     OW15094   3.003   3.596  16.827 -0.1111  0.1795 -0.2996
 1153SOL    HW115095   2.910   3.574  16.830 -0.4241  1.8923  3.2363
 1153SOL    HW215096   3.014   3.676  16.879  1.7635 -0.2274 -0.0881
 1154SOL     OW15097   0.568   3.166  15.907 -0.1321 -0.2776  0.0629
 1154SOL    HW115098   0.474   3.151  15.918 -0.1766 -0.1351 -0.1329
 1154SOL    HW215099   0.594   3.084  15.866 -0.4708 -0.4532  0.2002
 1155SOL     OW15100   0.972   0.662   3.183 -0.3087  0.0235  0.4052
 1155SOL    HW115101   1.010   0.749   3.167 -1.6447  0.4922 -0.1890
 1155SOL    HW215102   0.895   0.663   3.127  0.5208 -0.0188 -0.7412
 1156SOL     OW15103   2.894   3.574   4.675 -0.1558  1.0137  0.0024
 1156SOL    HW115104   2.898   3.508   4.745 -1.3480  0.6454 -0.2722
 1156SOL    HW215105   2.817   3.543   4.627 -0.3647 -0.4975  1.2846
 1157SOL     OW15106   1.735   3.008   3.818  0.1711  0.2093  0.0644
 1157SOL    HW115107   1.820   2.965   3.824  0.0930  0.0512  0.0420
 1157SOL    HW215108   1.723   3.011   3.723  0.7751  1.2723  0.0196
 1158SOL     OW15109   1.272   3.895   3.658 -0.6786 -0.7311  0.7379
 1158SOL    HW115110   1.335   3.853   3.716 -0.6160 -2.6862 -0.7630
 1158SOL    HW215111   1.331   3.946   3.603 -1.3990  0.3846  0.9943
 1159SOL     OW15112   2.290   3.137   8.230  0.0340 -0.2496 -0.0769
 1159SOL    HW115113   2.234   3.118   8.155 -0.4964  0.4642  0.1321
 1159SOL    HW215114   2.326   3.221   8.202 -3.1130  2.7665  4.7325
 1160SOL     OW15115   1.256   0.706   4.913  0.3981 -0.1425  0.1850
 1160SOL    HW115116   1.167   0.740   4.913  0.2593 -0.5126  0.8009
 1160SOL    HW215117   1.242   0.618   4.948  1.1559 -0.9341 -1.4843
 1161SOL     OW15118   0.996   4.405   7.337  0.2151 -0.0113  0.4062
 1161SOL    HW115119   1.008   4.486   7.287  1.6240 -0.7022 -0.3798
 1161SOL    HW215120   0.921   4.369   7.291 -0.4349  1.0930  0.6177
 1162SOL     OW15121   0.991   1.762  13.182 -0.0024  0.5152 -0.7856
 1162SOL    HW115122   0.972   1.697  13.250  4.5191  1.6829  1.5883
 1162SOL    HW215123   1.087   1.757  13.188  0.2191  1.5588 -3.4917
 1163SOL     OW15124   2.393   2.639   6.174  0.1395 -0.2283  0.2722
 1163SOL    HW115125   2.430   2.552   6.158  0.0467 -0.3258  0.5907
 1163SOL    HW215126   2.463   2.698   6.149 -1.4387  2.0646  1.3320
 1164SOL     OW15127   1.998   4.068  11.517  0.0953 -0.0595  0.6978
 1164SOL    HW115128   2.070   4.015  11.482 -0.0733 -0.8436  1.5309
 1164SOL    HW215129   1.981   4.140  11.456 -1.9997 -1.3933 -0.2683
 1165SOL     OW15130   3.759   0.156  13.252 -0.5961 -0.0552  0.1932
 1165SOL    HW115131   3.724   0.071  13.228 -1.4857  0.8397 -1.6057
 1165SOL    HW215132   3.716   0.182  13.334  0.6426 -1.6106  1.3562
 1166SOL     OW15133   3.302   4.086   0.962 -0.1258 -0.7582  0.7509
 1166SOL    HW115134   3.335   3.997   0.973 -1.9340 -1.5947 -0.6716
 1166SOL    HW215135   3.216   4.067   0.925  0.4664 -0.9808 -0.5237
 1167SOL     OW15136   1.319   4.289   6.641  0.0722  0.4368 -0.0675
 1167SOL    HW115137   1.306   4.222   6.574  1.7891 -0.3555  0.3931
 1167SOL    HW215138   1.288   4.367   6.596 -1.1428  0.6156  1.0798
 1168SOL     OW15139   0.649   4.680   8.240 -0.3539  0.2186 -0.4601
 1168SOL    HW115140   0.602   4.715   8.164 -0.3633  0.4971 -0.3238
 1168SOL    HW215141   0.656   4.590   8.207 -4.5727  0.2536 -1.5441
 1169SOL     OW15142   3.425   3.198  11.527  0.2028 -0.1501 -0.5466
 1169SOL    HW115143   3.511   3.159  11.514 -0.4394 -0.5009 -3.6769
 1169SOL    HW215144   3.370   3.126  11.496 -1.4332  1.6942 -2.0066
 1170SOL     OW15145   0.327   0.966  15.147 -0.3633 -0.3464 -0.3083
 1170SOL    HW115146   0.414   0.931  15.125  0.4187  0.4167  1.5966
 1170SOL    HW215147   0.314   1.014  15.065 -0.8734  1.1956  0.6812
 1171SOL     OW15148   2.379   1.880   9.022 -0.0119  0.3021 -0.0470
 1171SOL    HW115149   2.387   1.794   9.064 -0.1346  0.5372  0.4655
 1171SOL    HW215150   2.337   1.927   9.095 -0.1332 -0.3490  0.3079
 1172SOL     OW15151   0.775   3.404   3.576  0.0585 -0.2557  0.4719
 1172SOL    HW115152   0.715   3.377   3.507 -0.7740  0.1024  1.0503
 1172SOL    HW215153   0.810   3.317   3.598  0.3330 -0.1725  0.3659
 1173SOL     OW15154   1.378   3.174   7.987  0.2723 -0.1077 -0.0811
 1173SOL    HW115155   1.442   3.245   7.996 -0.2713  0.3279  0.3352
 1173SOL    HW215156   1.380   3.136   8.074  1.8045  0.0562 -0.0390
 1174SOL     OW15157   2.003   1.672  17.664 -0.2273  0.2798  0.7420
 1174SOL    HW115158   1.943   1.681  17.591  0.7789 -1.5790 -0.2997
 1174SOL    HW215159   1.942   1.697  17.734 -1.7738  0.0216 -0.5233
 1175SOL     OW15160   1.269   1.948   3.845  0.0128 -0.2387  0.6791
 1175SOL    HW115161   1.358   1.949   3.881  0.4458  0.4182 -0.4373
 1175SOL    HW215162   1.222   1.924   3.925 -0.6159 -0.8327  0.1332
 1176SOL     OW15163   1.480   0.144   9.388 -0.1377 -0.1662 -0.0072
 1176SOL    HW115164   1.516   0.210   9.328 -1.7422  0.2491 -0.5117
 1176SOL    HW215165   1.391   0.176   9.399  0.2237  1.0507 -0.5504
 1177SOL     OW15166   3.700   2.931   7.121  0.2501 -0.2897 -0.3411
 1177SOL    HW115167   3.784   2.965   7.149 -1.1088  1.5993  1.4571
 1177SOL    HW215168   3.651   2.997   7.070 -0.2335 -1.0026 -0.7982
 1178SOL     OW15169   2.891   2.003  16.698  0.0164 -0.0873 -0.3077
 1178SOL    HW115170   2.935   1.928  16.738  2.9589  1.2881 -0.9588
 1178SOL    HW215171   2.800   1.975  16.710 -0.1026  0.8683  1.0342
 1179SOL     OW15172   2.438   0.316   6.975 -0.5626  0.1164  0.0636
 1179SOL    HW115173   2.439   0.331   6.881  1.1745 -1.1630 -0.1241
 1179SOL    HW215174   2.513   0.258   6.981 -0.7067 -0.1282 -0.6038
 1180SOL     OW15175   4.395   2.267   8.724  0.3375 -0.2712 -0.1600
 1180SOL    HW115176   4.308   2.296   8.696  1.0808  0.5790 -1.5523
 1180SOL    HW215177   4.410   2.326   8.798 -3.6134 -1.7376  1.8704
 1181SOL     OW15178   3.108   1.305   3.053  0.3568 -0.0644  0.4922
 1181SOL    HW115179   3.190   1.352   3.037  0.2539  0.0773  0.3763
 1181SOL    HW215180   3.045   1.351   2.997 -0.6768  0.5176  2.1395
 1182SOL     OW15181   3.331   4.493  11.614  0.5203  0.7995 -0.4656
 1182SOL    HW115182   3.273   4.532  11.679  0.9777 -0.3703  0.6571
 1182SOL    HW215183   3.417   4.507  11.653  0.8237 -0.3620 -0.7190
 1183SOL     OW15184   2.454   3.508  13.660  0.0309 -0.5252  0.2381
 1183SOL    HW115185   2.416   3.436  13.610  0.1046  0.9444 -1.9322
 1183SOL    HW215186   2.531   3.529  13.607 -0.2846  2.7905  1.0960
 1184SOL     OW15187   3.747   1.135   3.377  0.6585  0.1643  0.0521
 1184SOL    HW115188   3.712   1.221   3.352  0.1491  0.7682  2.7672
 1184SOL    HW215189   3.745   1.085   3.296 -0.6699 -0.7793  0.6611
 1185SOL     OW15190   0.703   3.292  11.570 -0.1689 -0.3557 -0.1740
 1185SOL    HW115191   0.780   3.344  11.545  0.3283 -0.5315  0.9928
 1185SOL    HW215192   0.745   3.206  11.569 -0.6948 -0.5884 -2.7490
 1186SOL     OW15193   0.094   4.544  16.384 -0.7647  0.1172  0.0022
 1186SOL    HW115194   0.099   4.635  16.412  0.4143 -0.7149  2.5062
 1186SOL    HW215195   0.002   4.531  16.407 -0.7852 -2.5447 -1.5751
 1187SOL     OW15196   4.347   3.965   1.305  0.2315 -0.2812 -0.1378
 1187SOL    HW115197   4.420   3.918   1.265 -0.7416 -1.4194 -0.5961
 1187SOL    HW215198   4.325   3.898   1.369 -2.1914 -0.0502 -0.7122
 1188SOL     OW15199   2.903   2.404   1.059  0.2541  0.1193 -0.0258
 1188SOL    HW115200   2.954   2.462   1.116 -3.3041 -0.0290  3.3794
 1188SOL    HW215201   2.850   2.359   1.125 -0.5676  1.1039 -0.0108
 1189SOL     OW15202   3.116   3.119   3.922  0.3710 -0.1242  0.1991
 1189SOL    HW115203   3.028   3.086   3.935  0.5719  0.9656  4.3931
 1189SOL    HW215204   3.108   3.206   3.961  0.5964  0.7391 -1.7001
 1190SOL     OW15205   0.999   0.090   9.204 -0.3366  0.1699 -0.2791
 1190SOL    HW115206   0.968   0.027   9.139  0.2203 -0.2292 -0.1634
 1190SOL    HW215207   0.921   0.142   9.221 -0.4602 -0.2528  0.4305
 1191SOL     OW15208   2.252   2.799   9.143 -0.6898 -0.3530  0.1989
 1191SOL    HW115209   2.189   2.820   9.213 -0.4573 -0.2693  0.3824
 1191SOL    HW215210   2.325   2.859   9.155 -0.2449 -0.9880  0.6885
 1192SOL     OW15211   1.329   3.978   7.473 -0.1032  0.0172 -0.3982
 1192SOL    HW115212   1.411   3.973   7.425 -0.6115 -1.5443 -1.1194
 1192SOL    HW215213   1.274   3.964   7.396 -1.0254 -1.9445  0.5844
 1193SOL     OW15214   1.737   0.985   6.423  0.2652 -0.1353 -0.4092
 1193SOL    HW115215   1.706   0.954   6.338 -1.8741 -3.0299  1.4399
 1193SOL    HW215216   1.666   1.030   6.467 -1.7341 -0.2239 -3.4996
 1194SOL     OW15217   3.580   2.161   8.107 -0.2333  0.4075  0.2084
 1194SOL    HW115218   3.546   2.190   8.023 -1.2615  1.6959  1.0695
 1194SOL    HW215219   3.670   2.142   8.082 -0.9164  1.0569 -2.6889
 1195SOL     OW15220   1.995   3.729   7.631  0.8215  0.3678  0.1398
 1195SOL    HW115221   2.079   3.684   7.628  0.4900 -0.3286  1.1004
 1195SOL    HW215222   2.022   3.799   7.690 -0.1008 -0.4170  1.4971
 1196SOL     OW15223   3.986   0.355   2.179 -0.1394 -0.0304 -0.3640
 1196SOL    HW115224   4.052   0.373   2.113  0.9110 -0.5525  0.5395
 1196SOL    HW215225   3.926   0.305   2.123  1.2367 -2.6542  0.5099
 1197SOL     OW15226   0.975   2.657  17.633 -0.1336 -0.5589 -0.8301
 1197SOL    HW115227   1.001   2.627  17.546  1.0935 -0.6284 -0.4362
 1197SOL    HW215228   1.011   2.746  17.640  0.0344 -0.5920 -1.3034
 1198SOL     OW15229   4.728   2.720  11.022 -0.2167 -0.1254 -0.2970
 1198SOL    HW115230   4.643   2.683  10.998  0.0578 -0.4873 -0.6960
 1198SOL    HW215231   0.012   2.678  11.106 -0.6141 -2.6898 -1.4847
 1199SOL     OW15232   2.234   1.022  16.679 -0.0332  0.1496  0.6142
 1199SOL    HW115233   2.320   1.062  16.666  0.3238 -1.5617 -2.1897
 1199SOL    HW215234   2.252   0.944  16.731  2.0323  1.1457  1.3833
 1200SOL     OW15235   4.522   0.401   2.094  0.8073  0.5137 -0.2191
 1200SOL    HW115236   4.542   0.330   2.034 -0.4899 -0.6342  0.7086
 1200SOL    HW215237   4.457   0.452   2.046 -1.7837 -1.6442  0.9702
 1201SOL     OW15238   2.493   3.552   7.729  0.0194 -0.4337  0.0108
 1201SOL    HW115239   2.402   3.565   7.756 -0.4431 -1.7464 -0.8706
 1201SOL    HW215240   2.534   3.634   7.757 -2.4030  0.9860 -0.6248
 1202SOL     OW15241   0.646   4.145   2.656  0.1222  0.3956  0.1863
 1202SOL    HW115242   0.708   4.074   2.646 -0.9328 -0.3664 -0.8562
 1202SOL    HW215243   0.683   4.204   2.590 -0.9634 -0.0367 -0.8072
 1203SOL     OW15244   2.905   1.182   8.006 -0.7122  0.2400 -0.4622
 1203SOL    HW115245   2.960   1.131   7.947 -0.5000 -0.1516  0.0683
 1203SOL    HW215246   2.955   1.192   8.087  1.0400 -0.9061 -1.4093
 1204SOL     OW15247   0.161   3.894   6.208  0.0845 -0.0414 -0.0227
 1204SOL    HW115248   0.245   3.904   6.164  0.6190 -2.0603  0.5672
 1204SOL    HW215249   0.189   3.932   6.291  0.1590 -0.7367  0.2698
 1205SOL     OW15250   3.217   2.351   5.238  0.3305  0.4006  0.2983
 1205SOL    HW115251   3.234   2.403   5.159 -1.4623 -0.9751 -0.9873
 1205SOL    HW215252   3.147   2.400   5.281 -0.1154 -0.7892  0.9201
 1206SOL     OW15253   4.603   1.173   3.445  0.0379 -0.0202  0.1608
 1206SOL    HW115254   4.639   1.129   3.368 -0.4779 -1.1892  0.5931
 1206SOL    HW215255   4.545   1.234   3.400 -0.3419  0.2182  0.9850
 1207SOL     OW15256   4.394   2.981  17.592 -0.3451  0.2119 -0.4561
 1207SOL    HW115257   4.324   3.024  17.542  0.5440  0.5974 -1.3927
 1207SOL    HW215258   4.468   3.014  17.540  0.8162 -0.5389  0.7346
 1208SOL     OW15259   0.070   2.670   2.192 -0.3776  0.0669  0.0653
 1208SOL    HW115260   0.010   2.724   2.141  0.5498  0.8195 -0.2184
 1208SOL    HW215261   0.028   2.679   2.277 -0.6960 -0.1938 -0.0653
 1209SOL     OW15262   2.371   0.656   5.990  0.7478 -0.1267 -0.7016
 1209SOL    HW115263   2.323   0.605   6.055  3.8275  0.3182  1.8940
 1209SOL    HW215264   2.441   0.595   5.968  0.7203  0.2646 -1.8875
 1210SOL     OW15265   0.280   4.723   9.332 -0.5081  0.4997  0.0671
 1210SOL    HW115266   0.367   4.708   9.294  0.1828  0.9774  1.4736
 1210SOL    HW215267   0.252   0.056   9.271 -0.5799 -0.8638 -1.4264
 1211SOL     OW15268   4.410   4.447   6.932 -0.4612  0.3049  0.4298
 1211SOL    HW115269   4.415   4.370   6.875  1.1494 -0.2825  1.3686
 1211SOL    HW215270   4.353   4.508   6.886  1.5161  3.7838  2.5978
 1212SOL     OW15271   4.710   3.596   5.163  0.4156 -0.0839 -0.6665
 1212SOL    HW115272   4.713   3.511   5.207 -1.3586 -0.2481 -0.8984
 1212SOL    HW215273   4.657   3.580   5.085 -0.5521  2.7250 -0.5871
 1213SOL     OW15274   3.026   3.737   3.509  0.8158 -0.3144  0.4517
 1213SOL    HW115275   2.997   3.716   3.421 -0.9289  1.1831  0.6670
 1213SOL    HW215276   2.944   3.750   3.557 -0.4779  1.6113 -2.2748
 1214SOL     OW15277   0.445   4.706   4.844 -0.0364 -0.0861  0.2760
 1214SOL    HW115278   0.353   4.725   4.826 -0.2157 -1.3398 -0.1465
 1214SOL    HW215279   0.482   0.004   4.763  0.5343 -2.1592 -0.3253
 1215SOL     OW15280   0.778   3.008  11.679  0.0712 -0.4659  0.1334
 1215SOL    HW115281   0.862   3.017  11.723 -0.3596  1.2925  0.6304
 1215SOL    HW215282   0.801   3.001  11.586 -0.9040  0.6929 -0.2068
 1216SOL     OW15283   3.921   4.373   3.650  0.2159  0.8280  0.5524
 1216SOL    HW115284   3.950   4.435   3.716 -0.9789  0.3613  1.5193
 1216SOL    HW215285   3.993   4.361   3.588 -1.1194  1.0652 -1.0346
 1217SOL     OW15286   2.603   1.061   8.170  0.5365 -0.0156 -0.2704
 1217SOL    HW115287   2.663   1.064   8.095 -0.1843  0.9089 -0.8225
 1217SOL    HW215288   2.617   1.139   8.225 -1.8050  1.6193 -1.9809
 1218SOL     OW15289   1.470   0.443   6.251  0.0899  0.2991  0.1834
 1218SOL    HW115290   1.511   0.504   6.190  0.7534  2.1212  2.4954
 1218SOL    HW215291   1.465   0.493   6.332 -0.1739 -0.1290  0.4309
 1219SOL     OW15292   3.387   1.981   4.573 -0.5953 -0.1582  0.4065
 1219SOL    HW115293   3.378   2.056   4.632 -1.8550  1.7113 -2.1271
 1219SOL    HW215294   3.466   1.934   4.600  0.5428  1.2586 -0.4484
 1220SOL     OW15295   0.335   1.944   8.972  0.1531 -0.3923 -0.2254
 1220SOL    HW115296   0.283   1.995   8.910 -0.3613 -2.3699 -1.4287
 1220SOL    HW215297   0.302   1.856   8.953  0.4148 -0.6577  0.5391
 1221SOL     OW15298   2.779   3.466   0.223  0.4783 -0.2706 -0.7399
 1221SOL    HW115299   2.705   3.406   0.216 -0.2755  0.7499 -1.5332
 1221SOL    HW215300   2.771   3.512   0.140  0.0337  1.6661  0.3854
 1222SOL     OW15301   1.046   1.424   3.606  0.0540  0.3090 -0.0149
 1222SOL    HW115302   1.127   1.474   3.597 -0.3973  1.2336  1.1062
 1222SOL    HW215303   0.993   1.502   3.593  0.1484  0.2209 -0.9405
 1223SOL     OW15304   3.088   2.773   7.234  0.6484  0.1124 -0.1944
 1223SOL    HW115305   2.995   2.794   7.245  0.4560 -2.3100  2.9328
 1223SOL    HW215306   3.098   2.736   7.146 -0.3153 -0.1754 -0.1885
 1224SOL     OW15307   2.646   2.689  11.565 -0.6484  0.1556  0.4203
 1224SOL    HW115308   2.731   2.719  11.531 -0.1383 -0.7226  0.9196
 1224SOL    HW215309   2.583   2.735  11.509 -0.8697 -0.6592 -0.0025
 1225SOL     OW15310   4.405   1.388  15.501 -0.3556 -0.1564 -0.4753
 1225SOL    HW115311   4.456   1.331  15.443  0.2721 -0.6179  0.5519
 1225SOL    HW215312   4.320   1.391  15.456 -1.7493  0.1692  2.1739
 1226SOL     OW15313   3.344   2.887   8.207  0.3718  0.1194 -0.1369
 1226SOL    HW115314   3.422   2.833   8.221 -0.7477 -1.6251 -0.6533
 1226SOL    HW215315   3.378   2.975   8.223 -2.3580  1.2058 -0.3657
 1227SOL     OW15316   2.138   4.493   2.333 -0.1125 -0.4475  0.3046
 1227SOL    HW115317   2.129   4.427   2.265  0.9536 -1.1046  0.8000
 1227SOL    HW215318   2.141   4.444   2.416  1.1294  0.2148  0.6615
 1228SOL     OW15319   3.298   2.281  15.602 -0.1313  0.9254  0.3502
 1228SOL    HW115320   3.354   2.208  15.629  0.3724  1.4220  0.6530
 1228SOL    HW215321   3.334   2.288  15.514  1.0969 -0.3430  0.7572
 1229SOL     OW15322   1.459   1.110   2.117 -0.4788  0.1316 -0.1060
 1229SOL    HW115323   1.540   1.061   2.107 -0.3402  0.2300  0.5402
 1229SOL    HW215324   1.441   1.128   2.025 -2.3032  1.5184  0.5119
 1230SOL     OW15325   4.404   1.407   4.292 -0.1672 -0.6383 -0.4040
 1230SOL    HW115326   4.488   1.365   4.277 -0.5496 -1.5460  0.0457
 1230SOL    HW215327   4.366   1.397   4.204 -1.0559  1.7584 -0.2979
 1231SOL     OW15328   3.806   1.448  16.944  0.0302 -0.5014  0.5087
 1231SOL    HW115329   3.801   1.535  16.985  0.6079  0.2533 -1.0377
 1231SOL    HW215330   3.783   1.402  17.024 -0.1751 -1.9997 -0.4238
 1232SOL     OW15331   2.499   4.506   8.589 -0.0271  0.4089  0.1043
 1232SOL    HW115332   2.423   4.481   8.641 -0.5047 -1.3924 -1.4484
 1232SOL    HW215333   2.456   4.541   8.511  0.3438  1.9395  0.5916
 1233SOL     OW15334   2.165   2.691   5.620  0.4333 -0.7188  0.4542
 1233SOL    HW115335   2.119   2.626   5.567 -1.8039  2.1983 -1.1855
 1233SOL    HW215336   2.241   2.646   5.657 -0.1029 -1.6276  0.4491
 1234SOL     OW15337   3.770   2.909  15.314 -0.1645 -0.2346 -0.1556
 1234SOL    HW115338   3.842   2.944  15.366 -0.1369  1.8468 -1.5897
 1234SOL    HW215339   3.703   2.966  15.351 -0.4435  0.6906 -2.0762
 1235SOL     OW15340   1.887   1.171  12.152 -0.5575 -0.2537  0.1687
 1235SOL    HW115341   1.925   1.184  12.239  0.6685  0.3726 -0.4509
 1235SOL    HW215342   1.795   1.192  12.166 -0.7051  0.1140 -1.3041
 1236SOL     OW15343   3.043   3.401   6.928  0.0617 -0.1659  0.2582
 1236SOL    HW115344   3.020   3.321   6.880  2.0396 -1.5424  1.6315
 1236SOL    HW215345   3.138   3.397   6.921 -0.0624  2.3128 -2.6936
 1237SOL     OW15346   2.537   0.645  16.126 -0.4299  0.3966 -0.0690
 1237SOL    HW115347   2.507   0.561  16.090  1.0341 -0.6826  1.2299
 1237SOL    HW215348   2.545   0.611  16.215  1.6018  0.1892 -0.3179
 1238SOL     OW15349   3.286   4.647  11.190  0.7123 -0.8634 -0.2770
 1238SOL    HW115350   3.286   4.563  11.144 -1.4375 -0.5732 -0.8238
 1238SOL    HW215351   3.222   4.702  11.145  0.1159 -1.5551 -0.2785
 1239SOL     OW15352   3.604   4.014   3.071 -0.8738 -0.0634 -0.0812
 1239SOL    HW115353   3.650   3.939   3.110  2.0862  2.7402  1.8472
 1239SOL    HW215354   3.674   4.041   3.011  1.6207  0.0380  2.8328
 1240SOL     OW15355   0.813   1.479   6.723  0.3783  0.3113  0.0730
 1240SOL    HW115356   0.802   1.415   6.794 -0.8750  0.9491  0.4677
 1240SOL    HW215357   0.894   1.448   6.683 -1.1005  0.7834 -3.2946
 1241SOL     OW15358   2.634   3.820   7.105  0.1441 -0.0686  0.4803
 1241SOL    HW115359   2.596   3.859   7.184 -1.0226  0.0839 -0.1654
 1241SOL    HW215360   2.666   3.901   7.065  0.2077 -0.1942  0.2774
 1242SOL     OW15361   0.499   4.127   7.990 -0.7352 -0.2444  0.3600
 1242SOL    HW115362   0.571   4.183   8.021  0.7657 -1.5321 -0.8510
 1242SOL    HW215363   0.489   4.175   7.908 -0.2344 -2.5059 -1.0192
 1243SOL     OW15364   3.255   3.823   8.322 -0.1622 -0.4842  0.3606
 1243SOL    HW115365   3.295   3.910   8.318 -0.0501 -0.5287  0.4902
 1243SOL    HW215366   3.178   3.854   8.370  0.8277 -1.5475  2.6395
 1244SOL     OW15367   4.706   2.241   8.436 -0.3423  0.8091  0.2628
 1244SOL    HW115368   4.708   2.278   8.524  1.0103 -0.9662  0.9744
 1244SOL    HW215369   0.048   2.188   8.447 -2.1405 -1.9725 -0.3184
 1245SOL     OW15370   2.124   3.451   6.456 -0.5310 -0.6971  0.2222
 1245SOL    HW115371   2.046   3.478   6.505  0.5353  2.2292  0.3456
 1245SOL    HW215372   2.146   3.369   6.498  0.7582 -0.3543  0.2047
 1246SOL     OW15373   3.749   2.982   7.403 -0.2960 -0.0124 -0.3510
 1246SOL    HW115374   3.692   3.009   7.475  0.2970 -1.4730  0.6496
 1246SOL    HW215375   3.698   2.994   7.323 -2.9369 -0.7398  1.2524
 1247SOL     OW15376   0.082   2.920  15.350  0.9632 -0.1798  0.2953
 1247SOL    HW115377   0.116   2.915  15.260 -2.5611 -0.6909 -1.0122
 1247SOL    HW215378   0.046   2.832  15.359 -0.0094 -0.1206 -2.9672
 1248SOL     OW15379   2.603   2.699  12.823  0.6313  0.0912 -0.2291
 1248SOL    HW115380   2.612   2.761  12.895  2.2035 -1.6522  1.0767
 1248SOL    HW215381   2.694   2.687  12.794  0.7489 -0.9559  0.5713
 1249SOL     OW15382   2.780   1.567   7.170  0.2752  0.2096  0.0188
 1249SOL    HW115383   2.794   1.590   7.078 -0.1386  1.8209  0.3549
 1249SOL    HW215384   2.746   1.478   7.161  0.9082 -0.0220 -0.1182
 1250SOL     OW15385   0.826   0.492   6.984 -0.7063 -0.0531 -0.6592
 1250SOL    HW115386   0.908   0.475   7.029 -0.5414 -0.0528 -0.9587
 1250SOL    HW215387   0.779   0.413   7.011  1.0738 -1.1729 -0.8483
 1251SOL     OW15388   3.175   3.911   7.328  0.1685  0.2937 -0.2223
 1251SOL    HW115389   3.080   3.909   7.330  0.1547  3.2256  2.8359
 1251SOL    HW215390   3.195   3.992   7.376 -1.5605  1.3194 -1.2133
 1252SOL     OW15391   1.571   0.950   3.821  0.4748 -0.0248  0.7745
 1252SOL    HW115392   1.572   1.045   3.811  1.4510  0.1587  2.7170
 1252SOL    HW215393   1.599   0.902   3.743 -0.3788  0.2396  0.2949
 1253SOL     OW15394   2.880   2.115  16.454  0.0666  0.0892 -0.1480
 1253SOL    HW115395   2.945   2.183  16.441 -2.2930  2.3427 -0.1254
 1253SOL    HW215396   2.889   2.094  16.547 -1.3188 -1.6859 -0.4208
 1254SOL     OW15397   1.935   3.113  11.499  0.5664 -0.5398 -0.2184
 1254SOL    HW115398   1.997   3.136  11.569  0.7183  1.8806 -1.1545
 1254SOL    HW215399   1.968   3.155  11.419 -1.3499 -0.1049 -0.7890
 1255SOL     OW15400   1.385   3.165   3.553 -0.0493  0.5571  0.2020
 1255SOL    HW115401   1.445   3.120   3.494 -0.4796 -1.9744  1.6886
 1255SOL    HW215402   1.394   3.251   3.512  0.8832  0.6584  0.6214
 1256SOL     OW15403   0.515   3.397   9.572 -0.2535 -0.7587 -0.5793
 1256SOL    HW115404   0.518   3.393   9.667  1.2707  1.1758 -0.5486
 1256SOL    HW215405   0.421   3.385   9.558 -0.5032  0.1242  0.3615
 1257SOL     OW15406   3.310   4.608  13.505  0.3052  0.4594  0.0285
 1257SOL    HW115407   3.229   4.600  13.455 -0.7799  1.9766  1.5286
 1257SOL    HW215408   3.295   4.539  13.569 -1.2180 -0.1152 -0.9354
 1258SOL     OW15409   4.378   3.423   5.137 -0.0903  0.0640 -0.6031
 1258SOL    HW115410   4.425   3.391   5.215  2.9670 -0.9741 -2.8799
 1258SOL    HW215411   4.416   3.369   5.068  2.7323 -0.1923  1.1313
 1259SOL     OW15412   0.616   1.385  12.852  0.1492  0.0046  0.3515
 1259SOL    HW115413   0.605   1.311  12.912 -0.3138 -2.0010 -2.2237
 1259SOL    HW215414   0.697   1.356  12.810  0.2932 -2.2786  2.2396
 1260SOL     OW15415   1.829   3.138  12.876 -0.7722  0.1375  0.7357
 1260SOL    HW115416   1.857   3.059  12.831 -1.1704  1.3932 -1.6830
 1260SOL    HW215417   1.750   3.161  12.827  0.0388  0.5326 -0.3818
 1261SOL     OW15418   3.248   0.924   6.441 -0.0047 -0.0614 -0.0796
 1261SOL    HW115419   3.336   0.958   6.460  0.7289 -1.1634 -1.4204
 1261SOL    HW215420   3.275   0.874   6.364  1.1050 -0.5631  0.6262
 1262SOL     OW15421   0.090   3.479   3.931  0.2784  0.5662 -0.8974
 1262SOL    HW115422   0.066   3.410   3.993  0.6361 -0.3536 -1.7780
 1262SOL    HW215423   0.183   3.489   3.949 -0.2166 -1.0651  2.4158
 1263SOL     OW15424   1.022   2.737   1.026 -0.3979 -0.1858  0.3572
 1263SOL    HW115425   1.071   2.773   0.953  0.9413 -4.0476 -0.6766
 1263SOL    HW215426   0.937   2.718   0.985 -0.6393  0.4037  0.5784
 1264SOL     OW15427   4.427   1.985  10.315  0.1937 -0.0998  0.0004
 1264SOL    HW115428   4.476   2.025  10.243  1.8094 -0.0018  1.1465
 1264SOL    HW215429   4.389   1.912  10.267 -1.1789  0.8037 -0.2770
 1265SOL     OW15430   0.514   0.788   9.161  0.0927  0.2075  0.4163
 1265SOL    HW115431   0.527   0.695   9.141  1.2314  0.5753 -0.5816
 1265SOL    HW215432   0.562   0.838   9.095 -1.3981 -1.1078 -1.6911
 1266SOL     OW15433   1.571   0.005  10.531 -0.5601 -0.3647 -0.4844
 1266SOL    HW115434   1.614   4.676  10.586 -2.0339 -1.8437 -1.0784
 1266SOL    HW215435   1.643   0.047  10.484 -0.0766 -2.4340 -1.5740
 1267SOL     OW15436   3.109   3.839  16.942  0.4765 -0.7049 -0.1492
 1267SOL    HW115437   3.049   3.914  16.932  1.8669  0.6650  1.8006
 1267SOL    HW215438   3.190   3.884  16.967  0.3180 -1.6079  1.9686
 1268SOL     OW15439   4.177   2.486   6.854 -0.5100  0.0674 -0.0696
 1268SOL    HW115440   4.124   2.488   6.774 -1.2867 -0.9652  0.4154
 1268SOL    HW215441   4.143   2.403   6.888 -2.1581  0.2937 -1.1521
 1269SOL     OW15442   3.677   4.294   1.443  0.2285  0.3346 -0.2110
 1269SOL    HW115443   3.727   4.374   1.457 -1.0131  0.8231  1.4091
 1269SOL    HW215444   3.681   4.292   1.348 -1.0212 -1.5332 -0.2351
 1270SOL     OW15445   3.707   1.128   2.268  0.6575 -0.1636 -0.0728
 1270SOL    HW115446   3.643   1.200   2.273 -1.0763 -1.5248 -2.5068
 1270SOL    HW215447   3.709   1.111   2.173 -1.8409 -0.0516 -0.1563
 1271SOL     OW15448   1.612   1.571   6.033  0.1884  0.3743  0.0884
 1271SOL    HW115449   1.702   1.568   6.003  0.1378 -1.1466  0.0813
 1271SOL    HW215450   1.585   1.635   5.968 -0.4080  0.8650  0.8096
 1272SOL     OW15451   3.105   1.305   4.078 -0.3646 -0.1660 -0.3387
 1272SOL    HW115452   3.025   1.294   4.130 -1.8632 -0.6858 -2.7731
 1272SOL    HW215453   3.113   1.400   4.086  1.4005 -0.1365 -2.4950
 1273SOL     OW15454   0.720   2.456   5.272  0.2056  0.6030  0.2578
 1273SOL    HW115455   0.696   2.398   5.199  1.6454  0.7308 -0.3026
 1273SOL    HW215456   0.632   2.488   5.295  0.1206  0.9071 -0.4885
 1274SOL     OW15457   0.900   3.779   2.272 -0.4847  0.8630  1.1043
 1274SOL    HW115458   0.848   3.813   2.345 -0.6723  0.3234  1.2201
 1274SOL    HW215459   0.987   3.773   2.313 -0.3212 -1.4893  0.4096
 1275SOL     OW15460   2.329   1.902  13.265  0.3912 -0.0194  0.2143
 1275SOL    HW115461   2.330   1.859  13.350  0.7784  0.9237  0.6893
 1275SOL    HW215462   2.416   1.889  13.227 -0.1309  0.4087 -1.1561
 1276SOL     OW15463   3.285   4.537   2.786  0.0984 -0.1817  0.3510
 1276SOL    HW115464   3.364   4.488   2.809  1.3644  1.1863 -1.1434
 1276SOL    HW215465   3.299   4.620   2.831  1.6511  0.1941 -0.8282
 1277SOL     OW15466   0.453   2.364   5.160  0.2695 -0.4334  0.3680
 1277SOL    HW115467   0.460   2.459   5.155 -0.5769 -0.3977 -0.2188
 1277SOL    HW215468   0.406   2.357   5.243 -0.3045  0.6771  0.1370
 1278SOL     OW15469   3.027   2.403  11.904 -0.7476  0.4393  0.1863
 1278SOL    HW115470   3.045   2.309  11.896  1.7100  1.2898 -3.8623
 1278SOL    HW215471   3.082   2.423  11.980  0.9939 -1.3604 -0.5802
 1279SOL     OW15472   0.466   2.628   0.820  0.4327  0.6685  0.4419
 1279SOL    HW115473   0.424   2.645   0.904  2.1330 -1.6083  1.7727
 1279SOL    HW215474   0.516   2.707   0.799 -1.1357  1.6141  0.3111
 1280SOL     OW15475   2.383   1.870  11.637  0.6210  0.2211  0.3355
 1280SOL    HW115476   2.429   1.867  11.721 -0.5795  2.9897  1.0720
 1280SOL    HW215477   2.292   1.871  11.665  1.0202  0.9151  1.5872
 1281SOL     OW15478   0.237   1.422   7.013 -0.6181  0.3532  0.0100
 1281SOL    HW115479   0.171   1.443   7.079  0.5631 -0.2531  1.3951
 1281SOL    HW215480   0.217   1.333   6.986  2.1944 -1.0250  2.3488
 1282SOL     OW15481   4.113   1.419   8.854 -0.5211 -0.3052 -0.5235
 1282SOL    HW115482   4.167   1.468   8.915 -1.6822  0.1573  0.1237
 1282SOL    HW215483   4.178   1.373   8.801 -0.6393  0.3319 -1.2147
 1283SOL     OW15484   3.327   2.559   6.816  0.1455  0.3706  0.3741
 1283SOL    HW115485   3.398   2.525   6.870 -2.5177  0.0310  3.5909
 1283SOL    HW215486   3.382   2.618   6.764  0.0142  0.7570  0.6784
 1284SOL     OW15487   3.889   2.330   0.078 -0.4801  0.1494  0.2469
 1284SOL    HW115488   3.959   2.389   0.050 -1.6371  0.6231 -1.7024
 1284SOL    HW215489   3.809   2.379   0.060 -1.7157 -1.9955 -0.0849
 1285SOL     OW15490   4.310   4.244   6.537  0.2138  0.2292 -0.1633
 1285SOL    HW115491   4.246   4.306   6.572  0.8191  0.8144 -0.0891
 1285SOL    HW215492   4.255   4.169   6.511  0.2316  0.7496 -1.6852
 1286SOL     OW15493   0.642   1.511   2.475  0.5110 -0.1937  0.5087
 1286SOL    HW115494   0.586   1.459   2.417 -0.6890 -0.3053  1.7573
 1286SOL    HW215495   0.730   1.475   2.462 -0.1438 -1.1420 -1.1894
 1287SOL     OW15496   2.266   4.516   9.691  0.4050 -0.5465  0.4617
 1287SOL    HW115497   2.351   4.546   9.661 -1.2234 -0.0174 -3.6939
 1287SOL    HW215498   2.241   4.594   9.740  0.1526 -0.2187 -0.1974
 1288SOL     OW15499   2.864   2.283   1.661  0.0070 -0.4456  0.0201
 1288SOL    HW115500   2.914   2.311   1.584  0.9425 -1.0066  0.4145
 1288SOL    HW215501   2.929   2.274   1.731 -1.1489 -0.9376  1.0256
 1289SOL     OW15502   2.104   1.652   7.791 -0.2274  0.3273 -0.6064
 1289SOL    HW115503   2.024   1.651   7.843  0.0491  0.5274 -0.1750
 1289SOL    HW215504   2.122   1.744   7.776  1.0886  0.2888  0.6805
 1290SOL     OW15505   2.898   3.823  13.612 -0.0430 -0.1604  0.6230
 1290SOL    HW115506   2.983   3.816  13.656  0.4548 -0.7073 -0.4124
 1290SOL    HW215507   2.919   3.854  13.524 -2.2941 -0.4534  0.0047
 1291SOL     OW15508   0.525   0.881  13.545  0.1504  0.1006  0.3584
 1291SOL    HW115509   0.589   0.924  13.487 -0.3959  3.2273  2.0794
 1291SOL    HW215510   0.524   0.790  13.515 -0.5178 -0.0127  0.7326
 1292SOL     OW15511   2.874   4.055   8.271  0.1957 -0.5405 -0.7983
 1292SOL    HW115512   2.945   4.097   8.221  1.4180 -1.6537 -0.0105
 1292SOL    HW215513   2.806   4.050   8.204 -0.5862 -2.0221  0.1080
 1293SOL     OW15514   4.187   1.890   3.661 -0.5614  0.1630 -0.0203
 1293SOL    HW115515   4.230   1.952   3.602 -1.2537 -0.0733 -0.7749
 1293SOL    HW215516   4.152   1.940   3.735 -0.5411  1.6281 -0.9980
 1294SOL     OW15517   1.546   3.061  11.129  0.4943  0.1351  0.4017
 1294SOL    HW115518   1.462   3.068  11.085  1.2559  0.5011 -0.9980
 1294SOL    HW215519   1.506   3.053  11.216 -3.0939 -2.1650 -1.4727
 1295SOL     OW15520   1.904   2.417   5.247 -0.4210  0.2496 -0.0586
 1295SOL    HW115521   1.910   2.478   5.174 -0.1226  0.6055  0.2567
 1295SOL    HW215522   1.978   2.432   5.306 -1.3104  1.2816  0.7997
 1296SOL     OW15523   1.207   1.932   4.123 -0.4397  0.8437  0.6020
 1296SOL    HW115524   1.300   1.909   4.120 -0.5585  0.4141  0.1987
 1296SOL    HW215525   1.173   1.858   4.174 -2.3662  0.0169 -1.8755
 1297SOL     OW15526   0.945   2.435  13.828 -0.4853  0.1051 -0.3304
 1297SOL    HW115527   0.996   2.423  13.748 -0.5076 -1.0101 -0.1895
 1297SOL    HW215528   0.980   2.519  13.856  0.9244 -1.2107  1.8506
 1298SOL     OW15529   3.965   3.036  15.439 -0.4530 -0.2032 -0.4456
 1298SOL    HW115530   4.013   3.051  15.357 -1.0133  0.7520 -0.6096
 1298SOL    HW215531   4.041   3.036  15.497 -0.1879 -0.2820 -0.7932
 1299SOL     OW15532   1.905   2.438  17.274 -0.0728  0.1401 -0.2086
 1299SOL    HW115533   1.836   2.444  17.341 -0.2422 -0.4929 -0.3230
 1299SOL    HW215534   1.959   2.515  17.292  0.3338 -0.0697 -0.5375
 1300SOL     OW15535   2.975   0.115   3.234 -0.1561  0.0054  0.5517
 1300SOL    HW115536   2.941   0.188   3.286 -1.0194  1.2238 -1.7237
 1300SOL    HW215537   2.980   0.047   3.301  0.7388  1.8251  2.3572
 1301SOL     OW15538   3.069   0.016   2.116 -0.3782 -0.4102  0.2238
 1301SOL    HW115539   3.028   0.008   2.202  2.5045 -0.6650  1.5763
 1301SOL    HW215540   3.000   0.024   2.050  0.5649 -1.1790 -0.8418
 1302SOL     OW15541   1.027   0.249   8.396 -0.4884 -0.4144 -0.3404
 1302SOL    HW115542   1.078   0.228   8.474 -0.9932 -0.6237 -0.0604
 1302SOL    HW215543   0.967   0.175   8.382 -0.4343 -0.7427  1.1547
 1303SOL     OW15544   0.201   3.846   2.780 -0.2679 -0.1936  0.1177
 1303SOL    HW115545   0.266   3.910   2.750 -0.7003  0.6653  1.0345
 1303SOL    HW215546   0.253   3.768   2.760 -1.8404 -1.7218  2.0569
 1304SOL     OW15547   1.273   2.201   2.540  0.4105 -0.4448  0.1898
 1304SOL    HW115548   1.245   2.230   2.627 -0.4234 -0.8215  0.0501
 1304SOL    HW215549   1.364   2.228   2.548  0.0938  0.4558  0.7720
 1305SOL     OW15550   0.338   2.973  14.070 -0.6234  0.2164 -0.1491
 1305SOL    HW115551   0.300   2.894  14.108  0.9275  0.9387  2.8977
 1305SOL    HW215552   0.431   2.964  14.094 -0.3461  2.6382 -0.3612
 1306SOL     OW15553   3.922   2.718   8.449 -0.4840  0.2865 -0.1148
 1306SOL    HW115554   4.008   2.717   8.490 -1.1513 -0.5609  1.2721
 1306SOL    HW215555   3.870   2.725   8.529 -0.3469 -1.5495  0.1488
 1307SOL     OW15556   3.794   0.741   7.602 -0.4020  0.0535 -0.2865
 1307SOL    HW115557   3.716   0.712   7.649  0.3729  2.6068  2.5707
 1307SOL    HW215558   3.756   0.802   7.538  2.0636  1.0835 -0.7676
 1308SOL     OW15559   1.759   1.711   6.674  0.4159 -0.3254 -0.3371
 1308SOL    HW115560   1.756   1.739   6.582  1.1748  1.6327  0.2348
 1308SOL    HW215561   1.676   1.748   6.705  0.0384  1.1962 -3.1737
 1309SOL     OW15562   0.103   0.176   5.026 -0.2523 -0.6105  0.0019
 1309SOL    HW115563   0.195   0.197   5.041  0.0516 -2.8067  1.1140
 1309SOL    HW215564   0.119   0.114   4.955 -0.4346 -1.2731  0.5485
 1310SOL     OW15565   3.620   4.123   2.549  0.1799  0.4573  0.2085
 1310SOL    HW115566   3.607   4.028   2.554 -0.1328  0.4874  0.0082
 1310SOL    HW215567   3.715   4.117   2.555  0.2928  0.0692 -1.6822
 1311SOL     OW15568   4.620   2.103   5.847  0.5655  0.0240 -0.4737
 1311SOL    HW115569   4.670   2.022   5.836  2.3093  0.8056  1.6799
 1311SOL    HW215570   4.678   2.152   5.906 -0.2374  0.7475 -0.2913
 1312SOL     OW15571   1.586   2.539   4.231  0.7552  0.1037 -0.1622
 1312SOL    HW115572   1.542   2.623   4.211  1.0343  0.0599 -0.9548
 1312SOL    HW215573   1.631   2.554   4.314 -0.2858  1.1355  0.2395
 1313SOL     OW15574   4.100   2.968   5.941  0.1507 -0.2401 -0.1323
 1313SOL    HW115575   4.132   2.947   5.853 -1.5617  1.8144 -1.2316
 1313SOL    HW215576   4.017   2.920   5.934  1.1370 -2.1850  1.5827
 1314SOL     OW15577   2.857   1.248   1.168  0.1387  0.4472  0.0360
 1314SOL    HW115578   2.925   1.193   1.209 -0.4521 -0.1271  0.2564
 1314SOL    HW215579   2.815   1.188   1.107  1.2522 -1.3587  1.0261
 1315SOL     OW15580   4.622   1.236   4.265 -0.5955  0.2469  0.8120
 1315SOL    HW115581   4.679   1.242   4.189 -2.0448  0.0395 -0.2833
 1315SOL    HW215582   4.607   1.141   4.269 -1.4375  0.3954  1.2621
 1316SOL     OW15583   0.445   0.035   8.392  0.3857 -0.5553 -0.0787
 1316SOL    HW115584   0.527   0.015   8.347  0.3171 -2.4241  0.6434
 1316SOL    HW215585   0.416   0.105   8.333  0.8903 -0.4582 -0.2132
 1317SOL     OW15586   0.559   2.092   4.546  0.2625 -0.2738  0.1521
 1317SOL    HW115587   0.589   2.015   4.497  1.5943 -0.3220  1.0296
 1317SOL    HW215588   0.494   2.048   4.600  1.4972  0.3079  2.1045
 1318SOL     OW15589   2.055   3.414  16.110  0.3665 -0.0231 -0.5103
 1318SOL    HW115590   2.009   3.497  16.125 -1.3157 -1.2847  1.4672
 1318SOL    HW215591   2.129   3.435  16.054 -0.0419  3.3381  0.2398
 1319SOL     OW15592   0.742   1.320   5.860 -0.2244 -0.2034  0.3606
 1319SOL    HW115593   0.806   1.375   5.816  0.2681 -1.6244 -0.7154
 1319SOL    HW215594   0.803   1.264   5.909  0.9300  0.8329  0.0831
 1320SOL     OW15595   3.384   4.309   0.847  0.5539  0.1958 -0.1177
 1320SOL    HW115596   3.338   4.240   0.896 -0.1996 -0.4193 -1.7113
 1320SOL    HW215597   3.317   4.337   0.786 -0.2413 -1.4126  0.0143
 1321SOL     OW15598   2.733   4.638  15.472 -0.3075  0.1223  0.0400
 1321SOL    HW115599   2.810   4.582  15.461 -2.6107 -2.7698 -1.2410
 1321SOL    HW215600   2.739   4.693  15.394 -1.4359 -1.6461 -1.3144
 1322SOL     OW15601   0.629   2.693   4.111 -0.5175 -0.0587 -0.2572
 1322SOL    HW115602   0.637   2.776   4.064  3.5587 -0.6633 -0.6811
 1322SOL    HW215603   0.534   2.680   4.111 -0.7241  1.5070 -1.5935
 1323SOL     OW15604   0.074   1.857   5.607 -0.1707  0.1193 -0.1539
 1323SOL    HW115605   4.717   1.834   5.609  0.1989 -1.1434  2.9950
 1323SOL    HW215606   0.090   1.879   5.515  2.1520 -0.1845  0.1567
 1324SOL     OW15607   3.302   4.638   4.348  0.0576  0.0715  0.0196
 1324SOL    HW115608   3.282   4.732   4.345  0.5894  0.2060  0.9346
 1324SOL    HW215609   3.295   4.620   4.441  1.2078 -1.8813 -0.2781
 1325SOL     OW15610   1.356   1.616   9.594 -0.8415 -0.0493  0.5429
 1325SOL    HW115611   1.347   1.585   9.504  1.7449  0.0294  0.2418
 1325SOL    HW215612   1.348   1.709   9.575 -2.5075 -0.5433 -1.1543
 1326SOL     OW15613   3.639   4.167  16.539  0.5652  0.1444  0.2925
 1326SOL    HW115614   3.608   4.100  16.600  0.7154 -1.1116 -1.0239
 1326SOL    HW215615   3.692   4.223  16.596 -1.6224 -0.1991  2.6883
 1327SOL     OW15616   1.118   2.456   1.089 -0.0018 -0.3347  0.1964
 1327SOL    HW115617   1.112   2.526   1.024 -0.3493 -1.4980 -1.0304
 1327SOL    HW215618   1.030   2.452   1.126  1.1405 -0.9259  2.8144
 1328SOL     OW15619   0.043   1.295  14.903 -0.1079  0.5701 -0.4563
 1328SOL    HW115620   0.045   1.385  14.934  0.3032  0.7623 -1.0496
 1328SOL    HW215621   4.724   1.298  14.824 -0.6191  0.8959 -0.0849
 1329SOL     OW15622   0.986   4.176   8.987 -0.0615  0.2634 -0.3449
 1329SOL    HW115623   1.061   4.194   8.929  0.8968 -0.1513  0.7736
 1329SOL    HW215624   0.939   4.259   8.983 -0.5217  0.0050 -0.2585
 1330SOL     OW15625   4.100   1.971   2.612  0.0370 -0.9230  0.7531
 1330SOL    HW115626   4.179   2.008   2.651 -0.8179  0.8719  0.7920
 1330SOL    HW215627   4.115   1.954   2.520  1.3383  0.3958  0.7225
 1331SOL     OW15628   1.876   1.693  14.927  0.2096  0.5913 -0.0414
 1331SOL    HW115629   1.786   1.679  14.956  0.5143  1.7410  1.5070
 1331SOL    HW215630   1.919   1.610  14.945 -1.1318  0.4571  2.5513
 1332SOL     OW15631   1.767   1.600   4.615 -0.4433  0.5404  0.6397
 1332SOL    HW115632   1.806   1.539   4.677  2.6630  2.2510  0.3459
 1332SOL    HW215633   1.679   1.606   4.652 -0.5579 -1.4449  0.6940
 1333SOL     OW15634   3.612   1.405   2.288 -0.2528  0.0923 -0.1451
 1333SOL    HW115635   3.616   1.497   2.262 -0.5025  0.5694  1.5025
 1333SOL    HW215636   3.705   1.384   2.280 -0.3487 -0.0478 -0.8691
 1334SOL     OW15637   3.805   1.333   5.190  0.0530 -0.0814  0.3161
 1334SOL    HW115638   3.827   1.385   5.268 -1.5282  1.5138 -0.2912
 1334SOL    HW215639   3.755   1.394   5.136  1.8119  0.3812 -0.7732
 1335SOL     OW15640   3.780   0.213  11.192 -0.0123  0.0523  0.0422
 1335SOL    HW115641   3.717   0.192  11.261 -1.0564  0.4082 -0.8234
 1335SOL    HW215642   3.857   0.167  11.226 -0.3983 -0.3132  0.4263
 1336SOL     OW15643   1.807   1.022  16.685  0.0925 -0.2771  0.1313
 1336SOL    HW115644   1.720   1.051  16.658  1.1203 -0.8212 -3.7985
 1336SOL    HW215645   1.814   0.931  16.656 -0.3117 -0.8390  1.7884
 1337SOL     OW15646   3.346   0.248   8.020 -0.1133  0.0510  0.7256
 1337SOL    HW115647   3.336   0.303   7.942  2.3581  2.9434  2.4740
 1337SOL    HW215648   3.311   0.315   8.079  0.7921  1.1794 -0.0278
 1338SOL     OW15649   3.518   4.563  15.750  0.0446 -0.4769  0.1161
 1338SOL    HW115650   3.612   4.575  15.763 -0.1454 -1.2505  2.3526
 1338SOL    HW215651   3.495   4.616  15.674  2.6744 -0.1907 -0.4887
 1339SOL     OW15652   1.966   0.266   7.297  0.2320  0.3071 -0.2028
 1339SOL    HW115653   2.008   0.351   7.283  1.2953 -0.5942 -2.4068
 1339SOL    HW215654   1.916   0.250   7.217 -0.7999 -0.6395  0.6371
 1340SOL     OW15655   1.351   1.526   8.669 -0.1126 -0.4386 -0.0856
 1340SOL    HW115656   1.423   1.480   8.711  0.6492  0.8085 -0.0394
 1340SOL    HW215657   1.382   1.616   8.671 -1.9625  0.1947  0.0648
 1341SOL     OW15658   4.001   3.910  10.121 -0.5009 -0.1235  0.0340
 1341SOL    HW115659   4.009   3.892  10.027 -1.2982  2.6893 -0.5534
 1341SOL    HW215660   4.087   3.939  10.152 -0.2651 -0.9105  0.1278
 1342SOL     OW15661   2.697   0.222   9.814 -0.8013 -0.3057 -0.1372
 1342SOL    HW115662   2.633   0.152   9.830 -1.6757  0.4191 -0.5450
 1342SOL    HW215663   2.730   0.202   9.726 -1.4709  0.0545 -0.4634
 1343SOL     OW15664   2.187   0.044   5.665  0.6546 -0.1534 -0.1387
 1343SOL    HW115665   2.118   4.714   5.668 -0.3494  0.9506  1.7222
 1343SOL    HW215666   2.212   0.047   5.758  0.2166  0.8803 -0.0509
 1344SOL     OW15667   4.332   1.827   6.624 -0.1432  0.5162 -0.0153
 1344SOL    HW115668   4.364   1.737   6.622  0.2370  0.6440  0.4588
 1344SOL    HW215669   4.255   1.816   6.680  0.7816 -0.4939  1.0425
 1345SOL     OW15670   2.353   0.203  14.491 -0.1814 -0.5968  0.3810
 1345SOL    HW115671   2.415   0.254  14.438  1.3244 -1.0152  1.7597
 1345SOL    HW215672   2.364   0.257  14.569  1.5155  0.0922 -0.3302
 1346SOL     OW15673   3.383   2.415   1.629 -0.7979 -0.2221 -0.1123
 1346SOL    HW115674   3.325   2.353   1.585 -1.3713  0.5749 -0.4765
 1346SOL    HW215675   3.362   2.396   1.720 -0.5627  1.1876  0.2400
 1347SOL     OW15676   1.385   2.986   3.941 -0.0983 -0.1967  0.1427
 1347SOL    HW115677   1.430   3.031   3.869  2.8884 -0.3400  1.9387
 1347SOL    HW215678   1.455   2.964   4.002 -0.4233  1.6135  1.1781
 1348SOL     OW15679   1.731   0.968   7.335  0.3446  0.3210  0.0920
 1348SOL    HW115680   1.647   0.933   7.305  1.0108 -0.1182 -1.2611
 1348SOL    HW215681   1.762   0.899   7.393 -1.8039  0.6834  1.6584
 1349SOL     OW15682   1.286   0.147  15.363  0.0558 -0.1728  0.4363
 1349SOL    HW115683   1.204   0.196  15.377  0.4597  0.5445  0.2597
 1349SOL    HW215684   1.336   0.166  15.443 -0.6589 -2.3472  1.3922
 1350SOL     OW15685   4.316   1.010   5.133 -0.1823  0.4133 -0.4608
 1350SOL    HW115686   4.244   0.957   5.100  1.2116 -1.6025 -0.2618
 1350SOL    HW215687   4.318   0.986   5.226  1.2087  1.3520 -0.2325
 1351SOL     OW15688   3.041   3.370   7.764 -0.0512 -0.0318 -0.1289
 1351SOL    HW115689   3.093   3.450   7.755  0.8388  0.0220  5.6380
 1351SOL    HW215690   2.949   3.398   7.765  0.3847  1.4334 -0.7418
 1352SOL     OW15691   0.576   2.496   3.879 -0.2984 -0.0280  0.1737
 1352SOL    HW115692   0.510   2.472   3.814 -2.1879  0.7917  1.7730
 1352SOL    HW215693   0.524   2.545   3.943 -0.5200  0.7861 -0.6413
 1353SOL     OW15694   2.984   0.224   5.939  0.1562 -0.1568 -0.2047
 1353SOL    HW115695   2.952   0.237   6.029  1.4361 -0.8448  0.3540
 1353SOL    HW215696   2.922   0.284   5.898 -0.1372 -0.2146  0.1506
 1354SOL     OW15697   3.920   1.649   6.121  0.0287 -0.1917  0.5279
 1354SOL    HW115698   3.979   1.697   6.179  0.4809 -0.7545  0.5411
 1354SOL    HW215699   3.982   1.635   6.050 -1.0665  2.2425 -0.8817
 1355SOL     OW15700   2.539   2.418  14.975  0.0716 -0.1725 -0.7373
 1355SOL    HW115701   2.495   2.341  15.011  1.8759 -1.1565 -0.6514
 1355SOL    HW215702   2.489   2.425  14.894  1.0489  3.8909 -1.0004
 1356SOL     OW15703   1.917   1.689   8.674 -0.0137  0.0228 -0.0950
 1356SOL    HW115704   1.949   1.650   8.755  0.4216 -0.8797 -0.7016
 1356SOL    HW215705   1.896   1.601   8.641  0.9895 -0.4859  0.6283
 1357SOL     OW15706   2.799   3.509   7.663 -0.0652 -0.0458  0.1641
 1357SOL    HW115707   2.794   3.604   7.662 -1.2920 -0.1163  0.3398
 1357SOL    HW215708   2.706   3.501   7.682 -0.3093  3.2945  0.2781
 1358SOL     OW15709   2.354   2.351  17.223 -0.1914  0.6045  0.2238
 1358SOL    HW115710   2.327   2.286  17.288 -1.5109  1.0314  0.1127
 1358SOL    HW215711   2.421   2.406  17.264  1.4409  0.5590 -2.3975
 1359SOL     OW15712   2.918   0.520  13.630 -0.0965 -0.0096  0.5129
 1359SOL    HW115713   2.869   0.530  13.548  0.6526 -1.8278 -0.1397
 1359SOL    HW215714   2.917   0.608  13.668  0.2186  0.3748 -0.3558
 1360SOL     OW15715   1.771   0.860   1.764 -0.1618  0.0680  1.2120
 1360SOL    HW115716   1.841   0.862   1.829 -0.1322  0.3378  1.1715
 1360SOL    HW215717   1.797   0.786   1.709  0.1449  1.4357 -0.5195
 1361SOL     OW15718   3.936   3.186   5.961 -0.0110  1.0926 -0.3001
 1361SOL    HW115719   4.008   3.148   5.911 -0.7393 -0.0239 -0.5185
 1361SOL    HW215720   3.970   3.268   5.997  0.8731  0.4924  0.2390
 1362SOL     OW15721   2.638   0.986   0.001 -0.1168 -0.4703 -0.0501
 1362SOL    HW115722   2.680   1.058   0.049 -1.6708 -2.0250  3.6345
 1362SOL    HW215723   2.614   1.028  17.661  0.3449  1.2864  0.7042
 1363SOL     OW15724   2.027   4.630   6.692  0.2426 -0.1160 -0.4074
 1363SOL    HW115725   2.074   4.582   6.761  2.5576  0.7715 -1.3703
 1363SOL    HW215726   1.941   4.645   6.731  1.0163 -0.9311  1.5979
 1364SOL     OW15727   3.857   2.415  10.864  0.0601  0.0652  0.2240
 1364SOL    HW115728   3.817   2.459  10.789  0.1423  1.7312  1.1533
 1364SOL    HW215729   3.806   2.449  10.937 -1.4534  0.0924 -0.8573
 1365SOL     OW15730   2.686   0.605   4.431  0.3796  0.4729 -0.1279
 1365SOL    HW115731   2.774   0.619   4.465  0.0582  1.8393  0.1646
 1365SOL    HW215732   2.640   0.608   4.516  0.6699 -0.6530  0.0614
 1366SOL     OW15733   0.089   1.644   4.761  0.1063 -0.4977 -0.0682
 1366SOL    HW115734   0.153   1.603   4.820 -0.2535 -0.1828  0.5313
 1366SOL    HW215735   0.120   1.614   4.676 -0.6000 -1.3543 -0.0244
 1367SOL     OW15736   2.450   4.523   5.217  0.1132  0.2151 -0.5592
 1367SOL    HW115737   2.359   4.549   5.211 -0.2138 -0.5180  1.1678
 1367SOL    HW215738   2.504   4.590   5.174  1.5176  0.1860  1.1184
 1368SOL     OW15739   1.888   3.016   5.921 -0.2572 -0.7227  0.1225
 1368SOL    HW115740   1.946   2.946   5.891  0.5268  0.3833 -0.9560
 1368SOL    HW215741   1.825   2.963   5.970 -1.3798 -0.3008 -0.8683
 1369SOL     OW15742   3.530   0.531   8.975  0.1835  0.8969  0.3534
 1369SOL    HW115743   3.569   0.535   9.062  0.9325 -1.0654  0.1093
 1369SOL    HW215744   3.476   0.609   8.985 -0.3251  0.7603 -1.2253
 1370SOL     OW15745   3.004   3.677   0.843  0.2905 -0.0977  0.4929
 1370SOL    HW115746   3.035   3.697   0.932 -1.6826  0.7691  0.9978
 1370SOL    HW215747   2.918   3.719   0.849  1.3272  2.0520  0.3180
 1371SOL     OW15748   2.719   0.094   1.813 -0.3879  0.5786  0.5996
 1371SOL    HW115749   2.753   0.111   1.900 -0.2270 -0.7248  0.7973
 1371SOL    HW215750   2.643   0.150   1.825 -1.0980 -0.1015 -0.5931
 1372SOL     OW15751   0.706   0.277   5.054  0.4077  0.6018 -0.0049
 1372SOL    HW115752   0.756   0.359   5.056  1.0145  0.2736 -1.5591
 1372SOL    HW215753   0.617   0.312   5.049 -0.3476 -1.2897  0.4168
 1373SOL     OW15754   1.932   1.746  16.483 -0.0912 -0.1298  0.5020
 1373SOL    HW115755   1.920   1.656  16.452  1.2740  0.0895 -0.6785
 1373SOL    HW215756   1.887   1.796  16.415 -1.1137 -0.9192  0.5933
 1374SOL     OW15757   2.353   3.033   7.790  0.5713 -0.5366 -0.0689
 1374SOL    HW115758   2.405   3.111   7.809 -1.0758  0.1649  1.5583
 1374SOL    HW215759   2.279   3.043   7.850  1.0707 -0.2556  0.4995
 1375SOL     OW15760   2.375   1.495   0.108 -0.3397  0.1947  0.1409
 1375SOL    HW115761   2.298   1.527   0.062 -0.5140 -0.6473 -0.1615
 1375SOL    HW215762   2.445   1.499   0.043  0.6038  1.3248  1.2350
 1376SOL     OW15763   1.774   3.433   4.261 -0.3140  0.2160 -0.1696
 1376SOL    HW115764   1.687   3.472   4.248 -1.9322 -2.8806  1.3511
 1376SOL    HW215765   1.828   3.507   4.287 -1.4440  0.8024  0.5128
 1377SOL     OW15766   2.385   0.652   6.696 -0.7062  0.3542  0.0995
 1377SOL    HW115767   2.375   0.666   6.790 -1.5703  0.3847 -0.0022
 1377SOL    HW215768   2.310   0.692   6.654 -0.3202 -0.0139 -0.9456
 1378SOL     OW15769   3.199   4.066  10.176 -0.2617  0.3345  0.8322
 1378SOL    HW115770   3.182   4.145  10.228 -2.1120 -0.1684  1.0171
 1378SOL    HW215771   3.128   4.010  10.208  2.2996 -3.0969  0.4507
 1379SOL     OW15772   0.508   1.190   0.030 -0.5558 -0.5044  0.0596
 1379SOL    HW115773   0.488   1.273   0.074  0.1800 -0.3352  0.0678
 1379SOL    HW215774   0.516   1.220  17.683 -0.4313 -0.5699  0.0484
 1380SOL     OW15775   1.539   4.221   8.791  0.3941 -0.0497 -0.0745
 1380SOL    HW115776   1.512   4.306   8.755  0.5568  0.1124  0.1855
 1380SOL    HW215777   1.461   4.166   8.783  0.3447  0.1523 -0.9662
 1381SOL     OW15778   2.006   1.407   7.085  0.0497  0.3797 -0.5070
 1381SOL    HW115779   1.977   1.347   7.017 -2.9532 -0.4852  1.5330
 1381SOL    HW215780   1.933   1.468   7.080 -1.2793 -1.1687  0.2056
 1382SOL     OW15781   1.209   2.510   7.540  0.3150  0.1214 -0.3164
 1382SOL    HW115782   1.227   2.438   7.600  1.4004  0.9037  0.2947
 1382SOL    HW215783   1.116   2.500   7.521  0.0309  1.6720  0.2001
 1383SOL     OW15784   0.563   2.427   2.067 -0.0254  0.4980 -0.1420
 1383SOL    HW115785   0.486   2.441   2.123 -0.9032  3.6563 -2.1887
 1383SOL    HW215786   0.604   2.513   2.070  0.4169  0.2342  1.7395
 1384SOL     OW15787   3.470   2.509  11.741  0.1646  0.3218  0.3044
 1384SOL    HW115788   3.463   2.574  11.811  2.4568 -1.2919  2.0720
 1384SOL    HW215789   3.442   2.431  11.790  0.8744 -0.2426 -0.1823
 1385SOL     OW15790   1.785   1.588   7.205  0.0609  0.4469 -0.2239
 1385SOL    HW115791   1.817   1.609   7.293 -1.5449 -0.8882  0.6903
 1385SOL    HW215792   1.727   1.513   7.222  0.4289  0.6534  1.8899
 1386SOL     OW15793   4.592   1.039   4.625  0.1742  0.0389  0.0769
 1386SOL    HW115794   4.521   1.030   4.561 -0.6777  1.3135  0.8578
 1386SOL    HW215795   4.551   1.008   4.705 -0.2939 -0.3212 -0.3026
 1387SOL     OW15796   1.604   0.700   4.404 -0.4287 -0.0370 -0.3270
 1387SOL    HW115797   1.547   0.719   4.479 -0.4308 -0.7744 -0.1349
 1387SOL    HW215798   1.652   0.620   4.428 -0.1403  0.5098  0.9249
 1388SOL     OW15799   2.020   0.476   9.737 -0.0962  0.6898  0.3453
 1388SOL    HW115800   2.110   0.489   9.766  0.4919 -0.2242 -1.0786
 1388SOL    HW215801   2.021   0.509   9.647 -0.3792 -1.6455 -0.5142
 1389SOL     OW15802   4.431   4.646   7.890  0.2898  0.0110 -0.4978
 1389SOL    HW115803   4.441   4.733   7.853  0.6027  0.7179  1.2213
 1389SOL    HW215804   4.376   4.604   7.824 -0.1894  1.4957 -1.0356
 1390SOL     OW15805   1.012   0.459   6.315 -0.1737 -0.0168 -0.4173
 1390SOL    HW115806   1.082   0.400   6.287  0.4043  1.6304 -2.3943
 1390SOL    HW215807   0.989   0.500   6.232  0.2254  2.1813  0.5776
 1391SOL     OW15808   3.657   0.292   5.931  0.2519 -0.6964 -0.8499
 1391SOL    HW115809   3.652   0.359   5.862  0.7369  1.0763  0.8246
 1391SOL    HW215810   3.712   0.329   6.001 -1.5222  0.0036  0.1652
 1392SOL     OW15811   3.645   2.575  11.515 -0.4088 -0.0492  0.0072
 1392SOL    HW115812   3.598   2.566  11.598 -1.2025 -1.6629 -0.6262
 1392SOL    HW215813   3.730   2.532  11.521 -0.0199  1.0022  1.9476
 1393SOL     OW15814   1.190   1.298   2.000 -0.1354 -0.0507  0.2575
 1393SOL    HW115815   1.256   1.349   1.953 -0.1572  0.5998  0.9415
 1393SOL    HW215816   1.175   1.337   2.086 -0.2831 -0.9860  0.6479
 1394SOL     OW15817   0.260   0.794   9.089  0.2440 -0.4444 -0.5995
 1394SOL    HW115818   0.355   0.790   9.105 -0.0854  1.3385  1.8006
 1394SOL    HW215819   0.252   0.879   9.045 -2.2206 -1.2215 -1.5736
 1395SOL     OW15820   1.384   2.232  12.731 -0.0590 -0.3559  0.0949
 1395SOL    HW115821   1.432   2.208  12.652  1.0478  0.6868  0.4482
 1395SOL    HW215822   1.443   2.298  12.768  0.3602 -0.6947  0.0337
 1396SOL     OW15823   2.064   2.107   8.429 -0.1608 -0.2219  0.3952
 1396SOL    HW115824   2.066   2.027   8.482  0.5554  1.9276  3.5743
 1396SOL    HW215825   2.036   2.175   8.490 -2.7265  0.7845 -1.8995
 1397SOL     OW15826   0.414   3.644   0.599 -0.3532  0.0445 -0.0188
 1397SOL    HW115827   0.375   3.647   0.686  0.1438 -1.7502  0.2617
 1397SOL    HW215828   0.505   3.656   0.626 -0.8450  0.3490  1.5062
 1398SOL     OW15829   1.847   1.320   5.596 -0.3276 -0.2571  0.1410
 1398SOL    HW115830   1.832   1.315   5.690  1.8487 -4.8365  0.2637
 1398SOL    HW215831   1.765   1.317   5.547  2.1437  0.8857 -4.0762
 1399SOL     OW15832   4.134   4.537  13.270 -0.6389 -0.2095 -0.0294
 1399SOL    HW115833   4.157   4.519  13.361  0.6450 -0.4043 -0.3936
 1399SOL    HW215834   4.064   4.598  13.291 -0.0103  0.5012  0.0096
 1400SOL     OW15835   3.308   0.804   9.270 -0.0220  0.3072 -0.2351
 1400SOL    HW115836   3.390   0.851   9.283 -0.0508 -0.2144  1.9514
 1400SOL    HW215837   3.324   0.740   9.339  1.0654 -0.6739 -1.3961
 1401SOL     OW15838   1.757   1.724   9.606  0.0491  0.0280  0.4993
 1401SOL    HW115839   1.703   1.651   9.635  1.4082 -0.6080  1.3982
 1401SOL    HW215840   1.753   1.784   9.681  0.1440 -1.0091  1.3224
 1402SOL     OW15841   4.002   4.584   2.893  0.4546 -0.5694 -0.1602
 1402SOL    HW115842   3.920   4.544   2.865 -0.4752  0.4592  1.1049
 1402SOL    HW215843   4.025   4.607   2.803  0.9238 -1.7258 -0.3381
 1403SOL     OW15844   4.237   2.690   2.738  0.0035 -0.3014 -0.7413
 1403SOL    HW115845   4.174   2.715   2.806 -1.4531 -1.7877 -1.5588
 1403SOL    HW215846   4.190   2.727   2.663 -1.3606 -0.2642  0.1366
 1404SOL     OW15847   1.701   4.466   6.645 -0.2010  0.0881  0.0181
 1404SOL    HW115848   1.670   4.380   6.617 -0.7562  0.1696  0.3933
 1404SOL    HW215849   1.705   4.522   6.567  1.2182  1.1300  0.8360
 1405SOL     OW15850   4.387   3.476   9.167 -0.8725 -0.2187  0.7917
 1405SOL    HW115851   4.300   3.514   9.174 -1.2765 -0.6642 -2.0200
 1405SOL    HW215852   4.428   3.539   9.107 -0.1888 -0.6265  0.8295
 1406SOL     OW15853   2.931   3.533   3.808 -0.5250 -0.3053  0.1509
 1406SOL    HW115854   2.934   3.586   3.887  0.2579  3.4554 -2.3957
 1406SOL    HW215855   2.884   3.457   3.841  0.8380 -0.7610  1.0450
 1407SOL     OW15856   0.853   3.913   2.715 -0.4614 -0.1054 -0.2243
 1407SOL    HW115857   0.767   3.873   2.704 -0.4165 -0.8930  2.2150
 1407SOL    HW215858   0.887   3.928   2.627  0.6747 -0.7529  0.0936
 1408SOL     OW15859   3.245   2.379  14.068 -0.1418 -0.0893  0.0426
 1408SOL    HW115860   3.165   2.333  14.095 -1.2046  1.4308 -0.4583
 1408SOL    HW215861   3.289   2.306  14.025  1.0878  1.2224 -0.9056
 1409SOL     OW15862   2.672   2.153   7.055 -0.0444 -0.3546 -0.2707
 1409SOL    HW115863   2.579   2.149   7.075 -0.0427  0.2421 -0.1578
 1409SOL    HW215864   2.707   2.073   7.095 -0.2232  0.0703  0.7412
 1410SOL     OW15865   3.834   1.671  15.913  0.0891 -0.6010 -0.4650
 1410SOL    HW115866   3.815   1.672  16.007  0.5862  2.9161 -0.3921
 1410SOL    HW215867   3.848   1.765  15.897 -0.1028 -0.1438  2.0519
 1411SOL     OW15868   1.431   3.470   3.692 -0.2896  0.4981  0.0031
 1411SOL    HW115869   1.430   3.451   3.598 -2.0038  3.6798 -0.6421
 1411SOL    HW215870   1.520   3.452   3.720 -0.5968  1.2919  1.4956
 1412SOL     OW15871   2.762   2.658   5.851 -0.2553  0.4427 -0.0795
 1412SOL    HW115872   2.766   2.700   5.766 -0.2674  0.5512 -0.0257
 1412SOL    HW215873   2.856   2.655   5.868 -0.7888  3.2647  3.3824
 1413SOL     OW15874   4.139   0.969  11.516 -0.0525 -0.4044 -0.2692
 1413SOL    HW115875   4.097   0.944  11.598 -0.4988  0.4555 -0.2302
 1413SOL    HW215876   4.204   0.903  11.489  0.4364 -0.2156  0.4713
 1414SOL     OW15877   1.439   0.636  10.392 -0.5881  0.2368  0.7439
 1414SOL    HW115878   1.409   0.591  10.471  1.2287 -1.6206  0.3758
 1414SOL    HW215879   1.500   0.574  10.352 -0.9961  0.5019 -0.3016
 1415SOL     OW15880   2.294   4.700   8.457 -0.0141  0.5664 -0.0720
 1415SOL    HW115881   2.261   0.022   8.526  0.1645  1.0116 -0.3611
 1415SOL    HW215882   2.366   0.008   8.411 -0.5019  0.4333 -0.9538
 1416SOL     OW15883   4.498   2.650   2.068  0.1972  0.5437  0.0529
 1416SOL    HW115884   4.492   2.594   2.146  1.7973  1.6553  0.9599
 1416SOL    HW215885   4.548   2.592   2.011 -1.0800 -2.3724  1.8594
 1417SOL     OW15886   2.589   1.305  16.280 -0.1559 -0.0350 -0.2583
 1417SOL    HW115887   2.506   1.344  16.253  0.9583  4.6877  3.1883
 1417SOL    HW215888   2.563   1.213  16.276 -2.4784  0.5354  2.2771
 1418SOL     OW15889   3.016   0.516   7.044 -0.1734 -0.1715  0.6324
 1418SOL    HW115890   3.034   0.424   7.026  1.5697  0.8969 -2.9697
 1418SOL    HW215891   3.106   0.536   7.071 -1.2111  2.6208  2.1030
 1419SOL     OW15892   2.862   0.942   5.154  0.1544  0.5287 -0.1772
 1419SOL    HW115893   2.792   0.990   5.197  0.8448  0.4909  0.9815
 1419SOL    HW215894   2.826   0.853   5.156 -1.0586  1.0550  1.6257
 1420SOL     OW15895   3.309   3.484   3.355  0.1968 -0.0103  0.0411
 1420SOL    HW115896   3.254   3.442   3.289 -1.6277 -0.8577  2.1068
 1420SOL    HW215897   3.337   3.409   3.409  3.2131  0.3063 -1.0645
 1421SOL     OW15898   4.046   4.543   4.237  0.0897  0.1700  0.5802
 1421SOL    HW115899   4.080   4.626   4.206 -1.1044  0.0619 -1.0038
 1421SOL    HW215900   3.997   4.565   4.316  0.7709 -0.4292  1.1665
 1422SOL     OW15901   0.618   3.045   0.877  0.6004  0.3701  0.0438
 1422SOL    HW115902   0.684   2.980   0.900 -0.6429 -1.2162 -0.8376
 1422SOL    HW215903   0.573   3.057   0.961  0.6966 -2.4491  0.4876
 1423SOL     OW15904   0.361   2.666   0.450 -0.5473  0.2533  0.0635
 1423SOL    HW115905   0.296   2.735   0.442  0.1340  0.9599  0.5802
 1423SOL    HW215906   0.422   2.702   0.514  0.4688  0.8911 -1.2487
 1424SOL     OW15907   0.168   1.586   7.913  0.5074  0.5210  0.1341
 1424SOL    HW115908   0.211   1.575   7.828 -0.6738  0.9877 -0.5214
 1424SOL    HW215909   0.228   1.651   7.949 -0.1034  0.7517  0.7416
 1425SOL     OW15910   4.724   2.588   2.995 -0.2264 -0.2505  0.0775
 1425SOL    HW115911   0.079   2.589   2.965 -0.1706  0.1511  0.2708
 1425SOL    HW215912   4.720   2.494   3.014 -0.3007 -0.0504  1.0541
 1426SOL     OW15913   0.463   0.166   6.923 -0.5811 -0.1198 -0.1113
 1426SOL    HW115914   0.417   0.183   6.841 -0.6112  0.5756  0.0448
 1426SOL    HW215915   0.467   0.071   6.926  0.1831 -0.1831 -2.9544
 1427SOL     OW15916   4.343   3.928   4.869 -0.0315 -0.0346  0.1516
 1427SOL    HW115917   4.432   3.917   4.901  0.2202 -4.5256 -1.9982
 1427SOL    HW215918   4.290   3.884   4.935  1.1110 -0.5512  0.7274
 1428SOL     OW15919   0.321   3.330  15.182 -0.3284  0.2019 -0.3835
 1428SOL    HW115920   0.337   3.418  15.216  1.8605 -0.1100 -0.6020
 1428SOL    HW215921   0.256   3.304  15.246  0.9186 -2.1031 -0.0793
 1429SOL     OW15922   2.752   3.183   6.607 -0.3927  0.7476 -0.6710
 1429SOL    HW115923   2.778   3.212   6.519 -1.2258 -0.3184 -1.2571
 1429SOL    HW215924   2.716   3.263   6.646  1.4606  0.8253  0.8891
 1430SOL     OW15925   2.858   1.995  14.287 -0.2168 -0.0067  0.1933
 1430SOL    HW115926   2.882   1.946  14.366  1.3236 -0.1954 -0.3935
 1430SOL    HW215927   2.768   2.013  14.313 -0.1066  0.6771  0.1250
 1431SOL     OW15928   0.189   3.220   6.647 -0.3577 -0.0418 -0.0055
 1431SOL    HW115929   0.244   3.143   6.633  0.6455  0.2231  2.5025
 1431SOL    HW215930   0.168   3.249   6.558 -0.3398  2.8837  0.9333
 1432SOL     OW15931   1.812   0.264  13.510  0.5116  0.1603  0.1146
 1432SOL    HW115932   1.854   0.307  13.436 -1.3153  2.4603  0.3929
 1432SOL    HW215933   1.718   0.285  13.507  0.0564 -1.5614  2.0658
 1433SOL     OW15934   3.944   1.729   9.053  0.0216 -0.2641 -0.1562
 1433SOL    HW115935   4.028   1.682   9.059  1.6836  2.4106 -2.6710
 1433SOL    HW215936   3.935   1.714   8.959 -1.3950 -0.6923  0.0565
 1434SOL     OW15937   2.988   2.604   1.243 -0.4101  0.0626  0.0171
 1434SOL    HW115938   3.073   2.648   1.236  0.1714 -0.9455  0.6804
 1434SOL    HW215939   2.929   2.679   1.244 -0.2799  0.1843 -1.2982
 1435SOL     OW15940   3.682   1.591   5.916 -0.7230 -0.2866 -0.9411
 1435SOL    HW115941   3.701   1.584   5.822  1.3681  0.0039 -0.5493
 1435SOL    HW215942   3.761   1.560   5.961 -0.5876  1.7015  0.2158
 1436SOL     OW15943   0.551   4.625   5.723  0.4231  0.1291  0.3094
 1436SOL    HW115944   0.547   4.539   5.681  1.2915 -0.2370  0.9872
 1436SOL    HW215945   0.638   4.625   5.763  0.0114 -1.6471  1.2097
 1437SOL     OW15946   1.337   1.325   6.605 -0.0772  0.4578 -0.3679
 1437SOL    HW115947   1.288   1.303   6.526  1.7027  1.0474 -1.6500
 1437SOL    HW215948   1.308   1.410   6.638 -1.0064  0.0913 -0.2586
 1438SOL     OW15949   4.643   2.097   2.497  0.1228  0.2813  0.0794
 1438SOL    HW115950   4.643   2.141   2.412 -1.8880 -2.0076 -1.0847
 1438SOL    HW215951   4.728   2.054   2.505 -0.7358 -0.8222  3.3117
 1439SOL     OW15952   4.699   3.130   5.208 -0.1596  0.0208 -0.2341
 1439SOL    HW115953   0.013   3.126   5.290 -2.2931 -1.7022  0.9814
 1439SOL    HW215954   4.625   3.189   5.224 -1.0955 -1.0141 -0.7755
 1440SOL     OW15955   4.293   3.916  13.288 -0.5225  0.4042  0.6520
 1440SOL    HW115956   4.238   3.892  13.213  0.7442 -1.1962  0.2423
 1440SOL    HW215957   4.371   3.939  13.238  1.3826 -2.5228  2.3228
 1441SOL     OW15958   2.098   4.112   6.443 -0.6548 -0.6866  0.1412
 1441SOL    HW115959   2.111   4.187   6.500 -0.4534  0.8763 -1.9779
 1441SOL    HW215960   2.062   4.050   6.506  0.6510 -0.1405  1.4128
 1442SOL     OW15961   0.621   4.077   2.279  0.0485  0.0827 -0.4542
 1442SOL    HW115962   0.607   4.168   2.306 -0.1716 -0.2267  0.4625
 1442SOL    HW215963   0.610   4.083   2.184 -1.0583  0.5979 -0.2932
 1443SOL     OW15964   2.852   3.575   5.644 -0.2537  0.7014 -0.4937
 1443SOL    HW115965   2.763   3.595   5.673  0.1556 -0.9887  1.9399
 1443SOL    HW215966   2.861   3.486   5.677  1.8315  0.8606 -0.6495
 1444SOL     OW15967   4.636   2.999   6.205 -0.2899 -0.7825 -0.2018
 1444SOL    HW115968   4.556   2.995   6.257  0.1203 -2.1245  0.3265
 1444SOL    HW215969   4.701   2.947   6.253 -1.5925 -2.3550 -0.1302
 1445SOL     OW15970   3.479   1.016   3.789  0.4269  0.0933  0.3295
 1445SOL    HW115971   3.415   1.085   3.771  0.3639  0.0361  0.3333
 1445SOL    HW215972   3.502   1.025   3.881 -0.7155 -1.4337  0.7745
 1446SOL     OW15973   1.898   3.605  16.229  0.1843  0.1199 -0.2973
 1446SOL    HW115974   1.930   3.695  16.236  0.0640  0.3138 -2.1883
 1446SOL    HW215975   1.806   3.630  16.221 -0.0663 -0.5339  0.6288
 1447SOL     OW15976   3.988   4.187  13.423 -0.4605 -0.0595 -0.4065
 1447SOL    HW115977   3.914   4.185  13.362 -0.5650 -1.9518 -0.2036
 1447SOL    HW215978   4.060   4.214  13.366 -0.3116  0.3870 -0.0095
 1448SOL     OW15979   0.583   1.829   8.680 -0.6517  0.4819  0.1553
 1448SOL    HW115980   0.638   1.779   8.620  0.4456  0.9206  0.7941
 1448SOL    HW215981   0.643   1.877   8.737  1.3271  1.7231 -2.9780
 1449SOL     OW15982   4.629   1.283   7.853  0.2171  0.1039  0.3280
 1449SOL    HW115983   4.550   1.230   7.861 -0.5502  1.3894  1.2223
 1449SOL    HW215984   4.658   1.247   7.769 -1.9538 -0.3833 -0.2115
 1450SOL     OW15985   0.564   3.749   4.501  0.3042 -0.4852 -0.4315
 1450SOL    HW115986   0.519   3.833   4.488 -1.5141 -1.6288 -1.3265
 1450SOL    HW215987   0.646   3.794   4.525 -0.3694 -0.3866  1.7169
 1451SOL     OW15988   3.679   0.933   7.433 -0.6483  0.1101  0.0919
 1451SOL    HW115989   3.615   1.005   7.433 -2.0016 -1.1028  1.9245
 1451SOL    HW215990   3.750   0.996   7.421  0.0090 -0.5637  0.4364
 1452SOL     OW15991   2.632   0.480  16.657 -0.1811  0.2096  0.0664
 1452SOL    HW115992   2.704   0.418  16.673 -0.9589 -0.0854  2.4344
 1452SOL    HW215993   2.673   0.558  16.694  0.9149  1.1655 -3.1993
 1453SOL     OW15994   2.395   0.870   7.682  0.4142  0.5512 -1.0365
 1453SOL    HW115995   2.454   0.808   7.726 -0.3804  0.0949 -0.6043
 1453SOL    HW215996   2.448   0.906   7.611 -0.8414 -2.0496 -3.2860
 1454SOL     OW15997   2.183   0.271  13.031  0.3415 -0.1991  0.7473
 1454SOL    HW115998   2.215   0.258  13.120  2.1698 -1.3487 -0.0653
 1454SOL    HW215999   2.112   0.334  13.043  0.3756  0.0143 -0.2067
 1455SOL     OW16000   4.122   2.464   5.021 -0.0517  0.1158 -0.7395
 1455SOL    HW116001   4.077   2.451   4.938  0.3101 -0.8468 -0.7910
 1455SOL    HW216002   4.214   2.461   4.996  0.0289  1.4713 -0.5928
 1456SOL     OW16003   2.457   1.344   1.857 -0.0226  0.0285  0.4673
 1456SOL    HW116004   2.427   1.410   1.793 -1.0556  0.7885  1.7338
 1456SOL    HW216005   2.512   1.401   1.911  1.2757 -1.2078  0.4356
 1457SOL     OW16006   3.311   1.508  15.927  0.1911 -0.2479  0.5550
 1457SOL    HW116007   3.380   1.505  15.993  1.0712 -0.7571 -0.3882
 1457SOL    HW216008   3.240   1.539  15.983  0.7503 -0.0714  1.1554
 1458SOL     OW16009   2.696   0.759   0.367  0.0186  0.3708  0.4455
 1458SOL    HW116010   2.654   0.701   0.303 -1.4512  0.3325  1.4641
 1458SOL    HW216011   2.727   0.691   0.426  0.4309  1.3976  1.4135
 1459SOL     OW16012   2.098   0.221   9.546  0.3145  0.2402 -0.1101
 1459SOL    HW116013   2.014   0.251   9.512  0.2177 -0.5566 -0.5902
 1459SOL    HW216014   2.113   0.146   9.488 -0.7152 -0.1457  0.1355
 1460SOL     OW16015   4.707   2.651   8.746  0.2803 -0.3322  0.5939
 1460SOL    HW116016   4.698   2.679   8.837  1.0299  0.5003  0.4174
 1460SOL    HW216017   0.048   2.595   8.754 -1.1522 -2.2967  0.6437
 1461SOL     OW16018   1.281   2.060   7.728 -0.2231  0.3656  0.0987
 1461SOL    HW116019   1.216   2.029   7.791 -2.5360 -1.2395 -3.0908
 1461SOL    HW216020   1.361   2.064   7.780  0.6115  0.0878 -1.1717
 1462SOL     OW16021   2.208   1.888   5.134 -0.2804 -0.1212  0.6514
 1462SOL    HW116022   2.160   1.919   5.212  2.2441  0.5579  1.9277
 1462SOL    HW216023   2.258   1.962   5.099 -2.1331 -0.0843 -1.9197
 1463SOL     OW16024   4.284   3.903   9.986 -0.4177  0.3787  0.3609
 1463SOL    HW116025   4.256   3.840   9.921  0.0483  0.5682 -0.0237
 1463SOL    HW216026   4.308   3.971   9.923 -0.5417 -0.5503 -0.6838
 1464SOL     OW16027   0.552   2.174  15.103 -0.0938  0.6901  0.0772
 1464SOL    HW116028   0.641   2.166  15.137  1.1340  1.6851 -2.9577
 1464SOL    HW216029   0.530   2.084  15.129  1.6576 -0.1867 -1.4976
 1465SOL     OW16030   1.299   0.193   1.168  0.5779  0.4037 -0.4029
 1465SOL    HW116031   1.279   0.254   1.097 -0.1290  0.0932 -0.4732
 1465SOL    HW216032   1.361   0.248   1.217  0.2100  0.3918  0.0792
 1466SOL     OW16033   1.311   1.246   7.860  0.9003  0.2465 -0.1282
 1466SOL    HW116034   1.286   1.273   7.949 -0.4458 -2.2916  0.2472
 1466SOL    HW216035   1.250   1.176   7.836  2.9002 -1.4768 -0.1556
 1467SOL     OW16036   1.617   1.628   1.942  0.5538 -0.4614 -0.5465
 1467SOL    HW116037   1.668   1.575   2.003 -0.2893  0.4500  0.9509
 1467SOL    HW216038   1.628   1.719   1.970  1.8924 -0.9324  0.4559
 1468SOL     OW16039   4.346   1.307   8.770  1.0472  0.8352 -0.0826
 1468SOL    HW116040   4.387   1.394   8.772  2.9438 -0.0432 -1.5888
 1468SOL    HW216041   4.418   1.251   8.799  0.2580 -0.8242 -1.3501
 1469SOL     OW16042   0.776   4.338   4.314  0.0381  0.2772 -0.1138
 1469SOL    HW116043   0.699   4.369   4.361 -0.9371  1.0106 -2.1923
 1469SOL    HW216044   0.751   4.319   4.224 -2.0450 -1.1448  0.7934
 1470SOL     OW16045   1.980   2.629  10.234  0.5326 -0.7600 -0.3181
 1470SOL    HW116046   2.039   2.702  10.253  0.4869 -0.9544  0.5977
 1470SOL    HW216047   2.040   2.557  10.217  1.5647 -0.3418  1.5704
 1471SOL     OW16048   3.273   4.189  14.940  0.1247 -0.1391  0.4882
 1471SOL    HW116049   3.195   4.138  14.914  0.9283 -0.7344 -0.7832
 1471SOL    HW216050   3.296   4.249  14.869  1.2385 -0.6094  0.4497
 1472SOL     OW16051   4.460   0.014   4.952  0.3417 -0.5894 -0.2836
 1472SOL    HW116052   4.505   4.691   5.012  0.5987 -1.4549 -1.3215
 1472SOL    HW216053   4.500   0.098   4.974  0.3346 -0.8656  0.7568
 1473SOL     OW16054   1.904   4.039   9.565 -0.4188  0.2658  0.1408
 1473SOL    HW116055   1.905   4.133   9.584  1.7374 -0.0160  1.3778
 1473SOL    HW216056   1.837   4.032   9.497 -0.4322 -0.6715  0.2496
 1474SOL     OW16057   0.458   1.059  13.770 -0.1160 -0.7571  0.0886
 1474SOL    HW116058   0.485   1.017  13.688 -1.3266  0.1028 -0.7668
 1474SOL    HW216059   0.363   1.071  13.757 -0.2181 -0.2587  1.3718
 1475SOL     OW16060   2.494   1.046   2.058  0.1625 -0.5654 -0.1225
 1475SOL    HW116061   2.521   1.097   2.134 -0.9571 -0.3280  0.1144
 1475SOL    HW216062   2.424   1.102   2.025  0.0003 -0.7618 -0.1112
 1476SOL     OW16063   4.143   3.802   4.420 -0.1162 -0.2386 -0.1651
 1476SOL    HW116064   4.237   3.802   4.401 -0.3336 -0.0738 -1.2137
 1476SOL    HW216065   4.128   3.707   4.419  2.2599 -0.5894 -2.4062
 1477SOL     OW16066   1.517   4.433   7.452  0.5249 -0.1617  0.2250
 1477SOL    HW116067   1.563   4.419   7.535  0.2926 -2.1888  0.0039
 1477SOL    HW216068   1.461   4.356   7.446  0.1740  0.3440 -2.8049
 1478SOL     OW16069   3.582   2.439   9.854  0.0676 -0.2836 -0.1591
 1478SOL    HW116070   3.603   2.354   9.815 -0.6872  0.0731 -1.3161
 1478SOL    HW216071   3.488   2.427   9.869  0.2511  0.7597  1.9486
 1479SOL     OW16072   3.553   2.728   4.865 -0.0013 -0.2933  0.1486
 1479SOL    HW116073   3.641   2.759   4.842 -0.5020 -0.0589 -1.4153
 1479SOL    HW216074   3.522   2.794   4.927 -0.7593  0.7451 -1.3530
 1480SOL     OW16075   2.614   2.682  17.047  0.1804  0.5010  0.1626
 1480SOL    HW116076   2.519   2.675  17.039  0.5131 -1.8416 -1.6099
 1480SOL    HW216077   2.617   2.774  17.018  0.1248 -0.1318 -1.8546
 1481SOL     OW16078   3.392   4.217   8.528 -0.1809 -0.1754  0.2100
 1481SOL    HW116079   3.353   4.172   8.603  0.7797 -2.1283 -0.4528
 1481SOL    HW216080   3.393   4.308   8.559 -1.5205  0.5297 -1.8426
 1482SOL     OW16081   3.344   1.537   3.901  0.1706 -0.2832 -0.7292
 1482SOL    HW116082   3.403   1.610   3.884 -0.0481 -0.4559 -2.2426
 1482SOL    HW216083   3.355   1.550   3.995  0.3832  0.9560 -0.9307
 1483SOL     OW16084   3.664   0.378   3.407 -0.7691 -0.2706 -0.2519
 1483SOL    HW116085   3.741   0.432   3.424 -0.3690 -0.9700  0.1475
 1483SOL    HW216086   3.675   0.358   3.314 -1.4883  0.3393 -0.4750
 1484SOL     OW16087   3.212   4.353   6.436 -0.2948 -0.4032  0.0661
 1484SOL    HW116088   3.206   4.278   6.495  0.9781 -0.8143 -0.3215
 1484SOL    HW216089   3.165   4.414   6.492 -1.1781 -0.1941 -0.8888
 1485SOL     OW16090   0.374   4.196   5.390  0.6440  0.0707  0.4037
 1485SOL    HW116091   0.450   4.181   5.334 -0.4581 -2.0796 -0.5286
 1485SOL    HW216092   0.317   4.229   5.321 -1.6693 -2.0326  1.2941
 1486SOL     OW16093   2.479   0.144  11.866 -0.0627  0.1633 -0.5920
 1486SOL    HW116094   2.474   0.049  11.868 -1.2732  0.2470  0.2784
 1486SOL    HW216095   2.430   0.159  11.785 -0.1803 -1.4034 -0.7963
 1487SOL     OW16096   2.331   2.789   5.868 -0.4166  0.2607 -0.1612
 1487SOL    HW116097   2.353   2.752   5.953  0.2963  1.2696  0.0896
 1487SOL    HW216098   2.342   2.713   5.811 -0.9754  0.8219 -1.0310
 1488SOL     OW16099   3.871   3.806   1.756  0.6157  0.0612  0.7164
 1488SOL    HW116100   3.925   3.867   1.706  2.4312 -1.2129  1.0960
 1488SOL    HW216101   3.936   3.765   1.813  0.3451 -0.9166  0.3199
 1489SOL     OW16102   0.814   4.608  17.319 -0.4931 -0.5566  0.2380
 1489SOL    HW116103   0.792   4.582  17.229 -2.7711 -0.1851  0.7027
 1489SOL    HW216104   0.809   4.527  17.368 -2.8102 -0.5532 -0.0088
 1490SOL     OW16105   2.199   3.614   7.477  0.3892 -0.2655  0.3579
 1490SOL    HW116106   2.156   3.547   7.424  2.0273 -1.9220  1.1180
 1490SOL    HW216107   2.286   3.604   7.439  0.5503 -1.4593  1.0198
 1491SOL     OW16108   1.489   3.460   4.191 -0.8504 -0.3258 -0.4842
 1491SOL    HW116109   1.397   3.434   4.197 -0.6469 -0.8959  0.2171
 1491SOL    HW216110   1.492   3.534   4.131  1.0338  1.7261  2.1190
 1492SOL     OW16111   2.251   0.531   9.391  0.7029  0.1245 -0.1349
 1492SOL    HW116112   2.330   0.579   9.366 -0.0968 -0.2721 -3.3697
 1492SOL    HW216113   2.289   0.451   9.427  1.1380  0.4273  0.0786
 1493SOL     OW16114   0.086   1.788   4.315 -0.5945  0.4999 -1.0181
 1493SOL    HW116115   0.064   1.841   4.391  1.1460 -1.0682  0.5934
 1493SOL    HW216116   0.181   1.801   4.315 -0.2464 -1.9806 -0.3642
 1494SOL     OW16117   2.929   0.628   7.443  0.4399 -0.5559 -0.5425
 1494SOL    HW116118   2.936   0.690   7.516  1.8651 -0.7487 -0.5198
 1494SOL    HW216119   2.914   0.543   7.485 -3.4826  0.9626  1.1267
 1495SOL     OW16120   0.949   2.348   2.412 -0.4256 -0.0499 -0.2910
 1495SOL    HW116121   0.911   2.274   2.363 -1.0192 -0.1889  0.3697
 1495SOL    HW216122   1.041   2.357   2.387 -0.8306  0.8466 -1.4130
 1496SOL     OW16123   2.189   1.581   8.516  0.7562  0.6201 -0.2200
 1496SOL    HW116124   2.264   1.623   8.557 -0.7438  0.3749  2.7829
 1496SOL    HW216125   2.225   1.493   8.514 -0.5933  0.1131 -2.0376
 1497SOL     OW16126   0.015   1.307   6.408  0.1479 -0.1337  0.5334
 1497SOL    HW116127   0.068   1.279   6.333 -0.1167 -0.0186  0.3012
 1497SOL    HW216128   0.067   1.387   6.416  0.9530 -0.7928  1.7781
 1498SOL     OW16129   4.377   0.503  15.886 -0.2669 -0.0088 -0.3311
 1498SOL    HW116130   4.358   0.504  15.793 -1.9664  1.6558  0.0186
 1498SOL    HW216131   4.470   0.482  15.891  0.2462  2.3579  0.5126
 1499SOL     OW16132   3.494   1.845   2.780  0.3231 -0.1582 -0.1002
 1499SOL    HW116133   3.447   1.920   2.816 -1.9289 -0.2446 -2.8569
 1499SOL    HW216134   3.551   1.827   2.855  1.5592  1.3822 -0.6794
 1500SOL     OW16135   1.663   3.374  16.208  0.2720  0.2218  0.2376
 1500SOL    HW116136   1.585   3.329  16.241  0.5033 -0.3845 -0.0537
 1500SOL    HW216137   1.629   3.464  16.210 -0.4461 -0.0189 -0.8320
 1501SOL     OW16138   3.496   0.898   5.317  0.4905  0.1171  0.7757
 1501SOL    HW116139   3.528   0.819   5.273  3.0461 -0.2850  3.3440
 1501SOL    HW216140   3.441   0.863   5.388  0.0437 -0.6779  0.0307
 1502SOL     OW16141   4.315   2.137   3.118 -0.2852  0.1084 -0.6531
 1502SOL    HW116142   4.403   2.112   3.147 -1.2967 -1.4399  1.0370
 1502SOL    HW216143   4.321   2.228   3.149  0.4504  0.4942 -1.9153
 1503SOL     OW16144   1.211   2.904   4.421 -0.4977 -0.2890 -0.6722
 1503SOL    HW116145   1.140   2.840   4.428 -1.6364  0.9706 -0.8743
 1503SOL    HW216146   1.252   2.859   4.347 -0.3867 -0.2304 -0.6467
 1504SOL     OW16147   3.138   1.732   6.024  0.0775  0.1210  0.3607
 1504SOL    HW116148   3.054   1.777   6.028  0.0419  0.0183  0.8899
 1504SOL    HW216149   3.141   1.702   6.115 -1.1473 -0.3311  0.2466
 1505SOL     OW16150   2.679   1.050   4.097  0.5269  0.0106 -0.5413
 1505SOL    HW116151   2.605   1.004   4.137  0.4676  1.9422  1.5533
 1505SOL    HW216152   2.653   1.025   4.008 -0.5984 -0.6937 -0.0194
 1506SOL     OW16153   1.693   4.336   0.943  0.6066 -0.4646 -0.2830
 1506SOL    HW116154   1.745   4.379   1.011 -0.8389 -2.5869  2.1517
 1506SOL    HW216155   1.622   4.397   0.923  2.4648  0.5835 -3.6830
 1507SOL     OW16156   1.783   1.871  13.006 -0.7878  0.0464 -0.6673
 1507SOL    HW116157   1.723   1.889  13.078 -1.5923  0.2925 -1.4048
 1507SOL    HW216158   1.818   1.956  12.981 -1.5245  1.2149  2.3058
 1508SOL     OW16159   2.610   4.340   1.519  0.2188 -0.1785  0.0076
 1508SOL    HW116160   2.657   4.399   1.461  2.2229 -2.1968 -0.3933
 1508SOL    HW216161   2.634   4.252   1.491  0.8647  0.4278 -1.3474
 1509SOL     OW16162   4.455   1.260   2.801  0.0298 -0.8991 -0.2832
 1509SOL    HW116163   4.523   1.204   2.837  1.5776  1.0731 -0.1392
 1509SOL    HW216164   4.429   1.211   2.724  1.5752 -0.0195 -1.3659
 1510SOL     OW16165   3.336   4.423   1.518  0.4288 -0.6294 -0.1553
 1510SOL    HW116166   3.418   4.402   1.562  0.8171  1.4172  0.0874
 1510SOL    HW216167   3.285   4.343   1.526 -0.4781  0.0441  0.7708
 1511SOL     OW16168   2.521   0.210   8.512 -0.3936  0.0604 -0.2836
 1511SOL    HW116169   2.478   0.217   8.597 -1.1739 -1.4209 -0.5426
 1511SOL    HW216170   2.582   0.283   8.515 -2.3078  1.5611  1.9536
 1512SOL     OW16171   1.651   2.265  12.816 -0.1276  0.0808 -0.4647
 1512SOL    HW116172   1.707   2.204  12.864 -2.3954 -2.3329 -0.8788
 1512SOL    HW216173   1.685   2.353  12.832 -1.0124  0.2998  0.1941
 1513SOL     OW16174   0.249   2.188   5.570 -0.6792  0.3786 -0.7187
 1513SOL    HW116175   0.232   2.162   5.660  3.1207 -0.2827 -0.2253
 1513SOL    HW216176   0.163   2.175   5.528  0.2065 -2.1927 -1.7607
 1514SOL     OW16177   4.084   4.323   0.457  0.4905  0.5907 -0.2859
 1514SOL    HW116178   4.025   4.356   0.389 -0.2927 -0.2372 -0.0091
 1514SOL    HW216179   4.035   4.344   0.536  0.6199 -0.7520  0.1463
 1515SOL     OW16180   1.665   1.540  12.342 -0.5418 -0.3692 -0.2028
 1515SOL    HW116181   1.666   1.547  12.437  3.4659  0.3090 -0.2764
 1515SOL    HW216182   1.613   1.615  12.313  0.3003  0.7942  1.3366
 1516SOL     OW16183   1.413   3.011  12.448  0.1685 -0.0481 -0.1383
 1516SOL    HW116184   1.323   2.979  12.444  0.3164 -0.7663  2.4522
 1516SOL    HW216185   1.407   3.096  12.491  0.3213 -0.3764  0.5302
 1517SOL     OW16186   2.570   4.333   8.190 -0.1892 -0.4620 -0.0024
 1517SOL    HW116187   2.491   4.310   8.238 -0.2527  0.4847  0.3419
 1517SOL    HW216188   2.632   4.355   8.259 -0.4079 -1.4842  0.5131
 1518SOL     OW16189   1.480   2.008   7.917  0.0199 -0.3384 -0.2978
 1518SOL    HW116190   1.503   1.926   7.961  0.4012 -0.3025 -0.4300
 1518SOL    HW216191   1.565   2.052   7.925 -0.9163  1.4362  0.0337
 1519SOL     OW16192   4.161   1.335  13.905 -0.4140 -0.1749  0.1368
 1519SOL    HW116193   4.089   1.379  13.951 -0.0372  1.4527 -0.7962
 1519SOL    HW216194   4.125   1.352  13.817  0.2738  0.4210 -0.0249
 1520SOL     OW16195   0.682   3.513   7.583  0.3349 -0.3588 -0.3922
 1520SOL    HW116196   0.688   3.583   7.648 -1.8607  0.3972 -0.9777
 1520SOL    HW216197   0.635   3.449   7.636  1.6341 -1.1712 -0.2303
 1521SOL     OW16198   1.593   3.633  16.242  0.4190 -0.0469 -0.3122
 1521SOL    HW116199   1.532   3.686  16.294 -0.8023 -2.0324  0.2822
 1521SOL    HW216200   1.615   3.691  16.170  1.1197 -3.1742 -2.5865
 1522SOL     OW16201   3.169   0.278   0.025  0.2310  0.3345  0.0969
 1522SOL    HW116202   3.234   0.344  17.742  2.1685 -1.6141  0.0930
 1522SOL    HW216203   3.099   0.326  17.723  0.9600 -1.0241 -2.4967
 1523SOL     OW16204   2.683   1.740   2.173 -0.0909  0.1718 -0.1651
 1523SOL    HW116205   2.632   1.743   2.093 -3.2009 -0.4267  1.7821
 1523SOL    HW216206   2.616   1.749   2.241 -1.3726  1.6261 -1.6156
 1524SOL     OW16207   1.298   3.270   9.176 -0.0280 -0.0942  0.2441
 1524SOL    HW116208   1.250   3.344   9.139 -1.0888 -0.7631  0.3074
 1524SOL    HW216209   1.377   3.320   9.198 -0.4058  1.3983 -1.8090
 1525SOL     OW16210   1.851   1.843   7.033 -0.5288  0.0593 -0.0385
 1525SOL    HW116211   1.944   1.844   7.056 -0.5912  1.1720  0.1503
 1525SOL    HW216212   1.834   1.761   7.079  0.1106 -0.9640 -1.6253
 1526SOL     OW16213   3.553   2.269  12.166  0.2908  0.5558 -0.4198
 1526SOL    HW116214   3.570   2.303  12.254  1.9201 -0.8506 -0.1849
 1526SOL    HW216215   3.511   2.187  12.190  1.5512  0.1510  0.3742
 1527SOL     OW16216   0.163   2.751   9.571  0.6076 -0.5759  0.2656
 1527SOL    HW116217   0.146   2.803   9.649  0.4595 -0.8077  0.3887
 1527SOL    HW216218   0.243   2.789   9.536  1.9437 -2.1673  1.6012
 1528SOL     OW16219   2.999   2.369   2.131 -0.6567 -0.3826 -0.1724
 1528SOL    HW116220   2.932   2.345   2.195  0.3974 -0.6832  0.8288
 1528SOL    HW216221   3.077   2.351   2.183 -0.3523  0.3151 -0.3868
 1529SOL     OW16222   3.401   2.907   6.084  0.3451  0.1151  0.0458
 1529SOL    HW116223   3.424   2.871   6.169  2.5404 -1.4013 -1.1739
 1529SOL    HW216224   3.384   2.994   6.119  0.4507  0.0354  0.2912
 1530SOL     OW16225   2.103   0.991   3.490 -0.4826  0.9428  0.3059
 1530SOL    HW116226   2.175   1.055   3.494  0.0880  0.1078  3.3126
 1530SOL    HW216227   2.037   1.042   3.536  0.1939  0.6400  1.6241
 1531SOL     OW16228   1.472   0.094   4.179  0.4296 -0.0270  0.3766
 1531SOL    HW116229   1.561   0.063   4.162  1.7463  2.1432  3.4212
 1531SOL    HW216230   1.432   0.070   4.095 -0.4360  1.6996  0.2974
 1532SOL     OW16231   2.784   0.443   5.264  0.0632 -0.4547  0.7464
 1532SOL    HW116232   2.693   0.456   5.235  0.9828 -0.7203 -2.2442
 1532SOL    HW216233   2.767   0.424   5.356  2.2635 -2.4437  0.7094
 1533SOL     OW16234   0.571   3.201  14.134  0.1091 -0.4858 -0.1503
 1533SOL    HW116235   0.646   3.179  14.080 -0.5567 -0.8386 -0.9351
 1533SOL    HW216236   0.585   3.130  14.196 -2.0247  1.1641  2.2537
 1534SOL     OW16237   1.424   1.675  11.626 -0.0147 -0.4477  0.3191
 1534SOL    HW116238   1.495   1.721  11.671  0.1300  1.3747 -1.7400
 1534SOL    HW216239   1.393   1.750  11.575 -2.2701 -1.3098  0.4311
 1535SOL     OW16240   1.626   0.103   1.819  0.0052  0.7918  0.0745
 1535SOL    HW116241   1.707   0.153   1.807  0.6090 -0.3359 -0.5193
 1535SOL    HW216242   1.618   0.060   1.734  1.6706 -2.3865  1.5116
 1536SOL     OW16243   1.440   1.995   4.690 -0.0160 -0.0755  0.7188
 1536SOL    HW116244   1.357   2.033   4.717  0.1416  0.7510  0.0520
 1536SOL    HW216245   1.418   1.909   4.654  1.8494 -0.9467  1.6158
 1537SOL     OW16246   2.598   4.576  13.822 -0.5212 -0.2824  0.2421
 1537SOL    HW116247   2.508   4.599  13.799 -0.5704 -0.8672 -0.1477
 1537SOL    HW216248   2.631   4.564  13.733 -2.4432 -0.0231 -0.5078
 1538SOL     OW16249   1.191   0.551   8.691  0.4156 -0.5561  0.2699
 1538SOL    HW116250   1.231   0.472   8.725  2.4111  0.3480 -0.0032
 1538SOL    HW216251   1.193   0.610   8.767 -1.8692  1.1922 -0.9902
 1539SOL     OW16252   0.563   2.980   6.830 -0.4200 -0.0759  0.3690
 1539SOL    HW116253   0.486   2.997   6.884 -0.9432  1.0840 -0.7267
 1539SOL    HW216254   0.636   2.978   6.892 -0.2882  1.4163  0.2668
 1540SOL     OW16255   3.608   1.340  14.723  0.3428 -0.2404  0.1358
 1540SOL    HW116256   3.697   1.366  14.700  0.7319 -2.1117 -0.4586
 1540SOL    HW216257   3.584   1.415  14.777  1.6827  1.0757 -1.0932
 1541SOL     OW16258   4.215   0.027   4.464 -0.3785 -0.6151 -0.1165
 1541SOL    HW116259   4.287   4.701   4.452 -0.1708 -0.7679  1.9989
 1541SOL    HW216260   4.135   4.712   4.480  0.0509 -0.5651  2.2330
 1542SOL     OW16261   3.400   3.283   4.916  0.3420 -0.2120  0.1884
 1542SOL    HW116262   3.411   3.308   4.825 -0.1315 -1.4407 -0.2073
 1542SOL    HW216263   3.439   3.361   4.954 -0.3040 -0.7245  1.9372
 1543SOL     OW16264   4.608   3.674   5.623 -0.2902  0.0712 -0.0434
 1543SOL    HW116265   4.683   3.644   5.571  1.1178  2.0775  0.8293
 1543SOL    HW216266   4.555   3.726   5.564 -0.7354 -2.0459 -1.5171
 1544SOL     OW16267   1.300   3.839   5.664  0.3834 -0.1023  0.3789
 1544SOL    HW116268   1.275   3.902   5.596 -1.8493 -1.1497  0.2617
 1544SOL    HW216269   1.393   3.829   5.643  0.4946  1.7582 -0.0994
 1545SOL     OW16270   0.019   1.435  15.632  0.1811 -0.3436 -0.0260
 1545SOL    HW116271   0.034   1.521  15.594  2.1762 -0.4528  0.5683
 1545SOL    HW216272   0.079   1.383  15.578  0.0119  1.5737 -2.0733
 1546SOL     OW16273   4.433   2.701  17.655 -0.5385  0.1132  0.2932
 1546SOL    HW116274   4.526   2.718  17.671 -0.4442 -1.9588  1.9000
 1546SOL    HW216275   4.401   2.791  17.650  0.0327  0.1615 -2.6685
 1547SOL     OW16276   0.772   1.980   5.778  0.0994 -0.2353 -0.4964
 1547SOL    HW116277   0.802   1.966   5.868 -0.4643 -1.0141 -0.4330
 1547SOL    HW216278   0.852   2.020   5.744 -0.7051  1.7594 -0.0531
 1548SOL     OW16279   3.231   2.423   4.304  0.5070 -0.5526  0.2825
 1548SOL    HW116280   3.220   2.455   4.214 -0.2555 -1.4108  0.0820
 1548SOL    HW216281   3.321   2.389   4.306 -0.4714 -2.7803  4.0983
 1549SOL     OW16282   0.196   2.839  10.232  0.0607 -0.0545 -0.1033
 1549SOL    HW116283   0.168   2.924  10.198 -0.4575 -0.4276 -0.5980
 1549SOL    HW216284   0.288   2.850  10.208 -0.1256 -1.2287 -1.3529
 1550SOL     OW16285   1.137   1.470  17.480  0.3964  0.5814 -0.2878
 1550SOL    HW116286   1.140   1.476  17.576 -2.0650  1.5061 -0.2435
 1550SOL    HW216287   1.051   1.512  17.467  1.6555  3.1769 -0.1489
 1551SOL     OW16288   4.001   4.231   0.720 -0.0833 -0.3942 -0.1000
 1551SOL    HW116289   4.087   4.197   0.696 -0.4800 -1.1524 -0.4489
 1551SOL    HW216290   4.000   4.218   0.815 -1.1739  0.5423  0.0243
 1552SOL     OW16291   3.937   2.117   0.281  0.1007  0.2072  0.1083
 1552SOL    HW116292   3.935   2.213   0.275 -0.1172  0.0787 -1.7063
 1552SOL    HW216293   3.961   2.093   0.192 -0.3111  1.0750 -0.2439
 1553SOL     OW16294   2.872   2.618   4.300 -0.2534 -0.5051  0.5085
 1553SOL    HW116295   2.804   2.672   4.261  0.2987 -1.0194 -1.1596
 1553SOL    HW216296   2.900   2.678   4.369 -0.1906 -1.0545  0.9585
 1554SOL     OW16297   4.260   3.344   5.935  0.1047  0.0346 -0.5270
 1554SOL    HW116298   4.297   3.432   5.945  1.6418 -0.7018  0.3281
 1554SOL    HW216299   4.321   3.293   5.988 -0.6457  0.4651  0.7327
 1555SOL     OW16300   0.386   2.719   5.512  0.3722  0.4243  0.1429
 1555SOL    HW116301   0.441   2.791   5.545 -0.4088  0.8861  0.4321
 1555SOL    HW216302   0.449   2.646   5.513 -0.3296 -0.1739  0.0889
 1556SOL     OW16303   2.062   2.786   4.084 -0.1298  0.7637 -0.0929
 1556SOL    HW116304   1.973   2.758   4.102  0.5709  0.3981  2.8656
 1556SOL    HW216305   2.079   2.834   4.165  1.5716 -0.2188  0.1321
 1557SOL     OW16306   3.621   2.318   4.096 -0.1190 -0.6213 -0.2194
 1557SOL    HW116307   3.652   2.408   4.113 -0.7554 -0.5033  0.3416
 1557SOL    HW216308   3.562   2.333   4.022 -1.9341 -0.2298  1.2810
 1558SOL     OW16309   0.821   4.020   2.463  0.6400  0.0080  0.0037
 1558SOL    HW116310   0.749   4.046   2.405  0.8258 -0.2213 -0.3339
 1558SOL    HW216311   0.878   4.094   2.444  0.0596  0.6041  0.5873
 1559SOL     OW16312   3.645   1.943   2.270  0.1851 -0.2878  0.3239
 1559SOL    HW116313   3.586   1.951   2.194  1.8237 -1.8877 -1.1026
 1559SOL    HW216314   3.724   1.990   2.245  0.6844 -0.3617  1.8190
 1560SOL     OW16315   2.511   4.272   6.981 -0.4647  0.4140 -0.3711
 1560SOL    HW116316   2.550   4.185   6.977 -1.0176  0.1121  0.7235
 1560SOL    HW216317   2.590   4.322   6.963 -0.3154 -0.2425 -1.5243
 1561SOL     OW16318   1.361   0.444   5.171  0.0444  0.4147  0.7894
 1561SOL    HW116319   1.454   0.427   5.158  0.5553  3.7057  0.0444
 1561SOL    HW216320   1.342   0.396   5.251  1.1684 -1.4131 -0.0236
 1562SOL     OW16321   3.379   0.606  13.714 -0.4993  0.6929 -0.4344
 1562SOL    HW116322   3.357   0.573  13.801  0.8625  1.7462  0.3082
 1562SOL    HW216323   3.379   0.701  13.721  0.0330  0.8042 -2.1523
 1563SOL     OW16324   3.817   2.844  15.046 -0.6594  0.1497  0.1770
 1563SOL    HW116325   3.805   2.872  15.137  1.3068  2.9236 -0.4137
 1563SOL    HW216326   3.728   2.851  15.012 -0.4141 -2.1353 -0.8912
 1564SOL     OW16327   1.217   0.107   2.109 -0.1456 -0.1824 -0.5877
 1564SOL    HW116328   1.162   0.181   2.137  1.7581  0.8060  0.5885
 1564SOL    HW216329   1.285   0.156   2.062  1.5535 -3.6728 -1.7597
 1565SOL     OW16330   3.153   1.147   3.332  0.4629 -0.0221  0.6645
 1565SOL    HW116331   3.245   1.122   3.346  0.4818 -1.4112 -1.8208
 1565SOL    HW216332   3.151   1.129   3.237 -1.8280 -1.9571  1.0735
 1566SOL     OW16333   4.453   0.797   6.843 -0.5996 -0.1928  0.4305
 1566SOL    HW116334   4.365   0.832   6.827 -1.2835 -2.4160 -0.5829
 1566SOL    HW216335   4.501   0.850   6.779 -1.0833 -0.7951 -0.4242
 1567SOL     OW16336   0.381   4.211   3.626 -0.4718  0.0160  0.2308
 1567SOL    HW116337   0.357   4.143   3.689 -1.6177  0.1197 -0.0799
 1567SOL    HW216338   0.293   4.231   3.594 -0.4364 -0.4105 -0.1307
 1568SOL     OW16339   2.676   4.048   5.444  0.6078  0.5748  0.0623
 1568SOL    HW116340   2.581   4.062   5.450  0.5664  0.7556 -0.9700
 1568SOL    HW216341   2.687   4.068   5.351  1.4055  0.3116  0.1031
 1569SOL     OW16342   2.279   1.629   9.480  0.6961 -0.4775 -0.0623
 1569SOL    HW116343   2.203   1.585   9.519 -0.4568  0.4836 -1.2111
 1569SOL    HW216344   2.242   1.715   9.457 -0.3269 -0.7975  0.3646
 1570SOL     OW16345   1.378   1.194   0.901 -0.0796  0.0206  0.2606
 1570SOL    HW116346   1.351   1.269   0.954 -0.9305  1.9494 -2.9260
 1570SOL    HW216347   1.371   1.117   0.958 -2.3425 -0.0588 -0.1260
 1571SOL     OW16348   2.737   1.673  17.378  0.2042 -0.4778  0.2454
 1571SOL    HW116349   2.704   1.634  17.297  0.4167  3.4328 -1.6933
 1571SOL    HW216350   2.658   1.663  17.431 -0.8838 -0.6085 -1.3892
 1572SOL     OW16351   0.047   4.716  14.316  0.3594  0.3325  0.1292
 1572SOL    HW116352   0.044   4.620  14.309  1.1523  0.5667 -3.3601
 1572SOL    HW216353   0.142   4.723  14.321  0.4122  1.6908 -2.5754
 1573SOL     OW16354   1.696   3.981   4.230  0.4045  0.2421  0.0586
 1573SOL    HW116355   1.625   3.997   4.292  0.9875 -1.6170  1.2241
 1573SOL    HW216356   1.657   3.990   4.143 -1.3170 -0.3349  0.7896
 1574SOL     OW16357   1.081   2.678  16.089 -0.0431 -0.7449  0.1030
 1574SOL    HW116358   0.995   2.714  16.110  0.7370  0.4429  1.2234
 1574SOL    HW216359   1.137   2.752  16.111 -1.3309  0.7410 -1.5937
 1575SOL     OW16360   1.907   1.263   9.674 -0.1273  0.0136  0.7239
 1575SOL    HW116361   1.911   1.173   9.706 -1.7606  0.4600  2.1981
 1575SOL    HW216362   1.866   1.315   9.744 -2.8727  1.5205 -2.0073
 1576SOL     OW16363   1.119   1.762  13.514 -0.3048  0.7759  0.5306
 1576SOL    HW116364   1.098   1.673  13.485  1.0665  0.3673  0.8072
 1576SOL    HW216365   1.066   1.778  13.592 -2.2279 -2.7497 -0.0479
 1577SOL     OW16366   2.250   2.903   2.445 -0.7163 -0.0837  0.3120
 1577SOL    HW116367   2.260   2.998   2.432 -0.1423 -0.2874 -0.7959
 1577SOL    HW216368   2.310   2.887   2.517 -1.3245  1.0493  1.0678
 1578SOL     OW16369   0.383   2.891   7.404 -0.0659  0.0728 -0.0188
 1578SOL    HW116370   0.323   2.817   7.400 -1.8396  1.5120 -0.2410
 1578SOL    HW216371   0.459   2.844   7.370  0.0672  0.0513  0.3072
 1579SOL     OW16372   3.723   4.571   4.440  0.2102 -0.0859 -0.2032
 1579SOL    HW116373   3.673   4.645   4.407  2.0727  1.7120  1.0348
 1579SOL    HW216374   3.722   4.501   4.374  1.4413 -0.0075 -0.3060
 1580SOL     OW16375   4.549   2.742  15.175 -0.2256 -0.3029 -0.0033
 1580SOL    HW116376   4.624   2.757  15.117  0.3638 -0.7610  0.6433
 1580SOL    HW216377   4.520   2.661  15.135 -0.5815 -0.0138 -0.3364
 1581SOL     OW16378   0.654   1.725  17.488  0.2291  0.1066 -0.1488
 1581SOL    HW116379   0.691   1.768  17.565  0.7212  0.6373 -0.6787
 1581SOL    HW216380   0.587   1.790  17.466  1.0199  0.8802 -0.2420
 1582SOL     OW16381   3.083   1.659  16.964 -0.0226  0.2202  0.4077
 1582SOL    HW116382   3.171   1.674  16.929  0.0578 -0.9927  0.0919
 1582SOL    HW216383   3.032   1.735  16.936 -0.4497 -0.4957 -0.7714
 1583SOL     OW16384   3.072   4.111   2.126 -0.9923  0.2673 -0.5020
 1583SOL    HW116385   3.123   4.048   2.075  0.0188  0.8532 -0.2044
 1583SOL    HW216386   3.099   4.190   2.080  0.7472  0.3255  0.6173
 1584SOL     OW16387   3.705   4.198  14.204  0.3236  0.3226  0.1507
 1584SOL    HW116388   3.728   4.126  14.145  2.3292 -0.1438  1.4848
 1584SOL    HW216389   3.610   4.194  14.197  0.4142 -0.1293 -0.7887
 1585SOL     OW16390   4.431   0.629   5.706 -0.6976  0.5905  0.1574
 1585SOL    HW116391   4.391   0.543   5.696 -0.5174  0.6683 -1.2064
 1585SOL    HW216392   4.464   0.632   5.796 -0.1447 -0.8253  0.0017
 1586SOL     OW16393   0.968   1.535   1.855  0.0481  0.3296 -0.0624
 1586SOL    HW116394   0.877   1.547   1.883  0.2243 -0.9316  1.0532
 1586SOL    HW216395   1.008   1.499   1.934  0.9323  0.0664 -0.6386
 1587SOL     OW16396   1.327   4.268   2.876 -0.5729  0.0602 -0.0810
 1587SOL    HW116397   1.242   4.228   2.893 -0.7620  0.3739 -0.2880
 1587SOL    HW216398   1.298   4.332   2.812  0.3132  2.1215  1.5803
 1588SOL     OW16399   3.536   2.305  12.765  0.5325 -0.9049 -0.1276
 1588SOL    HW116400   3.454   2.287  12.811 -0.2700 -1.6113 -1.8254
 1588SOL    HW216401   3.581   2.363  12.826 -0.3022 -0.8192  0.4078
 1589SOL     OW16402   3.281   2.955   2.521 -0.1851 -0.4428  0.2248
 1589SOL    HW116403   3.250   2.967   2.611  3.5210  1.8020  1.1862
 1589SOL    HW216404   3.335   2.876   2.521 -0.0430 -0.3417  0.9119
 1590SOL     OW16405   4.099   1.060   4.805 -0.9461  0.3186  0.4419
 1590SOL    HW116406   4.054   1.141   4.830  1.0920  1.7791 -0.6421
 1590SOL    HW216407   4.025   0.999   4.805 -0.6620 -0.0216 -0.7562
 1591SOL     OW16408   2.929   4.490   1.444  0.1526 -0.4344  0.5648
 1591SOL    HW116409   2.949   4.429   1.515  0.6069  0.7565  1.4618
 1591SOL    HW216410   2.867   4.550   1.486 -1.0881  0.5252 -2.6560
 1592SOL     OW16411   2.907   1.690  15.345 -0.0852 -0.7825 -0.1430
 1592SOL    HW116412   2.888   1.694  15.438 -0.4335  2.0762 -0.3226
 1592SOL    HW216413   2.947   1.605  15.329  1.6079 -0.2775  1.3660
 1593SOL     OW16414   2.314   1.103   9.919 -0.7043  0.1155 -0.2500
 1593SOL    HW116415   2.336   1.021   9.964 -0.3157  0.1664 -0.3482
 1593SOL    HW216416   2.388   1.157   9.947  0.8963 -0.2146 -3.7172
 1594SOL     OW16417   1.456   1.187   1.461  0.3186  0.3615 -0.1450
 1594SOL    HW116418   1.548   1.198   1.483  0.8231 -2.1584 -1.0258
 1594SOL    HW216419   1.465   1.213   1.370  3.0677  0.6188  0.2107
 1595SOL     OW16420   4.347   2.946   0.135  0.0672 -0.1573  0.3406
 1595SOL    HW116421   4.346   3.042   0.138  1.0075 -0.1263 -0.2422
 1595SOL    HW216422   4.345   2.939   0.039  0.0405 -0.9609  0.3975
 1596SOL     OW16423   3.272   0.070   8.992 -0.1892 -0.6028 -0.6930
 1596SOL    HW116424   3.331   0.122   8.938  0.9771  0.1053  1.2576
 1596SOL    HW216425   3.332   4.736   9.017 -0.0811  0.3085  1.6282
 1597SOL     OW16426   0.547   2.450   8.643  0.4643  0.1900 -0.1382
 1597SOL    HW116427   0.532   2.356   8.651  2.0691 -0.0622 -0.1537
 1597SOL    HW216428   0.590   2.481   8.722 -1.6733  1.3203  0.5971
 1598SOL     OW16429   1.499   4.326   3.088  0.3181  0.2331  0.4082
 1598SOL    HW116430   1.452   4.279   3.019 -0.3001 -0.1663  1.1095
 1598SOL    HW216431   1.566   4.369   3.035 -0.3395  1.2724  0.4328
 1599SOL     OW16432   3.824   0.090  14.512 -0.3967  0.1752  0.1462
 1599SOL    HW116433   3.875   0.171  14.514  0.2986 -0.3043  1.3445
 1599SOL    HW216434   3.792   0.098  14.422  1.8391  2.9606 -0.3980
 1600SOL     OW16435   0.818   4.400   4.725  0.6414  0.8587 -0.0980
 1600SOL    HW116436   0.807   4.486   4.764  2.1654  0.9488  0.1241
 1600SOL    HW216437   0.778   4.352   4.798  0.8641  1.1075  0.1836
 1601SOL     OW16438   1.775   1.127   8.101  0.0554  0.3372 -0.0318
 1601SOL    HW116439   1.716   1.147   8.174 -1.0875 -2.0108 -0.3014
 1601SOL    HW216440   1.739   1.190   8.038  3.2222  0.6144 -1.5603
 1602SOL     OW16441   4.695   3.130   8.683  0.0812  0.2148  0.3471
 1602SOL    HW116442   4.708   3.196   8.614  2.0124 -0.0564  0.4454
 1602SOL    HW216443   4.602   3.109   8.677  0.3495 -1.1223  1.0007
 1603SOL     OW16444   1.232   2.280   6.620  0.2654 -0.1846 -0.1497
 1603SOL    HW116445   1.320   2.315   6.632  1.3687 -3.7098  1.8370
 1603SOL    HW216446   1.189   2.331   6.552 -3.2377 -2.2560  0.5252
 1604SOL     OW16447   1.250   2.418   1.393  0.4417 -0.0869  0.0128
 1604SOL    HW116448   1.242   2.329   1.427 -0.7994  0.4456  1.1132
 1604SOL    HW216449   1.216   2.416   1.304 -2.2788  0.6621  1.0545
 1605SOL     OW16450   0.422   1.420   2.290  0.2630 -0.0800  0.0030
 1605SOL    HW116451   0.397   1.511   2.279  1.2417  0.1635 -0.2321
 1605SOL    HW216452   0.478   1.396   2.217  0.5338 -1.4540  0.6609
 1606SOL     OW16453   3.546   3.249   0.109 -0.3615 -0.3484 -0.2349
 1606SOL    HW116454   3.613   3.190   0.075 -0.0021 -0.0426 -0.0534
 1606SOL    HW216455   3.537   3.200   0.191 -1.4438  2.3168  1.2360
 1607SOL     OW16456   4.649   0.491   2.308 -0.0380 -0.2948 -0.2936
 1607SOL    HW116457   4.583   0.508   2.375  0.5561  0.5839  0.0701
 1607SOL    HW216458   4.598   0.474   2.229 -0.3386 -0.9736  0.0493
 1608SOL     OW16459   2.761   2.367  11.914 -0.6609  0.2628 -0.0324
 1608SOL    HW116460   2.847   2.394  11.881 -0.2442  0.3818  1.1804
 1608SOL    HW216461   2.785   2.363  12.006  1.1378  2.1346 -0.4026
 1609SOL     OW16462   3.449   4.375   7.447 -0.3619 -0.6036 -0.0514
 1609SOL    HW116463   3.523   4.426   7.415 -0.4242 -0.3039  0.2820
 1609SOL    HW216464   3.375   4.414   7.401 -0.8473 -0.4965  0.8052
 1610SOL     OW16465   0.610   3.368   8.998  0.3078 -0.0041  0.1183
 1610SOL    HW116466   0.549   3.295   9.010  0.1898 -0.0928 -1.0340
 1610SOL    HW216467   0.622   3.378   8.903  0.1292  1.0641  0.2101
 1611SOL     OW16468   1.370   3.565   7.541 -0.1131 -0.4749 -0.7142
 1611SOL    HW116469   1.374   3.480   7.499  0.9195 -1.1785  0.7947
 1611SOL    HW216470   1.335   3.527   7.622 -0.2942 -0.8739 -0.9845
 1612SOL     OW16471   3.799   0.553   6.671 -0.1696  0.2397  0.4849
 1612SOL    HW116472   3.800   0.506   6.755  0.6818  0.8715  0.8380
 1612SOL    HW216473   3.824   0.639   6.705  0.9297  0.4376 -0.7960
 1613SOL     OW16474   3.228   0.310   3.638 -0.4637 -0.1639 -0.3490
 1613SOL    HW116475   3.309   0.316   3.587 -0.7643  0.4780 -0.7525
 1613SOL    HW216476   3.217   0.215   3.640  0.7193 -0.3023 -0.1290
 1614SOL     OW16477   0.622   2.595  10.374 -0.4391 -0.4039 -0.0483
 1614SOL    HW116478   0.557   2.663  10.391  1.1932  1.0627  0.3975
 1614SOL    HW216479   0.622   2.587  10.279 -3.2838 -0.7562 -0.0175
 1615SOL     OW16480   0.345   3.451   2.299 -0.1019  0.2935  0.4049
 1615SOL    HW116481   0.391   3.526   2.262 -1.4132  1.2534  0.7558
 1615SOL    HW216482   0.321   3.407   2.217 -1.8713  2.8837 -0.4533
 1616SOL     OW16483   4.191   2.190  10.085  0.0999 -0.0744  0.6133
 1616SOL    HW116484   4.228   2.223  10.167 -0.5360 -0.5667  1.0967
 1616SOL    HW216485   4.118   2.250  10.072 -1.2546 -1.5336  1.3904
 1617SOL     OW16486   0.360   2.947   7.031  0.5243 -0.1513 -0.1358
 1617SOL    HW116487   0.386   2.876   7.089  0.1448  0.8243  1.2427
 1617SOL    HW216488   0.346   3.017   7.096  1.8695  0.4638 -0.5129
 1618SOL     OW16489   4.155   0.142   5.011  0.1182  0.3263 -0.0381
 1618SOL    HW116490   4.223   0.207   4.993  3.1096 -2.2950  1.7435
 1618SOL    HW216491   4.109   0.143   4.927 -0.4819 -1.6906  0.2597
 1619SOL     OW16492   1.320   1.759   5.648 -0.2585 -0.3357  0.1909
 1619SOL    HW116493   1.331   1.717   5.563 -0.8564  2.0178 -1.0742
 1619SOL    HW216494   1.352   1.847   5.626  1.3410 -1.3897 -1.6072
 1620SOL     OW16495   0.991   0.236   2.225  0.2745  0.0087  0.2885
 1620SOL    HW116496   0.970   0.182   2.301 -0.9699  0.3213  0.1601
 1620SOL    HW216497   0.918   0.221   2.165  1.2153 -0.3987 -0.7659
 1621SOL     OW16498   1.448   0.088   7.603  0.1979  0.1806 -0.3675
 1621SOL    HW116499   1.452   0.005   7.556 -0.0344 -0.2323  0.3387
 1621SOL    HW216500   1.515   0.076   7.671 -1.0460  0.5688  0.9178
 1622SOL     OW16501   0.253   4.698   5.254 -0.4140  0.0751  0.2946
 1622SOL    HW116502   0.285   4.608   5.253 -1.4911 -0.3110 -0.2292
 1622SOL    HW216503   0.191   4.694   5.327  1.2216 -2.1933  1.5597
 1623SOL     OW16504   1.089   0.896  16.594  0.0538  0.3806  0.4024
 1623SOL    HW116505   1.135   0.871  16.674 -1.4268  1.6445  1.6470
 1623SOL    HW216506   1.105   0.822  16.535  2.2897 -0.8225  2.4951
 1624SOL     OW16507   2.255   3.085   4.479  0.0136 -0.4229  0.0499
 1624SOL    HW116508   2.200   3.161   4.500  1.7222  0.8729 -0.1617
 1624SOL    HW216509   2.283   3.064   4.568 -1.0250  0.1526  0.5174
 1625SOL     OW16510   2.087   1.651  15.502 -0.1114  0.2379 -0.2707
 1625SOL    HW116511   2.157   1.655  15.567 -0.5991 -3.3577  0.5024
 1625SOL    HW216512   2.133   1.678  15.422 -1.5931  1.2014 -0.8030
 1626SOL     OW16513   2.924   3.778   7.249  0.1452  0.3276 -0.1935
 1626SOL    HW116514   2.833   3.749   7.242  0.7718 -1.6995 -0.1509
 1626SOL    HW216515   2.945   3.832   7.173  2.8056 -1.4418 -0.7458
 1627SOL     OW16516   4.328   2.235   7.846  0.2557 -0.2550  0.1989
 1627SOL    HW116517   4.301   2.259   7.757  2.2180  4.0985  0.7663
 1627SOL    HW216518   4.382   2.311   7.869 -0.9928  0.9513 -0.7928
 1628SOL     OW16519   0.828   2.149  13.496  0.5797  0.2155 -0.0826
 1628SOL    HW116520   0.835   2.103  13.412 -2.3639  0.2142 -0.3277
 1628SOL    HW216521   0.736   2.175  13.491  0.7151  0.9068  1.1267
 1629SOL     OW16522   4.669   1.640   3.124  0.6780  0.0057 -0.0139
 1629SOL    HW116523   4.713   1.600   3.200  0.3399  0.6729  0.5352
 1629SOL    HW216524   0.007   1.669   3.070  0.4666  0.5550 -0.0052
 1630SOL     OW16525   1.751   2.398   7.951 -0.6549  0.7151 -0.5267
 1630SOL    HW116526   1.843   2.403   7.926 -0.8285  0.2054 -1.2574
 1630SOL    HW216527   1.746   2.459   8.025 -1.6024  0.3309 -0.2687
 1631SOL     OW16528   0.995   1.544   0.436 -0.1882 -1.0629 -0.2360
 1631SOL    HW116529   0.978   1.637   0.425  0.9517 -0.8399 -0.1092
 1631SOL    HW216530   1.076   1.539   0.488  0.4203 -0.3266 -1.1007
 1632SOL     OW16531   2.899   0.959   1.680 -0.0632 -0.0814  0.6220
 1632SOL    HW116532   2.893   0.935   1.772 -0.9762  2.7331  1.3002
 1632SOL    HW216533   2.958   0.895   1.641 -0.2048  0.0815  0.1407
 1633SOL     OW16534   4.552   4.477  13.745 -0.1407 -0.0612  0.3291
 1633SOL    HW116535   4.519   4.476  13.835 -0.9379 -0.4390  0.0343
 1633SOL    HW216536   4.509   4.396  13.719 -0.5578  0.8241 -1.7149
 1634SOL     OW16537   2.893   1.056   2.878  0.5516 -0.1063 -0.3084
 1634SOL    HW116538   2.879   1.078   2.970  2.6910  2.5572 -0.5849
 1634SOL    HW216539   2.989   1.054   2.875  0.5722  1.9218 -1.2323
 1635SOL     OW16540   0.799   1.628  14.710 -0.2617 -0.7560 -0.2659
 1635SOL    HW116541   0.856   1.597  14.781  1.7182  0.4542 -1.3293
 1635SOL    HW216542   0.803   1.555  14.648  1.9396 -2.0804  1.4102
 1636SOL     OW16543   4.213   1.647   8.998 -0.0075 -0.6613 -0.5988
 1636SOL    HW116544   4.261   1.722   8.963 -0.8275  1.3521  2.5380
 1636SOL    HW216545   4.288   1.598   9.032  0.5085  1.6939  1.7330
 1637SOL     OW16546   0.979   2.373   2.122 -0.0776  0.1465 -0.5869
 1637SOL    HW116547   0.969   2.284   2.157 -0.7367  1.0826  1.5754
 1637SOL    HW216548   1.008   2.349   2.034  0.6386  1.0562 -0.5952
 1638SOL     OW16549   0.137   2.667   8.478 -0.0583 -0.1861 -0.3317
 1638SOL    HW116550   0.184   2.627   8.551  0.0255 -0.0222 -0.2956
 1638SOL    HW216551   0.190   2.632   8.407  0.8810 -0.3002  0.4265
 1639SOL     OW16552   3.581   3.757   5.997 -0.0413  0.2526  0.3666
 1639SOL    HW116553   3.573   3.695   6.070 -0.7652  0.6231  0.6135
 1639SOL    HW216554   3.655   3.807   6.032 -0.3628 -0.5899  2.2524
 1640SOL     OW16555   2.500   0.738   6.307 -0.1046  0.6618  0.4865
 1640SOL    HW116556   2.417   0.693   6.292 -0.5439  1.1982  1.2792
 1640SOL    HW216557   2.506   0.781   6.222  2.0187  0.5618  0.5850
 1641SOL     OW16558   4.494   3.071   9.350  0.2225  0.4806 -0.3756
 1641SOL    HW116559   4.498   3.017   9.271  0.7562 -0.4028  0.2499
 1641SOL    HW216560   4.445   3.019   9.413  1.7700 -0.3387  0.1709
 1642SOL     OW16561   3.819   0.799   2.708  0.0328 -0.0673 -0.4996
 1642SOL    HW116562   3.887   0.858   2.741 -1.4532  0.5553  1.4891
 1642SOL    HW216563   3.793   0.835   2.623  2.4710 -1.7172 -1.9255
 1643SOL     OW16564   3.037   2.466   5.645  0.0008  0.8200 -0.1757
 1643SOL    HW116565   3.024   2.517   5.565 -0.3827 -0.1259 -0.7139
 1643SOL    HW216566   3.132   2.449   5.648  0.0220  0.8273 -0.8070
 1644SOL     OW16567   1.985   2.946   4.684 -0.2208 -0.5137  0.6491
 1644SOL    HW116568   1.945   2.905   4.608  3.5748 -1.0720 -1.0205
 1644SOL    HW216569   2.073   2.911   4.683  0.4989  1.3598 -1.2886
 1645SOL     OW16570   1.071   1.051   8.248  0.7673  0.3890 -0.7154
 1645SOL    HW116571   1.038   1.047   8.338  1.0623  0.3218 -0.6096
 1645SOL    HW216572   1.115   0.965   8.248 -1.0551 -0.5394  0.4563
 1646SOL     OW16573   2.361   4.008  11.082 -0.1678 -0.3563 -0.3803
 1646SOL    HW116574   2.312   3.991  11.001 -2.1097 -0.5536  0.8468
 1646SOL    HW216575   2.330   3.938  11.138  1.8607  1.4179  2.9462
 1647SOL     OW16576   2.742   3.335  16.180  0.5157 -0.2635 -0.1286
 1647SOL    HW116577   2.701   3.328  16.267 -0.0458  0.1697 -0.3538
 1647SOL    HW216578   2.780   3.248  16.172 -1.2132 -0.9364 -1.1200
 1648SOL     OW16579   0.093   4.475   0.957  0.1972  0.8935  0.0747
 1648SOL    HW116580   0.101   4.552   1.013 -2.2302  1.8567 -0.8976
 1648SOL    HW216581   0.006   4.481   0.917 -0.3062  0.8445  1.1334
 1649SOL     OW16582   0.339   1.344  15.314 -0.2234 -0.0873 -0.5368
 1649SOL    HW116583   0.407   1.336  15.247  1.5174  1.9760  1.0239
 1649SOL    HW216584   0.288   1.419  15.284  0.0050 -0.2877 -1.4274
 1650SOL     OW16585   2.362   1.589   7.841  0.2839 -0.0632  0.7950
 1650SOL    HW116586   2.283   1.599   7.787  0.8359 -1.9804 -0.3691
 1650SOL    HW216587   2.371   1.677   7.877 -0.0943  0.9538 -1.5566
 1651SOL     OW16588   4.368   1.203   1.588  0.1421  0.1408  0.0319
 1651SOL    HW116589   4.292   1.229   1.639  1.4791  0.4364  1.9075
 1651SOL    HW216590   4.435   1.255   1.632  0.1109  1.7653 -1.8537
 1652SOL     OW16591   2.710   4.246  16.562  0.0857  0.8728 -0.2710
 1652SOL    HW116592   2.629   4.270  16.607  1.4498  2.4946  1.3483
 1652SOL    HW216593   2.681   4.195  16.486 -0.0075  1.6978 -0.7849
 1653SOL     OW16594   2.336   0.026   7.205  0.1457 -0.0087 -0.3088
 1653SOL    HW116595   2.292   0.073   7.276  0.1338 -0.6266  0.0915
 1653SOL    HW216596   2.302   0.047   7.118  0.6730 -0.2095 -0.5654
 1654SOL     OW16597   2.447   3.970   3.664 -0.1728 -0.4583  0.2919
 1654SOL    HW116598   2.519   4.027   3.638 -1.2927  1.5861  1.6504
 1654SOL    HW216599   2.412   4.022   3.736  0.3645 -0.0424  0.2492
 1655SOL     OW16600   3.231   4.446   0.657  0.6788 -0.4741  0.4693
 1655SOL    HW116601   3.313   4.495   0.653 -0.4801  1.3695 -0.6678
 1655SOL    HW216602   3.196   4.455   0.569  0.2893 -1.5918  0.5105
 1656SOL     OW16603   3.580   1.262   8.469  0.2696  0.0090 -0.2237
 1656SOL    HW116604   3.633   1.262   8.549  0.9628  0.1979 -0.6832
 1656SOL    HW216605   3.508   1.321   8.493  0.1293 -1.0545  1.9904
 1657SOL     OW16606   3.362   0.634   3.987  0.0241  0.2475  0.8667
 1657SOL    HW116607   3.427   0.566   3.966 -1.2447 -0.4750 -0.6986
 1657SOL    HW216608   3.303   0.637   3.912 -1.0877  0.8305  1.7564
 1658SOL     OW16609   3.984   4.505   9.245 -0.0356 -0.2332  0.0695
 1658SOL    HW116610   3.962   4.412   9.241  2.7568 -0.9165  0.9996
 1658SOL    HW216611   4.079   4.514   9.250 -0.1261 -0.0576  1.3946
 1659SOL     OW16612   4.250   0.736  15.727  0.6010  0.0773 -0.6263
 1659SOL    HW116613   4.225   0.648  15.699 -0.3924  0.0008  0.4613
 1659SOL    HW216614   4.330   0.717  15.776 -0.3538 -1.7051  0.2629
 1660SOL     OW16615   0.785   1.408   9.017 -0.1482 -0.6126  0.5254
 1660SOL    HW116616   0.691   1.415   9.000 -0.0332 -0.6751 -0.1331
 1660SOL    HW216617   0.805   1.499   9.036  1.2531 -0.7021 -0.5903
 1661SOL     OW16618   4.016   4.031   5.034  0.3251  0.2816  0.2155
 1661SOL    HW116619   4.035   4.024   4.940  1.3577 -2.3464  0.6370
 1661SOL    HW216620   3.920   4.028   5.032  0.4083 -1.4635 -1.1153
 1662SOL     OW16621   1.392   3.600   6.050 -0.0664  0.3198  0.7079
 1662SOL    HW116622   1.422   3.554   5.972  1.8832  1.6653  0.6786
 1662SOL    HW216623   1.429   3.688   6.042  2.9219 -1.2147 -1.9882
 1663SOL     OW16624   1.703   4.720   4.407 -0.2776 -0.2316  0.4066
 1663SOL    HW116625   1.633   0.049   4.412  0.6817  0.9866 -2.1317
 1663SOL    HW216626   1.768   0.022   4.465  1.3474  1.1301 -2.3294
 1664SOL     OW16627   3.541   2.540  12.088  0.3326  0.3338  0.1760
 1664SOL    HW116628   3.634   2.559  12.103  0.3189  0.5823 -0.0524
 1664SOL    HW216629   3.532   2.445  12.085 -1.7473  0.6659 -3.9861
 1665SOL     OW16630   2.825   1.582   2.350  0.3994  0.2508 -0.3640
 1665SOL    HW116631   2.890   1.645   2.380  0.7542 -0.4970  0.4144
 1665SOL    HW216632   2.769   1.631   2.290  1.0196  0.2598 -0.9270
 1666SOL     OW16633   2.617   4.133  11.048 -0.1218 -0.3747 -0.2443
 1666SOL    HW116634   2.529   4.111  11.078 -0.0738 -0.1448  0.0704
 1666SOL    HW216635   2.661   4.049  11.062  0.7345  0.0529 -0.3753
 1667SOL     OW16636   2.635   0.693  14.995  0.3574  0.2629  0.3387
 1667SOL    HW116637   2.693   0.770  14.997 -0.5917  0.9882  0.0429
 1667SOL    HW216638   2.605   0.694  15.086  0.2969 -2.0121  0.3337
 1668SOL     OW16639   0.703   3.769  10.144  0.1768 -0.2454  0.1208
 1668SOL    HW116640   0.696   3.794  10.052 -2.5583 -2.6836 -0.3776
 1668SOL    HW216641   0.798   3.771  10.152  0.3356 -3.5587 -0.7037
 1669SOL     OW16642   2.134   0.888   1.736  0.2559 -0.4230  0.8164
 1669SOL    HW116643   2.177   0.972   1.721  0.0252 -0.0434  2.2640
 1669SOL    HW216644   2.090   0.888   1.651  0.7156  1.1455  0.5719
 1670SOL     OW16645   4.561   1.793   4.206  0.2893  0.5014 -0.3394
 1670SOL    HW116646   4.603   1.778   4.291  0.7007  0.7228 -0.5024
 1670SOL    HW216647   4.478   1.831   4.234 -0.7566 -1.9859 -0.0677
 1671SOL     OW16648   1.567   1.829   6.937  0.1419 -0.0731 -0.4885
 1671SOL    HW116649   1.660   1.848   6.941  0.2312 -0.7708  0.5574
 1671SOL    HW216650   1.532   1.867   7.018 -0.8718 -2.9273  0.4200
 1672SOL     OW16651   4.192   1.524   8.565 -0.3501  0.1673 -0.1099
 1672SOL    HW116652   4.217   1.608   8.603 -0.4195  0.1261  0.0267
 1672SOL    HW216653   4.140   1.547   8.488 -0.6877 -1.9707 -0.5208
 1673SOL     OW16654   4.541   2.658   5.811 -0.1670 -0.3337  0.1949
 1673SOL    HW116655   4.542   2.722   5.883  1.5803 -0.1521 -0.0016
 1673SOL    HW216656   4.621   2.607   5.823  0.4426  0.3820 -0.7957
 1674SOL     OW16657   1.030   1.265   7.653  0.4721  0.3568 -0.3234
 1674SOL    HW116658   0.936   1.266   7.667  0.4513 -1.1200 -0.3148
 1674SOL    HW216659   1.043   1.184   7.703  0.5383  0.8812  0.5139
 1675SOL     OW16660   1.577   3.904   6.893 -0.3935  0.1672 -0.3959
 1675SOL    HW116661   1.598   3.997   6.884 -1.0326  0.0607 -2.7967
 1675SOL    HW216662   1.546   3.906   6.984 -4.0387 -0.3052 -1.6620
 1676SOL     OW16663   1.946   1.286   3.980 -0.3129  0.4422 -0.1133
 1676SOL    HW116664   1.965   1.199   3.946  1.3056  0.0674  1.7289
 1676SOL    HW216665   1.855   1.281   4.007  0.6134 -0.6657  2.8044
 1677SOL     OW16666   3.337   0.079   5.595  0.1604 -0.1450  0.0885
 1677SOL    HW116667   3.399   0.143   5.560 -0.7686  0.5222 -0.3326
 1677SOL    HW216668   3.254   0.122   5.573  0.2626 -0.7304 -1.4354
 1678SOL     OW16669   1.783   4.301  15.403  0.2859 -0.5985  0.1305
 1678SOL    HW116670   1.839   4.247  15.458  0.8728 -2.8273 -2.6777
 1678SOL    HW216671   1.842   4.343  15.340 -1.5227 -1.6315 -2.2406
 1679SOL     OW16672   0.021   1.445   2.081  0.2479  0.0279  0.0956
 1679SOL    HW116673   0.041   1.461   1.989 -1.1684 -1.4753 -0.4754
 1679SOL    HW216674   4.661   1.453   2.079  0.2438 -0.0499 -0.0174
 1680SOL     OW16675   1.738   1.748  11.649 -0.3775 -0.1186  0.2766
 1680SOL    HW116676   1.769   1.682  11.710 -0.0366  0.6808  0.9710
 1680SOL    HW216677   1.800   1.819  11.664 -0.2653 -0.5794  1.9587
 1681SOL     OW16678   1.398   0.644   4.608  0.2308 -0.8190 -0.3228
 1681SOL    HW116679   1.475   0.647   4.665 -1.5270 -0.8309  2.0849
 1681SOL    HW216680   1.374   0.552   4.618 -1.0464 -0.4834 -0.2646
 1682SOL     OW16681   2.651   2.095  16.270  0.2009  0.6735  0.2413
 1682SOL    HW116682   2.678   2.060  16.354 -0.1188 -1.3719 -0.5123
 1682SOL    HW216683   2.735   2.085  16.224 -0.7111 -2.9769 -0.6331
 1683SOL     OW16684   3.273   2.315  12.374  0.2277 -0.1837 -0.1382
 1683SOL    HW116685   3.315   2.238  12.336  0.2327  0.3670 -1.2482
 1683SOL    HW216686   3.287   2.300  12.468  2.7011 -1.1566 -0.6585
 1684SOL     OW16687   2.205   2.944   6.395  0.1204 -0.4304  0.5395
 1684SOL    HW116688   2.265   2.964   6.323  0.1612  0.5275  0.8426
 1684SOL    HW216689   2.262   2.927   6.470  1.1161 -4.5896 -1.1194
 1685SOL     OW16690   3.784   2.132   1.790 -0.3748  0.0740  0.2879
 1685SOL    HW116691   3.712   2.181   1.831  1.2647  1.9803  0.8576
 1685SOL    HW216692   3.849   2.202   1.794 -0.7128  0.5130 -1.8038
 1686SOL     OW16693   4.720   2.460   2.561 -0.5173 -0.5498 -0.6910
 1686SOL    HW116694   0.047   2.531   2.576  0.0564 -1.1244 -0.3739
 1686SOL    HW216695   4.706   2.475   2.467  4.5931 -2.1066 -1.7081
 1687SOL     OW16696   0.996   2.919  17.334 -0.8451 -0.1308  0.2569
 1687SOL    HW116697   1.067   2.893  17.393 -0.7171 -0.0041  0.1581
 1687SOL    HW216698   1.038   2.949  17.254  0.3153 -0.9869  0.5413
 1688SOL     OW16699   1.716   2.207  14.254 -0.2362  0.0263  0.2649
 1688SOL    HW116700   1.707   2.160  14.337 -0.2292  1.9927  1.3740
 1688SOL    HW216701   1.809   2.193  14.237 -0.2850 -1.0470  0.9301
 1689SOL     OW16702   4.311   3.630   7.713  0.3746 -0.1507 -0.1770
 1689SOL    HW116703   4.307   3.551   7.766  2.7111  1.6542  2.7033
 1689SOL    HW216704   4.382   3.678   7.757 -1.0829 -0.1369  2.1170
 1690SOL     OW16705   0.068   1.650   3.894 -0.1903  0.1430 -0.0613
 1690SOL    HW116706   0.163   1.656   3.908  0.0518 -1.1410 -1.1794
 1690SOL    HW216707   0.038   1.595   3.965 -0.8417 -0.2029 -0.6087
 1691SOL     OW16708   3.814   2.275  15.514 -0.6313 -0.0785 -0.0464
 1691SOL    HW116709   3.873   2.351  15.508  1.3798 -1.6863 -0.6805
 1691SOL    HW216710   3.748   2.306  15.576 -1.9519 -0.6017 -1.2093
 1692SOL     OW16711   2.227   3.255  17.012 -0.3695 -0.1366  0.3483
 1692SOL    HW116712   2.260   3.249  16.923  3.9916 -1.9512  2.0753
 1692SOL    HW216713   2.146   3.304  17.002  0.1369  0.4828 -0.7669
 1693SOL     OW16714   3.204   3.184   6.725 -0.9490  0.0323 -0.1599
 1693SOL    HW116715   3.246   3.219   6.805 -1.4759  0.2797  0.0089
 1693SOL    HW216716   3.264   3.111   6.709 -0.1430  0.0736  2.6937
 1694SOL     OW16717   0.951   3.027   0.906  0.1994  0.1533  0.5796
 1694SOL    HW116718   1.015   3.092   0.879 -0.9387  1.4082  0.9070
 1694SOL    HW216719   0.970   2.957   0.843 -2.0719  0.0555 -0.0023
 1695SOL     OW16720   1.766   1.410   9.846  0.0856 -0.2686 -0.1191
 1695SOL    HW116721   1.724   1.436   9.764 -0.0894 -1.5290 -0.4202
 1695SOL    HW216722   1.697   1.369   9.899  2.0578 -1.3324  1.5992
 1696SOL     OW16723   0.965   4.574   6.446  0.8349 -0.3318 -0.0384
 1696SOL    HW116724   0.889   4.524   6.477 -1.3813  1.9117 -1.9000
 1696SOL    HW216725   0.937   4.665   6.453  2.0396  0.1489 -1.5862
 1697SOL     OW16726   2.283   1.784  12.219  0.7285 -0.0051  0.4816
 1697SOL    HW116727   2.210   1.728  12.245  1.1609 -0.2797  1.0947
 1697SOL    HW216728   2.285   1.850  12.288 -1.5085  0.6120 -0.0429
 1698SOL     OW16729   1.105   1.715   6.716 -0.0924 -0.2245 -0.0703
 1698SOL    HW116730   1.103   1.809   6.700 -0.8687 -0.0830  0.8959
 1698SOL    HW216731   1.191   1.709   6.759 -0.4450  1.9384  0.9292
 1699SOL     OW16732   1.140   0.489   2.222  0.0131 -0.0090  0.6390
 1699SOL    HW116733   1.170   0.444   2.300  1.8004 -0.2807 -0.1936
 1699SOL    HW216734   1.046   0.471   2.221  0.3137 -1.6358  2.2790
 1700SOL     OW16735   1.078   0.309   5.628 -0.3330  0.7313 -0.2162
 1700SOL    HW116736   1.013   0.330   5.695  0.7227  1.2768  0.6393
 1700SOL    HW216737   1.107   0.222   5.653 -2.1137  1.1464  3.3010
 1701SOL     OW16738   2.808   3.390   7.392  0.2990 -0.3843  0.1145
 1701SOL    HW116739   2.843   3.426   7.310 -2.9117  1.2241 -0.5880
 1701SOL    HW216740   2.862   3.420   7.465 -1.0348 -0.8806  1.3087
 1702SOL     OW16741   0.979   3.187  13.828  0.6449 -0.4903  0.0392
 1702SOL    HW116742   0.971   3.282  13.818  1.0505 -0.3623  0.9069
 1702SOL    HW216743   0.908   3.164  13.887 -1.4898  0.9212 -1.9752
 1703SOL     OW16744   1.823   1.199   7.373 -0.1580 -0.8174  0.4626
 1703SOL    HW116745   1.905   1.182   7.327 -0.3097  0.0411 -0.1313
 1703SOL    HW216746   1.786   1.112   7.359  0.0673 -1.2496  2.5509
 1704SOL     OW16747   0.499   2.852  12.420 -0.3427  0.1141 -0.1479
 1704SOL    HW116748   0.454   2.767  12.426 -1.8249  1.0530  1.8817
 1704SOL    HW216749   0.487   2.870  12.326  0.5592  1.1281 -0.0654
 1705SOL     OW16750   2.904   1.198  15.958 -0.1998  0.1231 -0.1105
 1705SOL    HW116751   2.859   1.168  16.038  0.7212  0.3465  0.4925
 1705SOL    HW216752   2.997   1.176  15.963 -0.3342 -0.3028  0.5892
 1706SOL     OW16753   3.134   3.414   3.143 -0.0587  0.4050  0.3867
 1706SOL    HW116754   3.079   3.394   3.219 -2.8262  0.6372 -1.5385
 1706SOL    HW216755   3.088   3.493   3.115  0.2132  0.0075 -1.1617
 1707SOL     OW16756   3.434   1.759   0.673  0.0001  0.2610 -0.4264
 1707SOL    HW116757   3.470   1.778   0.586 -0.3833 -1.4712 -0.9592
 1707SOL    HW216758   3.447   1.846   0.710  1.4689  0.4486 -1.3870
 1708SOL     OW16759   1.954   0.994  16.407 -0.3296 -0.7485 -0.5519
 1708SOL    HW116760   1.887   1.044  16.360 -1.5739  0.2568  2.2614
 1708SOL    HW216761   1.909   0.915  16.438 -1.2765  0.1960  0.5000
 1709SOL     OW16762   1.680   4.269   4.706  0.3908 -0.0450  0.7718
 1709SOL    HW116763   1.626   4.304   4.778  0.6863 -1.7991  1.8397
 1709SOL    HW216764   1.623   4.296   4.634  0.7030  0.0759  0.5728
 1710SOL     OW16765   1.962   3.450  10.814 -0.0523  0.1613 -0.0517
 1710SOL    HW116766   2.001   3.460  10.901 -0.4450 -0.5679  0.2072
 1710SOL    HW216767   2.012   3.381  10.770  0.6405  0.6099  0.0392
 1711SOL     OW16768   3.649   2.835   5.940  0.2327  0.2278 -0.1252
 1711SOL    HW116769   3.735   2.851   5.978  0.0248 -1.8270  1.2384
 1711SOL    HW216770   3.594   2.876   6.008  0.6518  0.1470  0.2620
 1712SOL     OW16771   0.935   0.015   5.942  0.0844 -0.4350  0.0998
 1712SOL    HW116772   0.876   4.713   6.006 -1.6237 -1.3816 -2.0597
 1712SOL    HW216773   0.884   0.033   5.863 -1.1390  3.8724  1.8653
 1713SOL     OW16774   1.587   4.192   6.838 -0.3132  0.3207  0.2365
 1713SOL    HW116775   1.514   4.253   6.838 -0.8017 -0.2610  1.7067
 1713SOL    HW216776   1.622   4.197   6.749  0.6407  1.1718  0.6564
 1714SOL     OW16777   2.059   1.914   3.175  0.1033 -0.5171  0.8553
 1714SOL    HW116778   2.140   1.912   3.226 -0.2813  1.8063  1.5358
 1714SOL    HW216779   2.092   1.981   3.114 -1.0551 -0.1157  0.6743
 1715SOL     OW16780   3.230   1.460  11.231 -0.1379  0.6948  0.2106
 1715SOL    HW116781   3.191   1.435  11.148  3.6343  0.3278 -1.4596
 1715SOL    HW216782   3.245   1.551  11.209  0.1460  0.5301 -0.2794
 1716SOL     OW16783   4.477   4.694   5.475  0.1997  0.0852 -0.7875
 1716SOL    HW116784   4.383   4.678   5.474  0.4607 -1.4894  0.9398
 1716SOL    HW216785   4.476   0.048   5.507  1.9353 -0.4980  0.9045
 1717SOL     OW16786   3.549   1.012   8.694  0.2657  0.4749 -0.1753
 1717SOL    HW116787   3.464   1.055   8.682  0.1728  0.0153 -1.1947
 1717SOL    HW216788   3.597   1.092   8.714  2.2603 -1.4169  2.5899
 1718SOL     OW16789   2.037   1.615  13.821  0.7945  0.7670 -0.2664
 1718SOL    HW116790   1.988   1.669  13.882  1.6722 -0.1301  1.2491
 1718SOL    HW216791   1.964   1.580  13.771 -0.6105  1.2092  1.4964
 1719SOL     OW16792   1.554   0.980   9.481  0.2845  0.1464  0.1020
 1719SOL    HW116793   1.650   0.976   9.488  0.3284 -1.9547 -1.6348
 1719SOL    HW216794   1.528   0.931   9.403  1.6691 -1.0754  0.4065
 1720SOL     OW16795   1.003   2.831   4.950  0.4677 -0.1187 -0.6020
 1720SOL    HW116796   1.041   2.817   5.036  1.4557  2.1028 -0.6625
 1720SOL    HW216797   1.089   2.855   4.915 -0.6392  0.9965 -2.5581
 1721SOL     OW16798   4.358   1.518   8.042 -0.0760 -0.6674 -1.0191
 1721SOL    HW116799   4.453   1.513   8.027 -0.2250 -0.9900 -1.8516
 1721SOL    HW216800   4.348   1.559   8.128  2.1448 -2.6259  0.1608
 1722SOL     OW16801   0.255   1.589   2.554  0.1092  0.3462 -0.3250
 1722SOL    HW116802   0.192   1.597   2.625  0.9399 -0.1763  0.4733
 1722SOL    HW216803   0.201   1.544   2.489 -1.4134  2.5794 -0.6135
 1723SOL     OW16804   0.832   2.917   2.021  0.8393 -0.1196 -0.1518
 1723SOL    HW116805   0.848   3.010   2.037  0.6647 -0.0804 -0.2049
 1723SOL    HW216806   0.842   2.906   1.926  1.0324 -1.5720  0.0266
 1724SOL     OW16807   2.644   1.197   2.240 -0.2345  0.1893 -0.0487
 1724SOL    HW116808   2.716   1.219   2.299 -0.7834  2.5234 -0.2452
 1724SOL    HW216809   2.657   1.273   2.183 -0.8677  1.6879  1.8180
 1725SOL     OW16810   0.869   0.978   8.582  0.1200  0.0714  0.3869
 1725SOL    HW116811   0.821   0.961   8.501  2.9836  0.8316 -1.4684
 1725SOL    HW216812   0.904   1.063   8.558 -0.0567 -0.1147 -0.5434
 1726SOL     OW16813   3.586   1.892  16.469 -0.1882 -0.3279 -0.3119
 1726SOL    HW116814   3.615   1.835  16.398 -1.4023 -1.0068 -0.2586
 1726SOL    HW216815   3.536   1.954  16.415 -0.0927  0.7300  0.8049
 1727SOL     OW16816   4.729   3.605   2.805 -0.2055  0.3320  0.4927
 1727SOL    HW116817   0.080   3.637   2.780 -0.9043  1.3142 -0.6773
 1727SOL    HW216818   4.675   3.673   2.765 -0.9601 -0.5208  0.0765
 1728SOL     OW16819   0.252   4.265   5.647 -0.0828  0.1201 -0.5234
 1728SOL    HW116820   0.291   4.238   5.564  0.5123 -1.1563  0.1753
 1728SOL    HW216821   0.169   4.218   5.638  0.8598 -1.7020  0.1460
 1729SOL     OW16822   1.106   0.057   6.784  0.5870  0.2430 -0.0990
 1729SOL    HW116823   1.127   0.150   6.797 -1.2175  0.6397 -0.0835
 1729SOL    HW216824   1.012   0.067   6.774  0.2414 -0.5032  2.4190
 1730SOL     OW16825   2.244   3.204   1.047  0.7136  0.3444 -0.5976
 1730SOL    HW116826   2.307   3.236   1.113 -1.2154  2.7915  0.0345
 1730SOL    HW216827   2.282   3.247   0.971  3.0603  0.6533  0.7367
 1731SOL     OW16828   0.060   0.856   5.562 -0.0982  0.3522  0.1575
 1731SOL    HW116829   0.155   0.844   5.561 -0.2213 -0.4520 -1.3383
 1731SOL    HW216830   0.043   0.908   5.641 -0.8517  1.4670 -0.7424
 1732SOL     OW16831   4.568   2.679  12.238  0.6077 -0.1754  0.1868
 1732SOL    HW116832   4.499   2.628  12.279  1.2284 -0.5262  0.7924
 1732SOL    HW216833   4.557   2.662  12.144 -0.5402  1.5944 -0.0003
 1733SOL     OW16834   4.523   1.524   2.814  0.6396 -0.1756  0.8605
 1733SOL    HW116835   4.468   1.540   2.891  1.2532  0.5204  1.1482
 1733SOL    HW216836   4.497   1.436   2.787  0.9907  0.7014 -2.3365
 1734SOL     OW16837   2.401   2.157   5.931 -0.2266 -0.3310  0.3783
 1734SOL    HW116838   2.374   2.178   6.020  2.1820  1.8731  0.5636
 1734SOL    HW216839   2.328   2.182   5.875 -1.4629  0.8412  2.5406
 1735SOL     OW16840   0.902   4.163   9.381 -0.6382 -0.0678  0.3185
 1735SOL    HW116841   0.970   4.144   9.445 -0.3956  2.0543  0.6999
 1735SOL    HW216842   0.927   4.111   9.304 -1.6309 -0.6476  0.3966
 1736SOL     OW16843   4.398   0.337   5.709 -0.0731  0.4307 -0.2974
 1736SOL    HW116844   4.442   0.308   5.629  0.8679  1.8928 -0.3171
 1736SOL    HW216845   4.330   0.270   5.699 -0.3519  0.7985 -0.8519
 1737SOL     OW16846   1.164   2.473   3.977 -0.0064 -0.0884 -0.3230
 1737SOL    HW116847   1.127   2.392   3.942 -1.9080 -0.6300  2.9443
 1737SOL    HW216848   1.235   2.498   3.917 -0.3045  0.2418 -0.5412
 1738SOL     OW16849   1.528   4.169   3.283 -0.3473  0.2204 -0.2945
 1738SOL    HW116850   1.543   4.220   3.204  0.5742 -2.7225 -2.0506
 1738SOL    HW216851   1.457   4.109   3.261  0.7500 -0.5578 -1.7156
 1739SOL     OW16852   0.844   0.118   6.695  0.0269  0.3513 -0.4552
 1739SOL    HW116853   0.839   0.108   6.600  2.1681  2.6858 -0.7896
 1739SOL    HW216854   0.864   0.211   6.695  0.0716  0.3357  0.4820
 1740SOL     OW16855   3.046   4.587  12.341  0.2083  0.2889  0.1308
 1740SOL    HW116856   2.951   4.582  12.353  0.1438  2.1393  0.3809
 1740SOL    HW216857   3.060   4.681  12.333 -1.0653  0.4818  0.1685
 1741SOL     OW16858   3.036   4.090  16.945  0.2593  0.7530 -0.2370
 1741SOL    HW116859   3.118   4.135  16.967 -0.0530  0.9009  0.6214
 1741SOL    HW216860   2.974   4.161  16.928  0.3280  0.8945  0.1004
 1742SOL     OW16861   2.203   4.207   5.533  0.6633 -0.2799  0.3414
 1742SOL    HW116862   2.146   4.136   5.565  0.7733  0.0394  1.2393
 1742SOL    HW216863   2.239   4.237   5.616 -0.2309  0.0549  0.6048
 1743SOL     OW16864   0.236   0.963   0.739 -0.3613 -0.0746 -0.9804
 1743SOL    HW116865   0.271   1.050   0.760 -0.6178 -0.4059  0.7730
 1743SOL    HW216866   0.299   0.948   0.668  0.6775 -0.6662  0.0637
 1744SOL     OW16867   1.500   3.312   9.914 -0.3059  0.5507 -0.4681
 1744SOL    HW116868   1.535   3.292  10.000  0.4103  1.6575 -0.5151
 1744SOL    HW216869   1.553   3.388   9.891 -0.2750 -0.4749 -3.8331
 1745SOL     OW16870   0.477   4.189   6.655 -0.6297 -0.5967 -0.0653
 1745SOL    HW116871   0.452   4.119   6.715 -0.2507 -0.4319  0.2870
 1745SOL    HW216872   0.393   4.235   6.649  0.1055  0.5031 -2.0234
 1746SOL     OW16873   4.266   4.561  15.028  0.0752  0.0795 -0.0783
 1746SOL    HW116874   4.325   4.604  14.965  0.3879 -3.5942 -2.3184
 1746SOL    HW216875   4.325   4.506  15.080  0.8028  0.6333 -0.3148
 1747SOL     OW16876   0.477   0.472   7.033  0.2493 -0.4569  0.6415
 1747SOL    HW116877   0.400   0.496   6.981  1.6721  1.5004 -0.5550
 1747SOL    HW216878   0.459   0.379   7.045 -2.5921  0.1155  0.8397
 1748SOL     OW16879   4.620   3.497   3.357  0.2165  0.2691 -0.3475
 1748SOL    HW116880   4.601   3.559   3.429 -0.4002  0.2877 -0.5323
 1748SOL    HW216881   4.688   3.440   3.393  0.0882  0.1883 -0.2347
 1749SOL     OW16882   1.645   0.774   8.483  0.1066 -0.5863 -0.4164
 1749SOL    HW116883   1.554   0.744   8.488  0.2442 -0.6634  1.6159
 1749SOL    HW216884   1.646   0.793   8.577  0.1076  0.5237 -0.6421
 1750SOL     OW16885   2.341   3.622   8.501  0.5158  0.0792 -0.4418
 1750SOL    HW116886   2.425   3.650   8.464  0.8221  2.8747  2.3703
 1750SOL    HW216887   2.365   3.539   8.541  3.9649  1.4336  0.3260
 1751SOL     OW16888   2.043   1.649   0.304  0.5481  0.7999  0.2790
 1751SOL    HW116889   2.017   1.570   0.256  0.6376 -0.5823  2.5043
 1751SOL    HW216890   1.999   1.643   0.389 -3.2757 -1.2992 -1.7980
 1752SOL     OW16891   3.759   3.448   3.956  0.3210 -0.1507 -0.8473
 1752SOL    HW116892   3.709   3.367   3.950  1.7522 -1.1411  0.4832
 1752SOL    HW216893   3.753   3.472   4.049 -0.4419 -0.1011 -0.9099
 1753SOL     OW16894   1.991   3.469  17.124 -0.2732 -0.6859 -0.1448
 1753SOL    HW116895   1.963   3.553  17.085 -0.5005 -1.3830 -1.5038
 1753SOL    HW216896   1.969   3.396  17.066 -0.4467 -0.2261 -0.6633
 1754SOL     OW16897   2.066   3.793   8.873  0.1978 -0.0427 -0.2823
 1754SOL    HW116898   2.071   3.843   8.791  1.4720  1.1488  0.5198
 1754SOL    HW216899   2.076   3.701   8.848 -0.9670 -0.2954  0.1984
 1755SOL     OW16900   0.934   1.683   3.561  0.0253 -0.3966 -0.0196
 1755SOL    HW116901   0.948   1.778   3.556 -0.6338 -0.1974  1.8724
 1755SOL    HW216902   0.839   1.672   3.562  0.0009 -0.2807 -1.0860
 1756SOL     OW16903   1.225   0.560  13.832  0.4998 -0.9137  0.1852
 1756SOL    HW116904   1.170   0.520  13.899 -1.8656 -2.2838 -2.5602
 1756SOL    HW216905   1.302   0.504  13.825 -0.0766 -1.7441  0.5814
 1757SOL     OW16906   0.111   3.714   8.587 -0.0548  0.3376  0.3088
 1757SOL    HW116907   0.131   3.620   8.590  1.2930  0.6740  1.6106
 1757SOL    HW216908   0.199   3.750   8.597  0.2799  0.3007 -2.4592
 1758SOL     OW16909   0.111   0.483   4.065  0.2435 -0.0165  0.3308
 1758SOL    HW116910   0.123   0.431   4.144 -3.7112  0.3587  1.1996
 1758SOL    HW216911   0.145   0.567   4.094 -4.9397  1.9248  0.7338
 1759SOL     OW16912   2.658   4.006   1.037 -0.4715 -0.1043 -0.1905
 1759SOL    HW116913   2.620   3.988   1.123 -0.6777 -1.1562 -0.5065
 1759SOL    HW216914   2.746   4.038   1.059 -1.1358  0.2923  1.9354
 1760SOL     OW16915   0.014   3.491  15.001  0.2796  0.5204  0.7011
 1760SOL    HW116916   0.012   3.507  15.095  0.2461 -1.7306  1.0928
 1760SOL    HW216917   0.107   3.480  14.980 -0.1947  0.5323 -1.4345
 1761SOL     OW16918   2.850   2.569   7.247 -0.6271  0.6346  0.0181
 1761SOL    HW116919   2.943   2.561   7.265 -0.6377  0.4018 -0.0306
 1761SOL    HW216920   2.856   2.661   7.223  0.1788  0.1692 -1.5784
 1762SOL     OW16921   0.052   2.885   8.014  0.0618  0.2360 -0.3629
 1762SOL    HW116922   0.022   2.795   8.008  0.9078 -0.0896  0.3532
 1762SOL    HW216923   0.087   2.892   8.103 -1.8846  1.0132  0.3421
 1763SOL     OW16924   2.602   3.224   0.623  0.3595 -0.2507 -0.4339
 1763SOL    HW116925   2.522   3.225   0.571  0.5673 -1.7244 -0.7793
 1763SOL    HW216926   2.611   3.132   0.647 -0.5186  0.0500  0.9896
 1764SOL     OW16927   2.837   0.769   9.219 -0.0416 -0.7818  0.7458
 1764SOL    HW116928   2.803   0.822   9.147 -2.7170 -0.6864  2.0823
 1764SOL    HW216929   2.841   0.689   9.167 -2.6532 -0.8585  0.6621
 1765SOL     OW16930   1.059   1.908   8.893 -0.5663  0.4334 -0.1226
 1765SOL    HW116931   1.053   1.813   8.899 -1.8842  0.5166 -0.1231
 1765SOL    HW216932   1.140   1.921   8.844 -0.0286  0.6660  0.8325
 1766SOL     OW16933   1.806   3.361   0.833  0.1372 -0.1747 -0.0277
 1766SOL    HW116934   1.884   3.314   0.863 -0.0408 -0.0326  0.6720
 1766SOL    HW216935   1.840   3.415   0.762 -0.7264 -0.9509 -1.0207
 1767SOL     OW16936   1.768   2.078   4.492 -0.2878 -0.2930 -0.2074
 1767SOL    HW116937   1.753   1.984   4.479  2.6068 -0.7507 -0.3453
 1767SOL    HW216938   1.795   2.103   4.403  2.0803  1.9426  1.1291
 1768SOL     OW16939   0.668   2.709   2.129  0.0275 -0.4460 -0.4413
 1768SOL    HW116940   0.581   2.740   2.104  0.2218  0.1876 -0.3448
 1768SOL    HW216941   0.725   2.768   2.080 -1.8604 -0.4074 -2.5863
 1769SOL     OW16942   2.280   4.236   8.030  0.2883  0.4475 -0.4933
 1769SOL    HW116943   2.237   4.304   8.082  0.0204 -0.6146  0.6608
 1769SOL    HW216944   2.365   4.241   8.072  0.2765 -2.4427 -0.1493
 1770SOL     OW16945   2.643   0.713  12.765 -0.1169 -0.1349 -0.7374
 1770SOL    HW116946   2.573   0.713  12.830 -0.1123  1.1429 -0.7236
 1770SOL    HW216947   2.594   0.708  12.683  1.5750 -2.3092 -1.6222
 1771SOL     OW16948   1.876   1.740  15.956 -0.1283 -0.2379 -0.0600
 1771SOL    HW116949   1.820   1.746  16.034  0.6709  0.7652  0.4521
 1771SOL    HW216950   1.927   1.822  15.959  2.9364 -2.1597  0.3018
 1772SOL     OW16951   4.350   1.519   7.561 -0.5114 -0.4722  0.0380
 1772SOL    HW116952   4.293   1.483   7.629  0.3131 -1.9315 -0.0291
 1772SOL    HW216953   4.419   1.453   7.564  0.3445  0.4628  0.8191
 1773SOL     OW16954   3.355   0.525   2.249 -0.5895 -0.0844 -0.0709
 1773SOL    HW116955   3.417   0.479   2.306  1.9963  2.6443 -0.7274
 1773SOL    HW216956   3.406   0.602   2.228 -0.8263  0.0225 -0.2541
 1774SOL     OW16957   0.646   3.416   4.196  0.1742 -0.4207 -0.1212
 1774SOL    HW116958   0.688   3.433   4.111  0.2461  1.2225  0.2413
 1774SOL    HW216959   0.728   3.412   4.246  0.9568  1.5342 -1.2546
 1775SOL     OW16960   0.054   2.096  11.869 -0.2281  0.0245  0.0685
 1775SOL    HW116961   0.147   2.110  11.854 -0.3272  1.1451  0.4215
 1775SOL    HW216962   0.055   2.085  11.964 -0.2477  2.2078  0.3412
 1776SOL     OW16963   1.886   2.216   2.837  0.7167 -0.8650  0.0254
 1776SOL    HW116964   1.799   2.184   2.813  0.6100  0.6744 -1.6860
 1776SOL    HW216965   1.886   2.288   2.774 -0.7963 -0.9901 -0.1326
 1777SOL     OW16966   1.388   4.445   8.725 -0.0792 -0.2287 -0.1678
 1777SOL    HW116967   1.391   4.456   8.630 -0.3892  0.5200 -0.0904
 1777SOL    HW216968   1.421   4.532   8.749 -0.6738 -0.0697  0.0763
 1778SOL     OW16969   1.110   3.793   2.449 -0.1054 -0.3077 -0.2217
 1778SOL    HW116970   1.171   3.719   2.449  0.5940  0.2645 -1.2963
 1778SOL    HW216971   1.164   3.869   2.471 -0.4058 -0.6044  1.4964
 1779SOL     OW16972   2.248   3.851   3.343 -0.3258 -0.1448 -0.7831
 1779SOL    HW116973   2.167   3.901   3.332 -0.8255 -0.6796  0.5279
 1779SOL    HW216974   2.248   3.817   3.432  0.3168  1.8727 -0.0030
 1780SOL     OW16975   0.162   3.053   3.929 -0.0643  0.4903  0.3800
 1780SOL    HW116976   0.128   3.111   3.997 -0.9712  0.7385 -0.2792
 1780SOL    HW216977   0.144   2.976   3.983  0.8500 -0.6586 -0.9838
 1781SOL     OW16978   3.257   0.146   1.563  0.0322 -0.1606 -0.6035
 1781SOL    HW116979   3.199   0.221   1.578 -0.4379 -0.4471 -0.9891
 1781SOL    HW216980   3.303   0.185   1.489 -0.4805 -1.4399 -1.5813
 1782SOL     OW16981   3.325   1.638   4.689 -0.2497  0.3196 -0.2005
 1782SOL    HW116982   3.247   1.590   4.715 -0.4150 -1.5365 -4.1082
 1782SOL    HW216983   3.362   1.671   4.771 -0.5095 -0.5198  0.2482
 1783SOL     OW16984   3.345   3.212   6.098 -0.0655  0.2902 -0.3029
 1783SOL    HW116985   3.270   3.231   6.043  0.2797 -0.0236 -0.8858
 1783SOL    HW216986   3.418   3.243   6.045 -0.8903  1.6838 -0.6104
 1784SOL     OW16987   2.436   0.492  14.963 -0.4843  0.2792 -0.0056
 1784SOL    HW116988   2.497   0.565  14.968  0.9359 -0.8107 -1.3064
 1784SOL    HW216989   2.475   0.437  15.031  2.1133  2.1812  0.0527
 1785SOL     OW16990   4.327   0.097  11.992 -0.3435  0.1291 -0.0797
 1785SOL    HW116991   4.382   0.085  12.069 -0.7000  0.6822  0.2580
 1785SOL    HW216992   4.397   0.099  11.927 -0.4809 -3.0460 -0.3215
 1786SOL     OW16993   4.116   1.095   3.144  0.2019 -0.0921  0.2411
 1786SOL    HW116994   4.135   1.155   3.072 -1.6348 -0.9756 -0.9861
 1786SOL    HW216995   4.198   1.047   3.141 -0.3715 -1.2046  2.2457
 1787SOL     OW16996   4.403   0.335   8.794  0.0604  0.0883  0.2689
 1787SOL    HW116997   4.412   0.303   8.704 -1.3883  0.3106  0.0336
 1787SOL    HW216998   4.494   0.343   8.820 -0.1046  1.2608  0.5028
 1788SOL     OW16999   1.813   1.928   5.226  0.1264 -0.2911  0.4771
 1788SOL    HW117000   1.873   2.002   5.227 -0.0449 -0.1313 -0.4198
 1788SOL    HW217001   1.789   1.907   5.135 -2.2173 -2.1958  1.5180
 1789SOL     OW17002   1.600   3.201   9.144  0.1459  0.3476  0.6652
 1789SOL    HW117003   1.629   3.130   9.087  0.6973  0.4413  0.8338
 1789SOL    HW217004   1.686   3.237   9.164  0.3464 -0.4044  1.1684
 1790SOL     OW17005   2.944   1.783   2.060 -0.7713  0.1796  1.0369
 1790SOL    HW117006   2.957   1.871   2.024  1.6452 -0.6668 -0.0855
 1790SOL    HW217007   2.850   1.795   2.076 -1.1387 -0.9599 -0.2859
 1791SOL     OW17008   2.264   3.738   3.089  0.7062  0.0350 -0.1493
 1791SOL    HW117009   2.289   3.787   3.167 -0.2287  0.8123 -0.3436
 1791SOL    HW217010   2.200   3.676   3.123  2.1109 -1.3127  0.0510
 1792SOL     OW17011   0.584   2.500   8.359  0.5865  0.4733  0.1395
 1792SOL    HW117012   0.679   2.494   8.350  0.4961 -0.7815  0.1062
 1792SOL    HW217013   0.572   2.487   8.453  0.5474  0.7482  0.1745
 1793SOL     OW17014   2.407   1.402   5.075 -0.7299 -0.2298 -0.6804
 1793SOL    HW117015   2.336   1.446   5.029 -0.9052  1.2822  1.0499
 1793SOL    HW217016   2.356   1.358   5.144  2.2332  0.3999  1.8816
 1794SOL     OW17017   2.853   4.130   9.170  0.2538  0.1530 -0.0569
 1794SOL    HW117018   2.777   4.082   9.202  1.1218 -1.1482  0.0617
 1794SOL    HW217019   2.851   4.198   9.237 -1.9310 -0.4039  0.4474
 1795SOL     OW17020   0.850   4.467  10.563 -0.2226  0.1677 -0.2904
 1795SOL    HW117021   0.902   4.468  10.482  1.2924 -0.0226  0.6703
 1795SOL    HW217022   0.864   4.374  10.583 -1.9460  0.0027  0.1024
 1796SOL     OW17023   1.749   3.988   4.738 -0.1519  0.1883 -0.3971
 1796SOL    HW117024   1.819   3.981   4.673 -0.3806  0.4861 -0.6707
 1796SOL    HW217025   1.727   4.081   4.727  0.5106  0.2058 -1.6285
 1797SOL     OW17026   0.104   2.896   8.861  0.0932 -0.5697 -0.3915
 1797SOL    HW117027   0.128   2.986   8.843  0.1825 -0.0590  2.3562
 1797SOL    HW217028   0.008   2.900   8.854  0.2369  0.3435 -1.7830
 1798SOL     OW17029   3.776   4.230   7.133 -0.2287  0.2299  0.3706
 1798SOL    HW117030   3.813   4.287   7.065 -0.5930 -0.5220 -0.4450
 1798SOL    HW217031   3.702   4.193   7.086 -0.3337  0.1355  0.6108
 1799SOL     OW17032   3.969   4.128   6.330 -0.0808  0.2823 -0.1679
 1799SOL    HW117033   3.916   4.054   6.359 -0.6374  0.9400  0.4957
 1799SOL    HW217034   4.053   4.093   6.359 -0.2004 -1.9766 -2.6252
 1800SOL     OW17035   2.792   4.290   6.949 -0.4756 -0.1041  0.5423
 1800SOL    HW117036   2.822   4.381   6.941  1.1161 -0.5813  1.0679
 1800SOL    HW217037   2.804   4.260   6.859 -0.8540  0.2510  0.3734
 1801SOL     OW17038   0.582   3.868   2.690  0.2457  0.0314 -0.0004
 1801SOL    HW117039   0.574   3.821   2.607  0.9832 -1.8906  1.0309
 1801SOL    HW217040   0.505   3.925   2.692 -0.1010 -0.4590  0.5021
 1802SOL     OW17041   1.490   2.265   8.157 -0.0780  0.4181  0.1573
 1802SOL    HW117042   1.483   2.361   8.150 -5.2574  0.0771  0.6736
 1802SOL    HW217043   1.530   2.241   8.074  0.9617  0.6198  0.5985
 1803SOL     OW17044   1.715   0.968   7.699  0.2272 -0.6197  0.2249
 1803SOL    HW117045   1.642   0.933   7.649 -0.4485 -0.1494  0.8956
 1803SOL    HW217046   1.744   0.904   7.764 -0.7918 -2.6393 -1.3097
 1804SOL     OW17047   2.040   4.498   1.425 -0.5005  0.1089 -0.2641
 1804SOL    HW117048   2.124   4.479   1.466 -0.4504  3.1291  1.0187
 1804SOL    HW217049   2.060   4.467   1.336  0.3868  1.2630 -0.4618
 1805SOL     OW17050   0.185   3.997  15.642 -0.2795  0.5859 -0.1275
 1805SOL    HW117051   0.162   4.084  15.611 -0.5606  0.9185  1.0026
 1805SOL    HW217052   0.235   3.954  15.573  2.8748  1.1333  1.7867
 1806SOL     OW17053   0.587   2.191  16.512  0.0047  0.2505 -0.0875
 1806SOL    HW117054   0.540   2.137  16.449  0.0988 -1.3235  1.1857
 1806SOL    HW217055   0.676   2.155  16.508  0.0173  0.3074 -0.3472
 1807SOL     OW17056   4.432   1.252   5.086  0.0371 -0.4057  0.0547
 1807SOL    HW117057   4.487   1.221   5.015 -0.0383 -1.1633  0.3340
 1807SOL    HW217058   4.369   1.181   5.096 -0.6444  0.0379 -1.0398
 1808SOL     OW17059   0.612   1.844  13.429  0.0581  0.2118  0.3147
 1808SOL    HW117060   0.576   1.854  13.517 -0.5332 -0.4383  0.1427
 1808SOL    HW217061   0.630   1.750  13.437 -3.2265 -0.4324  0.1097
 1809SOL     OW17062   3.268   0.069   5.242  0.1252  0.0590  0.0744
 1809SOL    HW117063   3.222   4.724   5.221 -0.0659 -0.1152  1.1735
 1809SOL    HW217064   3.210   0.101   5.312  0.2339  0.5438 -0.0519
 1810SOL     OW17065   2.875   1.588   9.333  0.5709  0.1580  0.8505
 1810SOL    HW117066   2.968   1.568   9.344  0.8994  1.0266 -0.3103
 1810SOL    HW217067   2.873   1.682   9.347  1.0156  0.0846  1.4056
 1811SOL     OW17068   1.719   0.984   3.067  0.2758  0.2542  0.3289
 1811SOL    HW117069   1.737   1.063   3.016  0.7562 -0.6028 -0.8612
 1811SOL    HW217070   1.806   0.964   3.101  0.9575 -0.7345 -1.9381
 1812SOL     OW17071   2.443   0.713   3.989 -0.4092 -0.1171 -0.2842
 1812SOL    HW117072   2.521   0.753   4.028 -0.4262 -0.2239 -0.1390
 1812SOL    HW217073   2.479   0.628   3.965  0.2830 -0.1096  0.6982
 1813SOL     OW17074   2.819   2.072   9.619  0.3456  0.3076 -0.0425
 1813SOL    HW117075   2.867   1.989   9.616  2.4361  1.5331 -0.7120
 1813SOL    HW217076   2.847   2.119   9.541  0.7755 -2.2040 -1.4013
 1814SOL     OW17077   2.674   2.908   2.340 -0.0148  0.6614 -0.3245
 1814SOL    HW117078   2.647   2.941   2.255  0.8046  0.4666 -0.6539
 1814SOL    HW217079   2.611   2.953   2.396  0.3080 -1.2032  1.5301
 1815SOL     OW17080   0.472   4.064   3.902  0.0361 -0.0088 -0.2271
 1815SOL    HW117081   0.440   3.974   3.904 -2.1505  0.7530 -1.0258
 1815SOL    HW217082   0.462   4.080   3.995 -1.5704  1.9621 -0.7456
 1816SOL     OW17083   2.196   2.186   2.731  0.0894 -0.3535 -0.1767
 1816SOL    HW117084   2.257   2.259   2.737 -0.1925 -0.2075  0.8458
 1816SOL    HW217085   2.112   2.229   2.714 -0.2732 -0.8001  0.4557
 1817SOL     OW17086   4.048   2.317  16.008  0.0466  0.4058  0.1728
 1817SOL    HW117087   4.096   2.237  15.988 -2.4331 -1.3616  1.2023
 1817SOL    HW217088   3.958   2.305  15.977 -0.6714  2.0996  1.5794
 1818SOL     OW17089   2.082   3.871  15.018 -0.0254  0.0972  0.0098
 1818SOL    HW117090   2.063   3.953  14.972  0.1570 -0.0850 -0.3905
 1818SOL    HW217091   2.167   3.855  14.978 -0.7088 -1.5370 -0.7573
 1819SOL     OW17092   3.386   2.030   6.398 -0.1054  0.0084  0.2142
 1819SOL    HW117093   3.323   2.096   6.369 -1.1629 -2.6761 -3.5041
 1819SOL    HW217094   3.463   2.053   6.347 -0.3043  0.7864  0.2567
 1820SOL     OW17095   1.446   1.723   2.165 -0.1674 -0.4180  0.2820
 1820SOL    HW117096   1.422   1.767   2.084 -3.2656 -1.3641  0.6955
 1820SOL    HW217097   1.365   1.674   2.179  0.6784 -2.0963 -0.6275
 1821SOL     OW17098   4.731   0.279   9.750  0.1634 -0.3286  0.4219
 1821SOL    HW117099   0.003   0.257   9.657 -1.9304 -0.1005  0.2037
 1821SOL    HW217100   4.722   0.189   9.783 -1.1300 -0.5196 -0.4387
 1822SOL     OW17101   0.009   0.945   7.825  0.4310 -0.0733 -0.1607
 1822SOL    HW117102   0.054   0.937   7.741 -0.4964  0.4043 -0.7085
 1822SOL    HW217103   0.065   1.015   7.860  1.3500 -0.4233 -0.9631
 1823SOL     OW17104   0.649   3.011   0.431  0.1083  0.1338  0.4916
 1823SOL    HW117105   0.710   2.956   0.382  1.0024  1.5220  0.0528
 1823SOL    HW217106   0.707   3.052   0.495 -0.0307  0.4696  0.4036
 1824SOL     OW17107   2.203   4.208   0.992 -0.1431  0.2303  0.7785
 1824SOL    HW117108   2.295   4.197   0.970 -0.5821  0.3288 -1.0779
 1824SOL    HW217109   2.173   4.148   0.924 -0.5627  4.9205 -3.1076
 1825SOL     OW17110   2.707   2.524  15.167  0.5410 -0.0067 -0.2344
 1825SOL    HW117111   2.648   2.497  15.096  0.1653 -0.0167  0.0831
 1825SOL    HW217112   2.676   2.614  15.168 -0.6525 -0.4454  2.0341
 1826SOL     OW17113   0.089   1.560  13.204  0.8898  0.0884 -0.3244
 1826SOL    HW117114   0.084   1.543  13.298 -0.7876  1.6594 -0.1488
 1826SOL    HW217115   0.063   1.651  13.193  0.1746  0.0242  0.7776
 1827SOL     OW17116   4.515   2.116   4.631 -0.1980  0.5643  0.3135
 1827SOL    HW117117   4.600   2.152   4.654 -0.0077 -0.9866  2.0358
 1827SOL    HW217118   4.459   2.140   4.705  0.4760  2.7379  0.1268
 1828SOL     OW17119   2.532   3.456  11.137 -0.1230  0.2157 -0.5265
 1828SOL    HW117120   2.453   3.464  11.083  1.0424  1.7413 -2.0246
 1828SOL    HW217121   2.565   3.376  11.097  2.0226  1.2256 -0.7740
 1829SOL     OW17122   2.171   1.829   0.651  0.0121  0.2161 -0.6600
 1829SOL    HW117123   2.120   1.763   0.699  1.3133 -0.7839 -0.6343
 1829SOL    HW217124   2.245   1.832   0.712 -0.0884  2.5932 -0.6645
 1830SOL     OW17125   1.964   3.346  14.208  0.2319  0.2327  0.0735
 1830SOL    HW117126   1.877   3.375  14.238 -0.4950  0.1526 -1.9605
 1830SOL    HW217127   1.938   3.314  14.122 -0.3443 -1.8706  1.0467
 1831SOL     OW17128   2.549   3.883  16.446  0.0558 -0.2948  0.2734
 1831SOL    HW117129   2.621   3.822  16.429  0.2635  0.2716 -0.8754
 1831SOL    HW217130   2.475   3.822  16.441  0.4093 -0.8796  2.1167
 1832SOL     OW17131   4.440   4.167  15.138 -0.3026  0.4726 -0.4112
 1832SOL    HW117132   4.415   4.198  15.051 -1.6050 -0.0208 -0.2062
 1832SOL    HW217133   4.441   4.245  15.194  3.5407 -0.9492  1.5082
 1833SOL     OW17134   3.069   3.573  12.070 -0.4958  0.4864  0.8313
 1833SOL    HW117135   3.012   3.634  12.118  0.4409  2.5657 -0.7209
 1833SOL    HW217136   3.039   3.486  12.097 -3.1768  0.7530 -1.3352
 1834SOL     OW17137   3.128   0.523   7.872 -0.0826  0.5431 -0.5176
 1834SOL    HW117138   3.220   0.548   7.879  0.4863 -2.2131  1.7023
 1834SOL    HW217139   3.130   0.476   7.789  1.3840 -1.6083  0.7527
 1835SOL     OW17140   2.112   4.093  10.845 -0.1756  0.3015 -0.2924
 1835SOL    HW117141   2.032   4.102  10.897 -0.1813 -1.1599 -0.0477
 1835SOL    HW217142   2.143   4.004  10.859  2.0023  1.2347  0.8591
 1836SOL     OW17143   2.046   2.518   9.062  0.2219 -0.3499 -0.0587
 1836SOL    HW117144   2.009   2.588   9.115 -0.6481  0.7414 -2.1403
 1836SOL    HW217145   2.140   2.514   9.079 -0.0072  0.6666  1.3877
 1837SOL     OW17146   0.177   4.602   8.233 -0.0688  0.0654  0.7506
 1837SOL    HW117147   0.180   4.696   8.213  0.7320  0.3672  2.2677
 1837SOL    HW217148   0.083   4.583   8.227 -0.1759  1.1362 -0.9828
 1838SOL     OW17149   2.492   4.129   4.869  0.2709  0.0493  0.1989
 1838SOL    HW117150   2.424   4.165   4.813  2.7754  1.1634 -2.1341
 1838SOL    HW217151   2.502   4.199   4.935 -1.1106  0.8991 -0.4927
 1839SOL     OW17152   2.516   3.551   1.883 -0.2029 -0.0890  0.5533
 1839SOL    HW117153   2.474   3.604   1.816  2.4884  0.3420 -0.7828
 1839SOL    HW217154   2.607   3.548   1.855  0.2940  2.1879  1.8896
 1840SOL     OW17155   0.364   3.642   2.760 -0.3813 -0.5989 -0.1824
 1840SOL    HW117156   0.391   3.594   2.681  0.9892 -0.8118  0.4225
 1840SOL    HW217157   0.388   3.578   2.827  1.5239 -1.3843 -1.5952
 1841SOL     OW17158   1.271   1.117   4.249  0.2644  0.5370  0.3995
 1841SOL    HW117159   1.306   1.029   4.235  0.0701  0.0224  3.3049
 1841SOL    HW217160   1.195   1.087   4.298  0.6377  1.1713  1.3592
 1842SOL     OW17161   0.838   2.866   2.302 -0.5597 -0.2629 -0.4212
 1842SOL    HW117162   0.767   2.802   2.295  0.9320 -2.0137  0.6716
 1842SOL    HW217163   0.834   2.911   2.218 -0.8770  0.7880  0.1521
 1843SOL     OW17164   2.447   1.594   8.633 -0.0236 -0.3462  0.0318
 1843SOL    HW117165   2.453   1.530   8.704  2.3782 -0.2040 -0.0187
 1843SOL    HW217166   2.443   1.678   8.679  1.3312 -0.1630 -0.1605
 1844SOL     OW17167   4.245   3.444   6.406  0.0162  0.5109  0.4118
 1844SOL    HW117168   4.333   3.414   6.430 -1.0063 -1.4618  1.6035
 1844SOL    HW217169   4.201   3.390   6.472  0.7982 -1.3315 -0.5740
 1845SOL     OW17170   3.530   1.984   1.397 -0.9263  0.1742 -0.2417
 1845SOL    HW117171   3.484   1.951   1.320  1.7933 -1.2124 -1.2700
 1845SOL    HW217172   3.588   2.046   1.354  0.9233 -0.6557  1.0731
 1846SOL     OW17173   1.379   3.563   5.571  0.1843 -0.2172  0.1888
 1846SOL    HW117174   1.346   3.642   5.613 -1.1557 -0.2414 -0.7920
 1846SOL    HW217175   1.320   3.500   5.614 -1.8356  1.0701 -0.6715
 1847SOL     OW17176   0.290   4.063  10.557  0.5538  0.2163 -0.3147
 1847SOL    HW117177   0.352   4.133  10.537  1.1139 -0.8098 -2.2446
 1847SOL    HW217178   0.304   4.056  10.651 -2.5044 -2.5867 -0.0338
 1848SOL     OW17179   1.201   3.444   4.134  0.6533 -0.1756  0.2069
 1848SOL    HW117180   1.265   3.487   4.077 -0.1967 -0.1864 -0.7519
 1848SOL    HW217181   1.157   3.400   4.061  0.4034 -1.8277  1.3346
 1849SOL     OW17182   0.872   3.895   4.081  0.0813  0.0642 -0.0293
 1849SOL    HW117183   0.892   3.857   4.167  3.8190  1.8726 -0.1425
 1849SOL    HW217184   0.921   3.976   4.092 -1.3649  0.9802 -0.3951
 1850SOL     OW17185   3.818   0.396   6.156 -0.2497 -0.0127  0.0069
 1850SOL    HW117186   3.873   0.337   6.208 -1.7379 -0.5727  0.9199
 1850SOL    HW217187   3.728   0.371   6.178 -0.0095 -1.8635 -1.0365
 1851SOL     OW17188   2.576   3.211  10.997  0.5841 -0.0178 -0.1604
 1851SOL    HW117189   2.536   3.188  10.913  0.7206  0.2567 -0.3010
 1851SOL    HW217190   2.656   3.159  11.002  0.6095  0.1429  1.1715
 1852SOL     OW17191   0.989   3.501   2.486  0.1522  0.2864 -0.0137
 1852SOL    HW117192   0.910   3.553   2.468  1.0460  1.7284  0.2179
 1852SOL    HW217193   0.978   3.496   2.581  1.0819 -0.7650  0.0300
 1853SOL     OW17194   4.433   0.079  17.052 -0.7142 -0.3130 -0.2417
 1853SOL    HW117195   4.484   4.735  17.037 -0.9917 -0.6507  0.5907
 1853SOL    HW217196   4.396   0.058  17.138  1.4985  2.1329  1.2886
 1854SOL     OW17197   1.847   3.428  16.719 -0.2657 -0.0404 -0.3601
 1854SOL    HW117198   1.848   3.400  16.627 -0.4445  3.3728 -1.3820
 1854SOL    HW217199   1.769   3.482  16.728  0.8162  1.5221 -0.2863
 1855SOL     OW17200   4.305   4.285   3.634  0.0413  0.0560 -0.4171
 1855SOL    HW117201   4.258   4.234   3.700  2.6911  0.9285  2.1395
 1855SOL    HW217202   4.233   4.335   3.596 -0.3118 -0.1646 -0.0320
 1856SOL     OW17203   2.088   2.879   7.129  0.1028 -0.2450 -0.2704
 1856SOL    HW117204   2.006   2.851   7.168 -0.0001 -0.5593 -0.7083
 1856SOL    HW217205   2.094   2.808   7.064  0.0504  0.5475 -1.1404
 1857SOL     OW17206   4.276   0.684   5.230 -0.0718  0.2396 -0.0204
 1857SOL    HW117207   4.194   0.677   5.279  0.0369  3.0792  0.5873
 1857SOL    HW217208   4.252   0.723   5.145  0.3962 -1.3616 -0.8900
 1858SOL     OW17209   4.676   0.825   5.321 -0.4560 -0.2082 -0.2039
 1858SOL    HW117210   4.718   0.852   5.403  0.7589  0.7717 -1.1572
 1858SOL    HW217211   4.610   0.768   5.361  0.0055 -2.4058 -2.5641
 1859SOL     OW17212   1.107   0.917   2.407 -0.0340  0.0137  0.0013
 1859SOL    HW117213   1.180   0.903   2.347 -0.5246 -1.4976 -0.2599
 1859SOL    HW217214   1.147   0.899   2.492  1.2360  1.6758 -0.2574
 1860SOL     OW17215   4.700   3.221   4.941  0.1419 -0.4568  0.3060
 1860SOL    HW117216   4.720   3.147   4.883  0.1872 -0.3924  0.2409
 1860SOL    HW217217   4.718   3.186   5.029 -1.3200 -0.5787  0.5607
 1861SOL     OW17218   0.411   0.106   1.121 -0.2860 -0.7413 -0.0284
 1861SOL    HW117219   0.495   0.113   1.167 -1.6169 -0.1629  2.2888
 1861SOL    HW217220   0.349   0.094   1.193 -1.8494 -0.9867 -1.4040
 1862SOL     OW17221   4.134   1.147   7.636  0.0788 -0.0115  0.2892
 1862SOL    HW117222   4.217   1.161   7.682  1.1533 -0.4646 -1.4989
 1862SOL    HW217223   4.096   1.074   7.685  2.2835 -1.0414  0.4492
 1863SOL     OW17224   0.549   4.517   5.336  0.2620  0.3516  0.1330
 1863SOL    HW117225   0.541   4.512   5.431  0.7275 -1.7523  0.0510
 1863SOL    HW217226   0.460   4.494   5.306  0.3415 -1.3244  1.2112
 1864SOL     OW17227   0.521   1.406   6.230  0.1606 -0.4163 -0.4588
 1864SOL    HW117228   0.609   1.368   6.230  0.0796 -0.6339  1.2658
 1864SOL    HW217229   0.543   1.477   6.170 -0.4632  0.5317  0.4409
 1865SOL     OW17230   2.814   4.039   2.909 -0.5818 -0.4134  0.2739
 1865SOL    HW117231   2.765   3.957   2.899 -0.1083 -0.6424 -0.1851
 1865SOL    HW217232   2.757   4.090   2.851  1.6261  0.2688 -1.3063
 1866SOL     OW17233   0.533   4.123   5.163  0.2338 -0.2249  0.4258
 1866SOL    HW117234   0.495   4.056   5.219  1.0826 -1.1798 -0.1271
 1866SOL    HW217235   0.521   4.090   5.074  0.3586 -2.0102  1.0699
 1867SOL     OW17236   0.084   2.504  11.406  0.0688  0.4303 -0.0783
 1867SOL    HW117237   0.050   2.437  11.347 -0.7572  0.3419  0.4945
 1867SOL    HW217238   0.121   2.562  11.340 -0.2842  1.3947  0.5693
 1868SOL     OW17239   0.565   0.228  16.407  0.2964 -0.3638 -0.2503
 1868SOL    HW117240   0.573   0.181  16.490 -1.2975 -0.6075 -0.2426
 1868SOL    HW217241   0.608   0.309  16.434 -2.1290  0.7896  0.0724
 1869SOL     OW17242   2.033   3.426   6.963 -0.4599  0.1501  0.3473
 1869SOL    HW117243   2.056   3.486   6.892 -2.0454  0.3062 -0.0227
 1869SOL    HW217244   1.986   3.482   7.025 -0.3952  1.4182 -0.7429
 1870SOL     OW17245   3.748   2.637  12.462  0.0302 -0.5966  0.2652
 1870SOL    HW117246   3.822   2.582  12.434 -1.8914 -2.7455 -0.6348
 1870SOL    HW217247   3.790   2.706  12.513 -2.0517  0.7719  0.1088
 1871SOL     OW17248   0.827   0.371  11.102 -0.2912 -0.2184  0.1033
 1871SOL    HW117249   0.888   0.299  11.083  1.1295  1.5306 -1.9735
 1871SOL    HW217250   0.755   0.309  11.107  1.8489 -2.6286  1.1766
 1872SOL     OW17251   4.504   2.512   9.752 -0.2448 -0.0199 -0.0833
 1872SOL    HW117252   4.544   2.472   9.675  2.6288  0.8468  0.9504
 1872SOL    HW217253   4.579   2.533   9.808  0.5800 -0.0578 -1.1745
 1873SOL     OW17254   4.040   0.994   8.496  0.0695 -0.4177  0.8231
 1873SOL    HW117255   4.039   0.927   8.564 -1.4058 -1.1336  0.0883
 1873SOL    HW217256   4.046   1.074   8.548  1.1646 -0.6471  1.0402
 1874SOL     OW17257   1.012   0.536   8.470 -0.5946  0.2212 -0.1805
 1874SOL    HW117258   1.082   0.534   8.535  0.7186  1.9033 -1.5442
 1874SOL    HW217259   0.932   0.494   8.501  0.1194  0.8927  2.5553
 1875SOL     OW17260   2.840   0.325   6.624  0.2107  0.6370 -0.2518
 1875SOL    HW117261   2.897   0.395   6.656 -0.4052  0.5106  1.0896
 1875SOL    HW217262   2.855   0.260   6.692  1.4791 -0.3582 -1.4826
 1876SOL     OW17263   2.927   2.765   8.271  0.0054  1.0072  0.0682
 1876SOL    HW117264   2.866   2.772   8.344 -0.0163  1.7915 -0.0312
 1876SOL    HW217265   2.993   2.832   8.287  0.1388  1.2385 -1.4413
 1877SOL     OW17266   2.861   1.618  14.757 -0.1667  0.3732 -0.0035
 1877SOL    HW117267   2.801   1.578  14.694 -0.1073 -1.4505  1.1039
 1877SOL    HW217268   2.947   1.578  14.746  0.4859  1.3086  1.6532
 1878SOL     OW17269   4.460   3.518   0.831  0.1640 -0.2042  0.0582
 1878SOL    HW117270   4.442   3.425   0.816  0.4398 -0.1816 -0.4472
 1878SOL    HW217271   4.556   3.513   0.832  0.2534  0.8792 -2.0073
 1879SOL     OW17272   4.212   2.942   3.457 -0.2751 -0.4560  0.3791
 1879SOL    HW117273   4.267   3.016   3.432 -0.1366 -0.0070  2.0719
 1879SOL    HW217274   4.189   2.919   3.367  2.6383  0.0415 -0.5184
 1880SOL     OW17275   1.536   4.495   9.381 -0.0752 -0.1559  0.0681
 1880SOL    HW117276   1.549   4.580   9.339 -3.5958  0.9386  1.2137
 1880SOL    HW217277   1.575   4.442   9.311  1.2100  0.4797  0.2957
 1881SOL     OW17278   0.369   2.378  15.979  0.2661  0.4419 -0.3073
 1881SOL    HW117279   0.275   2.363  15.989  0.6347 -1.3282  0.4981
 1881SOL    HW217280   0.375   2.365  15.885  0.4829 -3.1383  0.1730
 1882SOL     OW17281   1.305   4.645  13.787  0.2582 -0.0831 -0.4074
 1882SOL    HW117282   1.312   0.004  13.775  2.0964 -0.1216  0.3115
 1882SOL    HW217283   1.264   4.613  13.707 -2.4186  2.6670 -0.1366
 1883SOL     OW17284   2.844   1.258   5.512  0.2048  0.3344  0.1102
 1883SOL    HW117285   2.910   1.322   5.485  0.1591  0.2982 -0.0895
 1883SOL    HW217286   2.822   1.301   5.594 -0.3779  1.1529 -0.4864
 1884SOL     OW17287   1.573   3.641   2.011  0.0016 -0.6421 -0.2796
 1884SOL    HW117288   1.499   3.609   2.063  1.5483  0.0094  2.3315
 1884SOL    HW217289   1.538   3.729   2.013 -2.2742 -1.6253  2.4217
 1885SOL     OW17290   3.628   3.239  10.015 -0.2347 -0.3586  0.1983
 1885SOL    HW117291   3.563   3.281  10.071 -0.3662 -1.8740  1.1918
 1885SOL    HW217292   3.613   3.146  10.034  0.9035 -0.8455 -1.2212
 1886SOL     OW17293   0.737   2.789   6.726 -0.1388  0.2118 -0.1209
 1886SOL    HW117294   0.661   2.845   6.743  0.5086  0.6446  1.3361
 1886SOL    HW217295   0.808   2.851   6.745 -0.5108  0.5324  0.2460
 1887SOL     OW17296   3.822   0.716  10.679  0.1331  0.4542 -0.6370
 1887SOL    HW117297   3.843   0.809  10.675  0.0885  0.4756 -0.3758
 1887SOL    HW217298   3.839   0.705  10.773  0.7547 -0.2005 -0.8362
 1888SOL     OW17299   1.429   4.471   8.459 -0.1589  0.5267  0.2859
 1888SOL    HW117300   1.416   4.542   8.396  0.3567  0.1634 -0.2387
 1888SOL    HW217301   1.387   4.392   8.426  0.2007  0.8476 -0.9701
 1889SOL     OW17302   1.767   3.192   4.413 -0.1708 -0.2688  0.4007
 1889SOL    HW117303   1.675   3.168   4.401  0.3257 -0.9214 -2.0012
 1889SOL    HW217304   1.774   3.273   4.362  0.1933  1.7341  3.6538
 1890SOL     OW17305   1.279   4.271  16.969  0.2710  0.3325 -0.1853
 1890SOL    HW117306   1.332   4.275  17.048 -0.0588 -1.3306  0.1141
 1890SOL    HW217307   1.194   4.290  17.009  0.2193  0.5349 -0.3911
 1891SOL     OW17308   1.934   2.600   6.570 -0.3601  0.7319 -0.0821
 1891SOL    HW117309   1.921   2.680   6.519  1.2894  0.3162 -1.1604
 1891SOL    HW217310   1.946   2.541   6.495 -0.7444 -0.2950  0.6652
 1892SOL     OW17311   0.386   2.102   6.126 -0.4608 -0.0528 -0.4627
 1892SOL    HW117312   0.303   2.143   6.150  0.5472  0.3393  2.3016
 1892SOL    HW217313   0.427   2.178   6.084  0.3302  0.5601  1.4248
 1893SOL     OW17314   2.404   0.065   6.589 -0.0371 -0.3307  0.0818
 1893SOL    HW117315   2.466   4.735   6.618  0.9095  0.3296 -0.4500
 1893SOL    HW217316   2.434   0.145   6.632 -1.5116 -0.0712  0.6420
 1894SOL     OW17317   3.936   4.001   8.293 -0.0805 -0.1502  0.1563
 1894SOL    HW117318   3.869   4.060   8.326 -0.3403 -0.7253  0.6382
 1894SOL    HW217319   3.895   3.926   8.336 -0.3367 -0.4757 -0.6567
 1895SOL     OW17320   1.291   0.757   6.776 -0.0651  0.8023  0.4694
 1895SOL    HW117321   1.368   0.701   6.782  0.3179  1.2168 -0.4989
 1895SOL    HW217322   1.317   0.809   6.699 -1.9546  0.2204 -0.5534
 1896SOL     OW17323   0.427   3.932  11.063  0.2563 -0.4028  0.0505
 1896SOL    HW117324   0.400   3.997  11.127 -2.4523 -0.7847 -0.7070
 1896SOL    HW217325   0.436   3.868  11.133 -0.4580  1.0064  1.4231
 1897SOL     OW17326   0.621   3.019  14.463  0.0338 -0.5564 -0.1905
 1897SOL    HW117327   0.625   3.114  14.457  1.7098 -0.7256 -1.9010
 1897SOL    HW217328   0.564   2.997  14.536  0.2985  1.1754  0.5222
 1898SOL     OW17329   3.224   3.109   3.406  0.2020 -0.0043 -0.4408
 1898SOL    HW117330   3.259   3.050   3.474  2.2691  2.8808  1.0261
 1898SOL    HW217331   3.293   3.109   3.340  0.1841  0.9456 -0.4587
 1899SOL     OW17332   0.654   4.217   0.559 -0.4679 -0.3794  0.6022
 1899SOL    HW117333   0.576   4.189   0.607 -0.2592 -2.0218  0.0031
 1899SOL    HW217334   0.673   4.306   0.586 -0.6346  0.1257 -0.9725
 1900SOL     OW17335   0.454   4.524  16.645 -0.1529 -0.0827 -0.2927
 1900SOL    HW117336   0.489   4.444  16.685 -0.8687  0.4268  1.3355
 1900SOL    HW217337   0.533   4.556  16.601  0.1198  1.2815  1.1972
 1901SOL     OW17338   1.363   3.569   1.030 -0.1114 -0.1741  0.0408
 1901SOL    HW117339   1.377   3.663   1.034  2.3227 -0.4876 -0.8486
 1901SOL    HW217340   1.447   3.527   1.049  1.3458  2.8257  0.1619
 1902SOL     OW17341   4.026   1.076   6.900  0.1383  0.3811  0.3699
 1902SOL    HW117342   4.030   1.061   6.806 -2.0214 -2.3995  0.7453
 1902SOL    HW217343   3.931   1.077   6.909  0.0790 -2.1180 -0.0173
 1903SOL     OW17344   1.230   0.272   2.396  0.6353 -0.6908 -0.4476
 1903SOL    HW117345   1.153   0.236   2.352 -0.0017  1.3125 -1.0091
 1903SOL    HW217346   1.230   0.224   2.479 -2.4207  1.5958  0.8866
 1904SOL     OW17347   4.300   0.704   9.016  0.0227 -0.1061  0.3618
 1904SOL    HW117348   4.314   0.797   8.998 -0.9906 -0.0203  0.0268
 1904SOL    HW217349   4.228   0.726   9.075 -1.3146  0.4435 -1.4831
 1905SOL     OW17350   1.936   1.409  17.313 -0.0141 -0.5667  0.2685
 1905SOL    HW117351   1.900   1.352  17.381 -2.1925  0.7238  0.1879
 1905SOL    HW217352   1.969   1.345  17.249 -0.1514 -0.7676  0.3970
 1906SOL     OW17353   2.122   4.201   7.532 -0.0966 -0.3261  0.0646
 1906SOL    HW117354   2.140   4.278   7.479 -0.8369  0.4519  0.9366
 1906SOL    HW217355   2.169   4.225   7.611 -0.3649 -0.6709  0.3284
 1907SOL     OW17356   3.799   4.026   0.550  0.5632  0.3713  0.2805
 1907SOL    HW117357   3.778   4.010   0.458 -0.9544 -1.8697  1.0193
 1907SOL    HW217358   3.753   4.108   0.568 -2.4240 -0.8419 -1.8487
 1908SOL     OW17359   2.044   3.564   4.938 -0.0236  0.4639  0.2488
 1908SOL    HW117360   1.996   3.646   4.936 -0.6053  0.0652 -1.8200
 1908SOL    HW217361   2.065   3.539   4.848  3.5609  1.1903  0.8632
 1909SOL     OW17362   1.091   0.280   8.926  0.1218 -0.3934 -0.4208
 1909SOL    HW117363   1.084   0.187   8.948  0.4638  0.2005  2.1964
 1909SOL    HW217364   1.025   0.282   8.857  0.4109  1.2588 -0.6375
 1910SOL     OW17365   3.792   4.010  17.082  0.5168  0.5229  0.0979
 1910SOL    HW117366   3.792   4.106  17.087 -0.5426  0.4092  2.4557
 1910SOL    HW217367   3.701   3.984  17.096  1.0916 -1.2614  0.5082
 1911SOL     OW17368   0.704   4.397   7.581  0.1857 -0.2088  0.4574
 1911SOL    HW117369   0.681   4.489   7.568 -0.0621 -0.2120  0.8864
 1911SOL    HW217370   0.791   4.396   7.541 -1.4024  0.3723 -3.0951
 1912SOL     OW17371   1.221   4.124   7.966  0.0934  0.2520 -0.0011
 1912SOL    HW117372   1.230   4.215   7.938 -2.7566  1.1597  1.9804
 1912SOL    HW217373   1.275   4.098   7.892 -2.0590 -1.1016 -1.1037
 1913SOL     OW17374   4.262   4.095   4.625 -0.1737 -0.0332  0.4679
 1913SOL    HW117375   4.274   4.036   4.551 -1.1578  0.5250 -0.1465
 1913SOL    HW217376   4.262   4.028   4.694  1.3051  0.3553  0.8354
 1914SOL     OW17377   3.870   4.085   7.694  0.4365 -0.6351  0.0312
 1914SOL    HW117378   3.900   4.029   7.765 -1.8453  1.6958  2.8124
 1914SOL    HW217379   3.889   4.035   7.615 -0.7592 -1.8385  0.5147
 1915SOL     OW17380   2.875   3.824   2.488 -0.1127  0.3735 -0.2546
 1915SOL    HW117381   2.871   3.912   2.525  1.8014  0.4004 -0.0720
 1915SOL    HW217382   2.897   3.831   2.395 -0.9131  2.2735 -0.2975
 1916SOL     OW17383   3.758   4.121   0.909 -0.1993  0.8399  0.0931
 1916SOL    HW117384   3.718   4.207   0.924  1.2815  1.6667 -0.5425
 1916SOL    HW217385   3.823   4.139   0.840  0.9442 -1.6149  0.5573
 1917SOL     OW17386   4.524   3.310   5.339 -0.1093 -0.0544 -0.0572
 1917SOL    HW117387   4.611   3.349   5.335  1.5900 -3.7414  0.5437
 1917SOL    HW217388   4.516   3.275   5.428  2.9722  0.9802  0.6409
 1918SOL     OW17389   2.798   1.939   7.881  0.1141  0.7115  0.3890
 1918SOL    HW117390   2.769   1.855   7.917  1.0387  1.4172  2.7693
 1918SOL    HW217391   2.831   1.917   7.794  2.3028  1.2995  1.0722
 1919SOL     OW17392   0.187   0.783   4.124 -0.9952 -0.0373 -0.0707
 1919SOL    HW117393   0.267   0.815   4.082 -1.4252 -1.8075 -2.2729
 1919SOL    HW217394   0.130   0.832   4.065 -1.7698  0.0399  0.7417
 1920SOL     OW17395   2.650   1.864  13.459  0.2025  0.3811  0.3024
 1920SOL    HW117396   2.621   1.809  13.531 -0.4831 -1.8534 -1.6956
 1920SOL    HW217397   2.614   1.950  13.479 -1.0010  0.0094 -0.3018
 1921SOL     OW17398   2.092   1.560   0.800 -0.3650  0.8850  0.3423
 1921SOL    HW117399   2.111   1.556   0.894 -0.4655 -0.6003  0.3090
 1921SOL    HW217400   2.028   1.489   0.796 -0.1969  0.5815  2.7659
 1922SOL     OW17401   3.728   3.138   8.338  0.6034  0.1205 -0.3201
 1922SOL    HW117402   3.706   3.201   8.406  1.2092 -0.6557  0.5916
 1922SOL    HW217403   3.708   3.058   8.386 -1.0697  0.7539  0.0239
 1923SOL     OW17404   4.652   3.156   6.617 -0.0986 -0.3466  0.3313
 1923SOL    HW117405   4.581   3.185   6.673 -1.9531 -0.4951 -1.9381
 1923SOL    HW217406   4.731   3.166   6.670 -0.1259 -0.5991  0.4172
 1924SOL     OW17407   3.124   1.565   2.671 -0.1185  0.1904 -0.1468
 1924SOL    HW117408   3.193   1.559   2.605  1.0369 -1.1049  1.1603
 1924SOL    HW217409   3.081   1.480   2.678  0.3740 -0.1382 -1.2254
 1925SOL     OW17410   0.908   4.570   4.430  0.8642 -0.8841 -0.4711
 1925SOL    HW117411   0.992   4.525   4.443  1.7325  0.0784 -2.9394
 1925SOL    HW217412   0.844   4.500   4.413  1.0851 -1.0433 -0.6507
 1926SOL     OW17413   4.169   3.150   9.213  0.3656  0.2032 -0.1971
 1926SOL    HW117414   4.155   3.078   9.152 -0.3422 -0.0484  0.2646
 1926SOL    HW217415   4.263   3.148   9.199  0.3951  1.3023 -0.2004
 1927SOL     OW17416   3.676   4.555   2.127  0.3396  0.4152  0.1990
 1927SOL    HW117417   3.755   4.562   2.180 -0.4290  0.7531  1.3072
 1927SOL    HW217418   3.651   4.647   2.136 -0.3058  0.3084 -0.4339
 1928SOL     OW17419   0.720   1.661   8.522 -0.2544  0.0693  0.0995
 1928SOL    HW117420   0.662   1.590   8.495 -2.4882  1.5870  0.8597
 1928SOL    HW217421   0.810   1.628   8.527  0.2676  1.2459 -1.7809
 1929SOL     OW17422   0.674   2.287   7.453 -0.4085 -0.0697  0.5181
 1929SOL    HW117423   0.580   2.280   7.473 -0.3206 -0.5423  0.7512
 1929SOL    HW217424   0.683   2.216   7.389 -2.8892  0.0393  0.0122
 1930SOL     OW17425   3.704   4.249   4.921  0.0135 -0.1679  0.2089
 1930SOL    HW117426   3.779   4.277   4.869 -1.4827 -1.4767 -2.6047
 1930SOL    HW217427   3.685   4.327   4.974  1.4909  0.3651 -0.0560
 1931SOL     OW17428   0.330   3.122   7.270 -0.1344  0.6788 -0.2821
 1931SOL    HW117429   0.235   3.131   7.268 -0.1976 -0.5360 -2.9210
 1931SOL    HW217430   0.348   3.047   7.327 -2.2269 -0.6610 -1.3633
 1932SOL     OW17431   3.740   3.021   0.640  0.1601  0.2899 -0.1795
 1932SOL    HW117432   3.662   3.006   0.695  1.2315 -1.9144  0.7346
 1932SOL    HW217433   3.799   2.949   0.661 -1.3091 -1.0138 -0.4683
 1933SOL     OW17434   1.175   4.538   3.596 -0.1106  0.1761  0.1571
 1933SOL    HW117435   1.171   4.633   3.595  1.2379  0.2346 -0.2925
 1933SOL    HW217436   1.088   4.507   3.620  0.2391 -0.9198  0.0593
 1934SOL     OW17437   2.469   1.823   3.691  0.1642  0.3889  0.2894
 1934SOL    HW117438   2.504   1.736   3.672  0.9625  0.7616  0.0504
 1934SOL    HW217439   2.519   1.847   3.768 -0.3602 -0.1496  0.7994
 1935SOL     OW17440   3.718   1.980  16.116  0.3549 -0.1039  0.3606
 1935SOL    HW117441   3.721   2.075  16.110 -0.3703 -0.1314 -0.4762
 1935SOL    HW217442   3.625   1.958  16.104  0.0878  1.4731 -0.4820
 1936SOL     OW17443   0.309   2.658   7.800 -0.0686 -0.3234  0.3691
 1936SOL    HW117444   0.330   2.567   7.820 -0.4175  0.1454  2.9130
 1936SOL    HW217445   0.226   2.652   7.753 -0.0287  1.2568  0.0986
 1937SOL     OW17446   0.916   1.165  13.333  0.0630 -0.0417  0.6393
 1937SOL    HW117447   0.907   1.170  13.238  0.7407  2.1238  0.7021
 1937SOL    HW217448   1.011   1.174  13.338  0.3059 -1.9649 -0.2188
 1938SOL     OW17449   0.055   2.237  15.600  0.4799  0.1112 -0.0577
 1938SOL    HW117450   4.712   2.269  15.643 -1.3128 -2.3601 -1.4950
 1938SOL    HW217451   0.065   2.306  15.534 -0.1478  0.2766  0.0196
 1939SOL     OW17452   2.341   4.424   1.482 -0.1321 -0.1317 -0.2106
 1939SOL    HW117453   2.289   4.364   1.535 -0.9071 -0.3486 -1.2057
 1939SOL    HW217454   2.426   4.388   1.507 -0.3019 -1.1063 -1.0159
 1940SOL     OW17455   2.385   3.019   7.529 -0.4257  0.4591 -0.0291
 1940SOL    HW117456   2.406   3.012   7.622 -0.6899  0.2025  0.0114
 1940SOL    HW217457   2.294   3.043   7.543 -0.3856  0.3119  0.4943
 1941SOL     OW17458   0.701   0.725   4.802  0.3704 -0.7488 -0.5536
 1941SOL    HW117459   0.780   0.779   4.806  0.6197 -1.0584 -1.3429
 1941SOL    HW217460   0.631   0.788   4.784  0.9805  0.1085  0.1132
 1942SOL     OW17461   0.297   0.518   4.550 -0.7636  0.2290  0.6932
 1942SOL    HW117462   0.208   0.482   4.546 -0.4244 -0.7482  1.8336
 1942SOL    HW217463   0.282   0.599   4.599  0.2147  1.1249 -0.4835
 1943SOL     OW17464   0.055   3.356  10.356 -0.0190 -0.3574 -0.3605
 1943SOL    HW117465   0.040   3.394  10.442 -2.5957 -2.0110 -0.0841
 1943SOL    HW217466   0.147   3.382  10.346 -0.0363 -0.2093 -0.1203
 1944SOL     OW17467   1.318   1.003   1.131 -0.4581 -0.4166  0.5003
 1944SOL    HW117468   1.279   0.916   1.131 -1.0962 -0.1232 -0.5491
 1944SOL    HW217469   1.239   1.052   1.154 -0.0996  0.2917  0.2096
 1945SOL     OW17470   0.114   3.611   4.534  0.2733 -0.6618 -0.4835
 1945SOL    HW117471   0.128   3.542   4.599 -0.3167 -0.5715 -0.2584
 1945SOL    HW217472   0.028   3.582   4.503 -0.9760 -0.0571  2.3766
 1946SOL     OW17473   3.725   2.056   7.587 -0.0585  1.0078  0.2810
 1946SOL    HW117474   3.681   2.085   7.507 -0.8921  0.5655  0.5792
 1946SOL    HW217475   3.653   2.042   7.649 -0.0153 -2.6123 -0.4920
 1947SOL     OW17476   2.538   2.451   7.105  0.0705  0.4534  0.0859
 1947SOL    HW117477   2.451   2.419   7.129  1.2685 -0.6130  3.0852
 1947SOL    HW217478   2.519   2.522   7.044 -0.6455 -0.1423 -0.3840
 1948SOL     OW17479   4.276   1.710   2.452  0.1422 -0.5956  0.2132
 1948SOL    HW117480   4.289   1.796   2.493  1.1764 -1.6116  1.9945
 1948SOL    HW217481   4.335   1.713   2.376 -0.6344 -1.7572 -0.4361
 1949SOL     OW17482   2.051   1.260  17.639  0.2230 -0.2706 -1.0724
 1949SOL    HW117483   1.973   1.245  17.585 -0.6481 -0.5265  0.2570
 1949SOL    HW217484   2.113   1.259  17.566  0.6989 -1.2271 -0.6570
 1950SOL     OW17485   0.298   4.346   3.089  0.8618 -0.3803  0.2925
 1950SOL    HW117486   0.314   4.322   3.181  1.2998  2.4164  0.9317
 1950SOL    HW217487   0.363   4.283   3.057  1.1271 -0.1070  0.2955
 1951SOL     OW17488   1.334   0.879  11.508 -0.0953 -0.0788  0.0862
 1951SOL    HW117489   1.380   0.961  11.494  1.5574 -0.7381  1.6972
 1951SOL    HW217490   1.245   0.908  11.485 -0.2749 -1.6585 -1.2091
 1952SOL     OW17491   0.092   4.221   8.631 -0.7114 -0.9587 -0.0024
 1952SOL    HW117492   0.118   4.300   8.585 -0.8714  0.0961  1.7059
 1952SOL    HW217493   0.016   4.196   8.578 -1.0826  0.4200 -0.1092
 1953SOL     OW17494   1.075   1.946   4.563 -0.2254  0.0493  0.0076
 1953SOL    HW117495   1.105   2.036   4.557 -0.6298  0.3375  2.2806
 1953SOL    HW217496   1.039   1.948   4.652  1.1241  1.1027  0.5257
 1954SOL     OW17497   0.387   2.394   4.453  0.0896 -0.6225  0.0784
 1954SOL    HW117498   0.319   2.432   4.510 -0.4458 -2.0341  0.3946
 1954SOL    HW217499   0.454   2.452   4.488 -1.1503  0.8411  0.0639
 1955SOL     OW17500   1.193   2.599   5.884  0.3747  0.1099 -0.1628
 1955SOL    HW117501   1.225   2.582   5.973  0.9665  2.3982  0.0706
 1955SOL    HW217502   1.231   2.686   5.872  0.8436 -0.3473 -1.8884
 1956SOL     OW17503   2.179   0.964   5.343  0.3509  0.2888  0.7964
 1956SOL    HW117504   2.215   0.982   5.429  0.9802  0.0772  0.5796
 1956SOL    HW217505   2.087   0.980   5.363  0.3824 -0.2166  1.3287
 1957SOL     OW17506   4.230   3.149   7.465  0.7044 -0.0170  0.6938
 1957SOL    HW117507   4.141   3.121   7.489 -0.1824  0.9934 -1.4310
 1957SOL    HW217508   4.275   3.151   7.550 -4.5670  0.1463  3.5109
 1958SOL     OW17509   1.908   4.438  15.221 -0.3502 -0.4092 -0.1777
 1958SOL    HW117510   1.874   4.526  15.204 -0.2288 -0.0793  1.3187
 1958SOL    HW217511   1.966   4.429  15.146 -1.0794  0.9326 -0.9033
 1959SOL     OW17512   4.644   3.695   7.534 -0.2226  0.4507 -0.0739
 1959SOL    HW117513   4.688   3.699   7.449 -0.0115  1.4009  0.0762
 1959SOL    HW217514   4.627   3.789   7.544  0.3163  0.2593  2.5852
 1960SOL     OW17515   3.887   1.409   2.294  0.2009  0.2968  0.8983
 1960SOL    HW117516   3.915   1.458   2.372 -1.3253  3.5053 -0.5668
 1960SOL    HW217517   3.929   1.461   2.226  1.1448 -2.7297 -0.7920
 1961SOL     OW17518   3.904   1.808   2.345  0.4078  0.3574 -0.5512
 1961SOL    HW117519   3.838   1.872   2.316  0.5452  1.0025  0.5648
 1961SOL    HW217520   3.980   1.841   2.297  1.2617 -0.8004  0.0015
 1962SOL     OW17521   0.543   1.266  10.206  0.5764  0.2573 -0.1767
 1962SOL    HW117522   0.555   1.267  10.111  0.3224 -3.4356 -0.2733
 1962SOL    HW217523   0.633   1.276  10.239  0.3781 -0.9125  0.7344
 1963SOL     OW17524   3.640   4.693   6.324 -0.0201  0.0036 -0.1419
 1963SOL    HW117525   3.545   4.700   6.329  0.2909  3.0917  1.0341
 1963SOL    HW217526   3.663   4.728   6.238 -1.3859  0.2256 -0.4167
 1964SOL     OW17527   2.115   0.505   6.078  0.2528 -0.3181  0.3229
 1964SOL    HW117528   2.075   0.517   5.992  0.8380 -1.2953 -0.0776
 1964SOL    HW217529   2.098   0.411   6.087 -0.7921 -0.0014  1.8308
 1965SOL     OW17530   3.435   0.164   6.682 -0.0707 -0.2216  0.5847
 1965SOL    HW117531   3.509   0.105   6.665 -1.3390 -1.0407 -2.0514
 1965SOL    HW217532   3.460   0.237   6.627  1.2442  0.2298  1.7807
 1966SOL     OW17533   1.045   1.939   3.290  0.2607 -0.3939  0.2120
 1966SOL    HW117534   1.115   2.000   3.313  1.0849 -0.3657 -2.3233
 1966SOL    HW217535   1.099   1.860   3.282  0.1428 -0.4454 -0.0853
 1967SOL     OW17536   1.197   1.399  12.348 -0.0862 -0.0130 -1.1830
 1967SOL    HW117537   1.179   1.483  12.305 -1.3848 -0.4559 -1.5092
 1967SOL    HW217538   1.262   1.421  12.415 -2.2317  0.2880  0.7954
 1968SOL     OW17539   3.430   0.005   8.103  0.0019 -0.0630  0.1914
 1968SOL    HW117540   3.348   4.692   8.104 -0.2155  0.2017 -2.2958
 1968SOL    HW217541   3.393   0.088   8.072  1.3575  0.0407 -1.1236
 1969SOL     OW17542   4.547   0.989   6.657  0.2811 -0.3723 -0.8426
 1969SOL    HW117543   4.461   1.006   6.619 -0.2350  1.0173  0.9220
 1969SOL    HW217544   4.593   1.071   6.639 -1.4008  0.6906 -0.3079
 1970SOL     OW17545   4.703   4.004   7.845  0.1269 -0.2424  0.0503
 1970SOL    HW117546   0.015   4.081   7.816 -1.7741  1.0080  0.1847
 1970SOL    HW217547   4.663   3.977   7.762  0.8644 -1.3320  0.0531
 1971SOL     OW17548   0.963   4.058   5.173  0.4531 -0.3963 -0.5710
 1971SOL    HW117549   0.911   3.995   5.124  1.8117 -1.3137 -0.8416
 1971SOL    HW217550   0.955   4.128   5.109 -0.4434 -0.0953 -0.1279
 1972SOL     OW17551   4.703   2.253   9.432 -0.7244 -0.0763  0.1828
 1972SOL    HW117552   4.628   2.213   9.476  0.0815 -2.9157 -1.0608
 1972SOL    HW217553   4.703   2.337   9.477 -0.8905  0.4635 -0.8195
 1973SOL     OW17554   1.927   4.384  15.706 -0.5398  0.1527  0.2749
 1973SOL    HW117555   1.985   4.348  15.773  0.5664 -0.3974 -0.9774
 1973SOL    HW217556   1.956   4.476  15.705  1.2058 -0.4015  0.8674
 1974SOL     OW17557   2.858   0.839  12.843 -0.1248 -0.8596  0.7961
 1974SOL    HW117558   2.782   0.796  12.805 -0.6135  1.0412 -0.3209
 1974SOL    HW217559   2.832   0.930  12.834 -2.0346 -1.2830  2.0669
 1975SOL     OW17560   0.916   0.849   2.682  0.4518  0.2988  0.1669
 1975SOL    HW117561   0.846   0.822   2.742 -0.9858  1.1262 -1.1316
 1975SOL    HW217562   0.878   0.931   2.652 -2.2789 -1.6269 -1.7283
 1976SOL     OW17563   3.041   0.357   5.034 -0.2829  0.5492 -0.2240
 1976SOL    HW117564   3.001   0.374   5.119 -0.3292  0.4796 -0.2326
 1976SOL    HW217565   3.126   0.329   5.066 -1.9752 -0.9642  2.8898
 1977SOL     OW17566   2.051   3.992   4.961 -0.0619 -0.1553  0.2874
 1977SOL    HW117567   2.112   3.988   5.035  0.4035  1.0245 -0.0466
 1977SOL    HW217568   2.090   4.054   4.900 -0.4914  0.7941  0.9670
 1978SOL     OW17569   0.641   0.661  16.072  0.7434  0.0999 -0.0501
 1978SOL    HW117570   0.574   0.675  16.005 -1.2246 -2.1279  1.4543
 1978SOL    HW217571   0.611   0.572  16.091 -0.2971  0.2806 -0.8710
 1979SOL     OW17572   0.330   4.474  14.882 -0.3073  0.0995  0.0586
 1979SOL    HW117573   0.339   4.431  14.797 -2.2763 -1.2337  0.5279
 1979SOL    HW217574   0.274   4.419  14.936 -1.7730 -0.1008 -1.6657
 1980SOL     OW17575   3.630   4.676   2.449 -0.2098 -0.0487 -0.2328
 1980SOL    HW117576   3.592   0.027   2.439  1.3365  0.7885  1.0303
 1980SOL    HW217577   3.589   4.658   2.533 -0.0977 -2.9714 -0.7794
 1981SOL     OW17578   0.270   0.048   7.854  0.5564  0.8748 -0.2693
 1981SOL    HW117579   0.306   4.697   7.838  1.1088  1.1896 -0.7225
 1981SOL    HW217580   0.193   0.050   7.798  1.9186  1.1679 -2.1326
 1982SOL     OW17581   3.441   4.107   5.705 -0.0982  0.3170 -0.6474
 1982SOL    HW117582   3.482   4.173   5.650 -1.0645  2.6677  1.4752
 1982SOL    HW217583   3.437   4.035   5.643  1.9013 -1.5007  1.3447
 1983SOL     OW17584   4.081   1.467  14.823  0.1201  0.0666 -0.5640
 1983SOL    HW117585   4.066   1.481  14.917  1.1640  0.8091 -0.5039
 1983SOL    HW217586   4.148   1.533  14.804  1.0530 -0.3574  1.2477
 1984SOL     OW17587   1.549   1.831   5.304  0.2592  0.0125  0.1684
 1984SOL    HW117588   1.632   1.879   5.300  1.2754 -1.9212 -1.3994
 1984SOL    HW217589   1.521   1.850   5.394  0.0286  0.0120  0.0959
 1985SOL     OW17590   4.119   3.020  10.606  0.2459  0.6588  0.3808
 1985SOL    HW117591   4.060   3.083  10.647  0.4033  1.8554 -1.2562
 1985SOL    HW217592   4.153   3.077  10.538  1.6170  0.3541  0.8091
 1986SOL     OW17593   2.510   1.592   0.518  0.2402  0.0791 -0.1380
 1986SOL    HW117594   2.420   1.559   0.524  0.8772 -1.8484 -1.0347
 1986SOL    HW217595   2.556   1.509   0.505 -0.9746 -0.8622  1.5716
 1987SOL     OW17596   3.571   3.981   7.460  0.6328  0.1731  0.0812
 1987SOL    HW117597   3.659   3.995   7.423 -0.2370  0.0997 -2.0494
 1987SOL    HW217598   3.585   3.975   7.554  1.8994  1.4019 -0.0246
 1988SOL     OW17599   0.826   1.436   4.363  0.7321  0.4702 -0.3352
 1988SOL    HW117600   0.868   1.412   4.445  0.9863  0.9039 -0.3375
 1988SOL    HW217601   0.772   1.505   4.401 -0.1713  0.1559 -1.0541
 1989SOL     OW17602   1.239   2.482   5.006  0.0153  0.3646  0.2764
 1989SOL    HW117603   1.301   2.426   4.959 -1.3118 -0.0114 -1.0072
 1989SOL    HW217604   1.181   2.512   4.936  1.2227 -0.1971 -0.9759
 1990SOL     OW17605   3.930   2.450   4.817  0.1647 -0.2007  0.7264
 1990SOL    HW117606   3.943   2.506   4.741 -0.2700 -1.5555 -0.3421
 1990SOL    HW217607   3.859   2.394   4.786 -0.8423  1.1746  0.5874
 1991SOL     OW17608   4.401   2.733  16.056 -0.0392 -0.1572 -0.0377
 1991SOL    HW117609   4.346   2.781  16.118  0.5178 -0.7256  0.9045
 1991SOL    HW217610   4.326   2.705  16.003  1.5026 -0.2299 -2.1825
 1992SOL     OW17611   4.521   0.998   1.449  0.2524  0.2499 -0.1498
 1992SOL    HW117612   4.502   1.057   1.376 -0.9304  0.4658  0.3399
 1992SOL    HW217613   4.478   1.040   1.524 -0.0384  0.9762 -0.7198
 1993SOL     OW17614   3.012   3.666   7.489  0.0087 -0.0470 -0.3041
 1993SOL    HW117615   2.989   3.718   7.412 -0.1806  0.5041  0.1219
 1993SOL    HW217616   2.949   3.718   7.540  1.2942  2.5510 -1.3431
 1994SOL     OW17617   3.636   1.203   5.519  0.3624 -0.2574  0.5784
 1994SOL    HW117618   3.640   1.130   5.457 -2.0498  0.6613 -0.6726
 1994SOL    HW217619   3.688   1.273   5.480 -0.3829 -0.7985 -1.4047
 1995SOL     OW17620   1.688   1.131   8.846 -0.0509 -0.6175  0.5613
 1995SOL    HW117621   1.609   1.156   8.797  0.5610 -0.4025 -0.3303
 1995SOL    HW217622   1.751   1.189   8.801 -0.1803 -1.2434 -0.4312
 1996SOL     OW17623   0.959   3.044   7.345 -0.6840 -0.0536 -0.1369
 1996SOL    HW117624   0.872   3.017   7.374 -0.6047 -1.3414 -1.1204
 1996SOL    HW217625   0.985   3.090   7.424 -0.0411 -1.2827  0.3588
 1997SOL     OW17626   3.442   2.231   5.480  0.0182  0.3961 -0.1386
 1997SOL    HW117627   3.454   2.324   5.462 -1.7564  0.6532  0.0432
 1997SOL    HW217628   3.530   2.207   5.509 -0.4282 -1.7083 -0.5036
 1998SOL     OW17629   3.048   3.343   6.092 -0.5175  0.8493  0.4432
 1998SOL    HW117630   3.095   3.421   6.062 -1.0657  1.3000  0.7671
 1998SOL    HW217631   3.082   3.285   6.024 -2.4174  1.0234 -0.6465
 1999SOL     OW17632   3.183   0.430  11.552  0.3015 -0.4915 -1.2825
 1999SOL    HW117633   3.162   0.337  11.546  1.4753 -0.7953 -0.7927
 1999SOL    HW217634   3.122   0.469  11.614  1.7794 -0.6259  0.2494
 2000SOL     OW17635   1.780   0.780  16.582 -0.4442  0.4042  0.1894
 2000SOL    HW117636   1.827   0.699  16.562  1.1430  0.8572  2.1015
 2000SOL    HW217637   1.691   0.748  16.593  0.0387 -0.7725  0.6509
 2001SOL     OW17638   3.831   1.197   2.525 -0.0370  0.1396  0.0112
 2001SOL    HW117639   3.801   1.111   2.497  0.2597 -0.7410  2.4024
 2001SOL    HW217640   3.776   1.251   2.467  0.6627  1.5397  0.6418
 2002SOL     OW17641   0.048   2.798   4.037 -0.5742  0.1089  0.0303
 2002SOL    HW117642   4.726   2.766   3.968 -0.2658  2.0322 -1.1252
 2002SOL    HW217643   0.072   2.716   4.081  1.6137 -0.0925 -1.5540
 2003SOL     OW17644   1.410   2.295   6.095  0.2458 -0.2418 -0.7151
 2003SOL    HW117645   1.355   2.355   6.145  0.7884 -0.8537  0.6191
 2003SOL    HW217646   1.374   2.315   6.009 -0.4909 -0.7828 -0.5251
 2004SOL     OW17647   4.500   0.909   2.096 -0.6551 -0.1199 -0.0953
 2004SOL    HW117648   4.516   0.979   2.034  0.0146 -0.6019 -0.4673
 2004SOL    HW217649   4.575   0.852   2.079 -0.8734 -0.6738  0.7902
 2005SOL     OW17650   3.428   0.067  17.006  0.2676 -0.0741 -0.3299
 2005SOL    HW117651   3.430   0.101  16.917  2.8184 -1.4599 -0.8201
 2005SOL    HW217652   3.421   0.143  17.064  1.6184  0.7624 -1.2691
 2006SOL     OW17653   1.430   4.076  16.860 -0.1177  0.3639  0.1970
 2006SOL    HW117654   1.373   4.144  16.894 -0.9348  0.0803 -0.6085
 2006SOL    HW217655   1.501   4.118  16.812 -1.5467  1.0194 -1.3447
 2007SOL     OW17656   3.292   4.146   8.275  0.6396  0.1697  0.3690
 2007SOL    HW117657   3.358   4.181   8.215 -0.4619  3.1985  0.9271
 2007SOL    HW217658   3.317   4.193   8.355 -1.2387 -1.4976  1.9272
 2008SOL     OW17659   2.274   0.897   1.293  0.0621  0.1020 -0.4316
 2008SOL    HW117660   2.191   0.881   1.338  0.4626  0.0920  0.2977
 2008SOL    HW217661   2.321   0.964   1.342 -0.5446  1.4401 -1.6605
 2009SOL     OW17662   3.150   1.939   4.871  0.2647 -0.9713 -0.0062
 2009SOL    HW117663   3.066   1.908   4.904  0.6331  0.1829  2.0635
 2009SOL    HW217664   3.141   1.919   4.778 -0.6734 -0.9477  0.0832
 2010SOL     OW17665   0.213   4.301   7.258  0.0452  0.0701 -0.0081
 2010SOL    HW117666   0.283   4.364   7.245  0.6858 -0.6044  0.1848
 2010SOL    HW217667   0.153   4.318   7.185 -0.9791  1.4548  1.1544
 2011SOL     OW17668   4.178   2.940   3.740  0.5420 -0.1205 -0.4698
 2011SOL    HW117669   4.177   2.970   3.649  1.9917  1.8059  0.1547
 2011SOL    HW217670   4.268   2.909   3.746 -0.6706 -3.2178  1.2938
 2012SOL     OW17671   0.297   2.545   7.020  0.7359 -0.1079 -0.1169
 2012SOL    HW117672   0.281   2.639   7.030  0.5785 -0.2492  0.9497
 2012SOL    HW217673   0.343   2.522   7.100  3.0768 -0.8454 -1.6827
 2013SOL     OW17674   0.692   4.239  13.097  0.0182 -0.4688 -0.0126
 2013SOL    HW117675   0.724   4.265  13.183 -1.2019 -3.4894  1.3734
 2013SOL    HW217676   0.659   4.150  13.112  1.1422 -0.7688  0.6720
 2014SOL     OW17677   2.816   0.189   4.508  0.3654 -0.0791 -0.7371
 2014SOL    HW117678   2.748   0.122   4.506  0.2034  0.0178  1.4886
 2014SOL    HW217679   2.782   0.246   4.576  3.5041 -0.3024  1.0110
 2015SOL     OW17680   0.990   0.486   7.702  0.9926  0.5944 -0.3542
 2015SOL    HW117681   1.023   0.420   7.764 -2.1580 -1.2553 -0.6351
 2015SOL    HW217682   1.032   0.468   7.618 -2.2496 -1.7513 -1.4787
 2016SOL     OW17683   2.555   0.610   4.671 -0.0857 -0.4167 -0.2075
 2016SOL    HW117684   2.588   0.601   4.760  0.8074  0.9665 -0.4004
 2016SOL    HW217685   2.462   0.595   4.688 -0.3021 -0.1810 -1.1983
 2017SOL     OW17686   2.418   0.342  14.743 -0.2297 -0.1903  0.0331
 2017SOL    HW117687   2.505   0.302  14.735 -0.2659  0.1465 -1.9238
 2017SOL    HW217688   2.402   0.375  14.832 -4.2197  1.9173 -1.4676
 2018SOL     OW17689   4.005   4.725   7.884 -0.1210 -0.4365 -0.4766
 2018SOL    HW117690   3.998   0.074   7.841 -0.3420 -1.1952 -1.9155
 2018SOL    HW217691   4.072   0.011   7.949 -1.3967  2.7471 -0.2514
 2019SOL     OW17692   0.189   2.771  12.045  0.0335  0.1921 -0.4465
 2019SOL    HW117693   0.103   2.801  12.015 -1.5189 -2.1002  1.7096
 2019SOL    HW217694   0.219   2.733  11.963  1.2475  1.0146 -0.3877
 2020SOL     OW17695   4.647   4.228   2.915 -0.0377 -0.0762  0.3007
 2020SOL    HW117696   4.672   4.143   2.878  0.8903  0.6001 -0.6220
 2020SOL    HW217697   4.657   4.203   3.007  0.3840 -2.1059 -0.2965
 2021SOL     OW17698   0.228   1.041  10.646 -0.4947 -0.4030  0.8286
 2021SOL    HW117699   0.185   0.966  10.686 -0.2587 -0.5607  0.7841
 2021SOL    HW217700   0.224   1.113  10.710 -1.2265 -0.3007  0.6635
 2022SOL     OW17701   4.724   3.858  12.053 -0.1122 -0.5647 -0.4115
 2022SOL    HW117702   4.703   3.901  11.970  0.3776  0.2944 -0.0891
 2022SOL    HW217703   4.706   3.938  12.103  1.2804  0.8934 -2.2726
 2023SOL     OW17704   0.492   3.342   5.740 -0.1483  0.0617  0.0075
 2023SOL    HW117705   0.481   3.267   5.798  0.1509 -0.0176 -0.0377
 2023SOL    HW217706   0.532   3.402   5.803 -2.4276 -0.0198  1.5052
 2024SOL     OW17707   0.250   0.744  15.734 -0.4826  0.0466  0.5623
 2024SOL    HW117708   0.283   0.822  15.690  3.2557 -0.9960  1.4743
 2024SOL    HW217709   0.267   0.761  15.827  0.9299  0.8163  0.1685
 2025SOL     OW17710   0.042   1.313   5.312 -0.3487 -0.1128 -0.3167
 2025SOL    HW117711   0.021   1.283   5.223 -0.9828  0.8111 -0.4870
 2025SOL    HW217712   0.100   1.246   5.347  0.8293  1.0093 -0.1108
 2026SOL     OW17713   2.626   1.091   4.616  0.3732  0.1209 -0.1830
 2026SOL    HW117714   2.595   1.151   4.548 -0.7546  0.7584  0.8952
 2026SOL    HW217715   2.629   1.156   4.686 -2.1454 -0.0943  0.1288
 2027SOL     OW17716   0.014   3.887   6.907  0.7300 -0.0613  0.3114
 2027SOL    HW117717   4.682   3.823   6.930  0.8179 -0.2106  0.1534
 2027SOL    HW217718   0.086   3.860   6.964 -0.0551 -0.0109  1.3286
 2028SOL     OW17719   4.162   0.431   5.364  0.6307  0.0027 -0.3379
 2028SOL    HW117720   4.114   0.353   5.337 -2.0482  1.6770 -0.4178
 2028SOL    HW217721   4.177   0.471   5.279  1.7430  2.0514  0.8092
 2029SOL     OW17722   4.097   4.428   6.635 -0.1896 -0.0250 -0.1129
 2029SOL    HW117723   4.028   4.492   6.656  1.8097  1.9389  0.5100
 2029SOL    HW217724   4.170   4.484   6.663  2.3153 -2.3639 -1.9906
 2030SOL     OW17725   2.736   0.797   8.740 -0.0090  0.2425 -0.0527
 2030SOL    HW117726   2.665   0.848   8.701 -0.3686 -0.4355 -0.2672
 2030SOL    HW217727   2.812   0.844   8.705  1.3079 -0.8504  1.3387
 2031SOL     OW17728   0.210   3.285   0.901 -0.3880  0.5776  0.3852
 2031SOL    HW117729   0.220   3.208   0.957  0.3358  0.5243  0.1919
 2031SOL    HW217730   0.173   3.243   0.824  0.0066  2.8285 -1.0255
 2032SOL     OW17731   3.281   0.192   3.963  0.2250  0.1596 -0.5881
 2032SOL    HW117732   3.204   0.174   4.017 -0.5690 -0.1626 -1.8214
 2032SOL    HW217733   3.278   0.287   3.955  2.1661  0.2013 -0.7913
 2033SOL     OW17734   0.541   1.359   2.020  0.7124 -0.0800 -0.2628
 2033SOL    HW117735   0.620   1.409   1.999 -0.9530  2.5173 -0.3424
 2033SOL    HW217736   0.582   1.273   2.021 -1.2791 -0.9566  4.7159
 2034SOL     OW17737   4.231   4.640   2.188 -0.6885 -0.0476 -0.0258
 2034SOL    HW117738   4.199   4.664   2.275  2.0934 -0.0677  0.9849
 2034SOL    HW217739   4.272   4.719   2.153 -0.6189 -0.8548 -1.8081
 2035SOL     OW17740   1.364   1.121  12.282 -0.5102 -0.6782 -0.3773
 2035SOL    HW117741   1.368   1.038  12.234 -1.2460 -1.1085  0.3263
 2035SOL    HW217742   1.282   1.157  12.248  0.7837 -0.4085 -3.2709
 2036SOL     OW17743   2.043   0.404  13.331  0.0225  0.4606  0.1003
 2036SOL    HW117744   2.005   0.374  13.248 -1.4192 -0.0286  0.9378
 2036SOL    HW217745   2.092   0.479  13.298 -1.4087  1.8964  1.2711
 2037SOL     OW17746   2.559   1.155   3.575 -0.1039  0.6660  0.2515
 2037SOL    HW117747   2.619   1.193   3.512  0.9929 -0.1904  0.7765
 2037SOL    HW217748   2.544   1.073   3.528  1.5984  0.0161  0.8260
 2038SOL     OW17749   1.509   4.135   5.603  0.4224 -0.1390 -0.3601
 2038SOL    HW117750   1.540   4.056   5.648 -1.7496 -1.1515 -0.6535
 2038SOL    HW217751   1.530   4.118   5.511  0.5781 -2.3172  0.0711
 2039SOL     OW17752   0.005   2.330   3.024 -0.5604 -0.0191  0.2284
 2039SOL    HW117753   4.686   2.253   3.014 -1.5282  0.7821 -0.5541
 2039SOL    HW217754   0.088   2.293   2.993  0.5373  1.5235  1.2786
 2040SOL     OW17755   2.526   2.783   7.795  0.0944 -0.0907  0.4365
 2040SOL    HW117756   2.476   2.816   7.869  0.3536 -1.6259  1.3005
 2040SOL    HW217757   2.572   2.866   7.779 -0.8012  0.3405  0.1005
 2041SOL     OW17758   1.887   1.598   5.949  0.1162  0.0503 -0.2801
 2041SOL    HW117759   1.864   1.655   5.875 -0.1575 -0.5161 -0.6260
 2041SOL    HW217760   1.979   1.579   5.929 -0.3570 -0.9206 -1.5559
 2042SOL     OW17761   0.154   3.105   7.816 -0.9052 -0.2522 -0.1842
 2042SOL    HW117762   0.117   3.093   7.729 -0.9574  0.3441 -0.2426
 2042SOL    HW217763   0.119   3.030   7.864 -1.5797  1.9841  2.8320
 2043SOL     OW17764   1.596   4.220  16.708 -0.2177 -0.5099 -0.0878
 2043SOL    HW117765   1.555   4.299  16.675  0.8953  0.6849  1.3443
 2043SOL    HW217766   1.607   4.164  16.631 -1.8660 -1.3621  0.3054
 2044SOL     OW17767   1.157   1.892  14.624  0.2053 -0.6509 -0.2911
 2044SOL    HW117768   1.068   1.858  14.612 -0.5145 -0.0003  3.2015
 2044SOL    HW217769   1.158   1.985  14.605 -2.0221 -0.4125  0.6960
 2045SOL     OW17770   0.606   2.648   3.103 -0.0362  0.5736  0.0492
 2045SOL    HW117771   0.643   2.600   3.029  1.1145  0.3322  0.7808
 2045SOL    HW217772   0.632   2.735   3.073 -0.0715  0.8339  0.7542
 2046SOL     OW17773   4.094   1.495   3.532  0.1445  0.2584 -0.0774
 2046SOL    HW117774   4.069   1.405   3.551 -0.9056  0.5455 -0.1220
 2046SOL    HW217775   4.084   1.529   3.621  1.0149 -2.1893  0.9466
 2047SOL     OW17776   3.441   3.645   8.188 -0.0070 -0.0292 -0.6347
 2047SOL    HW117777   3.384   3.687   8.253  1.2360  0.7898 -0.0651
 2047SOL    HW217778   3.502   3.717   8.173  0.0958 -0.1188 -0.6517
 2048SOL     OW17779   2.382   1.026  13.942 -0.0382  0.3507 -0.4394
 2048SOL    HW117780   2.442   1.095  13.969 -1.9350  0.4086  3.6102
 2048SOL    HW217781   2.441   0.974  13.887 -0.0016  0.7768 -0.8040
 2049SOL     OW17782   2.771   4.572   5.697  0.5734  0.5270  0.1360
 2049SOL    HW117783   2.844   4.624   5.664  2.8377 -2.0300  1.1699
 2049SOL    HW217784   2.788   4.484   5.663 -0.6065 -0.2417  1.5260
 2050SOL     OW17785   3.728   3.086  17.721 -0.2085 -0.1746  0.1757
 2050SOL    HW117786   3.671   3.011  17.704 -1.5944  0.9354 -0.1205
 2050SOL    HW217787   3.729   3.135  17.638  1.1655 -1.1369 -0.3644
 2051SOL     OW17788   3.570   4.486  14.058 -0.1690  0.0781  0.4069
 2051SOL    HW117789   3.663   4.483  14.034 -0.4653 -0.7469 -0.5827
 2051SOL    HW217790   3.574   4.440  14.142  0.0238 -0.6561 -0.0071
 2052SOL     OW17791   1.326   0.317   6.564 -0.1278  0.4800  0.5413
 2052SOL    HW117792   1.391   0.253   6.594 -0.0766  0.2975  0.0417
 2052SOL    HW217793   1.379   0.392   6.536  0.7592 -0.5092 -0.4185
 2053SOL     OW17794   0.170   3.994   5.012 -0.4519 -0.3370 -0.6656
 2053SOL    HW117795   0.187   3.951   4.928  0.2545  2.3868 -1.9149
 2053SOL    HW217796   0.169   3.918   5.070 -3.0837 -1.1798 -1.7741
 2054SOL     OW17797   4.152   1.099  11.847 -0.3308  0.0353  0.0540
 2054SOL    HW117798   4.090   1.036  11.811 -1.2022 -0.0256  1.6703
 2054SOL    HW217799   4.198   1.038  11.904  1.1419 -0.3516 -1.5170
 2055SOL     OW17800   0.889   2.960   2.556 -0.3623  0.3671 -0.1351
 2055SOL    HW117801   0.903   2.912   2.475 -1.1559  3.2977 -2.0329
 2055SOL    HW217802   0.923   2.898   2.620  1.2252 -0.5246 -1.8353
 2056SOL     OW17803   1.570   2.277   5.768  0.3270 -0.6635  0.6919
 2056SOL    HW117804   1.618   2.224   5.703  0.6130 -1.2789  1.4024
 2056SOL    HW217805   1.637   2.278   5.836  1.2839 -0.8841 -0.2454
 2057SOL     OW17806   3.490   0.855  11.609 -0.1620  0.5070 -0.2423
 2057SOL    HW117807   3.415   0.887  11.559 -0.3589  0.0570 -0.2396
 2057SOL    HW217808   3.482   0.762  11.588 -0.8388  0.1738  1.4278
 2058SOL     OW17809   3.133   1.341   2.363  0.3114 -0.2851 -0.2151
 2058SOL    HW117810   3.227   1.330   2.373  0.3369  1.0749  1.0188
 2058SOL    HW217811   3.132   1.436   2.365  0.0575 -0.3353  2.7974
 2059SOL     OW17812   2.643   0.477   9.741  0.3314  0.4220 -0.0482
 2059SOL    HW117813   2.736   0.460   9.733  0.4928  0.4951  1.7855
 2059SOL    HW217814   2.617   0.389   9.768  2.5414 -0.6267 -1.3965
 2060SOL     OW17815   3.180   2.421   7.098  0.2105 -0.2001  0.3164
 2060SOL    HW117816   3.169   2.499   7.043 -1.0039  1.0935  2.3658
 2060SOL    HW217817   3.221   2.471   7.168  1.4585 -1.1714  0.2679
 2061SOL     OW17818   3.843   4.555   7.688  0.1096  0.3576 -0.3864
 2061SOL    HW117819   3.888   4.590   7.765 -2.6928 -0.1867  1.4889
 2061SOL    HW217820   3.892   4.474   7.678  0.2529  0.4532 -0.4553
 2062SOL     OW17821   1.903   0.602   2.840  0.5173  0.1113 -0.1507
 2062SOL    HW117822   1.863   0.531   2.789 -0.8476  1.3611 -0.8143
 2062SOL    HW217823   1.915   0.666   2.769  1.2454 -1.4224 -1.4126
 2063SOL     OW17824   2.083   3.401   7.350  0.2205  0.2609 -0.0274
 2063SOL    HW117825   2.066   3.314   7.314 -0.1771 -0.2360  1.3508
 2063SOL    HW217826   2.062   3.452   7.272 -0.3920  0.6950  0.4158
 2064SOL     OW17827   2.310   1.784   3.291 -0.1723  0.1411 -0.1255
 2064SOL    HW117828   2.302   1.693   3.321  0.7605  1.0571  2.9172
 2064SOL    HW217829   2.303   1.757   3.200 -0.7803  1.0162 -0.3326
 2065SOL     OW17830   2.523   0.724   3.644 -0.0069  0.2185 -0.0538
 2065SOL    HW117831   2.496   0.646   3.596  0.0185  0.8281 -1.0527
 2065SOL    HW217832   2.437   0.756   3.673 -0.5632 -0.0436 -1.4302
 2066SOL     OW17833   3.987   0.034  12.125 -0.1498 -0.0380  0.5502
 2066SOL    HW117834   3.941   4.713  12.186 -1.4487  0.0292 -0.3785
 2066SOL    HW217835   4.034   4.698  12.082  0.8294  1.2967 -0.6320
 2067SOL     OW17836   4.444   2.486   9.438 -0.3806  0.1536 -0.5415
 2067SOL    HW117837   4.358   2.519   9.410 -0.8576  0.1121  0.8942
 2067SOL    HW217838   4.495   2.566   9.431  1.3931 -0.9355  0.0735
 2068SOL     OW17839   4.146   0.742   2.425 -0.2397  0.5777 -0.3706
 2068SOL    HW117840   4.132   0.663   2.477  2.0687  0.5260  0.1719
 2068SOL    HW217841   4.185   0.704   2.346 -0.0895  0.9312 -0.4679
 2069SOL     OW17842   0.712   2.613   9.480  0.3307 -0.3531  0.6248
 2069SOL    HW117843   0.730   2.610   9.574  0.6274 -1.6921  0.5332
 2069SOL    HW217844   0.750   2.533   9.443  0.7081  0.4207 -0.6253
 2070SOL     OW17845   0.487   0.633  13.412  0.0083  0.2918  0.1648
 2070SOL    HW117846   0.402   0.627  13.368 -0.3555  2.8170  0.5478
 2070SOL    HW217847   0.497   0.554  13.464  0.0210 -0.9623 -1.7236
 2071SOL     OW17848   0.301   3.738  12.728 -0.3884  1.0862  0.4406
 2071SOL    HW117849   0.276   3.720  12.819 -0.2753  0.2890  0.3174
 2071SOL    HW217850   0.283   3.650  12.695  2.0167  0.7983 -0.0964
 2072SOL     OW17851   3.811   1.229   6.631  0.1849  0.4726  0.1685
 2072SOL    HW117852   3.798   1.309   6.682  0.5215  0.2922  0.5445
 2072SOL    HW217853   3.753   1.241   6.556 -0.2232  1.0586  0.5775
 2073SOL     OW17854   3.933   3.985   4.515  0.1024  0.0168  0.4405
 2073SOL    HW117855   3.992   3.919   4.480  0.6113 -0.3592  2.0335
 2073SOL    HW217856   3.938   4.060   4.456 -3.3601 -0.2475 -0.2303
 2074SOL     OW17857   1.866   1.129   9.073  0.2562  0.0788  0.0753
 2074SOL    HW117858   1.954   1.091   9.068  0.9184  1.6261  0.0463
 2074SOL    HW217859   1.810   1.079   9.014  0.3742  0.6343 -0.5147
 2075SOL     OW17860   1.614   2.335   3.339 -0.2437  0.3088  0.2807
 2075SOL    HW117861   1.686   2.367   3.284  0.6704 -1.1920  0.6059
 2075SOL    HW217862   1.644   2.248   3.365 -1.5111 -0.5729 -1.2227
 2076SOL     OW17863   2.044   0.795   6.798 -0.4193  0.1959  0.0659
 2076SOL    HW117864   2.096   0.769   6.722 -0.9282 -0.0045 -0.2132
 2076SOL    HW217865   2.106   0.858   6.835  0.0330  1.0240 -2.0743
 2077SOL     OW17866   0.374   0.235   6.106 -0.5354  0.1027 -0.1201
 2077SOL    HW117867   0.349   0.323   6.135  1.1476  0.5400 -0.0450
 2077SOL    HW217868   0.400   0.192   6.188  0.0928 -1.3597 -1.0846
 2078SOL     OW17869   2.265   3.827   1.910  0.6818 -0.9525 -0.0682
 2078SOL    HW117870   2.235   3.800   1.997  1.8671  0.7058  0.8570
 2078SOL    HW217871   2.191   3.788   1.863  0.3322  0.7002 -0.8819
 2079SOL     OW17872   0.454   3.995   6.841  0.3007 -0.1574  0.5167
 2079SOL    HW117873   0.457   3.900   6.844  2.5337 -0.1329 -0.9910
 2079SOL    HW217874   0.360   4.005   6.856  0.2552 -0.1037  0.1886
 2080SOL     OW17875   2.894   2.261   5.794 -0.6773 -0.2396  0.0718
 2080SOL    HW117876   2.962   2.288   5.732 -0.2659 -2.1446 -0.3012
 2080SOL    HW217877   2.930   2.179   5.828  0.4570  0.5739  0.8788
 2081SOL     OW17878   0.088   3.676  13.197  0.0231 -0.0059 -0.6191
 2081SOL    HW117879   0.103   3.600  13.254  0.8525  1.6357  1.3291
 2081SOL    HW217880   0.120   3.735  13.265 -1.4534 -0.4192  0.4333
 2082SOL     OW17881   1.389   1.461   8.186 -0.0038 -0.2857  0.6804
 2082SOL    HW117882   1.460   1.440   8.124  0.3181  0.9741  0.6245
 2082SOL    HW217883   1.341   1.379   8.187  0.1331 -0.3413  1.7949
 2083SOL     OW17884   4.577   4.508   5.691  0.1577 -0.1313  0.6644
 2083SOL    HW117885   4.537   4.595   5.684  0.9349  0.0866 -0.9504
 2083SOL    HW217886   4.509   4.447   5.664 -0.3574  0.6768  0.1422
 2084SOL     OW17887   1.657   4.358   5.756  0.2560 -0.2578 -0.4578
 2084SOL    HW117888   1.667   4.401   5.671 -0.6624  0.9033  0.0109
 2084SOL    HW217889   1.653   4.268   5.726 -0.7638 -0.3218 -0.1309
 2085SOL     OW17890   2.909   0.136   7.588  0.3876 -0.3478  0.1138
 2085SOL    HW117891   2.976   0.104   7.648 -0.9728  0.4218  2.0684
 2085SOL    HW217892   2.864   0.057   7.559 -0.6675  0.6147 -0.9120
 2086SOL     OW17893   3.898   0.621   3.013  0.4418 -0.3029  0.1078
 2086SOL    HW117894   3.859   0.708   3.001  3.3225  0.8927 -0.4886
 2086SOL    HW217895   3.844   0.595   3.088  0.0349 -2.0241 -0.7935
 2087SOL     OW17896   2.570   3.733   8.654 -0.4750  0.1159 -0.2097
 2087SOL    HW117897   2.641   3.793   8.631  0.5711 -0.3889  1.6957
 2087SOL    HW217898   2.593   3.718   8.746  1.6017  1.7302 -0.4684
 2088SOL     OW17899   0.208   1.101  11.574 -0.3637 -0.0089 -0.7961
 2088SOL    HW117900   0.197   1.039  11.646  1.6550  0.2931 -0.2311
 2088SOL    HW217901   0.120   1.137  11.566  0.3815  2.1497  0.4967
 2089SOL     OW17902   1.268   1.963   4.991 -0.1671  0.0846  0.0307
 2089SOL    HW117903   1.344   1.922   4.950 -1.8979 -1.5412 -1.5207
 2089SOL    HW217904   1.316   2.015   5.055  0.4930 -1.2093  0.5761
 2090SOL     OW17905   1.250   3.292   7.068  0.2928  0.8234  0.0606
 2090SOL    HW117906   1.253   3.240   7.148 -0.3185  0.5575 -0.0950
 2090SOL    HW217907   1.338   3.328   7.079  1.7226 -1.6354 -3.1906
 2091SOL     OW17908   2.372   3.827  14.660 -0.4963  0.2915 -0.1078
 2091SOL    HW117909   2.395   3.869  14.577 -0.5461  0.0111 -0.2647
 2091SOL    HW217910   2.412   3.743  14.636  1.6041  1.7902 -1.8344
 2092SOL     OW17911   0.540   3.301   7.327 -0.0152 -0.0542 -0.3160
 2092SOL    HW117912   0.466   3.253   7.291 -0.3730  0.2148  0.0545
 2092SOL    HW217913   0.566   3.352   7.250  3.0427  0.3684  0.9863
 2093SOL     OW17914   3.825   1.220  10.804 -0.4524  0.1981  0.7202
 2093SOL    HW117915   3.811   1.304  10.848 -0.6660 -0.3914  1.7705
 2093SOL    HW217916   3.858   1.161  10.872 -1.8622 -0.2348  1.0275
 2094SOL     OW17917   2.106   0.742   4.182 -0.4365 -0.0863  0.2708
 2094SOL    HW117918   2.196   0.760   4.210 -0.1167 -1.6911  0.2463
 2094SOL    HW217919   2.071   0.823   4.144  2.0681  0.8480 -0.0060
 2095SOL     OW17920   3.969   3.496   3.164  0.5115  0.5666 -0.1229
 2095SOL    HW117921   4.029   3.429   3.196 -1.8896 -1.6784 -0.3015
 2095SOL    HW217922   4.027   3.570   3.184  1.3663  0.3207 -1.6642
 2096SOL     OW17923   2.087   1.120   8.622  0.3396  0.3417 -0.2328
 2096SOL    HW117924   2.013   1.166   8.660  0.5523 -0.1012  0.7088
 2096SOL    HW217925   2.065   1.130   8.530 -1.2806  0.2005  0.1530
 2097SOL     OW17926   2.098   3.129   6.070 -0.2814  0.2180 -0.4573
 2097SOL    HW117927   2.067   3.162   6.154  0.4620  2.0085 -0.8887
 2097SOL    HW217928   2.031   3.066   6.041 -0.2709  0.1099 -0.2469
 2098SOL     OW17929   2.820   3.281   3.618  0.5087 -0.0291  0.3107
 2098SOL    HW117930   2.732   3.311   3.593  0.6787  0.2162  0.0067
 2098SOL    HW217931   2.805   3.288   3.712 -1.4688  0.1900 -0.0056
 2099SOL     OW17932   1.099   1.792   2.014  0.4756  0.1245  0.8444
 2099SOL    HW117933   1.011   1.812   1.983  1.2584 -1.1336 -2.1571
 2099SOL    HW217934   1.081   1.709   2.058 -1.7552  0.8169  1.2193
 2100SOL     OW17935   0.981   2.382   2.783  0.1547  0.0538  0.6352
 2100SOL    HW117936   0.953   2.299   2.745  1.2868  0.7845 -1.8096
 2100SOL    HW217937   0.917   2.392   2.853  1.6327 -2.0222  2.2585
 2101SOL     OW17938   4.229   3.838   3.490 -0.2030 -0.4022 -0.4129
 2101SOL    HW117939   4.300   3.878   3.540  0.5935 -1.6908 -0.5275
 2101SOL    HW217940   4.166   3.910   3.496  0.2654  0.0501 -0.9618
 2102SOL     OW17941   2.689   4.314   8.735 -0.5113  0.9756  0.2489
 2102SOL    HW117942   2.758   4.338   8.797 -1.1663  1.9421  0.5986
 2102SOL    HW217943   2.643   4.398   8.734 -0.9301  0.7334 -1.0242
 2103SOL     OW17944   2.291   4.569   3.027 -0.0515 -0.8249 -0.4261
 2103SOL    HW117945   2.233   4.625   2.976  0.0474 -0.4930 -0.1739
 2103SOL    HW217946   2.333   4.521   2.956  0.2220 -2.9185  1.1190
 2104SOL     OW17947   0.933   2.235  11.053  0.4903 -0.4925  0.2434
 2104SOL    HW117948   0.882   2.185  10.988  0.0461 -0.0903  0.2871
 2104SOL    HW217949   0.878   2.312  11.068  1.6541 -0.0098  1.9790
 2105SOL     OW17950   4.435   1.087   7.524  0.0641 -0.4851  0.4656
 2105SOL    HW117951   4.457   1.121   7.437 -0.5800  0.2379  0.5875
 2105SOL    HW217952   4.350   1.057   7.493 -0.3266  3.7931 -2.5074
 2106SOL     OW17953   1.404   0.098   9.736  0.3254 -0.0480 -0.1012
 2106SOL    HW117954   1.371   0.140   9.816 -0.4202 -0.2550 -0.2946
 2106SOL    HW217955   1.327   0.043   9.718 -0.4999  0.6892  1.0946
 2107SOL     OW17956   0.242   3.359   5.207 -0.2491  0.3805  0.4289
 2107SOL    HW117957   0.233   3.344   5.113 -2.3608 -1.0975  0.8580
 2107SOL    HW217958   0.322   3.411   5.215  0.5263 -1.2870  3.4405
 2108SOL     OW17959   3.854   1.441   4.383  0.1640  0.3039 -0.0001
 2108SOL    HW117960   3.934   1.416   4.337  0.6245  1.4424  0.1706
 2108SOL    HW217961   3.816   1.354   4.385  0.5398  0.1786  1.7367
 2109SOL     OW17962   0.525   1.252   4.133  0.2794  0.7847 -0.7290
 2109SOL    HW117963   0.577   1.259   4.213  0.2329  1.9908 -0.8001
 2109SOL    HW217964   0.550   1.165   4.101 -1.6742  0.8902 -2.4815
 2110SOL     OW17965   4.184   1.473  13.100  0.2030  0.2083 -0.3801
 2110SOL    HW117966   4.102   1.487  13.052  0.5337  0.4808 -0.8658
 2110SOL    HW217967   4.228   1.558  13.102 -0.9413  0.8024 -0.2488
 2111SOL     OW17968   1.233   1.427  11.031  0.4368  0.1304 -0.5251
 2111SOL    HW117969   1.310   1.407  10.978  1.0362  0.1627  0.3574
 2111SOL    HW217970   1.259   1.442  11.121 -0.3589 -0.5075 -0.1894
 2112SOL     OW17971   4.600   1.025   6.284 -0.2945  0.6352 -0.1467
 2112SOL    HW117972   4.687   0.986   6.298 -0.2005  0.3154 -1.6193
 2112SOL    HW217973   4.618   1.096   6.223  2.4973 -1.5259 -1.8857
 2113SOL     OW17974   0.081   2.170   3.488 -0.9696 -0.4583  0.6223
 2113SOL    HW117975   0.151   2.204   3.543 -0.9881  0.1954  0.2415
 2113SOL    HW217976   0.072   2.241   3.425 -0.7959  0.7422  1.9501
 2114SOL     OW17977   0.371   4.057   2.674 -0.0634  0.8849  0.0277
 2114SOL    HW117978   0.351   4.082   2.584  2.8169 -1.3812 -1.2278
 2114SOL    HW217979   0.447   4.109   2.699  0.2066 -0.1191  1.2933
 2115SOL     OW17980   3.695   0.586  10.262 -0.1929  0.0997 -0.2429
 2115SOL    HW117981   3.734   0.605  10.177 -0.0717  0.8318 -0.0213
 2115SOL    HW217982   3.766   0.625  10.314 -1.8075  2.5193  0.1315
 2116SOL     OW17983   2.781   3.855   4.743  0.2929 -0.5136 -0.0106
 2116SOL    HW117984   2.747   3.794   4.676  1.3217 -0.3934 -0.6504
 2116SOL    HW217985   2.856   3.882   4.690 -0.8488  1.2342 -0.7463
 2117SOL     OW17986   1.485   0.473  13.837  0.3396 -0.6398  0.1040
 2117SOL    HW117987   1.571   0.459  13.799  0.7059  0.3963  0.5565
 2117SOL    HW217988   1.483   0.427  13.921 -0.8940  0.0045  0.4324
 2118SOL     OW17989   2.802   3.102   5.892 -0.0833 -0.4723 -0.2879
 2118SOL    HW117990   2.734   3.058   5.842 -0.0145 -1.6939  0.6775
 2118SOL    HW217991   2.820   3.047   5.968 -1.3116  0.8696  0.9606
 2119SOL     OW17992   3.021   1.330   7.002  0.1479  0.0369 -0.6798
 2119SOL    HW117993   2.961   1.298   7.069  1.7083 -0.3309  0.5420
 2119SOL    HW217994   3.070   1.395   7.053 -0.9291  0.3632 -0.0505
 2120SOL     OW17995   2.549   2.873   1.654 -0.4568 -0.4088  0.2718
 2120SOL    HW117996   2.471   2.928   1.641  1.3304  2.2485  0.8499
 2120SOL    HW217997   2.597   2.945   1.695 -0.2137  1.3834 -3.2139
 2121SOL     OW17998   1.039   0.521  16.738 -0.2058 -0.2962 -0.4674
 2121SOL    HW117999   1.037   0.536  16.833 -0.7304 -1.4571 -0.2944
 2121SOL    HW218000   1.065   0.612  16.721 -3.0402  0.6509  0.1965
 2122SOL     OW18001   1.260   3.312   9.486 -0.2154  0.0496  0.4792
 2122SOL    HW118002   1.289   3.284   9.573 -1.1012  2.6142  1.5950
 2122SOL    HW218003   1.166   3.303   9.498 -0.4087  0.1615 -0.9545
 2123SOL     OW18004   3.256   4.209   5.294  0.2620 -0.3196 -0.3089
 2123SOL    HW118005   3.240   4.125   5.250 -1.8586  0.2283 -0.5548
 2123SOL    HW218006   3.166   4.238   5.304 -0.6127 -2.8776 -0.7365
 2124SOL     OW18007   4.221   0.684   2.764 -0.4332  0.3399  0.5655
 2124SOL    HW118008   4.194   0.675   2.855  0.2476 -0.5843  0.6652
 2124SOL    HW218009   4.215   0.777   2.742 -2.1514 -0.1644 -1.1280
 2125SOL     OW18010   1.844   2.319   8.978  0.3742  0.1687  0.6600
 2125SOL    HW118011   1.769   2.320   9.037  1.4246  2.1605  1.9589
 2125SOL    HW218012   1.901   2.384   9.020 -0.7118  3.1649 -2.4707
 2126SOL     OW18013   2.794   0.732   3.632 -0.2175  0.2051  0.0784
 2126SOL    HW118014   2.811   0.772   3.717  0.7894  1.0505 -0.5246
 2126SOL    HW218015   2.699   0.744   3.642 -0.4694 -1.8815  0.1289
 2127SOL     OW18016   1.835   3.951   8.328  0.2157  0.3229 -0.0148
 2127SOL    HW118017   1.789   4.031   8.305  0.1561  0.4059  0.3879
 2127SOL    HW218018   1.893   3.986   8.395  3.2946  0.1700 -2.6504
 2128SOL     OW18019   2.965   0.327   9.347 -0.4724  0.8419 -0.8728
 2128SOL    HW118020   3.009   0.353   9.266  0.6061 -0.5148 -0.7206
 2128SOL    HW218021   2.892   0.276   9.311  0.6549 -1.4283  0.0158
 2129SOL     OW18022   0.869   2.366   6.492  0.2008 -0.4243  0.6700
 2129SOL    HW118023   0.912   2.337   6.411  1.5470  2.8060  0.2362
 2129SOL    HW218024   0.932   2.431   6.524  0.1146  0.2648 -0.5433
 2130SOL     OW18025   2.925   0.685   4.913 -0.5220  0.3896  0.4718
 2130SOL    HW118026   2.869   0.758   4.887 -0.1615  1.0948  1.6666
 2130SOL    HW218027   2.900   0.669   5.004  1.0861 -2.0016  0.5031
 2131SOL     OW18028   1.875   3.452   6.589 -0.1690 -0.3409 -0.2298
 2131SOL    HW118029   1.795   3.504   6.586 -1.0472 -1.7025 -0.1322
 2131SOL    HW218030   1.850   3.382   6.649  1.2436 -1.7064 -1.2476
 2132SOL     OW18031   3.578   3.483   3.023  0.6045  0.6240  0.5271
 2132SOL    HW118032   3.570   3.392   3.052  0.5943 -0.1463 -1.8686
 2132SOL    HW218033   3.644   3.479   2.953  0.5333  1.2528  0.4225
 2133SOL     OW18034   2.601   4.235   4.572 -1.1848  0.1032 -0.2374
 2133SOL    HW118035   2.692   4.253   4.596 -1.3889  0.8106 -0.0039
 2133SOL    HW218036   2.567   4.270   4.654  0.7122  2.1289 -0.2951
 2134SOL     OW18037   2.454   2.677  14.031  0.2673  0.2294 -0.4686
 2134SOL    HW118038   2.489   2.623  13.961  0.6694 -2.0229  1.4943
 2134SOL    HW218039   2.489   2.763  14.008  0.4826  0.7907  1.9056
 2135SOL     OW18040   0.048   0.595   6.945  0.1593 -0.0707 -0.9589
 2135SOL    HW118041   4.712   0.532   6.934  0.8560 -0.8126 -1.2599
 2135SOL    HW218042   0.006   0.678   6.921  2.3948  1.4912  0.4767
 2136SOL     OW18043   3.134   4.034   8.747  0.6119  0.3270 -0.5320
 2136SOL    HW118044   3.050   4.075   8.768  0.2757 -0.8626  0.4420
 2136SOL    HW218045   3.133   4.048   8.653  0.2298 -1.1934 -0.7416
 2137SOL     OW18046   4.134   0.712   5.843 -0.2873  0.1249  0.0535
 2137SOL    HW118047   4.079   0.751   5.911 -1.3254  0.0721 -0.7576
 2137SOL    HW218048   4.219   0.720   5.887 -0.7916  1.2903  0.8083
 2138SOL     OW18049   0.720   1.952   2.578  0.1040 -0.0090 -0.3699
 2138SOL    HW118050   0.632   1.935   2.611  0.2091 -0.1556 -0.1598
 2138SOL    HW218051   0.753   1.879   2.631 -0.4991  0.1151  0.1743
 2139SOL     OW18052   3.775   2.207   5.115 -0.1108 -0.1605 -0.3406
 2139SOL    HW118053   3.708   2.197   5.183 -2.1803  1.9683 -2.1029
 2139SOL    HW218054   3.719   2.240   5.045  0.7751 -2.0939 -1.9665
 2140SOL     OW18055   4.712   3.182  16.834  0.5385 -0.4329 -0.0501
 2140SOL    HW118056   0.029   3.167  16.755 -0.3538  0.3339 -0.7902
 2140SOL    HW218057   4.670   3.097  16.849  3.6117 -1.7648  1.1917
 2141SOL     OW18058   2.861   2.656  12.706 -0.3807 -0.2685  0.3212
 2141SOL    HW118059   2.851   2.692  12.618 -0.5912 -0.1886  0.3774
 2141SOL    HW218060   2.914   2.723  12.749  1.4354  0.5682 -3.2051
 2142SOL     OW18061   2.719   3.985  11.375  0.2128 -0.0452  0.3413
 2142SOL    HW118062   2.711   4.006  11.468 -0.8786  0.7840  0.0656
 2142SOL    HW218063   2.657   4.045  11.333 -1.3526 -0.3665  2.2313
 2143SOL     OW18064   2.086   0.076  10.512 -0.0467  0.2137 -0.0389
 2143SOL    HW118065   2.136   0.010  10.463 -0.3977 -0.1251  0.0536
 2143SOL    HW218066   2.116   0.067  10.602  3.4248  0.0635 -1.1973
 2144SOL     OW18067   2.217   3.973   8.255 -0.1044  0.0627  0.4275
 2144SOL    HW118068   2.158   3.916   8.207  0.9994  1.2945 -2.3704
 2144SOL    HW218069   2.232   3.918   8.332 -0.8145 -1.6432 -0.6547
 2145SOL     OW18070   0.273   2.524   1.943 -0.9933  0.4895  0.1832
 2145SOL    HW118071   0.262   2.462   2.015  4.0619 -1.0566 -0.3256
 2145SOL    HW218072   0.257   2.462   1.871  0.7365 -0.9369  1.0108
 2146SOL     OW18073   3.614   4.703   6.633  0.5603 -1.1543  0.7304
 2146SOL    HW118074   3.637   4.696   6.540  0.0592 -2.1009  0.6786
 2146SOL    HW218075   3.585   4.613   6.647 -0.7414 -0.7149  0.8466
 2147SOL     OW18076   4.168   0.467   3.919 -0.1639  0.5642 -0.0904
 2147SOL    HW118077   4.092   0.523   3.900 -1.0232 -0.8456 -0.8312
 2147SOL    HW218078   4.141   0.393   3.863  0.6490  0.3598 -0.2068
 2148SOL     OW18079   2.722   1.514   9.601  0.1868 -1.0982 -0.3428
 2148SOL    HW118080   2.792   1.521   9.666  2.1606 -0.8050 -2.5247
 2148SOL    HW218081   2.769   1.546   9.524  2.5460  0.7342  1.8507
 2149SOL     OW18082   0.635   0.268  10.569  0.4755  0.1639 -0.0975
 2149SOL    HW118083   0.543   0.294  10.559  0.8526  2.2282  1.9908
 2149SOL    HW218084   0.658   0.254  10.477  0.5707  1.3214 -0.2494
 2150SOL     OW18085   2.714   2.253   3.362  0.1645  0.3671  0.1364
 2150SOL    HW118086   2.633   2.239   3.314  0.1674  1.0103 -0.0606
 2150SOL    HW218087   2.680   2.211   3.441 -0.6025  0.1306 -0.3208
 2151SOL     OW18088   0.064   2.772   7.353  0.1554  0.6205 -0.0957
 2151SOL    HW118089   0.083   2.808   7.266 -0.4901  0.9439 -0.0994
 2151SOL    HW218090   4.732   2.708   7.333  1.4303 -1.0761  0.8938
 2152SOL     OW18091   3.993   3.767   2.974 -0.0326  0.1820  0.5521
 2152SOL    HW118092   4.063   3.827   2.997  0.9697 -1.4223  1.7138
 2152SOL    HW218093   3.941   3.817   2.910 -0.0427 -0.8260 -0.2309
 2153SOL     OW18094   4.628   2.169   1.999  0.0077 -0.0969 -0.4489
 2153SOL    HW118095   4.692   2.098   1.992 -0.7189 -0.8595  0.7224
 2153SOL    HW218096   4.574   2.151   1.922 -0.8548 -2.5794  0.7733
 2154SOL     OW18097   0.459   2.508   6.775  0.7026 -0.0922 -0.1920
 2154SOL    HW118098   0.445   2.516   6.869  0.5332 -0.5942 -0.1720
 2154SOL    HW218099   0.554   2.523   6.772  0.6922  0.3388  1.6853
 2155SOL     OW18100   1.176   3.634   4.342  0.1406 -0.1157  0.7877
 2155SOL    HW118101   1.175   3.564   4.277  0.3057  0.0055  0.6536
 2155SOL    HW218102   1.254   3.683   4.315 -0.9883  2.5265  2.2910
 2156SOL     OW18103   3.033   2.946   5.565 -0.0459  0.2676  0.0615
 2156SOL    HW118104   2.976   3.022   5.576  1.7170  1.5779  0.1638
 2156SOL    HW218105   3.085   2.979   5.492 -0.0729  2.4120  1.0173
 2157SOL     OW18106   0.658   2.143   8.653 -0.1483 -0.0125  0.1474
 2157SOL    HW118107   0.745   2.113   8.680  0.5801  1.8355 -0.1555
 2157SOL    HW218108   0.642   2.087   8.577  0.2262  0.1228 -0.0324
 2158SOL     OW18109   0.032   0.925  11.033 -0.0825  0.0154 -0.0672
 2158SOL    HW118110   0.055   0.834  11.019 -1.9089 -0.0425 -2.7704
 2158SOL    HW218111   4.674   0.912  11.021 -0.0271  1.9881 -2.6780
 2159SOL     OW18112   3.536   1.695  17.303  0.4062 -0.1329 -0.1672
 2159SOL    HW118113   3.571   1.781  17.278  1.9554 -0.3630  1.1994
 2159SOL    HW218114   3.613   1.648  17.335  0.0833 -0.5494 -0.0093
 2160SOL     OW18115   2.584   3.297   7.470  0.3541 -0.8491  0.3635
 2160SOL    HW118116   2.666   3.339   7.444  0.1033  0.4933  1.7491
 2160SOL    HW218117   2.552   3.253   7.391 -0.5653  1.8004 -0.7271
 2161SOL     OW18118   0.197   3.774  16.922  0.1377 -0.0166  0.0414
 2161SOL    HW118119   0.180   3.810  16.834  1.0933  1.0024  0.2684
 2161SOL    HW218120   0.118   3.794  16.971  0.6064  0.5274  0.5792
 2162SOL     OW18121   2.529   4.108   9.173 -0.3024  0.4817 -0.6107
 2162SOL    HW118122   2.539   4.116   9.078 -0.1049 -2.5214 -0.8432
 2162SOL    HW218123   2.554   4.016   9.185  0.9450  1.1742  2.0281
 2163SOL     OW18124   0.179   3.666   7.666  0.0654 -0.2339 -0.3905
 2163SOL    HW118125   0.176   3.617   7.584  1.1227  0.5791 -0.9008
 2163SOL    HW218126   0.086   3.676   7.690 -0.2772  1.8945 -2.5390
 2164SOL     OW18127   0.739   3.745   3.853  0.1305  0.7625 -0.2254
 2164SOL    HW118128   0.813   3.806   3.859  0.2633  0.7508 -1.7944
 2164SOL    HW218129   0.705   3.761   3.941 -0.2536 -2.7436  0.2576
 2165SOL     OW18130   3.537   1.058   1.400 -0.1737  0.3477 -0.1752
 2165SOL    HW118131   3.482   1.122   1.445 -0.8108  0.3201 -0.9113
 2165SOL    HW218132   3.492   1.051   1.316 -0.8978 -2.7613  0.4801
 2166SOL     OW18133   2.111   2.132  10.072  0.0698  0.0178  0.1399
 2166SOL    HW118134   2.185   2.145  10.014 -0.7401 -0.8806 -1.0988
 2166SOL    HW218135   2.080   2.044  10.051  1.7099 -0.3627 -0.6725
 2167SOL     OW18136   3.692   0.872   2.108  0.7299  0.3248  0.0660
 2167SOL    HW118137   3.671   0.921   2.188 -0.1736  1.6022 -0.9438
 2167SOL    HW218138   3.632   0.798   2.114 -0.1937  1.1038  0.4064
 2168SOL     OW18139   4.656   3.874   3.399  0.6325 -0.8593  0.3501
 2168SOL    HW118140   4.605   3.950   3.373  1.6207 -1.1953 -2.5449
 2168SOL    HW218141   4.666   3.825   3.317  0.3157 -0.9649  0.3744
 2169SOL     OW18142   2.088   1.807  13.194  0.4470 -0.6056  0.4339
 2169SOL    HW118143   2.176   1.833  13.221  0.0178  0.9872  0.3044
 2169SOL    HW218144   2.036   1.876  13.235  0.5860 -1.1240  1.4766
 2170SOL     OW18145   1.019   1.200   3.129  0.1085 -0.3194  0.1590
 2170SOL    HW118146   1.066   1.236   3.204  0.6559 -2.1416  0.6844
 2170SOL    HW218147   0.948   1.264   3.121  0.1949 -0.5087 -2.1885
 2171SOL     OW18148   3.516   1.978  11.878  0.0003 -0.6200 -0.1015
 2171SOL    HW118149   3.592   2.031  11.856 -1.4661  0.5945 -2.2558
 2171SOL    HW218150   3.450   2.047  11.878  1.1511  0.4763  1.4659
 2172SOL     OW18151   2.792   0.079  14.319 -0.2923 -0.2225  0.6772
 2172SOL    HW118152   2.852   0.026  14.266 -1.5451 -0.3952 -0.5840
 2172SOL    HW218153   2.830   0.065  14.406 -0.8411 -0.5200  0.8663
 2173SOL     OW18154   2.743   2.874   8.085  1.1083  0.1072 -0.1795
 2173SOL    HW118155   2.808   2.874   8.156  0.9529 -2.1297 -0.0175
 2173SOL    HW218156   2.796   2.869   8.005  0.6817  0.7916 -0.5003
 2174SOL     OW18157   1.311   0.842   7.882  0.0324 -0.4600 -0.6447
 2174SOL    HW118158   1.278   0.768   7.933 -1.4849  0.8423  0.2807
 2174SOL    HW218159   1.371   0.790   7.830 -0.9797 -1.5898 -0.6813
 2175SOL     OW18160   4.296   1.955  10.040 -0.0450  0.2054 -0.4718
 2175SOL    HW118161   4.369   1.965   9.979 -1.7496 -0.0922 -2.5393
 2175SOL    HW218162   4.269   2.044  10.062  0.5053  0.2534  0.0219
 2176SOL     OW18163   2.983   4.292   5.305 -0.1831  0.2776  0.2065
 2176SOL    HW118164   2.931   4.368   5.279  0.5107  0.5951 -0.2746
 2176SOL    HW218165   2.933   4.217   5.274 -1.7362  0.2594  2.7726
 2177SOL     OW18166   2.473   4.186   0.976  0.2260 -0.5122  0.5032
 2177SOL    HW118167   2.483   4.191   0.881 -0.6466  3.4968  0.6442
 2177SOL    HW218168   2.530   4.109   0.984  0.7801 -0.2641 -1.0781
 2178SOL     OW18169   1.575   1.637   3.284  0.2969  0.0465 -0.0504
 2178SOL    HW118170   1.494   1.598   3.318  0.8273 -1.9959 -1.0900
 2178SOL    HW218171   1.560   1.731   3.280  0.7741  0.1900  1.5591
 2179SOL     OW18172   3.936   2.441   5.695 -0.0885 -0.7714  0.2416
 2179SOL    HW118173   3.957   2.410   5.783 -0.2351 -0.1497  0.4967
 2179SOL    HW218174   4.006   2.417   5.635 -0.2020  0.5715 -0.4362
 2180SOL     OW18175   0.882   1.509   4.944 -0.7772  0.2799  0.7120
 2180SOL    HW118176   0.972   1.530   4.967  0.2671 -2.7909 -0.6182
 2180SOL    HW218177   0.875   1.421   4.982  1.8186 -0.2694 -0.0666
 2181SOL     OW18178   0.915   3.803   9.409 -0.0180 -0.3596  0.8313
 2181SOL    HW118179   0.938   3.891   9.379  0.7581 -0.9277 -0.2055
 2181SOL    HW218180   0.922   3.749   9.331 -0.0323  0.8862 -0.0250
 2182SOL     OW18181   1.562   2.089   9.362 -0.0430 -0.0644  0.1740
 2182SOL    HW118182   1.594   2.092   9.453 -0.0055 -0.7723  0.1895
 2182SOL    HW218183   1.473   2.059   9.377 -0.3478  0.2834 -1.0114
 2183SOL     OW18184   1.837   4.049  11.736  0.8482  0.4106 -0.3719
 2183SOL    HW118185   1.890   4.050  11.816  0.7828 -1.1451 -0.3055
 2183SOL    HW218186   1.901   4.061  11.666  0.1565 -0.2910 -1.1221
 2184SOL     OW18187   0.290   1.907  11.306  0.0673  0.1029  0.2055
 2184SOL    HW118188   0.250   1.829  11.344  1.0004 -1.0634 -1.2509
 2184SOL    HW218189   0.375   1.896  11.349  0.1661  1.8026  0.4483
 2185SOL     OW18190   2.580   0.032   2.585 -0.1936 -0.6135  0.0747
 2185SOL    HW118191   2.643   0.103   2.584 -0.7244 -0.1443 -0.5279
 2185SOL    HW218192   2.520   0.056   2.514  0.2040  1.3822  0.4211
 2186SOL     OW18193   0.510   2.634   1.628 -0.3951 -0.8159  0.0053
 2186SOL    HW118194   0.460   2.691   1.569 -1.0987 -0.9974  0.4236
 2186SOL    HW218195   0.490   2.674   1.713  0.4485 -0.9817  0.2778
 2187SOL     OW18196   0.265   3.999   7.564 -0.5543 -0.6667 -0.2589
 2187SOL    HW118197   0.355   3.980   7.591 -0.6031 -2.8115 -1.5881
 2187SOL    HW218198   0.204   3.952   7.621 -0.3525 -0.2978  0.2642
 2188SOL     OW18199   2.103   4.431   6.377  0.2414  0.5928  0.0069
 2188SOL    HW118200   2.049   4.503   6.344 -0.6905  0.0878  0.4112
 2188SOL    HW218201   2.187   4.474   6.359 -0.5438  2.4427  0.6953
 2189SOL     OW18202   2.971   4.517  16.205  0.2018  0.0803 -0.3836
 2189SOL    HW118203   2.980   4.514  16.109  1.3843 -3.1442 -0.1929
 2189SOL    HW218204   3.056   4.477  16.225  0.5351  0.9611 -0.0363
 2190SOL     OW18205   2.006   0.879   9.283 -0.1276  0.0549 -0.2277
 2190SOL    HW118206   2.048   0.800   9.249  1.1872  0.5460  0.2322
 2190SOL    HW218207   2.040   0.950   9.228 -3.7819 -0.1798 -2.7951
 2191SOL     OW18208   0.084   3.644   8.041  0.0228 -0.4720 -0.3330
 2191SOL    HW118209   4.724   3.643   8.045 -0.0130  2.0765 -0.5260
 2191SOL    HW218210   0.110   3.552   8.037  1.4942 -0.0810  0.5159
 2192SOL     OW18211   3.856   1.935  15.847  0.0629 -0.1146  0.3200
 2192SOL    HW118212   3.899   1.974  15.771 -1.0355  2.6763  1.1110
 2192SOL    HW218213   3.909   1.976  15.915  2.5356  0.6494 -2.0860
 2193SOL     OW18214   4.155   2.658   6.006  0.2461  0.9130 -0.0680
 2193SOL    HW118215   4.169   2.753   6.003  0.7764  0.7543 -2.3327
 2193SOL    HW218216   4.060   2.666   6.005  0.1133 -0.3982  1.4425
 2194SOL     OW18217   4.557   2.758   3.133  0.4797 -0.3533 -0.3149
 2194SOL    HW118218   4.638   2.731   3.088 -0.1964 -0.6967 -1.3180
 2194SOL    HW218219   4.493   2.732   3.067  0.9185 -2.2677  0.0122
 2195SOL     OW18220   4.514   4.134   6.137 -0.1008  0.6740  0.0503
 2195SOL    HW118221   4.483   4.210   6.087 -0.6881 -1.3968 -2.6981
 2195SOL    HW218222   4.505   4.170   6.226  3.7138  0.3635  0.5636
 2196SOL     OW18223   0.857   3.942   2.981  0.1605  0.2685 -0.0395
 2196SOL    HW118224   0.935   3.996   2.972  1.1105 -1.1782 -0.4579
 2196SOL    HW218225   0.843   3.923   2.888  1.8587 -3.1834  0.4223
 2197SOL     OW18226   0.805   1.262   5.035  0.2900 -0.5063 -0.0734
 2197SOL    HW118227   0.817   1.286   5.126  0.2494 -0.9944  0.0637
 2197SOL    HW218228   0.724   1.211   5.040 -0.2168 -0.1113 -3.5733
 2198SOL     OW18229   2.112   1.247   0.592 -0.0880  0.4678 -0.2496
 2198SOL    HW118230   2.149   1.198   0.519  1.5911  2.1081 -0.4943
 2198SOL    HW218231   2.127   1.337   0.563 -0.8356  0.6173 -0.1954
 2199SOL     OW18232   3.618   1.635  11.437  0.8776 -0.5761 -0.0707
 2199SOL    HW118233   3.543   1.669  11.485  0.8602 -0.2967 -0.2923
 2199SOL    HW218234   3.687   1.636  11.503  0.7958  0.5662 -0.0053
 2200SOL     OW18235   1.891   0.248   1.806 -0.3157  0.3502 -0.3105
 2200SOL    HW118236   1.926   0.334   1.785 -1.9764  1.3109  0.8462
 2200SOL    HW218237   1.907   0.205   1.722  1.2839  0.2835  0.0388
 2201SOL     OW18238   2.302   2.989   2.974  1.1675  0.3771 -0.2374
 2201SOL    HW118239   2.228   3.015   3.029 -0.9508 -1.0171 -2.4352
 2201SOL    HW218240   2.329   3.075   2.941  0.3869  1.1532  1.1823
 2202SOL     OW18241   1.628   2.767   3.892 -0.5447  0.1136  0.0242
 2202SOL    HW118242   1.647   2.856   3.862  1.3404 -0.9931 -2.0973
 2202SOL    HW218243   1.591   2.796   3.975  2.8464  0.2876  1.4493
 2203SOL     OW18244   1.595   4.219   2.219  0.7150 -0.0949 -0.2805
 2203SOL    HW118245   1.512   4.171   2.219  0.9942 -0.5025 -5.3349
 2203SOL    HW218246   1.561   4.303   2.251  0.2623 -1.1257  1.9570
 2204SOL     OW18247   2.132   1.667  15.225 -0.1093  0.2516 -0.1677
 2204SOL    HW118248   2.131   1.718  15.144 -0.1855  3.1452  1.6895
 2204SOL    HW218249   2.216   1.624  15.207 -0.0340 -0.4848  1.9821
 2205SOL     OW18250   4.229   1.073  16.145 -0.6181 -0.0122 -0.1030
 2205SOL    HW118251   4.226   1.047  16.237 -1.6660  0.4444 -0.0054
 2205SOL    HW218252   4.316   1.113  16.146 -1.7466  2.4240  0.2069
 2206SOL     OW18253   4.005   4.544   4.763  0.1485 -0.3465  0.5354
 2206SOL    HW118254   4.047   4.467   4.724  1.7727  0.6750  0.2428
 2206SOL    HW218255   4.067   4.568   4.833 -0.4519  0.8254  0.6682
 2207SOL     OW18256   3.099   4.226   2.786 -0.0433 -0.4621  0.3180
 2207SOL    HW118257   3.179   4.229   2.733  0.2204  1.1574  0.8094
 2207SOL    HW218258   3.125   4.151   2.839 -0.1141  0.6187  1.8840
 2208SOL     OW18259   0.775   2.136   1.029 -0.5557  0.4692  0.0445
 2208SOL    HW118260   0.744   2.200   0.965 -0.6125 -0.2519 -0.6529
 2208SOL    HW218261   0.819   2.196   1.089 -1.3580 -0.9178  1.9932
 2209SOL     OW18262   1.713   4.243  15.756  0.2699  0.2698  0.6439
 2209SOL    HW118263   1.643   4.300  15.723  1.4018  1.9521  1.2288
 2209SOL    HW218264   1.788   4.286  15.715 -0.2466 -0.3928 -1.0175
 2210SOL     OW18265   2.369   2.540   4.216  0.0718  0.4688 -0.4662
 2210SOL    HW118266   2.410   2.519   4.132 -0.4850  0.6729 -0.7903
 2210SOL    HW218267   2.298   2.478   4.234 -1.2971  1.6813 -1.6427
 2211SOL     OW18268   1.578   4.000   7.371 -0.2110  0.0803 -0.2347
 2211SOL    HW118269   1.608   3.911   7.394 -0.2138  0.0106 -0.5019
 2211SOL    HW218270   1.659   4.044   7.344 -0.1081 -0.8659 -1.5134
 2212SOL     OW18271   1.792   2.559   6.941  0.0222  0.2365  0.6079
 2212SOL    HW118272   1.747   2.496   6.887  3.4277 -1.7902  0.1208
 2212SOL    HW218273   1.752   2.545   7.027 -2.5413 -0.6848 -0.7582
 2213SOL     OW18274   0.597   1.665   6.931  0.0608  0.6260  0.2382
 2213SOL    HW118275   0.674   1.658   6.988 -0.2846 -0.5012  0.5678
 2213SOL    HW218276   0.541   1.601   6.974  0.0436 -0.5709 -1.5817
 2214SOL     OW18277   2.186   2.615   7.043  0.1735 -0.2688 -0.1263
 2214SOL    HW118278   2.271   2.626   7.001  0.6668  1.1407  1.2603
 2214SOL    HW218279   2.207   2.550   7.111  1.9003 -0.9988 -1.3404
 2215SOL     OW18280   4.545   4.544   5.984 -0.2346 -0.2896 -0.5396
 2215SOL    HW118281   4.530   4.627   6.030  0.7771 -0.7477  0.6295
 2215SOL    HW218282   4.543   4.564   5.891 -1.3676 -0.4717 -0.5556
 2216SOL     OW18283   2.792   2.551   0.609  0.1027 -0.6811  0.4922
 2216SOL    HW118284   2.808   2.538   0.515 -0.5350  0.5498  0.2128
 2216SOL    HW218285   2.866   2.605   0.636 -0.2166 -0.5358  1.0640
 2217SOL     OW18286   4.518   2.344  10.675 -0.4968 -0.1802 -0.1847
 2217SOL    HW118287   4.443   2.336  10.617 -1.7870 -1.8165  1.7042
 2217SOL    HW218288   4.599   2.343  10.625 -0.7720  1.6501 -0.6290
 2218SOL     OW18289   2.615   0.693   6.532 -0.1876 -0.1249 -0.2301
 2218SOL    HW118290   2.578   0.740   6.457 -0.9549  1.5070  1.1753
 2218SOL    HW218291   2.538   0.672   6.584 -0.1859  0.2612 -0.0657
 2219SOL     OW18292   4.087   0.199   2.855 -0.0221 -0.0433  0.2071
 2219SOL    HW118293   4.180   0.207   2.873 -0.4711  2.1335  1.5209
 2219SOL    HW218294   4.040   0.164   2.931  0.5633 -0.8318  0.2080
 2220SOL     OW18295   0.795   1.501  16.658  0.2676 -0.4569 -0.2460
 2220SOL    HW118296   0.855   1.572  16.632  0.4062  0.4374  2.4663
 2220SOL    HW218297   0.852   1.446  16.712 -1.3087 -1.4527  0.3725
 2221SOL     OW18298   4.552   1.053   3.704 -0.4151 -0.0119 -0.4264
 2221SOL    HW118299   4.571   1.139   3.743  1.3264 -0.6775  0.1977
 2221SOL    HW218300   4.569   1.088   3.616  3.2036 -2.4106 -0.7066
 2222SOL     OW18301   4.419   3.154  10.778 -0.5314  0.2644 -0.0690
 2222SOL    HW118302   4.405   3.235  10.728  2.3574  1.0323  0.3642
 2222SOL    HW218303   4.343   3.159  10.836  1.6100  0.6558  2.6915
 2223SOL     OW18304   2.173   1.596   1.079  0.9590  0.7274 -0.1883
 2223SOL    HW118305   2.268   1.591   1.093  0.5782 -0.1540  2.0068
 2223SOL    HW218306   2.156   1.672   1.135  1.0886 -0.9181  2.0907
 2224SOL     OW18307   4.279   2.384   7.614  0.3272  0.3603  0.0345
 2224SOL    HW118308   4.361   2.397   7.566 -0.6160  0.4920 -1.5535
 2224SOL    HW218309   4.253   2.475   7.625  0.6030  0.3242  0.9774
 2225SOL     OW18310   4.037   2.913  16.379 -0.6530 -0.3704 -0.2177
 2225SOL    HW118311   3.998   2.875  16.459  2.3181 -2.5356  0.1912
 2225SOL    HW218312   3.965   2.910  16.317  1.1883  0.6706 -2.3789
 2226SOL     OW18313   2.828   3.770   3.689 -0.3156 -0.4867  0.0872
 2226SOL    HW118314   2.822   3.865   3.695  1.8771 -0.4842  2.2346
 2226SOL    HW218315   2.830   3.746   3.781 -1.3661  0.0237  0.2458
 2227SOL     OW18316   2.419   1.769   1.315  0.1259  0.2040 -0.7182
 2227SOL    HW118317   2.444   1.715   1.390 -0.4225  0.0789 -0.6251
 2227SOL    HW218318   2.444   1.711   1.243  2.8371  1.3910 -0.7465
 2228SOL     OW18319   3.775   3.952   3.441  0.2282 -0.1766 -0.6973
 2228SOL    HW118320   3.755   3.909   3.358  3.6101  2.8575 -3.0393
 2228SOL    HW218321   3.697   3.932   3.493 -0.0763 -1.0743 -1.4886
 2229SOL     OW18322   1.731   0.856   8.197  0.7957 -0.1047 -0.7511
 2229SOL    HW118323   1.694   0.853   8.285 -0.3915 -0.1593 -1.2483
 2229SOL    HW218324   1.725   0.947   8.168  1.1258  0.1928  0.1118
 2230SOL     OW18325   3.571   1.639  13.615  0.2201 -0.1346 -0.1778
 2230SOL    HW118326   3.527   1.649  13.530 -0.2294  0.2512  0.1032
 2230SOL    HW218327   3.518   1.694  13.672  1.8064  1.4790 -0.2794
 2231SOL     OW18328   0.491   3.447  14.259 -0.3662  0.1587 -0.0229
 2231SOL    HW118329   0.538   3.370  14.225  0.6595  0.6930  0.1813
 2231SOL    HW218330   0.542   3.512  14.212 -0.4832  0.0001 -0.3701
 2232SOL     OW18331   2.588   3.620   0.630 -0.5699 -0.2465  0.3831
 2232SOL    HW118332   2.545   3.571   0.561 -0.3042 -0.8052  0.6179
 2232SOL    HW218333   2.587   3.557   0.702  1.9945 -0.8118 -0.0735
 2233SOL     OW18334   0.749   1.076   2.637 -0.0598  0.9522 -0.0320
 2233SOL    HW118335   0.744   1.055   2.544 -1.3275 -1.6653  0.6535
 2233SOL    HW218336   0.655   1.079   2.651 -0.1081  1.0500 -0.3751
 2234SOL     OW18337   3.695   0.832   6.180 -0.1755  0.0159 -0.3186
 2234SOL    HW118338   3.639   0.903   6.147 -1.6664  0.2937  2.8457
 2234SOL    HW218339   3.634   0.764   6.209 -0.3878  1.5752  2.8261
 2235SOL     OW18340   0.730   3.396  10.252 -0.6871  0.5589 -0.0170
 2235SOL    HW118341   0.820   3.388  10.220  0.1414  1.4030  2.1186
 2235SOL    HW218342   0.739   3.434  10.339  1.5636  0.4312 -0.2071
 2236SOL     OW18343   1.692   2.673  17.536  0.2465  0.0401 -0.2842
 2236SOL    HW118344   1.758   2.603  17.536 -0.6986 -0.8383  0.0691
 2236SOL    HW218345   1.620   2.616  17.560  0.2344 -0.5251 -1.6883
 2237SOL     OW18346   2.688   0.268   2.473 -0.1257 -0.2855 -0.8211
 2237SOL    HW118347   2.593   0.285   2.471  0.1026  1.0144 -0.6425
 2237SOL    HW218348   2.710   0.361   2.473  1.9164 -0.8024  1.8258
 2238SOL     OW18349   2.939   0.878   7.608 -0.1187  0.8412 -0.0103
 2238SOL    HW118350   3.015   0.897   7.552 -1.7606 -0.9564 -2.8809
 2238SOL    HW218351   2.861   0.882   7.554 -0.9502 -0.3451  1.0960
 2239SOL     OW18352   3.636   1.733  16.692  0.3779 -0.2060  0.2292
 2239SOL    HW118353   3.727   1.763  16.702 -0.3493  1.7582  0.9956
 2239SOL    HW218354   3.617   1.802  16.629 -0.8701 -1.8474 -1.1640
 2240SOL     OW18355   2.612   4.345   1.836 -0.1124  0.1215 -0.4791
 2240SOL    HW118356   2.698   4.333   1.877 -0.4527 -0.2894  0.1187
 2240SOL    HW218357   2.632   4.333   1.744 -1.2256  2.8704 -1.0854
 2241SOL     OW18358   3.629   2.179   6.817  0.0283 -0.2831 -0.1738
 2241SOL    HW118359   3.607   2.269   6.837  0.5723 -0.2035  0.0629
 2241SOL    HW218360   3.590   2.178   6.729  0.6214 -1.8605 -0.4317
 2242SOL     OW18361   0.737   4.118   6.880 -0.1213  0.0855 -0.2061
 2242SOL    HW118362   0.746   4.212   6.862 -0.1965 -0.1425 -1.4240
 2242SOL    HW218363   0.645   4.103   6.858  0.5422 -1.1854 -2.1275
 2243SOL     OW18364   0.932   4.479  16.430  0.4077 -0.6769  0.2765
 2243SOL    HW118365   0.890   4.393  16.432 -3.6599  1.3016  1.1241
 2243SOL    HW218366   0.985   4.471  16.351 -0.8314  0.9616 -0.7271
 2244SOL     OW18367   1.021   1.595   7.510 -0.6220 -0.2742  0.0692
 2244SOL    HW118368   1.095   1.654   7.521 -0.9834  0.2180 -0.1554
 2244SOL    HW218369   1.016   1.559   7.599  1.2414 -0.5461  0.0620
 2245SOL     OW18370   2.419   2.426   1.778  0.2667  0.7363 -0.6704
 2245SOL    HW118371   2.481   2.489   1.742  1.6843 -1.6145 -2.3756
 2245SOL    HW218372   2.412   2.374   1.697 -1.0694  1.6201 -1.1275
 2246SOL     OW18373   1.166   1.371  17.157  0.1744  0.4228  0.3006
 2246SOL    HW118374   1.260   1.379  17.176  0.1935  3.5463 -1.0750
 2246SOL    HW218375   1.144   1.464  17.157  1.5883  0.7554  0.2672
 2247SOL     OW18376   1.645   2.235   6.264  0.8701 -0.4441 -0.5179
 2247SOL    HW118377   1.664   2.144   6.287 -1.0032 -1.0185 -1.2324
 2247SOL    HW218378   1.576   2.217   6.200  1.9542  2.1391 -2.4540
 2248SOL     OW18379   1.501   2.276   7.030 -0.3297 -0.1566  0.3424
 2248SOL    HW118380   1.569   2.211   7.016  0.4796  0.5633  0.9554
 2248SOL    HW218381   1.546   2.334   7.091  0.1716  0.5106 -0.6598
 2249SOL     OW18382   1.393   3.748   4.234 -0.1635  0.1534  0.1830
 2249SOL    HW118383   1.450   3.753   4.311  0.7783  0.3535 -0.5166
 2249SOL    HW218384   1.470   3.752   4.177  0.1941  0.8911  0.7145
 2250SOL     OW18385   3.657   3.259   2.318 -0.1943  0.1961 -0.1122
 2250SOL    HW118386   3.561   3.255   2.313 -0.2257 -0.5573  1.0299
 2250SOL    HW218387   3.674   3.210   2.398 -3.3557 -0.6486  0.0650
 2251SOL     OW18388   3.745   0.348   7.916  0.0725  0.2389  0.1313
 2251SOL    HW118389   3.822   0.328   7.863  0.8756  2.4922  0.4101
 2251SOL    HW218390   3.790   0.334   7.999 -0.0818 -0.4871  0.0932
 2252SOL     OW18391   1.882   1.846   7.873  0.7087 -0.5037 -0.3579
 2252SOL    HW118392   1.863   1.811   7.959 -0.2488  1.4275  0.2117
 2252SOL    HW218393   1.969   1.883   7.891  0.3265 -0.0260  0.5102
 2253SOL     OW18394   3.333   0.384   2.667 -0.1783  0.2689  0.2174
 2253SOL    HW118395   3.270   0.446   2.630  0.9445  1.1794 -0.1763
 2253SOL    HW218396   3.374   0.350   2.587  0.6402 -0.4088  0.9309
 2254SOL     OW18397   1.194   2.145   4.755 -0.4729 -0.3773  0.5372
 2254SOL    HW118398   1.102   2.164   4.771 -0.4160  1.0203 -0.8434
 2254SOL    HW218399   1.210   2.073   4.816  1.6636 -0.0089  0.3937
 2255SOL     OW18400   2.299   2.519  14.203  0.1005  0.4234  0.0324
 2255SOL    HW118401   2.364   2.563  14.148  0.2287 -1.6479 -1.4709
 2255SOL    HW218402   2.235   2.590  14.196 -0.9164 -0.2580  2.4800
 2256SOL     OW18403   3.984   2.432   7.904  0.5811 -0.3718 -0.2873
 2256SOL    HW118404   3.924   2.490   7.949 -0.5993 -0.7021 -1.4447
 2256SOL    HW218405   3.991   2.459   7.813 -0.8258 -1.2225 -0.6368
 2257SOL     OW18406   1.180   4.339   3.399  0.1801 -0.2683  0.1138
 2257SOL    HW118407   1.126   4.409   3.438 -0.2359  0.8901 -2.5252
 2257SOL    HW218408   1.265   4.357   3.439  0.8764 -1.3247 -0.9323
 2258SOL     OW18409   4.085   4.056   3.553  0.3923  0.1821 -0.7003
 2258SOL    HW118410   4.093   4.109   3.632 -3.0731 -0.6630  0.1945
 2258SOL    HW218411   3.990   4.046   3.554  0.5972 -1.4113  2.0420
 2259SOL     OW18412   0.072   4.527   9.692  0.5688  0.0776  0.5820
 2259SOL    HW118413   0.161   4.502   9.667 -0.3744 -1.7606 -0.9460
 2259SOL    HW218414   0.027   4.466   9.633  0.0595 -0.9638  2.0723
 2260SOL     OW18415   2.808   2.155   6.838 -0.3632  0.2144 -0.2546
 2260SOL    HW118416   2.811   2.059   6.829  0.4642  0.0184  2.0210
 2260SOL    HW218417   2.751   2.166   6.914 -0.1474 -0.7225  0.0471
 2261SOL     OW18418   3.929   4.703   5.745 -0.0591  0.3987  0.3463
 2261SOL    HW118419   3.922   4.722   5.838 -2.5929 -0.1774  0.2770
 2261SOL    HW218420   3.841   4.730   5.719 -0.1707  0.0888  0.3938
 2262SOL     OW18421   2.170   3.346   5.055 -0.2900  0.3431  0.0866
 2262SOL    HW118422   2.091   3.331   5.108  0.2076 -0.7366  0.5376
 2262SOL    HW218423   2.151   3.423   5.002 -0.7041  0.0257 -0.2272
 2263SOL     OW18424   0.310   2.585   8.671 -0.0239  0.8020  0.0194
 2263SOL    HW118425   0.395   2.550   8.646  0.2213  1.9635 -0.7595
 2263SOL    HW218426   0.337   2.660   8.724 -0.8719 -1.7913  4.1138
 2264SOL     OW18427   2.512   3.010   5.851 -0.4011 -0.2082 -0.0617
 2264SOL    HW118428   2.480   2.995   5.762 -1.0173 -1.2178  0.3184
 2264SOL    HW218429   2.458   2.952   5.906  0.0271 -1.1784 -0.6558
 2265SOL     OW18430   2.076   4.448   7.810 -0.1249 -0.0994  0.1100
 2265SOL    HW118431   2.052   4.379   7.871  1.7521 -0.7486  0.1183
 2265SOL    HW218432   2.162   4.414   7.783  0.8329  2.5258 -0.1390
 2266SOL     OW18433   1.059   2.532   0.107 -0.3546  0.1803 -0.0701
 2266SOL    HW118434   1.073   2.611   0.159 -0.5684 -0.2997  0.7271
 2266SOL    HW218435   1.019   2.572   0.031 -0.5449 -1.8038 -1.0267
 2267SOL     OW18436   3.191   4.518   1.320 -0.0283  0.1082 -0.6203
 2267SOL    HW118437   3.242   4.479   1.391  0.6693 -0.2425 -1.3081
 2267SOL    HW218438   3.106   4.534   1.360 -0.5728  0.0229 -1.7457
 2268SOL     OW18439   1.632   4.367  13.688 -0.2200  0.1893 -0.5809
 2268SOL    HW118440   1.538   4.383  13.681 -0.8848 -2.2908  2.4833
 2268SOL    HW218441   1.674   4.404  13.610 -2.2878 -2.2410 -2.8762
 2269SOL     OW18442   3.796   1.422   3.790 -0.4372  0.1099 -0.0820
 2269SOL    HW118443   3.871   1.481   3.799 -0.8148  0.4537  0.7597
 2269SOL    HW218444   3.836   1.367   3.722 -0.4848 -1.1702  0.9320
 2270SOL     OW18445   0.546   0.417  16.144  0.1149 -0.4088 -0.2574
 2270SOL    HW118446   0.558   0.385  16.233 -0.0087  2.6969  0.8967
 2270SOL    HW218447   0.496   0.342  16.114 -1.0110 -0.2018  1.0846
 2271SOL     OW18448   2.128   1.071   2.107  0.5452  0.4852 -0.1726
 2271SOL    HW118449   2.173   1.110   2.182  2.9969  0.9455 -1.8879
 2271SOL    HW218450   2.093   1.147   2.059 -2.1233 -0.5619  0.1034
 2272SOL     OW18451   2.917   4.457   8.316 -0.4510  0.5999  0.4468
 2272SOL    HW118452   2.982   4.423   8.378 -0.4144 -0.9141 -0.4285
 2272SOL    HW218453   2.845   4.440   8.378 -0.6652  2.6650  0.7692
 2273SOL     OW18454   4.285   2.514  16.737  0.0678 -0.1117  0.2760
 2273SOL    HW118455   4.374   2.516  16.703  0.1291 -1.0079  0.3743
 2273SOL    HW218456   4.263   2.421  16.734 -0.9317  0.1722 -1.1666
 2274SOL     OW18457   4.700   1.330   8.691  0.4741  0.1361 -0.1363
 2274SOL    HW118458   4.721   1.289   8.607  1.2774 -0.3078  0.2861
 2274SOL    HW218459   4.702   1.424   8.673  0.6158  0.4981  1.8380
 2275SOL     OW18460   1.909   0.248   2.910  0.4248 -0.0049 -0.2437
 2275SOL    HW118461   1.834   0.303   2.889  1.2560  0.7536 -1.1812
 2275SOL    HW218462   1.940   0.222   2.823  2.9910  0.9319  0.3942
 2276SOL     OW18463   4.558   1.801   7.418  0.4974 -0.3246  0.3124
 2276SOL    HW118464   4.464   1.783   7.414  0.3158  0.3427  1.5510
 2276SOL    HW218465   4.569   1.866   7.349 -0.2328  0.0488  0.5485
 2277SOL     OW18466   3.100   1.636  16.095  0.6691  0.4880 -0.2384
 2277SOL    HW118467   3.009   1.642  16.122  0.5592 -0.5355 -0.3858
 2277SOL    HW218468   3.108   1.723  16.055 -2.6644  1.5459  1.4807
 2278SOL     OW18469   4.427   4.194  14.872  0.0238  0.0222  0.1248
 2278SOL    HW118470   4.517   4.200  14.839 -0.3700 -1.4346 -1.2174
 2278SOL    HW218471   4.380   4.162  14.795 -1.7293  0.9154  0.8351
 2279SOL     OW18472   0.404   2.815   9.499  0.0569 -0.4200  0.2730
 2279SOL    HW118473   0.441   2.887   9.447 -2.5402  1.5564  1.1706
 2279SOL    HW218474   0.470   2.798   9.567  0.4994 -0.7321 -0.2325
 2280SOL     OW18475   4.094   3.334   6.604  0.0221 -0.1923  0.0357
 2280SOL    HW118476   4.018   3.295   6.561  0.4774 -0.5119 -0.4734
 2280SOL    HW218477   4.053   3.417   6.628  0.6760  0.5336 -1.3550
 2281SOL     OW18478   1.867   4.525   7.312  0.3768 -0.8439 -0.1884
 2281SOL    HW118479   1.940   4.587   7.302 -0.1441 -0.1156  0.5706
 2281SOL    HW218480   1.888   4.492   7.400  1.8016  0.2502 -0.1084
 2282SOL     OW18481   1.534   3.903   4.900 -0.5526 -0.9331  0.1235
 2282SOL    HW118482   1.459   3.911   4.842  0.1291  0.8187 -0.5411
 2282SOL    HW218483   1.596   3.967   4.862 -1.3646  0.5142  1.2495
 2283SOL     OW18484   2.374   3.369   5.223  0.4384  0.2638  0.4138
 2283SOL    HW118485   2.375   3.460   5.254  0.3414 -0.0196  1.2439
 2283SOL    HW218486   2.327   3.382   5.140 -5.1308 -0.9698  3.3535
 2284SOL     OW18487   2.289   4.495   5.848  0.3013  0.3909 -0.2766
 2284SOL    HW118488   2.350   4.569   5.855 -0.7045  1.1364  0.6119
 2284SOL    HW218489   2.221   4.526   5.907  0.0604 -1.3828  0.3863
 2285SOL     OW18490   3.699   0.446   7.352 -0.5476  0.3156 -0.3668
 2285SOL    HW118491   3.633   0.507   7.385  0.7260  1.4193  0.0825
 2285SOL    HW218492   3.776   0.459   7.406 -1.9757  1.9434  1.2833
 2286SOL     OW18493   3.810   3.689  11.388 -0.2536 -0.1940 -0.6820
 2286SOL    HW118494   3.836   3.613  11.441 -1.3438  0.1622  0.3552
 2286SOL    HW218495   3.721   3.700  11.421 -0.2050 -0.1936 -0.5496
 2287SOL     OW18496   1.838   4.420   6.129 -0.2889  0.2608 -0.1784
 2287SOL    HW118497   1.850   4.349   6.192 -0.6612  0.3799  0.0231
 2287SOL    HW218498   1.746   4.416   6.106 -0.1754 -0.3901 -0.5335
 2288SOL     OW18499   0.020   0.141   3.231  0.3163  0.9323  0.3346
 2288SOL    HW118500   4.697   0.091   3.175  0.4302 -1.1871  2.1321
 2288SOL    HW218501   0.094   0.160   3.174  1.8297 -3.5901  0.8091
 2289SOL     OW18502   0.666   2.720  14.457 -0.2037 -0.1851  0.2881
 2289SOL    HW118503   0.691   2.812  14.444  3.7145 -1.1987  0.5802
 2289SOL    HW218504   0.577   2.724  14.493 -0.1993 -0.4812  0.3350
 2290SOL     OW18505   3.001   2.646  12.272 -0.1345 -0.1278 -0.4223
 2290SOL    HW118506   3.090   2.680  12.268  0.9826 -2.9954 -0.3211
 2290SOL    HW218507   2.983   2.610  12.185 -0.1232 -0.5100 -0.2654
 2291SOL     OW18508   0.459   0.860   5.828  0.6286 -0.1574 -0.2907
 2291SOL    HW118509   0.502   0.786   5.872 -0.5214 -0.4338  0.3615
 2291SOL    HW218510   0.535   0.918   5.817 -0.1812  0.8730 -0.4553
 2292SOL     OW18511   2.206   4.540   6.916 -0.1507  0.4701  0.2992
 2292SOL    HW118512   2.245   4.620   6.951 -1.4731  1.9298 -1.5600
 2292SOL    HW218513   2.129   4.528   6.972 -0.8117 -2.8505 -1.3603
 2293SOL     OW18514   2.798   3.791   7.643 -0.2272  0.3853 -1.1766
 2293SOL    HW118515   2.750   3.869   7.616  1.8068  1.6390 -1.2245
 2293SOL    HW218516   2.822   3.810   7.734  2.5001 -1.3567 -1.5343
 2294SOL     OW18517   1.279   3.606   2.110 -0.0120 -0.0636 -0.8196
 2294SOL    HW118518   1.244   3.522   2.140 -0.1309 -0.1417 -1.1769
 2294SOL    HW218519   1.208   3.633   2.052  0.6878 -2.0979 -2.6464
 2295SOL     OW18520   2.996   1.184  11.188  0.1978 -0.0803  0.3195
 2295SOL    HW118521   3.041   1.121  11.132  2.9087  0.4521  1.8529
 2295SOL    HW218522   3.027   1.267  11.150 -0.2616 -0.9782 -2.0349
 2296SOL     OW18523   3.437   2.869  12.165 -0.1069  0.3494 -0.0132
 2296SOL    HW118524   3.364   2.832  12.214  1.1876 -2.8190 -0.5297
 2296SOL    HW218525   3.405   2.859  12.075  2.6078 -1.2469 -0.7937
 2297SOL     OW18526   2.448   3.821   7.507  0.4039 -0.1645 -0.0086
 2297SOL    HW118527   2.454   3.774   7.424  1.8478  1.7384 -0.9763
 2297SOL    HW218528   2.488   3.751   7.558 -0.8419  0.9005  2.4024
 2298SOL     OW18529   0.449   2.090   9.192 -0.4011 -0.0940 -0.6367
 2298SOL    HW118530   0.395   2.165   9.215 -3.0590 -2.1486 -0.1934
 2298SOL    HW218531   0.388   2.046   9.132 -1.0373 -0.3717  0.2207
 2299SOL     OW18532   0.100   1.559  11.755 -0.0498 -0.3996 -0.5916
 2299SOL    HW118533   0.039   1.605  11.697 -2.5517 -1.0128  1.5669
 2299SOL    HW218534   0.161   1.630  11.769 -0.7361 -0.6485  3.5774
 2300SOL     OW18535   4.660   1.820   5.857 -0.1500 -0.4612  0.1046
 2300SOL    HW118536   4.692   1.792   5.943 -1.7307 -0.0271  0.8312
 2300SOL    HW218537   0.005   1.822   5.807 -0.2582  0.6858 -0.0349
 2301SOL     OW18538   1.666   4.681   3.686 -0.6576  0.0240  0.3268
 2301SOL    HW118539   1.663   4.661   3.779 -0.9784  0.0136  0.3166
 2301SOL    HW218540   1.594   4.622   3.663 -0.5867  0.2556 -0.5050
 2302SOL     OW18541   2.693   4.491  14.068 -0.4497 -0.0502  0.0936
 2302SOL    HW118542   2.648   4.541  14.000  0.4787  0.4613 -0.1495
 2302SOL    HW218543   2.661   4.402  14.058 -0.3593 -0.0541 -0.1652
 2303SOL     OW18544   2.658   3.565  12.454  0.5430 -0.4105  0.0502
 2303SOL    HW118545   2.577   3.513  12.448  1.1315 -1.3110 -0.1190
 2303SOL    HW218546   2.622   3.651  12.477  0.4911 -0.2496 -0.6260
 2304SOL     OW18547   2.106   2.613   1.677  0.1486  0.5644  0.5925
 2304SOL    HW118548   2.095   2.539   1.738  0.4734  0.1518  0.1503
 2304SOL    HW218549   2.172   2.584   1.614 -1.3189  0.9816 -1.1511
 2305SOL     OW18550   1.034   3.752  17.396  0.0635  0.2969 -0.2368
 2305SOL    HW118551   0.988   3.722  17.318  3.4288 -0.2530 -2.0430
 2305SOL    HW218552   1.053   3.669  17.440  0.4957  0.4225 -0.1796
 2306SOL     OW18553   1.372   3.215   5.557  0.3535  0.4546  0.5812
 2306SOL    HW118554   1.425   3.178   5.627  0.2931  1.7379  1.3092
 2306SOL    HW218555   1.415   3.185   5.476 -0.4414 -0.9867  0.7043
 2307SOL     OW18556   4.293   3.169   1.517 -0.2128 -0.5773 -0.1232
 2307SOL    HW118557   4.389   3.167   1.509 -0.1988  1.3328 -0.5250
 2307SOL    HW218558   4.267   3.097   1.459 -2.5274  0.3354 -0.1875
 2308SOL     OW18559   0.294   2.103  11.601 -0.5563 -0.8023  0.0581
 2308SOL    HW118560   0.259   2.015  11.619  0.1198 -1.3204 -1.1606
 2308SOL    HW218561   0.218   2.143  11.561 -0.9504 -2.7492 -1.1584
 2309SOL     OW18562   2.265   1.589   9.088  0.0392  0.4184  0.1395
 2309SOL    HW118563   2.298   1.525   9.150 -0.1171 -0.2631 -0.4771
 2309SOL    HW218564   2.173   1.567   9.097 -0.0151  1.4242  2.1386
 2310SOL     OW18565   0.791   1.633  13.036 -0.0069 -0.8873  0.3957
 2310SOL    HW118566   0.844   1.635  12.956  0.6739  0.1758  0.8749
 2310SOL    HW218567   0.837   1.701  13.086  2.3741 -0.0193 -2.9807
 2311SOL     OW18568   1.711   3.653   2.872 -0.0018 -0.3820  0.1856
 2311SOL    HW118569   1.629   3.686   2.834 -1.4666 -3.1640  0.9557
 2311SOL    HW218570   1.776   3.724   2.866  0.4678 -0.8182  0.1438
 2312SOL     OW18571   3.641   2.687   7.215 -0.5136  0.0291  0.0430
 2312SOL    HW118572   3.635   2.771   7.170  0.9515 -0.9600 -2.0022
 2312SOL    HW218573   3.709   2.695   7.282 -1.2781  2.6308  0.4825
 2313SOL     OW18574   1.840   3.620  13.637 -0.2053  0.5592  0.1421
 2313SOL    HW118575   1.933   3.637  13.627  0.2561 -0.5928  2.5684
 2313SOL    HW218576   1.834   3.608  13.732 -0.5581  1.7729  0.2723
 2314SOL     OW18577   4.136   2.606  15.957  0.4309  0.2089 -0.7179
 2314SOL    HW118578   4.060   2.576  15.906  0.5655  0.1644 -0.8893
 2314SOL    HW218579   4.079   2.664  16.009  0.8829  0.0337 -0.0296
 2315SOL     OW18580   3.938   0.072   3.093  0.4200 -0.0838 -1.0245
 2315SOL    HW118581   3.869   0.076   3.027  0.3600 -0.7258 -0.9994
 2315SOL    HW218582   3.974   4.727   3.056  1.5702  0.0620 -0.1987
 2316SOL     OW18583   1.520   2.432   7.555  0.2399 -0.1811 -0.6642
 2316SOL    HW118584   1.515   2.448   7.460  2.8400  1.4113 -0.5484
 2316SOL    HW218585   1.433   2.442   7.592  0.3331  3.2924 -1.3143
 2317SOL     OW18586   0.729   1.998   4.902  0.0258 -0.0885 -0.5190
 2317SOL    HW118587   0.781   1.968   4.977 -0.4943  0.1415 -0.0678
 2317SOL    HW218588   0.693   1.919   4.861 -1.5181  0.0368  0.5941
 2318SOL     OW18589   4.412   3.445   8.368  0.0026 -0.3864  0.1787
 2318SOL    HW118590   4.421   3.540   8.381 -0.0758 -0.2147 -1.0132
 2318SOL    HW218591   4.329   3.421   8.408  0.3631 -2.0898 -0.1174
 2319SOL     OW18592   1.935   0.177   8.576 -0.0656 -0.1030  0.2063
 2319SOL    HW118593   1.934   0.229   8.656 -0.1640  1.9391 -1.1224
 2319SOL    HW218594   1.969   0.245   8.517 -1.1074  0.5095  0.3033
 2320SOL     OW18595   3.085   4.527   7.136 -0.4279 -0.2975 -0.1019
 2320SOL    HW118596   3.141   4.542   7.212  1.0140  0.3503 -1.3015
 2320SOL    HW218597   3.040   4.448   7.166  2.3269 -2.1988 -1.0595
 2321SOL     OW18598   3.116   1.053   1.891  0.6572 -0.5619  0.4338
 2321SOL    HW118599   3.040   0.995   1.895  1.1745 -1.0110  3.4976
 2321SOL    HW218600   3.156   1.030   1.974 -0.2952 -0.1026  1.0165
 2322SOL     OW18601   3.919   2.303   2.061  0.3500  0.3055  0.0577
 2322SOL    HW118602   3.913   2.327   1.969 -0.0235 -1.9613 -0.5272
 2322SOL    HW218603   3.922   2.394   2.091 -2.8394  0.4104  0.0400
 2323SOL     OW18604   0.219   3.455   1.970 -0.2691 -0.0181  0.4093
 2323SOL    HW118605   0.309   3.488   1.978  0.5613 -2.3222  0.4952
 2323SOL    HW218606   0.182   3.504   1.897 -0.9084  0.6542  1.1951
 2324SOL     OW18607   3.637   0.915   8.028  0.3633 -0.2018  0.2148
 2324SOL    HW118608   3.633   0.821   8.043  1.8627 -0.7085 -2.5222
 2324SOL    HW218609   3.731   0.929   8.035  0.4476 -1.1603  0.9646
 2325SOL     OW18610   1.761   1.470   1.690 -0.0117 -0.6342  0.1898
 2325SOL    HW118611   1.850   1.487   1.718  0.4684 -1.2534 -0.9295
 2325SOL    HW218612   1.712   1.458   1.771 -0.1243  0.0440  0.2281
 2326SOL     OW18613   0.942   4.431   3.720  0.0262 -0.6710 -0.3327
 2326SOL    HW118614   0.899   4.441   3.635 -1.3270  0.0325  0.4361
 2326SOL    HW218615   0.870   4.431   3.783 -0.2699  0.6890 -0.6778
 2327SOL     OW18616   4.216   3.237   3.812 -0.1866  0.0364  0.7481
 2327SOL    HW118617   4.180   3.151   3.792  0.0488 -0.0169  0.5499
 2327SOL    HW218618   4.142   3.290   3.783  0.6484  1.1055  0.5715
 2328SOL     OW18619   2.470   3.356   4.014 -0.8175 -0.0280  0.4776
 2328SOL    HW118620   2.410   3.325   4.082 -0.2269  0.1624  1.0816
 2328SOL    HW218621   2.464   3.278   3.959  2.3187 -0.0450  0.1920
 2329SOL     OW18622   2.518   3.900   5.198 -0.0105 -0.0731 -0.2863
 2329SOL    HW118623   2.460   3.969   5.232 -1.7166 -0.5952 -2.1305
 2329SOL    HW218624   2.573   3.939   5.129 -0.8536  1.3802 -0.1439
 2330SOL     OW18625   0.569   2.028   2.984 -0.0496 -0.0405 -0.7014
 2330SOL    HW118626   0.637   1.964   3.003 -0.6467  0.3274  2.6663
 2330SOL    HW218627   0.504   1.986   2.928 -1.4383  0.1123  0.7822
 2331SOL     OW18628   2.518   1.203   9.339 -0.1921 -0.3767 -0.0839
 2331SOL    HW118629   2.613   1.202   9.331 -0.2485 -0.6992 -0.7225
 2331SOL    HW218630   2.492   1.153   9.261 -0.8938  1.8823 -1.3066
 2332SOL     OW18631   3.850   1.699   4.209 -0.1358 -0.6773  0.0696
 2332SOL    HW118632   3.777   1.650   4.170  0.0529 -0.7648 -0.1703
 2332SOL    HW218633   3.871   1.639   4.280  2.5664  0.1978 -0.0023
 2333SOL     OW18634   4.666   0.995  16.939 -0.1378  0.0770  0.1149
 2333SOL    HW118635   0.009   0.950  16.968  0.5657  2.2522  1.5600
 2333SOL    HW218636   4.607   0.981  17.014  1.5771 -1.8716  1.0853
 2334SOL     OW18637   4.726   0.087  11.593 -0.1306  0.4240  0.1025
 2334SOL    HW118638   4.730   0.171  11.637 -0.2632  1.3747 -1.6949
 2334SOL    HW218639   4.683   0.110  11.510  0.7350  2.1606  0.1413
 2335SOL     OW18640   0.984   1.549  13.354 -0.3314  0.3375  0.6716
 2335SOL    HW118641   1.020   1.485  13.292 -0.6039  0.5628  0.2785
 2335SOL    HW218642   0.926   1.495  13.408  0.5298 -1.1311  0.1408
 2336SOL     OW18643   4.288   3.072   0.538  0.2380 -0.2082 -0.3474
 2336SOL    HW118644   4.379   3.044   0.524  0.7029  0.3785  1.4822
 2336SOL    HW218645   4.302   3.156   0.582 -1.3124 -0.4953  0.6639
 2337SOL     OW18646   4.084   1.537   5.878 -0.0030 -0.0343  0.0254
 2337SOL    HW118647   4.168   1.524   5.920  1.1761 -2.2294 -2.9699
 2337SOL    HW218648   4.085   1.493   5.793 -0.4415 -0.5124  0.2647
 2338SOL     OW18649   0.782   4.393   6.852  0.0123  0.5426 -0.1084
 2338SOL    HW118650   0.867   4.414   6.813  0.1729 -2.8134 -1.5599
 2338SOL    HW218651   0.744   4.481   6.852  2.3354  1.5338 -3.0543
 2339SOL     OW18652   0.618   2.633   0.338 -0.4839 -0.0473 -0.0463
 2339SOL    HW118653   0.540   2.582   0.359  0.3557 -0.6722  1.6162
 2339SOL    HW218654   0.634   2.595   0.252  0.8646 -1.2017  0.6916
 2340SOL     OW18655   0.486   2.973   8.165 -0.0374 -0.4698  0.1578
 2340SOL    HW118656   0.540   2.921   8.225  1.1438  0.8744  0.2642
 2340SOL    HW218657   0.434   2.905   8.123 -0.4523 -0.1117  0.0893
 2341SOL     OW18658   2.519   0.475   5.220 -0.5788 -0.4650 -0.2029
 2341SOL    HW118659   2.459   0.404   5.196  1.0450 -1.9832  0.2826
 2341SOL    HW218660   2.464   0.553   5.226 -1.3246 -0.9875 -0.2083
 2342SOL     OW18661   2.996   4.265   7.164 -0.2219  0.2683  0.5010
 2342SOL    HW118662   2.905   4.269   7.136 -0.4182 -0.7501  1.0075
 2342SOL    HW218663   2.993   4.222   7.249  1.0258  0.4010  0.6206
 2343SOL     OW18664   2.216   2.039   1.457  0.4277 -0.1635  0.2516
 2343SOL    HW118665   2.223   2.053   1.552  3.0675  1.1842 -0.1375
 2343SOL    HW218666   2.205   2.130   1.429  0.4327 -0.7251 -1.5393
 2344SOL     OW18667   1.106   4.549   2.835  0.1228  0.2481  0.7017
 2344SOL    HW118668   1.028   4.603   2.824  1.8577  2.4087 -0.8158
 2344SOL    HW218669   1.101   4.532   2.930 -0.0565 -0.5651  0.5483
 2345SOL     OW18670   2.088   1.289   1.896 -0.0472  0.4606  0.1918
 2345SOL    HW118671   1.997   1.260   1.887 -0.2529  0.7273  1.4708
 2345SOL    HW218672   2.088   1.377   1.860  0.8125  0.8359  1.1161
 2346SOL     OW18673   2.628   4.311  17.523  0.2929  0.5109  0.3014
 2346SOL    HW118674   2.597   4.338  17.610  1.1537 -1.3384  1.1702
 2346SOL    HW218675   2.719   4.338  17.519  0.5665 -0.7139 -1.8339
 2347SOL     OW18676   2.971   0.855  17.691  0.2973 -0.6899  0.3976
 2347SOL    HW118677   2.958   0.949  17.702 -1.9048 -0.8307 -1.1914
 2347SOL    HW218678   2.939   0.848  17.601  1.6448 -0.3473 -0.1190
 2348SOL     OW18679   2.088   1.534   1.806  0.3203  0.3062 -0.6800
 2348SOL    HW118680   2.165   1.527   1.750 -0.2534 -3.3239 -1.0205
 2348SOL    HW218681   2.084   1.629   1.822 -1.8706  0.0584  0.2291
 2349SOL     OW18682   2.597   3.241   5.282 -0.2643  0.0341  0.3775
 2349SOL    HW118683   2.525   3.296   5.252  0.1015  1.6390  2.3793
 2349SOL    HW218684   2.589   3.235   5.378 -0.2725 -1.4040  0.2866
 2350SOL     OW18685   2.587   3.722   9.720  0.1996 -0.4522  0.5725
 2350SOL    HW118686   2.573   3.778   9.796  0.4702  0.3581  0.0234
 2350SOL    HW218687   2.558   3.782   9.652  0.5386 -1.0702 -0.1235
 2351SOL     OW18688   1.146   1.718   4.260 -0.6019 -1.1469 -0.8790
 2351SOL    HW118689   1.201   1.664   4.317 -1.2932 -2.9569 -1.9129
 2351SOL    HW218690   1.112   1.646   4.207 -1.3802 -1.2809 -0.1882
 2352SOL     OW18691   3.209   1.719   4.432 -0.0991  0.2949 -0.1767
 2352SOL    HW118692   3.138   1.780   4.451 -0.4200  0.0134 -0.4633
 2352SOL    HW218693   3.278   1.743   4.495  1.0349 -1.6693 -0.6707
 2353SOL     OW18694   0.776   3.754   5.694  0.0749  0.3584  0.8865
 2353SOL    HW118695   0.817   3.684   5.643  0.9217  1.1711  0.4612
 2353SOL    HW218696   0.745   3.695   5.763 -1.1233  0.5167  0.4871
 2354SOL     OW18697   3.171   0.850   8.080 -0.3193  0.7748  0.0389
 2354SOL    HW118698   3.194   0.938   8.050  2.7919  0.0230  0.2448
 2354SOL    HW218699   3.193   0.851   8.173 -1.4221  1.9423  0.2905
 2355SOL     OW18700   3.055   4.641   6.245  0.0365 -0.1091 -0.0137
 2355SOL    HW118701   3.036   4.713   6.305 -0.3981  0.1639 -0.4778
 2355SOL    HW218702   2.990   4.647   6.175  0.0212 -2.9654 -0.2564
 2356SOL     OW18703   1.821   2.456  17.563 -0.4496 -0.3276  0.6368
 2356SOL    HW118704   1.747   2.397  17.547 -0.4107  0.3139 -1.9734
 2356SOL    HW218705   1.889   2.390  17.575  0.3760  0.5983  1.0172
 2357SOL     OW18706   4.630   3.316  15.840 -0.0943  0.5260  0.6249
 2357SOL    HW118707   4.697   3.384  15.840  1.8498 -1.3875  2.1946
 2357SOL    HW218708   4.637   3.296  15.747  1.5739 -1.5431  1.2024
 2358SOL     OW18709   0.876   3.500   5.572 -0.0361  0.1793 -0.8484
 2358SOL    HW118710   0.859   3.535   5.484 -0.5435  0.4371 -0.6446
 2358SOL    HW218711   0.972   3.494   5.573 -0.1916 -2.3314 -0.6948
 2359SOL     OW18712   0.480   2.965   4.316 -0.2627  0.6271 -0.1801
 2359SOL    HW118713   0.519   3.035   4.369 -0.5100 -0.0183  0.8463
 2359SOL    HW218714   0.484   2.893   4.379 -2.5236  1.1142  0.5425
 2360SOL     OW18715   4.519   3.745   7.863  1.0804  0.1568  0.6852
 2360SOL    HW118716   4.575   3.811   7.902  1.9941 -0.5105  0.4961
 2360SOL    HW218717   4.511   3.682   7.934  1.2663 -1.7997 -1.0126
 2361SOL     OW18718   0.994   2.940   3.850 -0.3251 -0.3385  0.0109
 2361SOL    HW118719   1.079   2.964   3.814 -0.8234 -0.2416 -1.0960
 2361SOL    HW218720   1.009   2.873   3.917 -2.2292  1.2393  2.0220
 2362SOL     OW18721   1.913   0.894   4.910 -0.6784 -0.4647 -0.0521
 2362SOL    HW118722   1.985   0.906   4.848 -0.2979 -0.7251  0.3311
 2362SOL    HW218723   1.832   0.909   4.862  1.3430 -1.4831 -3.7479
 2363SOL     OW18724   0.910   2.336   7.839  0.4686 -0.3047  0.1974
 2363SOL    HW118725   0.930   2.248   7.809  0.4008 -1.1031  2.5001
 2363SOL    HW218726   0.823   2.349   7.801 -0.9306 -2.9642  2.4756
 2364SOL     OW18727   3.597   3.182   3.447 -0.0082 -0.0702  0.4611
 2364SOL    HW118728   3.605   3.267   3.491  1.4565 -1.0960  2.1534
 2364SOL    HW218729   3.669   3.139   3.492  0.4826 -0.9996 -1.2169
 2365SOL     OW18730   3.951   3.938   2.105  0.3652  0.0836 -0.3021
 2365SOL    HW118731   3.906   3.854   2.108 -0.6240  0.6745  1.8307
 2365SOL    HW218732   3.874   3.994   2.092  0.6066  0.4320 -0.2576
 2366SOL     OW18733   3.657   2.608  10.074  0.7711 -0.1487  0.4404
 2366SOL    HW118734   3.704   2.567  10.147  0.4324  2.8124  2.3164
 2366SOL    HW218735   3.654   2.534  10.013 -0.1878 -0.5449  0.9813
 2367SOL     OW18736   1.552   2.913  16.006  0.6874 -0.5043  0.0913
 2367SOL    HW118737   1.634   2.930  15.960  1.2860 -0.6618  1.1060
 2367SOL    HW218738   1.491   2.980  15.973  1.0668 -0.8581 -1.3326
 2368SOL     OW18739   2.329   4.260   2.368  0.1293 -0.3974  0.0809
 2368SOL    HW118740   2.267   4.200   2.410 -0.5276  0.0052 -0.3144
 2368SOL    HW218741   2.279   4.274   2.287  2.3440  0.4036 -1.1234
 2369SOL     OW18742   1.450   4.629   4.509 -0.4105 -0.2455  0.3486
 2369SOL    HW118743   1.482   4.626   4.600  2.7979 -1.6112 -0.8277
 2369SOL    HW218744   1.471   4.540   4.483  0.6877 -0.1078  0.7420
 2370SOL     OW18745   2.399   1.465   6.203  0.6589  0.4030  0.2924
 2370SOL    HW118746   2.466   1.450   6.136  0.5903  0.5635  0.1884
 2370SOL    HW218747   2.423   1.420   6.284  1.0404  2.3749  1.2778
 2371SOL     OW18748   2.460   4.675   1.458 -0.3291  0.4518 -0.0691
 2371SOL    HW118749   2.426   4.685   1.546  1.1556 -2.4219  0.8094
 2371SOL    HW218750   2.437   4.583   1.451 -1.4640  0.8542 -1.6145
 2372SOL     OW18751   0.843   3.367   3.223 -0.6674  0.4629  0.2996
 2372SOL    HW118752   0.784   3.375   3.298 -0.3794 -1.5419  0.7421
 2372SOL    HW218753   0.902   3.296   3.249 -1.8353 -0.2671  0.9621
 2373SOL     OW18754   3.657   2.047   4.381 -0.0817 -0.1496 -0.2072
 2373SOL    HW118755   3.653   1.980   4.450 -0.7002  0.3176  0.2101
 2373SOL    HW218756   3.746   2.077   4.400 -0.6476  1.3219  0.0874
 2374SOL     OW18757   1.426   2.382  13.790 -0.0884  0.1194 -0.8672
 2374SOL    HW118758   1.357   2.399  13.726 -1.4790 -1.0772  0.3193
 2374SOL    HW218759   1.467   2.468  13.800  1.3777 -0.6010 -0.6648
 2375SOL     OW18760   2.862   1.752   2.906 -0.2263 -0.2987  0.3680
 2375SOL    HW118761   2.940   1.765   2.960  0.2878 -1.4452 -0.1030
 2375SOL    HW218762   2.903   1.733   2.822 -0.5271  0.0124  0.1491
 2376SOL     OW18763   4.024   3.647   7.956 -0.0412  0.6923 -0.9186
 2376SOL    HW118764   3.976   3.593   8.019  1.3389 -0.8626 -1.2046
 2376SOL    HW218765   4.082   3.685   8.021 -1.0568  0.9362 -0.1547
 2377SOL     OW18766   2.250   3.498  17.303  0.5531 -0.5588 -0.0079
 2377SOL    HW118767   2.194   3.528  17.375 -0.6228  1.4670 -1.7825
 2377SOL    HW218768   2.190   3.499  17.228  0.9814 -0.9783 -0.3531
 2378SOL     OW18769   4.639   1.092  15.572  1.1909 -0.2792  0.0217
 2378SOL    HW118770   4.727   1.103  15.534  2.1553  1.5745  2.8473
 2378SOL    HW218771   4.593   1.140  15.503 -0.8778 -2.1108  0.1254
 2379SOL     OW18772   0.016   2.674  17.277 -0.6984  0.0604  0.1700
 2379SOL    HW118773   0.024   2.720  17.361 -1.5014 -0.5654  0.5954
 2379SOL    HW218774   0.039   2.583  17.301 -1.4587  0.4695  2.4754
 2380SOL     OW18775   4.051   0.720  16.752  0.0950  0.2159  1.1296
 2380SOL    HW118776   4.042   0.626  16.733  0.1661  0.0414  1.9636
 2380SOL    HW218777   4.028   0.756  16.666  1.8052  0.4816  0.7960
 2381SOL     OW18778   4.272   4.379  10.623  0.1222 -0.2026 -0.4612
 2381SOL    HW118779   4.363   4.359  10.642  0.3777  0.9203 -0.5361
 2381SOL    HW218780   4.269   4.344  10.534  2.1443 -0.1512 -0.5493
 2382SOL     OW18781   0.166   0.878  14.784 -0.3328  0.0910  0.9387
 2382SOL    HW118782   0.242   0.826  14.810  0.5588  0.3943 -1.0432
 2382SOL    HW218783   0.188   0.956  14.835 -1.2255  0.3920  0.8559
 2383SOL     OW18784   1.023   2.705   3.664  0.0958  0.0284  0.0317
 2383SOL    HW118785   0.954   2.673   3.722  2.4467 -1.4242  2.0397
 2383SOL    HW218786   0.975   2.704   3.581 -3.6467  2.9051  2.1748
 2384SOL     OW18787   2.249   0.010   0.861 -0.1828 -0.2700 -0.7073
 2384SOL    HW118788   2.303   0.077   0.903  1.2913 -1.1055 -1.2927
 2384SOL    HW218789   2.259   4.674   0.924  0.3475  0.4561  0.0332
 2385SOL     OW18790   2.044   1.782   1.838  0.2233  0.0947 -0.3972
 2385SOL    HW118791   2.034   1.840   1.913 -1.2602 -0.0207 -0.5069
 2385SOL    HW218792   2.016   1.834   1.763 -0.4682 -1.6181 -1.3379
 2386SOL     OW18793   0.463   0.845   0.139  0.1685  0.3171  0.0773
 2386SOL    HW118794   0.412   0.918   0.104  0.6535 -0.0683 -1.4025
 2386SOL    HW218795   0.533   0.836   0.075 -0.5023  1.1768 -0.7771
 2387SOL     OW18796   1.724   0.058   5.610  0.0401  0.4400 -0.7033
 2387SOL    HW118797   1.778   0.125   5.567 -0.7725  2.5178  1.5103
 2387SOL    HW218798   1.744   0.056   5.703  0.8717 -1.5135 -0.9407
 2388SOL     OW18799   2.256   0.819   7.927  0.0941  0.6453 -0.2958
 2388SOL    HW118800   2.332   0.838   7.981 -2.3197  2.9872  2.2307
 2388SOL    HW218801   2.276   0.862   7.844 -0.5290  0.5450 -0.4993
 2389SOL     OW18802   1.522   4.013   2.907 -0.2364 -0.1427 -0.1494
 2389SOL    HW118803   1.523   3.955   2.830  3.1817  2.7497 -2.2828
 2389SOL    HW218804   1.489   4.097   2.875 -2.2988 -0.0025  2.4133
 2390SOL     OW18805   2.981   4.545  15.880 -0.1255 -0.5103  0.2112
 2390SOL    HW118806   3.015   4.585  15.800 -0.8173  3.9751  2.1555
 2390SOL    HW218807   2.887   4.559  15.868  0.0542 -0.2428 -0.8721
 2391SOL     OW18808   2.016   2.009   2.358  0.4453  0.1164 -0.6482
 2391SOL    HW118809   2.107   1.991   2.332  0.2189 -0.9900 -0.6695
 2391SOL    HW218810   2.019   1.985   2.450  0.0658  0.2959 -0.5890
 2392SOL     OW18811   4.396   0.452   7.369  0.1427 -0.3846 -0.6217
 2392SOL    HW118812   4.318   0.471   7.317  0.4495  0.1918 -0.8767
 2392SOL    HW218813   4.448   0.530   7.347  0.3940 -0.8267 -1.6024
 2393SOL     OW18814   0.135   3.248   2.673  0.0735  0.5236  0.3493
 2393SOL    HW118815   0.101   3.196   2.746  3.1554 -2.8907 -0.7077
 2393SOL    HW218816   0.222   3.271   2.704  0.2787  4.8444 -3.3658
 2394SOL     OW18817   2.207   1.408   2.538  0.0544  0.5136 -0.2611
 2394SOL    HW118818   2.237   1.354   2.612  1.2385 -0.4173 -1.4083
 2394SOL    HW218819   2.228   1.352   2.463 -1.4558 -1.0244  0.4654
 2395SOL     OW18820   1.128   0.101   3.625 -0.1109  0.0367  0.0321
 2395SOL    HW118821   1.095   0.128   3.710  1.1258 -2.1229  1.1827
 2395SOL    HW218822   1.070   0.143   3.561 -0.1597  0.3524  0.2819
 2396SOL     OW18823   1.951   3.020   6.896  0.0727 -0.1768 -0.1454
 2396SOL    HW118824   1.896   2.989   6.968  1.1552  1.5627  1.4175
 2396SOL    HW218825   1.942   2.941   6.842 -2.1441  1.3069 -1.9584
 2397SOL     OW18826   3.310   4.695  15.330  0.3113  0.1729  0.1585
 2397SOL    HW118827   3.370   0.021  15.288  0.1575 -0.7778 -1.4508
 2397SOL    HW218828   3.227   4.729  15.295  1.0863  1.2806 -0.5826
 2398SOL     OW18829   1.779   3.654   7.965 -0.0635 -0.6418  0.1898
 2398SOL    HW118830   1.804   3.744   7.984  1.6513 -0.9636 -0.5875
 2398SOL    HW218831   1.864   3.617   7.942 -0.2651 -1.1778  0.2963
 2399SOL     OW18832   2.462   0.618  12.550  0.5525  0.4737 -0.6926
 2399SOL    HW118833   2.423   0.703  12.572 -1.1192 -0.7442  1.1193
 2399SOL    HW218834   2.431   0.614  12.459  1.2881 -1.2882 -0.8605
 2400SOL     OW18835   2.372   2.796   3.196 -0.1819 -0.9044  0.5417
 2400SOL    HW118836   2.285   2.820   3.227  0.2234  1.5627 -0.2341
 2400SOL    HW218837   2.366   2.827   3.106  0.4053  2.1521  1.5627
 2401SOL     OW18838   3.959   3.815   9.156  1.1778  0.4237 -0.2306
 2401SOL    HW118839   3.900   3.874   9.202  0.1913 -1.2171  0.6061
 2401SOL    HW218840   4.036   3.872   9.149  0.8282  1.3677  3.9084
 2402SOL     OW18841   3.812   1.039   2.972  0.2851 -0.1089  0.0282
 2402SOL    HW118842   3.848   1.125   2.949 -1.7528  0.4045 -1.3010
 2402SOL    HW218843   3.842   0.990   2.896  0.5920 -0.0432  0.1099
 2403SOL     OW18844   2.085   0.244   1.075  0.2429 -0.3430 -0.1394
 2403SOL    HW118845   2.099   0.201   0.991  0.3671  3.2489 -1.9286
 2403SOL    HW218846   1.994   0.271   1.073  1.3846  3.2661 -2.7155
 2404SOL     OW18847   3.628   2.970   5.565 -0.2002 -0.3700  0.4153
 2404SOL    HW118848   3.707   3.001   5.610 -0.1925  0.6334 -0.2957
 2404SOL    HW218849   3.615   2.890   5.615  1.2245 -1.0507 -0.2949
 2405SOL     OW18850   4.559   0.490  13.096 -0.0350 -0.4968 -0.0621
 2405SOL    HW118851   4.592   0.567  13.050  2.7864 -0.7795  1.5216
 2405SOL    HW218852   4.568   0.501  13.190 -0.1326  1.5286 -0.2919
 2406SOL     OW18853   0.589   3.724   2.946  0.0973  0.2984 -0.4624
 2406SOL    HW118854   0.641   3.753   2.871  0.0811 -1.8246 -1.2732
 2406SOL    HW218855   0.505   3.769   2.930 -0.9626 -1.2346  0.7506
 2407SOL     OW18856   2.682   1.491   5.043 -0.2015 -0.3755  0.1280
 2407SOL    HW118857   2.745   1.420   5.037  1.4885  1.0363  1.2095
 2407SOL    HW218858   2.600   1.443   5.057  0.8739 -0.9253  4.5192
 2408SOL     OW18859   3.475   4.612   8.966  0.3062 -0.5255  0.4683
 2408SOL    HW118860   3.545   4.596   9.029  0.3828  1.7516  0.9303
 2408SOL    HW218861   3.526   4.642   8.891  0.4127  3.0553  2.0050
 2409SOL     OW18862   2.589   2.822  15.905  0.1695 -0.3730 -0.5995
 2409SOL    HW118863   2.613   2.858  15.991 -0.8027 -0.7056 -0.1959
 2409SOL    HW218864   2.665   2.766  15.890  1.0498  0.8147 -0.6727
 2410SOL     OW18865   0.556   3.973   4.883  0.0327 -0.1127  0.2313
 2410SOL    HW118866   0.532   3.889   4.845  1.9331 -0.0331 -1.1434
 2410SOL    HW218867   0.557   4.034   4.809 -0.6133 -0.6255 -0.1938
 2411SOL     OW18868   4.081   2.714   5.586 -0.0141 -0.4953  0.9248
 2411SOL    HW118869   4.059   2.782   5.523  1.2456 -0.3726  0.6277
 2411SOL    HW218870   4.025   2.740   5.660 -2.0124  0.3772 -0.8993
 2412SOL     OW18871   1.252   1.949   2.459  0.1414 -0.1425 -0.3423
 2412SOL    HW118872   1.250   1.899   2.541  1.0895 -0.6855 -0.6539
 2412SOL    HW218873   1.252   2.043   2.477 -0.7506 -0.5321  1.7847
 2413SOL     OW18874   0.939   2.385   7.463 -0.1029  0.6110 -0.0550
 2413SOL    HW118875   0.847   2.364   7.448  0.0689  0.3645 -0.7529
 2413SOL    HW218876   0.953   2.324   7.535 -1.8548  0.6475  0.3295
 2414SOL     OW18877   2.863   1.055  10.363 -0.7973 -0.1273  0.0037
 2414SOL    HW118878   2.800   1.037  10.433 -1.2117  0.1382 -0.3033
 2414SOL    HW218879   2.888   1.142  10.392  0.2842 -0.1847 -0.7413
 2415SOL     OW18880   2.259   1.203   1.132  0.0635  0.0998 -0.1294
 2415SOL    HW118881   2.289   1.112   1.121 -0.7963 -0.1907 -0.0983
 2415SOL    HW218882   2.339   1.242   1.166  0.7403  0.3691 -2.0072
 2416SOL     OW18883   2.639   2.444   9.808 -0.7390  0.5085  0.3296
 2416SOL    HW118884   2.680   2.482   9.731  1.4904 -0.3279  1.1188
 2416SOL    HW218885   2.637   2.352   9.782  0.5609 -0.0257  2.1146
 2417SOL     OW18886   2.274   0.654  11.321  0.0379 -0.0494  0.2293
 2417SOL    HW118887   2.215   0.718  11.281  0.6940 -0.0544 -0.7285
 2417SOL    HW218888   2.265   0.686  11.411 -0.9225 -1.6982  0.7241
 2418SOL     OW18889   3.177   1.911   8.103  0.0452 -0.9073 -0.0175
 2418SOL    HW118890   3.161   1.820   8.128 -0.2671 -0.7292  0.4296
 2418SOL    HW218891   3.102   1.952   8.146 -1.0179 -2.3226 -0.5296
 2419SOL     OW18892   0.120   3.460   1.663  0.6649 -0.4455  0.0390
 2419SOL    HW118893   0.065   3.536   1.681  1.3350  0.3039 -1.0816
 2419SOL    HW218894   0.199   3.496   1.623  0.4348  1.0176  0.9304
 2420SOL     OW18895   3.126   2.608   9.487  0.5954 -0.1288 -0.1658
 2420SOL    HW118896   3.212   2.621   9.527  0.5888  0.3850 -0.3166
 2420SOL    HW218897   3.075   2.624   9.567 -3.5141  0.5736 -2.9345
 2421SOL     OW18898   3.503   4.278   8.160 -0.1632  0.0195  0.2954
 2421SOL    HW118899   3.484   4.304   8.070  2.5530  2.5531  0.4513
 2421SOL    HW218900   3.548   4.358   8.186  0.5887  0.1327 -1.3401
 2422SOL     OW18901   0.189   4.220  11.372  0.1124 -0.5867  0.2452
 2422SOL    HW118902   0.110   4.234  11.320  0.4346 -1.1015 -0.3808
 2422SOL    HW218903   0.204   4.126  11.367  2.0392 -0.3013  0.7087
 2423SOL     OW18904   3.080   4.374   4.565  0.2718  0.1995  0.5270
 2423SOL    HW118905   3.145   4.444   4.573  1.2123 -0.5782 -0.3718
 2423SOL    HW218906   3.016   4.425   4.516  1.2887  1.1272  0.1616
 2424SOL     OW18907   1.701   4.472  15.924 -0.4069  0.7056 -0.2230
 2424SOL    HW118908   1.691   4.386  15.965  1.5540  1.4248  1.7186
 2424SOL    HW218909   1.769   4.451  15.860 -1.1824 -2.4291 -0.0298
 2425SOL     OW18910   1.737   2.367  14.919  0.2135 -1.0736  0.1804
 2425SOL    HW118911   1.794   2.310  14.868 -1.7871 -1.1003 -1.9973
 2425SOL    HW218912   1.779   2.343  15.002  0.6807 -0.0319  0.2523
 2426SOL     OW18913   2.261   4.107   4.237  0.5165 -0.1882  0.2828
 2426SOL    HW118914   2.257   4.120   4.142 -0.0226 -1.2907  0.1504
 2426SOL    HW218915   2.351   4.130   4.259  0.4003  0.4800  0.0668
 2427SOL     OW18916   4.333   0.073   8.870 -0.6395 -0.2326  0.1887
 2427SOL    HW118917   4.342   0.165   8.845 -0.9022 -0.6637 -1.5146
 2427SOL    HW218918   4.425   0.049   8.882 -0.3243  0.4798 -0.7882
 2428SOL     OW18919   3.844   0.909   6.416  0.2016  0.1096  0.1228
 2428SOL    HW118920   3.794   0.901   6.335  2.2751  0.9493 -1.2251
 2428SOL    HW218921   3.867   0.816   6.412  0.6615  0.3322 -2.1536
 2429SOL     OW18922   1.103   3.458   0.970  1.1263  0.5895 -0.2260
 2429SOL    HW118923   1.133   3.379   0.924 -2.6151 -2.2009  2.0996
 2429SOL    HW218924   1.183   3.491   1.011 -0.5201  0.1750  3.3794
 2430SOL     OW18925   2.278   0.195   3.070  0.2232  0.2786 -0.8586
 2430SOL    HW118926   2.363   0.159   3.095 -0.0856  1.2746  1.5523
 2430SOL    HW218927   2.301   0.287   3.073 -2.6639  0.9759 -0.3913
 2431SOL     OW18928   0.392   2.231   7.267  0.3960  0.5190  0.0383
 2431SOL    HW118929   0.464   2.185   7.224  2.0683  2.4530  0.7923
 2431SOL    HW218930   0.331   2.158   7.254 -0.4644  1.2849 -0.2510
 2432SOL     OW18931   2.226   3.399  14.639  0.2088 -0.4625 -0.0985
 2432SOL    HW118932   2.165   3.381  14.710 -1.1277  3.2457 -0.3349
 2432SOL    HW218933   2.290   3.330  14.658  0.8279 -0.5178 -2.3397
 2433SOL     OW18934   2.419   3.584  12.181 -0.1958  0.2251 -0.0144
 2433SOL    HW118935   2.339   3.532  12.196 -0.3616 -0.0611 -1.9095
 2433SOL    HW218936   2.411   3.637  12.260 -2.4732  1.2493 -0.9400
 2434SOL     OW18937   4.024   3.936   4.761 -0.5406  0.0979 -0.1215
 2434SOL    HW118938   4.061   3.848   4.771 -0.0771  0.1645 -1.2290
 2434SOL    HW218939   3.972   3.927   4.681  3.0771 -1.2488 -2.3687
 2435SOL     OW18940   0.569   0.873   1.927 -0.5309 -0.1094 -0.6227
 2435SOL    HW118941   0.645   0.899   1.874 -0.6577  0.5990 -0.4574
 2435SOL    HW218942   0.616   0.829   1.998 -1.1364 -0.0892 -0.2121
 2436SOL     OW18943   3.634   0.031   6.047 -0.7872  0.1335  0.2200
 2436SOL    HW118944   3.571   0.005   5.980  1.4643 -0.6115 -1.5870
 2436SOL    HW218945   3.640   0.125   6.031 -1.7014  0.5090  2.0352
 2437SOL     OW18946   0.097   4.410   8.930 -0.3705 -0.0084 -0.0902
 2437SOL    HW118947   0.154   4.483   8.909  0.0288 -0.1791  0.4101
 2437SOL    HW218948   0.062   4.388   8.844 -0.2393  0.2214 -0.2007
 2438SOL     OW18949   2.967   3.058   3.551  0.3245 -0.2534  0.2277
 2438SOL    HW118950   3.030   3.100   3.493  1.4677 -1.3147  0.7112
 2438SOL    HW218951   2.916   3.133   3.582 -0.8345  0.2594 -2.9633
 2439SOL     OW18952   0.347   4.111   4.695  0.2165 -0.2775  0.1856
 2439SOL    HW118953   0.305   4.027   4.712  1.2838 -0.7837  0.3277
 2439SOL    HW218954   0.264   4.159   4.688  0.0062 -0.5996  0.4800
 2440SOL     OW18955   0.567   2.520   5.546 -0.3731  0.0414 -0.2933
 2440SOL    HW118956   0.649   2.568   5.558  0.0009 -0.5640 -0.3975
 2440SOL    HW218957   0.585   2.427   5.528  0.1450  0.3797 -1.5475
 2441SOL     OW18958   2.180   2.783   8.794 -0.0206 -0.0664  0.3306
 2441SOL    HW118959   2.236   2.732   8.735 -1.3065 -0.4907 -0.5089
 2441SOL    HW218960   2.111   2.718   8.807  1.3610 -1.5394  0.3102
 2442SOL     OW18961   3.408   1.370   2.467 -0.0016 -0.3263  0.2937
 2442SOL    HW118962   3.420   1.452   2.515 -0.8098 -0.6351  1.0263
 2442SOL    HW218963   3.480   1.373   2.404  1.3967  0.8651  1.9821
 2443SOL     OW18964   2.767   3.335  14.743  0.5091 -0.5036  0.2046
 2443SOL    HW118965   2.719   3.341  14.660  0.2614 -0.1405  0.3709
 2443SOL    HW218966   2.828   3.265  14.723  2.3358  0.6453  1.7608
 2444SOL     OW18967   0.592   2.876   1.282  0.4748 -0.3452 -0.8249
 2444SOL    HW118968   0.508   2.918   1.261  1.2479  0.9184 -1.4085
 2444SOL    HW218969   0.644   2.906   1.207 -1.5449 -1.0297 -2.5074
 2445SOL     OW18970   1.094   0.463  17.239 -0.4069  0.2381 -0.0892
 2445SOL    HW118971   1.091   0.395  17.306 -1.2493  1.4940  1.1591
 2445SOL    HW218972   1.188   0.471  17.222  0.2381 -1.7475  2.4746
 2446SOL     OW18973   1.807   0.838   7.931 -0.4550  0.2875 -0.5008
 2446SOL    HW118974   1.833   0.750   7.957  0.1215  0.3873 -0.7563
 2446SOL    HW218975   1.804   0.877   8.018 -0.3176  0.3459 -0.5225
 2447SOL     OW18976   2.826   1.837   3.559  0.3922 -0.0320  0.0364
 2447SOL    HW118977   2.850   1.886   3.481 -2.1625  1.4382  0.1773
 2447SOL    HW218978   2.740   1.801   3.537 -0.0527  0.9550  0.1899
 2448SOL     OW18979   0.397   0.389  14.533 -0.3585 -0.5013  0.1890
 2448SOL    HW118980   0.425   0.338  14.609  0.4982 -0.1006  0.1464
 2448SOL    HW218981   0.428   0.323  14.471  0.0057  1.2053 -1.4511
 2449SOL     OW18982   0.368   2.204  10.381  0.2071 -0.0911 -0.0128
 2449SOL    HW118983   0.364   2.285  10.433 -3.9333  0.0845 -0.6303
 2449SOL    HW218984   0.407   2.145  10.446  0.5235 -1.2192 -1.2309
 2450SOL     OW18985   3.005   2.578  13.355  0.0886  0.3110 -0.5018
 2450SOL    HW118986   2.995   2.542  13.443 -0.1133 -2.0010 -1.4791
 2450SOL    HW218987   3.087   2.531  13.340  0.5342  0.5451  1.1763
 2451SOL     OW18988   0.943   0.057   5.086  0.0129  0.4765  0.5668
 2451SOL    HW118989   0.858   0.024   5.059  0.1105  0.9063 -0.2554
 2451SOL    HW218990   0.940   0.052   5.181  0.5264  0.1588  0.5680
 2452SOL     OW18991   2.833   2.684   6.832 -0.1296  0.4331 -0.1211
 2452SOL    HW118992   2.816   2.727   6.748  1.1079  1.3529  0.0858
 2452SOL    HW218993   2.764   2.720   6.888 -1.5617 -0.5353 -1.2679
 2453SOL     OW18994   2.676   3.306   4.510 -0.0505 -0.4092  0.2719
 2453SOL    HW118995   2.696   3.212   4.505 -0.5009 -0.3957 -1.6989
 2453SOL    HW218996   2.755   3.353   4.485 -0.4219  1.0725  1.8761
 2454SOL     OW18997   1.269   1.732   1.342  0.0076 -0.0805  0.7869
 2454SOL    HW118998   1.265   1.737   1.246  2.9383 -0.1447  0.6516
 2454SOL    HW218999   1.216   1.655   1.363 -0.9550  0.2580 -0.4338
 2455SOL     OW19000   4.095   1.203   2.320  0.3169 -0.3172  0.1861
 2455SOL    HW119001   4.075   1.139   2.388  1.3821  1.1213  1.8446
 2455SOL    HW219002   4.015   1.256   2.318  1.3578  1.2801  1.0420
 2456SOL     OW19003   0.006   3.154  10.868  0.7114 -0.4832  0.3792
 2456SOL    HW119004   0.066   3.089  10.832  1.0375 -0.4939  0.9506
 2456SOL    HW219005   4.704   3.098  10.935  0.5385  1.9677  2.3199
 2457SOL     OW19006   0.526   0.106   5.388 -0.4959 -0.4160 -0.1225
 2457SOL    HW119007   0.496   0.054   5.313 -0.7515 -0.5408  0.0657
 2457SOL    HW219008   0.484   0.050   5.453  0.5427  0.6056  1.4320
 2458SOL     OW19009   0.347   2.363   5.409 -0.0373  0.5800  0.3932
 2458SOL    HW119010   0.333   2.297   5.477 -0.4076  0.9235  0.6515
 2458SOL    HW219011   0.308   2.440   5.451 -1.8854  0.1363 -0.5237
 2459SOL     OW19012   1.459   2.015   1.759 -0.3867  0.5782  0.5501
 2459SOL    HW119013   1.453   1.926   1.794 -0.2831  0.3284 -0.0729
 2459SOL    HW219014   1.491   2.006   1.669  0.2036  0.5761  0.7570
 2460SOL     OW19015   2.234   4.656  10.334  0.2918 -0.4609 -0.0759
 2460SOL    HW119016   2.185   4.648  10.252  0.2145 -2.6543  0.1851
 2460SOL    HW219017   2.321   4.651  10.294  0.8974  1.1149  1.0498
 2461SOL     OW19018   0.851   2.044   9.295 -0.0623  0.1664  0.1350
 2461SOL    HW119019   0.813   2.048   9.208 -0.1797  0.0677  0.1805
 2461SOL    HW219020   0.823   2.126   9.336 -0.7415  0.8686 -1.7539
 2462SOL     OW19021   3.813   3.000   6.622 -0.2998 -0.0753 -0.3120
 2462SOL    HW119022   3.722   3.013   6.594 -0.5675  0.4040  0.7662
 2462SOL    HW219023   3.844   3.090   6.626 -2.1942  0.6637 -2.0262
 2463SOL     OW19024   2.341   1.989   6.730 -0.2784  0.5726  0.3350
 2463SOL    HW119025   2.296   2.068   6.762 -0.4072 -0.4099  2.6074
 2463SOL    HW219026   2.380   1.957   6.811  0.2912 -0.4890 -0.3667
 2464SOL     OW19027   0.952   3.833  17.695 -0.8915 -0.3915 -0.6760
 2464SOL    HW119028   1.017   3.868  17.635 -1.0470 -1.3124 -1.3759
 2464SOL    HW219029   0.873   3.867  17.655 -1.9881 -0.8002  1.1326
 2465SOL     OW19030   0.950   4.498   3.097  0.2774  0.3027  0.0521
 2465SOL    HW119031   0.885   4.562   3.128 -0.5591 -0.2781 -0.4990
 2465SOL    HW219032   1.031   4.543   3.121  0.8914 -1.3624  1.0864
 2466SOL     OW19033   2.933   2.134   2.401  0.0604 -0.3627  0.2280
 2466SOL    HW119034   3.014   2.175   2.371  1.6627 -1.7473  2.6340
 2466SOL    HW219035   2.917   2.181   2.483 -1.5350  1.4821 -1.1344
 2467SOL     OW19036   4.632   2.240   2.726  0.1311 -0.1035  0.2704
 2467SOL    HW119037   4.676   2.319   2.694  0.1590 -1.2163 -2.4771
 2467SOL    HW219038   4.627   2.192   2.643  0.6507 -2.0127  1.3449
 2468SOL     OW19039   2.686   0.421   1.098 -0.4805 -0.3837  0.4623
 2468SOL    HW119040   2.681   0.512   1.127  0.7585 -0.5638  1.2362
 2468SOL    HW219041   2.710   0.449   1.010 -3.3249  1.2674  0.2222
 2469SOL     OW19042   0.970   1.222   8.526  0.4079  0.1190 -0.1843
 2469SOL    HW119043   0.913   1.272   8.584  1.1668  0.2227  0.4922
 2469SOL    HW219044   1.052   1.268   8.548  0.0659  0.2942  0.7336
 2470SOL     OW19045   1.768   3.283   6.078  0.0842 -0.6249  0.3641
 2470SOL    HW119046   1.781   3.188   6.067 -1.1942 -0.8749  0.9640
 2470SOL    HW219047   1.838   3.316   6.134  0.1820 -0.1613 -0.0322
 2471SOL     OW19048   2.388   3.101  11.327  0.0304 -0.2620 -0.1208
 2471SOL    HW119049   2.356   3.055  11.250  2.1774 -1.3008 -0.3983
 2471SOL    HW219050   2.470   3.051  11.324  0.1007 -0.1922  0.5753
 2472SOL     OW19051   0.957   2.624   4.018 -0.3134  0.4417  0.3062
 2472SOL    HW119052   0.882   2.605   3.962 -0.6663  1.2147  0.5226
 2472SOL    HW219053   1.034   2.580   3.981  1.3824  1.9863  2.0303
 2473SOL     OW19054   4.319   3.661   7.439  0.0953 -0.0702 -0.0553
 2473SOL    HW119055   4.295   3.569   7.424 -0.9269  0.4282 -1.5190
 2473SOL    HW219056   4.326   3.659   7.534  1.3149 -0.3901 -0.1526
 2474SOL     OW19057   1.399   4.724   3.443 -0.0938 -0.5513 -0.1026
 2474SOL    HW119058   1.424   4.720   3.536 -1.1802  1.1441  0.2656
 2474SOL    HW219059   1.490   4.710   3.416  0.1746  1.7075 -0.3712
 2475SOL     OW19060   1.078   4.552   5.058 -0.3234 -0.0239  0.2356
 2475SOL    HW119061   1.072   4.587   5.147 -0.8456 -0.8471  0.5144
 2475SOL    HW219062   1.018   4.607   5.008 -0.0573 -0.1784 -0.2585
 2476SOL     OW19063   2.849   4.412   3.650  0.0507 -0.5784 -0.0970
 2476SOL    HW119064   2.928   4.400   3.702  1.2820 -0.4176 -1.9054
 2476SOL    HW219065   2.802   4.476   3.703  0.6636 -0.0623 -0.1695
 2477SOL     OW19066   3.570   1.393   3.596  0.1712 -0.1015 -0.2370
 2477SOL    HW119067   3.657   1.401   3.635  0.6995  1.3009 -1.7208
 2477SOL    HW219068   3.528   1.464   3.645  0.9625 -0.5616  1.0823
 2478SOL     OW19069   0.354   2.760   4.086  1.3314 -0.0285  0.3313
 2478SOL    HW119070   0.307   2.830   4.131  0.8611 -0.0963 -0.0567
 2478SOL    HW219071   0.304   2.687   4.124 -0.0528  1.5150  1.4434
 2479SOL     OW19072   1.892   0.655   6.229  0.1218 -0.3161  0.5900
 2479SOL    HW119073   1.821   0.639   6.166  1.9305  0.7400 -1.6959
 2479SOL    HW219074   1.945   0.577   6.214 -1.5319 -1.2160 -0.6549
 2480SOL     OW19075   3.712   1.308  16.069 -0.5117  0.5591  0.0347
 2480SOL    HW119076   3.801   1.275  16.058  0.1468  2.6009 -0.9614
 2480SOL    HW219077   3.672   1.256  15.999 -1.2904  2.2526 -0.7992
 2481SOL     OW19078   4.565   1.672  11.661 -0.5945  0.0839  0.2389
 2481SOL    HW119079   4.593   1.764  11.652  1.6712 -0.5947  0.1551
 2481SOL    HW219080   4.497   1.663  11.595 -0.4207  0.7534 -0.0332
 2482SOL     OW19081   0.319   2.305   9.296 -0.0183  0.3201  0.0635
 2482SOL    HW119082   0.342   2.397   9.312 -0.4982  0.4860 -0.1812
 2482SOL    HW219083   0.269   2.315   9.215  0.2989 -1.6476 -0.3756
 2483SOL     OW19084   0.039   3.149   9.273  0.0859 -0.4198 -0.1856
 2483SOL    HW119085   4.734   3.073   9.314 -0.9127  2.4175  4.0356
 2483SOL    HW219086   0.008   3.139   9.183  0.4158 -4.5085  0.1427
 2484SOL     OW19087   0.796   3.326   2.299 -0.1980  0.2990  0.0650
 2484SOL    HW119088   0.882   3.284   2.292 -0.0943  0.4358  0.5274
 2484SOL    HW219089   0.783   3.334   2.393 -1.2599 -1.3723  0.0656
 2485SOL     OW19090   4.585   1.719  11.295 -0.5781 -0.2088 -0.2298
 2485SOL    HW119091   4.520   1.722  11.365 -0.4179  2.0663 -0.1633
 2485SOL    HW219092   4.568   1.630  11.265  0.6890 -0.4698 -0.1557
 2486SOL     OW19093   4.432   4.369   8.956  0.0864 -0.3601 -0.8562
 2486SOL    HW119094   4.409   4.431   8.887  1.0343 -0.7968 -1.5533
 2486SOL    HW219095   4.519   4.399   8.981 -0.5453 -0.3923  1.4252
 2487SOL     OW19096   3.375   3.779   2.111 -0.1174  0.3600 -0.6074
 2487SOL    HW119097   3.464   3.808   2.131 -0.2873  0.4827 -0.0339
 2487SOL    HW219098   3.332   3.762   2.195 -1.3623 -0.3186 -1.3788
 2488SOL     OW19099   0.278   1.223   3.597 -0.4431  0.2039  0.5600
 2488SOL    HW119100   0.216   1.292   3.573 -2.3769 -1.2216  1.5414
 2488SOL    HW219101   0.291   1.234   3.691 -0.3595 -0.5485  0.6370
 2489SOL     OW19102   0.076   2.929  12.455 -0.2738  0.6328  0.2718
 2489SOL    HW119103   0.135   2.927  12.530  0.6598 -2.2852 -0.5461
 2489SOL    HW219104   0.109   2.860  12.397  0.1331  1.0039  0.0606
 2490SOL     OW19105   3.046   2.933   3.252 -0.5220 -0.5440  0.2167
 2490SOL    HW119106   2.987   3.006   3.267 -0.4765 -0.7315  1.3385
 2490SOL    HW219107   3.121   2.965   3.303  0.3126 -0.2759 -1.1837
 2491SOL     OW19108   0.195   0.370   7.107 -0.0874 -0.8027 -0.2727
 2491SOL    HW119109   0.180   0.390   7.199 -0.0091  2.5880 -1.0059
 2491SOL    HW219110   0.178   0.453   7.063  1.3968 -0.4624 -0.1939
 2492SOL     OW19111   4.138   1.105  10.773 -0.6756  0.0085  0.8735
 2492SOL    HW119112   4.077   1.150  10.832 -0.8250 -1.2692  1.7008
 2492SOL    HW219113   4.205   1.173  10.768 -0.8290  0.1782  1.1392
 2493SOL     OW19114   4.385   2.622   4.086  0.2571  0.0117 -0.9388
 2493SOL    HW119115   4.430   2.581   4.013  0.0104 -3.5284  0.8834
 2493SOL    HW219116   4.291   2.612   4.072  0.3372 -0.3119 -1.2346
 2494SOL     OW19117   1.787   0.936   5.980 -0.9235 -0.1032  0.1954
 2494SOL    HW119118   1.851   1.002   6.009 -1.5965 -0.3354  2.1772
 2494SOL    HW219119   1.779   0.950   5.886  0.1457  0.2207  0.1492
 2495SOL     OW19120   1.121   3.714   3.310  0.1657 -0.2111  0.5894
 2495SOL    HW119121   1.119   3.670   3.395  2.7829 -0.0696  0.7413
 2495SOL    HW219122   1.035   3.754   3.302 -0.6190 -1.6569  1.9205
 2496SOL     OW19123   0.762   2.713   6.078  0.0362 -0.0267  0.2515
 2496SOL    HW119124   0.687   2.705   6.018  1.1813 -0.1340 -1.1521
 2496SOL    HW219125   0.718   2.677   6.155 -0.3614 -0.4459 -0.1721
 2497SOL     OW19126   4.668   3.727   0.000 -0.7690  0.4500 -0.0219
 2497SOL    HW119127   4.609   3.652   0.006  0.4317 -0.4754  0.2046
 2497SOL    HW219128   4.603   3.796   0.006 -0.2124  0.9448  0.2806
 2498SOL     OW19129   3.874   0.208   8.666  0.5766  0.3816  0.0693
 2498SOL    HW119130   3.816   0.202   8.742  1.0669 -2.2706  0.2466
 2498SOL    HW219131   3.956   0.231   8.710  1.4890 -1.0539 -0.9096
 2499SOL     OW19132   2.607   3.403   6.654  0.4710  0.2303 -0.4136
 2499SOL    HW119133   2.534   3.413   6.715  0.2034 -2.9606 -0.2234
 2499SOL    HW219134   2.574   3.465   6.589 -0.0305  2.2075  1.7012
 2500SOL     OW19135   4.423   0.873   4.456 -0.0781  0.1704 -0.0639
 2500SOL    HW119136   4.451   0.920   4.377  0.0957  0.1497 -0.0139
 2500SOL    HW219137   4.342   0.919   4.479 -1.9212 -2.0072 -2.1819
 2501SOL     OW19138   4.266   1.762   8.664 -0.6168  0.2332 -0.5731
 2501SOL    HW119139   4.286   1.812   8.585  2.2796  1.4556  0.9576
 2501SOL    HW219140   4.264   1.830   8.731 -1.8463  0.2629 -0.6351
 2502SOL     OW19141   4.025   4.608  12.389 -0.0110 -0.1799  0.1081
 2502SOL    HW119142   4.089   4.638  12.453 -1.2963  2.0547  0.3619
 2502SOL    HW219143   4.091   4.583  12.325 -0.1835  0.8766 -0.4870
 2503SOL     OW19144   3.820   1.714   4.772 -0.0526 -0.0882 -0.0401
 2503SOL    HW119145   3.757   1.670   4.829  0.2043 -1.0096 -0.4792
 2503SOL    HW219146   3.901   1.678   4.807 -0.3715 -1.2062 -0.4631
 2504SOL     OW19147   4.425   4.027   3.551  0.1438  0.4235  0.4215
 2504SOL    HW119148   4.340   4.071   3.550 -0.3048 -0.4497 -0.3177
 2504SOL    HW219149   4.485   4.091   3.513 -0.2269  1.7246  1.9936
 2505SOL     OW19150   3.631   2.340   1.558  1.0541 -0.4282  0.5401
 2505SOL    HW119151   3.645   2.408   1.624  0.7016  0.4428 -0.2773
 2505SOL    HW219152   3.539   2.322   1.576  1.2307  0.2463  2.1127
 2506SOL     OW19153   0.369   0.378   2.484 -0.3228  0.4730  0.2615
 2506SOL    HW119154   0.328   0.326   2.415 -0.7829  1.1016  0.0595
 2506SOL    HW219155   0.381   0.309   2.549 -1.8303  0.5217  0.5824
 2507SOL     OW19156   3.279   3.013   3.701 -0.8093 -0.0341  0.3682
 2507SOL    HW119157   3.206   3.039   3.758 -1.9327 -1.6318 -0.3325
 2507SOL    HW219158   3.352   3.065   3.734 -1.3789  0.2567  1.1762
 2508SOL     OW19159   3.491   0.385   4.876  0.4420  0.0700 -0.7562
 2508SOL    HW119160   3.508   0.303   4.829 -0.6020  0.2836 -1.4978
 2508SOL    HW219161   3.437   0.355   4.949  3.0820 -1.3905  0.6189
 2509SOL     OW19162   0.146   2.605  16.724 -0.3353  0.1696  0.1695
 2509SOL    HW119163   0.221   2.562  16.765  0.3507  0.8098 -0.4326
 2509SOL    HW219164   0.144   2.681  16.782 -1.0815 -0.0370  0.4212
 2510SOL     OW19165   1.322   0.107   7.954  0.8399 -0.1081 -0.1709
 2510SOL    HW119166   1.296   0.178   8.013  0.9631 -0.1485 -0.0678
 2510SOL    HW219167   1.403   0.143   7.918  0.2843  0.4716 -0.8488
 2511SOL     OW19168   2.414   3.254   4.304 -0.5038 -0.4344 -0.3947
 2511SOL    HW119169   2.333   3.301   4.285  0.1504  0.9004  0.1287
 2511SOL    HW219170   2.387   3.199   4.378 -1.5182 -0.5751 -0.8688
 2512SOL     OW19171   4.720   3.203   2.309 -0.8317  0.3509  0.2089
 2512SOL    HW119172   0.033   3.195   2.227 -0.1193  0.8105  0.5881
 2512SOL    HW219173   0.056   3.226   2.368 -0.6234 -1.1781  0.5540
 2513SOL     OW19174   1.854   2.127   4.241 -0.1704 -0.0690  0.4303
 2513SOL    HW119175   1.929   2.071   4.225  0.1708  0.2339  0.9714
 2513SOL    HW219176   1.855   2.168   4.155 -1.0925  2.5711  1.6481
 2514SOL     OW19177   0.413   1.025  11.405  0.2133 -0.1947  0.2889
 2514SOL    HW119178   0.351   0.989  11.342  2.0948  1.0975 -2.2972
 2514SOL    HW219179   0.350   1.061  11.467 -1.0014  0.5561 -1.3877
 2515SOL     OW19180   3.531   0.922   2.848 -0.2458 -0.3979 -0.4050
 2515SOL    HW119181   3.556   1.013   2.832 -1.7547  0.0900  0.0107
 2515SOL    HW219182   3.582   0.872   2.785 -0.0218 -0.3547 -0.2591
 2516SOL     OW19183   1.069   0.960   3.394  0.4169  0.0008 -0.3016
 2516SOL    HW119184   1.139   0.958   3.460  0.7759  1.0610 -0.6634
 2516SOL    HW219185   0.998   0.970   3.457  0.3840  1.5815 -0.5946
 2517SOL     OW19186   2.640   2.648   8.789 -0.0426 -0.1673 -0.5399
 2517SOL    HW119187   2.641   2.591   8.866 -0.8358  2.0348  1.0702
 2517SOL    HW219188   2.584   2.721   8.816  0.8462 -0.0942  1.0771
 2518SOL     OW19189   0.846   2.077   3.147  0.6250  0.1105 -0.0885
 2518SOL    HW119190   0.899   2.040   3.217 -1.1260  0.5046  1.4506
 2518SOL    HW219191   0.852   2.017   3.072  1.0101  0.1963 -0.1250
 2519SOL     OW19192   4.196   3.304   2.429 -0.0712  0.2944 -0.1797
 2519SOL    HW119193   4.122   3.246   2.410 -0.5145  1.1350 -1.0073
 2519SOL    HW219194   4.205   3.269   2.518  2.7779  0.0622 -0.5543
 2520SOL     OW19195   4.327   0.653   4.059 -0.2720 -0.2955  0.1738
 2520SOL    HW119196   4.276   0.591   4.007 -1.1967  1.0588 -0.5262
 2520SOL    HW219197   4.344   0.722   3.996 -2.0806 -1.1094 -1.1994
 2521SOL     OW19198   1.153   2.097   9.257 -0.0118 -0.0771 -0.1195
 2521SOL    HW119199   1.215   2.028   9.280 -0.5091 -0.7641 -0.8540
 2521SOL    HW219200   1.074   2.083   9.309  0.2416 -1.6070 -0.1370
 2522SOL     OW19201   1.041   2.591   0.585  0.5455 -0.0701 -0.3735
 2522SOL    HW119202   1.048   2.671   0.636  1.3554  0.1689 -0.8639
 2522SOL    HW219203   1.098   2.621   0.515  0.8524  0.5769  0.1624
 2523SOL     OW19204   1.624   1.661  16.125 -0.6637 -0.1791  0.2146
 2523SOL    HW119205   1.545   1.668  16.072 -1.8779 -1.9037  1.8022
 2523SOL    HW219206   1.620   1.571  16.158  4.3778  0.2287  1.9809
 2524SOL     OW19207   0.329   0.509   6.133  0.3262  0.2708 -0.1700
 2524SOL    HW119208   0.294   0.557   6.208 -0.7055 -2.1445  0.9156
 2524SOL    HW219209   0.268   0.536   6.065 -0.9474 -0.4763  0.6563
 2525SOL     OW19210   2.794   4.301   5.568  0.0678 -0.4288  0.1400
 2525SOL    HW119211   2.854   4.308   5.494  1.9848  1.1741  1.8625
 2525SOL    HW219212   2.721   4.246   5.537 -0.3143 -0.4346  1.0473
 2526SOL     OW19213   3.005   3.014   6.448 -0.1556 -0.3647  0.4423
 2526SOL    HW119214   3.029   3.103   6.473 -1.1030 -0.2062  0.7849
 2526SOL    HW219215   2.911   3.030   6.456  0.0058 -0.0334  1.6549
 2527SOL     OW19216   1.246   0.719  15.585 -0.4204  0.5377  0.0894
 2527SOL    HW119217   1.160   0.757  15.601 -0.7576 -1.3636  2.7732
 2527SOL    HW219218   1.221   0.641  15.534  1.6917  0.2262 -0.4875
 2528SOL     OW19219   0.387   3.105   4.682 -0.0077  0.2966  0.0724
 2528SOL    HW119220   0.458   3.128   4.622 -0.3032  2.8371  0.6818
 2528SOL    HW219221   0.321   3.079   4.617 -0.8043  0.0781  0.9623
 2529SOL     OW19222   3.915   3.289   3.738 -0.2855  0.2477  0.3985
 2529SOL    HW119223   3.875   3.204   3.719  0.4596 -0.1127  0.4371
 2529SOL    HW219224   3.877   3.298   3.825 -3.1688  0.7874 -0.9307
 2530SOL     OW19225   3.721   4.126   4.628  0.6362 -0.3082 -0.1375
 2530SOL    HW119226   3.780   4.164   4.692  3.2508 -3.0172 -0.9283
 2530SOL    HW219227   3.785   4.079   4.575 -0.6925 -2.4846  0.1389
 2531SOL     OW19228   1.706   0.067   7.377 -0.6290 -0.0267  0.4561
 2531SOL    HW119229   1.748   4.731   7.330  1.2820  1.0416  0.5536
 2531SOL    HW219230   1.767   0.085   7.449 -0.3099  0.7188 -0.0035
 2532SOL     OW19231   2.439   2.505   3.914 -0.0630  0.5241 -0.0773
 2532SOL    HW119232   2.534   2.489   3.913  0.1528  1.7752  0.7463
 2532SOL    HW219233   2.407   2.416   3.899 -3.6248  1.8377 -0.0804
 2533SOL     OW19234   0.805   4.289   8.395  0.4789  0.1087  0.0899
 2533SOL    HW119235   0.760   4.304   8.312 -0.2939  2.4982  0.9254
 2533SOL    HW219236   0.761   4.351   8.453 -2.7393 -0.6495 -1.5243
 2534SOL     OW19237   3.961   2.998   3.306 -0.2117 -0.5288  0.4885
 2534SOL    HW119238   3.926   2.911   3.324 -0.9820 -0.6066 -1.4457
 2534SOL    HW219239   3.927   3.007   3.217  3.4552 -0.0115 -0.8520
 2535SOL     OW19240   0.700   0.947   6.488  0.1313  0.1849 -0.2174
 2535SOL    HW119241   0.716   1.037   6.515  0.6944  0.2141 -0.6635
 2535SOL    HW219242   0.754   0.895   6.548  1.9249  0.9886 -1.1717
 2536SOL     OW19243   0.322   2.392   3.415  0.0824 -0.3831 -0.2588
 2536SOL    HW119244   0.250   2.403   3.354 -1.6850  1.0079  2.0884
 2536SOL    HW219245   0.393   2.382   3.352 -0.3734 -1.6064 -0.5856
 2537SOL     OW19246   0.003   1.136   0.912 -0.4369  0.2454  0.0735
 2537SOL    HW119247   0.094   1.107   0.918  0.1717  2.0781 -0.1139
 2537SOL    HW219248   4.736   1.199   0.984 -0.8554 -0.5038  0.7061
 2538SOL     OW19249   3.063   1.070   2.270 -0.0688 -0.2715  0.3629
 2538SOL    HW119250   3.106   1.153   2.293 -1.6155  0.0564  2.0872
 2538SOL    HW219251   3.040   1.052   2.362  1.1102  1.5292  1.0158
 2539SOL     OW19252   0.153   1.882  13.045  0.2109 -0.0918 -0.3177
 2539SOL    HW119253   0.223   1.831  13.085  2.4166  0.9425 -2.8497
 2539SOL    HW219254   0.195   1.954  12.997 -1.2076  0.9778  0.0078
 2540SOL     OW19255   0.762   1.317   6.236  0.1224 -0.3807 -0.0674
 2540SOL    HW119256   0.804   1.264   6.168  0.2558 -2.7410  1.8498
 2540SOL    HW219257   0.820   1.392   6.252  1.4464 -1.3562 -0.2666
 2541SOL     OW19258   1.917   3.373  11.936 -0.1873  0.1285 -0.1424
 2541SOL    HW119259   1.944   3.444  11.879 -0.5162 -1.6990 -2.5507
 2541SOL    HW219260   1.840   3.338  11.891 -0.8697  2.6843 -0.9234
 2542SOL     OW19261   3.744   2.029   5.719  0.0665  0.2391  0.7514
 2542SOL    HW119262   3.803   1.964   5.758  0.1072  2.1688  3.9072
 2542SOL    HW219263   3.666   1.978   5.696 -0.1107  2.3039 -3.2831
 2543SOL     OW19264   0.929   3.305   6.528 -0.0806  0.5998 -0.1021
 2543SOL    HW119265   0.892   3.335   6.445 -1.3392  2.4025  1.0988
 2543SOL    HW219266   0.960   3.385   6.571  1.0043 -0.0963  0.3943
 2544SOL     OW19267   4.670   3.393   6.195  0.1142 -0.0280  0.4927
 2544SOL    HW119268   0.002   3.343   6.239 -0.1602 -0.6548  0.2039
 2544SOL    HW219269   4.725   3.452   6.143 -2.1910  1.6739 -0.0187
 2545SOL     OW19270   1.848   3.973  17.074  0.3183 -0.4433 -0.0454
 2545SOL    HW119271   1.752   3.980  17.081  0.2133  0.1124 -2.1838
 2545SOL    HW219272   1.861   4.001  16.984 -2.2661 -0.9967 -0.5988
 2546SOL     OW19273   4.169   1.586   4.624  0.0069  0.4692 -0.2084
 2546SOL    HW119274   4.079   1.553   4.626  0.4640 -0.6734  1.9414
 2546SOL    HW219275   4.154   1.662   4.681 -1.7417 -0.1969  0.2262
 2547SOL     OW19276   3.822   4.173   5.442 -0.7597 -0.3311  0.2442
 2547SOL    HW119277   3.754   4.209   5.385  1.5144  0.9205 -1.6620
 2547SOL    HW219278   3.835   4.256   5.487  1.4780  0.5631 -2.0941
 2548SOL     OW19279   4.616   0.421  17.431 -0.3405  0.4547 -0.8014
 2548SOL    HW119280   4.655   0.499  17.391  0.6304 -1.0468 -2.7354
 2548SOL    HW219281   4.614   0.369  17.352  2.1558 -0.4041 -0.2954
 2549SOL     OW19282   1.685   3.136  12.409  0.1081 -0.2116 -0.3578
 2549SOL    HW119283   1.602   3.133  12.362 -1.1701  1.4841  1.8195
 2549SOL    HW219284   1.694   3.047  12.445 -1.3567 -0.0318  0.4285
 2550SOL     OW19285   0.908   0.047   7.442 -0.1499  0.5192  0.1595
 2550SOL    HW119286   0.831   0.081   7.396 -2.1300 -0.9555  2.3577
 2550SOL    HW219287   0.873   0.041   7.531  2.1063 -2.2466  0.8399
 2551SOL     OW19288   3.081   1.570   5.138 -0.4894  0.3246 -0.2067
 2551SOL    HW119289   3.138   1.601   5.208  0.7711 -0.6871 -0.7881
 2551SOL    HW219290   3.039   1.497   5.184  3.9006 -1.5708  0.8049
 2552SOL     OW19291   2.345   1.715   4.824  0.1190 -0.2849  0.9703
 2552SOL    HW119292   2.390   1.751   4.748 -1.6452 -0.2418 -0.0566
 2552SOL    HW219293   2.414   1.720   4.890  0.5934  0.0575  0.4397
 2553SOL     OW19294   3.067   3.655   3.015 -0.3714 -0.2736  0.8943
 2553SOL    HW119295   3.000   3.670   2.948  2.8075  0.0064 -2.2292
 2553SOL    HW219296   3.069   3.740   3.059 -3.1796  0.8497 -1.1215
 2554SOL     OW19297   3.224   3.331   9.648  0.0077  0.6441 -0.3518
 2554SOL    HW119298   3.251   3.394   9.581 -0.2809  0.6518 -0.4614
 2554SOL    HW219299   3.308   3.304   9.686 -0.4545 -0.1748  0.0973
 2555SOL     OW19300   2.146   3.862  10.027  0.2718  0.1386 -0.5021
 2555SOL    HW119301   2.154   3.952   9.997 -1.3732  0.1896 -0.7672
 2555SOL    HW219302   2.206   3.853  10.101  0.6330 -2.9028 -1.1369
 2556SOL     OW19303   1.635   4.177   6.552  0.2982  0.0662  0.5618
 2556SOL    HW119304   1.546   4.154   6.525  0.8562 -0.9653 -0.4135
 2556SOL    HW219305   1.677   4.104   6.507 -0.7490 -0.6619  0.7670
 2557SOL     OW19306   3.909   0.603   3.817  0.4026 -0.0919 -0.2599
 2557SOL    HW119307   3.836   0.652   3.854  0.3994  0.2090 -0.6735
 2557SOL    HW219308   3.867   0.544   3.754 -0.0629 -0.0827  0.0440
 2558SOL     OW19309   2.556   0.339  15.180  0.4993  0.2708 -0.0079
 2558SOL    HW119310   2.554   0.343  15.276  0.6716  1.0055 -0.0375
 2558SOL    HW219311   2.517   0.252  15.169  1.5765 -0.4907  2.1177
 2559SOL     OW19312   4.633   0.205   3.472  0.1077  0.3299  0.1755
 2559SOL    HW119313   4.555   0.149   3.476  0.8034 -0.6513 -0.0978
 2559SOL    HW219314   4.662   0.186   3.383 -0.3730 -0.6255  0.2254
 2560SOL     OW19315   3.187   0.985  12.913 -0.4458  0.0461 -0.1010
 2560SOL    HW119316   3.112   1.014  12.860 -1.8842  0.7662  2.3189
 2560SOL    HW219317   3.181   1.047  12.986 -1.3760  0.4243 -0.4991
 2561SOL     OW19318   0.322   4.438   5.209  0.2604  0.1459  0.0657
 2561SOL    HW119319   0.336   4.431   5.115 -2.6418 -0.6479 -0.2977
 2561SOL    HW219320   0.248   4.379   5.224  0.7863 -0.4196  0.4765
 2562SOL     OW19321   4.024   1.034   5.107 -0.0824 -0.0018 -0.7325
 2562SOL    HW119322   4.005   0.969   5.039 -1.6595  0.6091 -0.8841
 2562SOL    HW219323   4.024   1.122   5.068 -0.2271  0.0862 -0.5363
 2563SOL     OW19324   3.708   2.111   5.469 -0.0891  0.5928  0.7454
 2563SOL    HW119325   3.737   2.197   5.440 -1.1902  0.0960 -1.8211
 2563SOL    HW219326   3.764   2.078   5.539 -0.7787 -0.0633  0.9965
 2564SOL     OW19327   2.498   3.302  15.552 -0.2094 -0.3316  0.3636
 2564SOL    HW119328   2.573   3.345  15.512  0.4682 -1.3936  0.4985
 2564SOL    HW219329   2.529   3.280  15.639  0.4867  0.6265  0.3575
 2565SOL     OW19330   1.999   2.568   8.790  0.4078  0.4509 -0.3629
 2565SOL    HW119331   1.905   2.571   8.810  0.2949  0.1394 -0.8702
 2565SOL    HW219332   2.028   2.530   8.873 -0.3538 -0.7492 -0.6453
 2566SOL     OW19333   2.656   0.988  10.002  0.0328  0.4923  0.2559
 2566SOL    HW119334   2.629   1.009  10.091  0.0417  0.6600  0.2184
 2566SOL    HW219335   2.751   0.996  10.007  0.0069  0.6968  0.3922
 2567SOL     OW19336   2.454   4.227  16.665 -0.1157  0.1930 -0.4693
 2567SOL    HW119337   2.441   4.133  16.648 -0.4230  0.2921 -0.7834
 2567SOL    HW219338   2.418   4.232  16.753  0.4124  1.4173 -0.3242
 2568SOL     OW19339   0.888   0.750  16.828  0.5964  0.0068 -0.5445
 2568SOL    HW119340   0.957   0.722  16.888 -1.0546 -0.3236  1.2240
 2568SOL    HW219341   0.901   0.844  16.832  2.8518 -0.4191  3.0091
 2569SOL     OW19342   1.323   0.455  16.445 -0.7568  0.8619 -0.0584
 2569SOL    HW119343   1.310   0.426  16.354  1.7669  0.7531 -0.3727
 2569SOL    HW219344   1.329   0.366  16.480  1.3021  0.8423 -0.4579
 2570SOL     OW19345   1.851   1.941   6.007 -0.1529 -0.1245 -0.1475
 2570SOL    HW119346   1.776   1.923   5.951 -0.7890 -1.5474  1.1447
 2570SOL    HW219347   1.930   1.929   5.954 -1.0320 -0.2324 -1.4073
 2571SOL     OW19348   3.375   4.401  15.416  0.4059  0.3075 -0.4245
 2571SOL    HW119349   3.381   4.497  15.414  0.1171  0.3007 -1.6407
 2571SOL    HW219350   3.283   4.409  15.392  0.5142  0.3440 -0.8341
 2572SOL     OW19351   2.089   1.894   0.939  0.3729 -0.3257 -0.4379
 2572SOL    HW119352   2.097   1.928   1.028 -0.1586 -1.5847  0.0879
 2572SOL    HW219353   2.180   1.885   0.908  0.4331  1.8699 -0.8926
 2573SOL     OW19354   3.688   0.256   3.985  0.1279 -0.4593  0.3171
 2573SOL    HW119355   3.648   0.313   3.919 -0.5153 -1.0353  0.2080
 2573SOL    HW219356   3.613   0.207   4.019  1.3706 -0.4181  3.0705
 2574SOL     OW19357   2.860   1.346  16.432 -0.3219 -0.0465  0.4039
 2574SOL    HW119358   2.786   1.338  16.371  1.0310  0.1035 -1.2604
 2574SOL    HW219359   2.838   1.435  16.458  0.5122  0.0102  0.8936
 2575SOL     OW19360   4.670   0.508   4.367 -0.0328  0.1595 -0.2005
 2575SOL    HW119361   4.673   0.602   4.348 -2.1093  0.5387  1.3980
 2575SOL    HW219362   0.027   0.491   4.352  0.0241 -1.5649  2.3022
 2576SOL     OW19363   2.123   4.300   2.146 -0.4176  0.4487  0.9587
 2576SOL    HW119364   2.105   4.333   2.058 -1.7592  0.5613  1.2718
 2576SOL    HW219365   2.088   4.214   2.121 -1.4927  1.6537 -1.6992
 2577SOL     OW19366   1.579   0.176   2.996 -0.3052  0.1391 -0.0784
 2577SOL    HW119367   1.650   0.241   2.994  0.1951 -0.4220 -0.6739
 2577SOL    HW219368   1.504   0.231   3.018  0.8752  2.2520 -1.3826
 2578SOL     OW19369   2.369   4.290  13.737  0.2279 -0.8405 -0.1712
 2578SOL    HW119370   2.285   4.245  13.731 -0.1671 -0.4210  2.1674
 2578SOL    HW219371   2.412   4.268  13.654  0.6802  2.3558 -0.7958
 2579SOL     OW19372   1.437   3.279   7.450  0.3368  0.1795  0.1186
 2579SOL    HW119373   1.349   3.272   7.413  0.1488 -0.7034  0.7341
 2579SOL    HW219374   1.424   3.240   7.536  0.1964 -1.0678 -0.4598
 2580SOL     OW19375   3.561   4.599   2.717 -0.1557  0.2591 -0.5115
 2580SOL    HW119376   3.611   4.544   2.777 -2.5467 -2.7458 -1.3263
 2580SOL    HW219377   3.511   4.643   2.786 -0.0907  0.0980 -0.3634
 2581SOL     OW19378   2.458   3.753  12.427 -0.2699 -0.1922  0.1846
 2581SOL    HW119379   2.394   3.743  12.497  1.3657  1.0651  1.8705
 2581SOL    HW219380   2.474   3.847  12.438  0.0715  0.0286 -2.2926
 2582SOL     OW19381   2.777   1.874   1.242 -0.0564  0.2467 -0.1741
 2582SOL    HW119382   2.835   1.799   1.249  0.2600  0.4227 -0.9495
 2582SOL    HW219383   2.736   1.875   1.329 -0.8852 -0.3001 -0.5541
 2583SOL     OW19384   3.785   4.725   3.864  0.0213 -0.4826  0.0002
 2583SOL    HW119385   3.692   4.705   3.873 -0.4026  1.6231  0.2541
 2583SOL    HW219386   3.796   0.036   3.946 -1.6687  3.6740 -2.1744
 2584SOL     OW19387   1.915   2.555   2.693  0.4813 -0.7012  0.0784
 2584SOL    HW119388   1.981   2.537   2.626  0.5405  2.5321 -0.7037
 2584SOL    HW219389   1.867   2.627   2.653 -0.6988 -1.4886  0.0610
 2585SOL     OW19390   3.399   4.358  10.799 -0.1954  0.1312 -0.0939
 2585SOL    HW119391   3.478   4.407  10.823 -0.1929 -0.6060  1.3865
 2585SOL    HW219392   3.413   4.353  10.705 -1.3974  2.2494 -0.3919
 2586SOL     OW19393   4.508   3.689   2.609  0.0845 -0.1538  0.5020
 2586SOL    HW119394   4.505   3.598   2.637 -1.5082 -0.2012  0.1974
 2586SOL    HW219395   4.523   3.690   2.515  0.5825 -1.8513  0.5776
 2587SOL     OW19396   0.982   2.651   7.870 -0.2540  0.3287 -0.2376
 2587SOL    HW119397   0.923   2.671   7.797  0.2356  1.1521 -0.3999
 2587SOL    HW219398   0.976   2.555   7.875  1.5050  0.3129  1.6496
 2588SOL     OW19399   0.808   1.293   8.023  0.3172  0.2879  0.6233
 2588SOL    HW119400   0.799   1.302   8.118  1.6646  0.5861  0.7310
 2588SOL    HW219401   0.715   1.285   8.005  0.4477 -1.2166  0.5753
 2589SOL     OW19402   2.025   1.112   7.999 -0.2487 -0.1458 -0.3810
 2589SOL    HW119403   1.941   1.098   8.042 -1.0353  1.1921 -1.4647
 2589SOL    HW219404   2.005   1.206   7.991  2.6551  0.4235 -0.9078
 2590SOL     OW19405   3.994   4.581   4.496 -0.2604  0.1923  0.5800
 2590SOL    HW119406   4.020   4.589   4.588 -1.0052  1.3034  0.7028
 2590SOL    HW219407   3.899   4.590   4.503 -0.2390  1.5135 -0.9601
 2591SOL     OW19408   3.577   2.873   2.699 -0.8197 -0.1471 -0.2475
 2591SOL    HW119409   3.621   2.822   2.767  2.3056  1.8359 -0.7843
 2591SOL    HW219410   3.501   2.818   2.679 -0.9199  0.8980 -2.7890
 2592SOL     OW19411   3.838   3.065   5.707 -0.0929 -0.1405 -0.2366
 2592SOL    HW119412   3.928   3.083   5.681  0.0510  0.2044  0.5060
 2592SOL    HW219413   3.822   3.108   5.791  2.1086  1.7854 -0.7979
 2593SOL     OW19414   0.210   3.049   1.088 -0.2703 -0.2784  1.1129
 2593SOL    HW119415   0.254   3.062   1.172  0.4038 -0.7287  0.8307
 2593SOL    HW219416   0.276   2.990   1.051 -0.6070  1.0334 -1.5898
 2594SOL     OW19417   2.854   1.643   4.487  0.1953 -0.1235  0.0599
 2594SOL    HW119418   2.851   1.684   4.401 -2.7626  0.4951  0.4432
 2594SOL    HW219419   2.872   1.551   4.468 -0.6030 -0.3510  0.4114
 2595SOL     OW19420   1.916   1.640   0.534 -0.7166 -0.4722  0.0073
 2595SOL    HW119421   1.820   1.635   0.536 -0.8076  1.4707  0.2401
 2595SOL    HW219422   1.938   1.622   0.625  2.0922 -0.6431 -0.7025
 2596SOL     OW19423   2.123   1.272   9.966  0.7269  0.3524  0.0113
 2596SOL    HW119424   2.147   1.357   9.930 -0.1353  0.3694 -0.5074
 2596SOL    HW219425   2.206   1.228   9.947  0.4750  0.6821 -1.7946
 2597SOL     OW19426   0.245   4.657   8.975  0.8881 -0.1643 -0.1433
 2597SOL    HW119427   0.319   4.648   9.035  0.8242 -1.7268 -0.3032
 2597SOL    HW219428   0.191   4.719   9.024  1.4545  1.3847 -1.4678
 2598SOL     OW19429   0.931   1.792   7.932  0.3868  0.1634  0.0137
 2598SOL    HW119430   0.848   1.815   7.891  2.0559  5.0402 -0.6610
 2598SOL    HW219431   0.894   1.758   8.014  0.0682 -0.9751 -0.6189
 2599SOL     OW19432   3.069   4.611   9.574 -0.6400  0.8601  0.3958
 2599SOL    HW119433   3.045   4.689   9.523 -0.6403  0.8146  0.3263
 2599SOL    HW219434   3.091   4.651   9.658  1.3443 -0.8424  0.6720
 2600SOL     OW19435   3.410   4.735   2.965  0.8322  0.8591  0.0850
 2600SOL    HW119436   3.345   0.030   3.029 -0.3543 -1.9708  0.2239
 2600SOL    HW219437   3.419   0.082   2.918 -3.0989  0.1876 -1.8050
 2601SOL     OW19438   1.099   3.327  12.353  0.1522  0.0089  0.0226
 2601SOL    HW119439   1.066   3.237  12.354  0.4783 -0.0708  4.4721
 2601SOL    HW219440   1.187   3.316  12.391 -0.5151 -1.3432  1.1750
 2602SOL     OW19441   3.728   2.521  11.080  0.4377  0.4471  0.1039
 2602SOL    HW119442   3.818   2.551  11.065  1.0388 -1.4224  0.0404
 2602SOL    HW219443   3.745   2.464  11.155 -0.5291 -1.3625 -1.0619
 2603SOL     OW19444   4.294   4.425   2.749  0.1555 -0.2025  0.5148
 2603SOL    HW119445   4.342   4.456   2.826  1.1710 -1.5972  0.4551
 2603SOL    HW219446   4.354   4.356   2.720 -0.5730 -0.8540  0.5384
 2604SOL     OW19447   4.602   1.781   0.097 -0.8574 -0.3700  0.2833
 2604SOL    HW119448   4.551   1.705   0.067 -1.8914 -0.1644  1.5523
 2604SOL    HW219449   4.676   1.779   0.036 -1.2593 -1.6011 -0.1834
 2605SOL     OW19450   4.266   2.889  16.221  0.5069  0.2956  0.1942
 2605SOL    HW119451   4.291   2.981  16.231  0.0331  0.2128  2.1612
 2605SOL    HW219452   4.180   2.888  16.264  0.3700  0.0044 -0.0842
 2606SOL     OW19453   4.379   3.966   6.614 -0.0508 -0.1440  0.2331
 2606SOL    HW119454   4.469   3.935   6.607  0.3526  0.7084  1.9665
 2606SOL    HW219455   4.354   3.896   6.675  0.6076  2.0180  2.9407
 2607SOL     OW19456   0.830   4.151  17.005 -0.1374 -0.0703  0.3969
 2607SOL    HW119457   0.836   4.115  16.917 -0.4499 -0.4241  0.5213
 2607SOL    HW219458   0.822   4.065  17.046 -0.5762 -0.4209 -0.4291
 2608SOL     OW19459   2.213   2.142   6.982 -0.1732  0.1641  0.0857
 2608SOL    HW119460   2.142   2.138   6.918  1.7145  2.6735 -2.1620
 2608SOL    HW219461   2.209   2.229   7.023 -1.8207 -0.7004  1.8030
 2609SOL     OW19462   2.835   3.104  15.706  0.8466  0.5457  0.2574
 2609SOL    HW119463   2.851   3.113  15.612  0.2735  0.4032  0.1414
 2609SOL    HW219464   2.912   3.141  15.748  0.2134  2.9309 -0.6690
 2610SOL     OW19465   2.441   3.644  11.886 -0.2388  0.0861 -0.3801
 2610SOL    HW119466   2.361   3.591  11.882  0.2692 -0.6571 -0.6202
 2610SOL    HW219467   2.454   3.651  11.980  2.1008 -0.1584 -0.6788
 2611SOL     OW19468   1.038   4.407   6.703 -0.6916 -0.3797  0.0606
 2611SOL    HW119469   1.026   4.491   6.657 -0.7573 -0.5472 -0.2272
 2611SOL    HW219470   1.134   4.406   6.713 -0.2009  2.2219 -4.2255
 2612SOL     OW19471   4.327   0.111  16.739 -0.3786 -0.4659  0.2336
 2612SOL    HW119472   4.405   0.073  16.780  0.3474 -1.6626 -2.1825
 2612SOL    HW219473   4.297   0.024  16.710 -0.7290 -0.5461  0.8490
 2613SOL     OW19474   0.782   0.150   2.048 -0.0835 -0.4150 -0.1994
 2613SOL    HW119475   0.789   0.066   2.092 -0.0059  0.1181  0.8121
 2613SOL    HW219476   0.687   0.159   2.054  0.0451  0.5653  0.5585
 2614SOL     OW19477   4.233   3.094   8.392 -0.7383  0.5526  0.1221
 2614SOL    HW119478   4.316   3.063   8.355 -1.1370  0.9346 -1.1068
 2614SOL    HW219479   4.176   3.035   8.342  0.6383 -0.6001 -0.1007
 2615SOL     OW19480   1.750   2.059  14.956  0.0164  1.0492  0.1254
 2615SOL    HW119481   1.659   2.036  14.938  0.8426 -0.5179 -2.0423
 2615SOL    HW219482   1.752   2.130  15.020 -0.2826 -0.2675  1.5944
 2616SOL     OW19483   0.640   1.658   3.574  0.1075 -0.1387 -0.3392
 2616SOL    HW119484   0.647   1.723   3.644 -0.9968 -0.6523  0.2504
 2616SOL    HW219485   0.577   1.697   3.514 -0.1362  1.7478  1.1588
 2617SOL     OW19486   3.418   3.184   5.665 -0.1868  0.0010 -0.2964
 2617SOL    HW119487   3.369   3.121   5.718  1.6425 -0.8338  0.4168
 2617SOL    HW219488   3.464   3.127   5.603 -0.3628  0.5380 -0.9180
 2618SOL     OW19489   1.317   2.613  11.646 -0.4188  0.6247  0.3217
 2618SOL    HW119490   1.250   2.546  11.655  1.2292 -1.1248 -0.3571
 2618SOL    HW219491   1.340   2.629  11.738 -1.4080 -0.5572  0.7661
 2619SOL     OW19492   1.666   3.708   1.752 -0.0611 -0.6135  0.1804
 2619SOL    HW119493   1.707   3.623   1.737 -1.7854 -1.3646 -0.2723
 2619SOL    HW219494   1.619   3.689   1.832 -1.1784 -0.5413 -0.4653
 2620SOL     OW19495   2.948   4.682   5.985  0.5772 -0.2217  0.3340
 2620SOL    HW119496   2.987   0.028   5.955  1.7987 -0.9988 -0.1548
 2620SOL    HW219497   2.993   4.618   5.931 -0.7583 -0.8937  0.0068
 2621SOL     OW19498   0.497   3.105   9.625  0.1443 -0.2795 -0.5086
 2621SOL    HW119499   0.536   3.167   9.564 -2.0062  1.2611 -0.3448
 2621SOL    HW219500   0.430   3.157   9.671  2.3623  2.0197  0.1123
 2622SOL     OW19501   0.714   2.660  12.984  0.0421 -0.1865  0.2076
 2622SOL    HW119502   0.747   2.645  13.072 -2.4929 -2.6255  0.7175
 2622SOL    HW219503   0.619   2.664  12.993  0.1389  1.0942  0.6326
 2623SOL     OW19504   2.295   0.192  11.643 -0.6535 -0.6422  0.0984
 2623SOL    HW119505   2.279   0.251  11.570  0.7585  0.3308  0.5786
 2623SOL    HW219506   2.233   0.213  11.713 -0.0097 -0.9228  0.7489
 2624SOL     OW19507   0.497   3.394  17.223 -0.3941  0.7291  0.1666
 2624SOL    HW119508   0.506   3.299  17.235  0.9463  0.7937 -0.2600
 2624SOL    HW219509   0.517   3.411  17.130  0.3858 -0.4715  0.1132
 2625SOL     OW19510   2.317   1.600  14.923  0.3320  0.4606 -0.0321
 2625SOL    HW119511   2.298   1.523  14.869  1.1538  0.1382  0.1469
 2625SOL    HW219512   2.339   1.556  15.005 -1.5122 -0.9365 -0.2791
 2626SOL     OW19513   3.351   2.130   4.827 -0.7111 -0.5704  0.2978
 2626SOL    HW119514   3.292   2.066   4.867 -1.6427 -0.2971 -0.6449
 2626SOL    HW219515   3.291   2.200   4.801  1.4425  1.0935 -0.1553
 2627SOL     OW19516   3.076   4.118   8.115 -0.3802 -0.4714  0.2824
 2627SOL    HW119517   3.117   4.033   8.097  1.5859  0.9552 -1.8822
 2627SOL    HW219518   3.132   4.148   8.186  0.7756  0.6648 -1.1067
 2628SOL     OW19519   0.655   2.631  16.782  0.4885  0.8252 -0.0068
 2628SOL    HW119520   0.629   2.594  16.698 -1.3498  0.1896  0.8464
 2628SOL    HW219521   0.567   2.646  16.817  0.6565  0.0427  0.7490
 2629SOL     OW19522   1.366   0.371   0.714  0.0185 -0.1139 -0.9333
 2629SOL    HW119523   1.332   0.360   0.626 -1.4972  0.8070 -0.4650
 2629SOL    HW219524   1.434   0.304   0.726 -0.2925 -0.2377  0.1509
 2630SOL     OW19525   1.970   1.073   6.595  0.1465 -0.5445 -0.0432
 2630SOL    HW119526   1.891   1.058   6.543  0.4614 -0.3984 -0.5679
 2630SOL    HW219527   2.012   0.988   6.585  1.3804  0.3054 -2.0979
 2631SOL     OW19528   1.917   1.371   7.568 -0.5049 -0.3193 -0.0341
 2631SOL    HW119529   1.901   1.463   7.551 -0.1075 -0.1698  0.3783
 2631SOL    HW219530   1.864   1.337   7.496  1.0986 -1.9072 -0.4639
 2632SOL     OW19531   0.776   0.138   5.729 -0.2637  0.4121 -0.2156
 2632SOL    HW119532   0.682   0.148   5.740 -0.2213  1.6222 -1.0461
 2632SOL    HW219533   0.802   0.226   5.758 -0.2622  0.3481 -0.0190
 2633SOL     OW19534   1.840   0.406   2.068  0.0007 -0.0281 -0.5064
 2633SOL    HW119535   1.866   0.326   2.022 -1.4205 -0.2000 -1.0189
 2633SOL    HW219536   1.874   0.398   2.157  0.3044  0.0015 -0.6194
 2634SOL     OW19537   3.652   0.568   5.478 -0.2178  0.5870 -0.3350
 2634SOL    HW119538   3.714   0.497   5.464 -0.3144  0.2733  0.8229
 2634SOL    HW219539   3.635   0.582   5.385  0.4704 -0.9957 -0.6953
 2635SOL     OW19540   1.302   0.524   1.995 -0.5634  0.6170  0.0415
 2635SOL    HW119541   1.341   0.439   1.977  3.9429  2.6512  0.1947
 2635SOL    HW219542   1.255   0.500   2.075  0.6838  1.5239  1.0521
 2636SOL     OW19543   4.716   1.670   8.707 -1.0042  0.2772 -0.0864
 2636SOL    HW119544   4.733   1.764   8.695 -0.6783  0.3991  1.3875
 2636SOL    HW219545   0.057   1.642   8.756 -1.2172 -0.5506 -0.2208
 2637SOL     OW19546   4.426   0.898  16.772 -0.2588  0.0218  0.2242
 2637SOL    HW119547   4.487   0.951  16.822 -0.1868  0.0514  0.1048
 2637SOL    HW219548   4.385   0.839  16.835 -1.3455 -1.3781 -1.7635
 2638SOL     OW19549   4.366   0.406   3.636 -0.1787  0.0340 -0.0838
 2638SOL    HW119550   4.358   0.436   3.726  0.1219 -0.6575  0.1689
 2638SOL    HW219551   4.328   0.320   3.651 -1.4437  0.0647 -3.2005
 2639SOL     OW19552   1.951   3.193   2.840 -0.1608  0.1231  0.0845
 2639SOL    HW119553   1.979   3.160   2.755 -0.2182  2.1819 -0.7387
 2639SOL    HW219554   1.973   3.286   2.838 -1.6205  0.3963 -3.1633
 2640SOL     OW19555   0.135   3.340   8.058 -0.3620  0.2870 -0.4990
 2640SOL    HW119556   0.226   3.315   8.073 -1.2310 -0.6455  3.3513
 2640SOL    HW219557   0.133   3.352   7.963 -1.4753  1.4438 -0.3349
 2641SOL     OW19558   0.899   4.604  10.059 -0.7236  0.0171  0.4435
 2641SOL    HW119559   0.905   4.616   9.964 -0.4414  0.4731  0.5212
 2641SOL    HW219560   0.970   4.657  10.095 -3.7009  2.9197  2.0210
 2642SOL     OW19561   1.418   3.660   4.669 -0.1241  0.3458 -0.0740
 2642SOL    HW119562   1.337   3.663   4.618  0.2704  0.3746 -0.6968
 2642SOL    HW219563   1.403   3.700   4.755  0.0582  1.4745 -0.5812
 2643SOL     OW19564   4.265   3.959   4.003 -0.2096  0.4202  0.0264
 2643SOL    HW119565   4.325   4.033   4.018 -0.3646  0.4226  0.6534
 2643SOL    HW219566   4.298   3.919   3.923 -3.4865  0.8364 -1.5216
 2644SOL     OW19567   1.373   2.597   5.368 -0.0693 -0.3691  0.1526
 2644SOL    HW119568   1.281   2.622   5.360  0.2296  0.8447  0.5300
 2644SOL    HW219569   1.425   2.668   5.329  0.4349 -2.4057 -2.8847
 2645SOL     OW19570   2.375   2.332   5.141  0.6053 -0.0300 -0.5653
 2645SOL    HW119571   2.444   2.281   5.098 -0.8330 -2.4884  0.0591
 2645SOL    HW219572   2.361   2.404   5.080 -0.9932  0.5254  0.4743
 2646SOL     OW19573   2.371   1.426   6.671  0.2637  0.0385 -0.3665
 2646SOL    HW119574   2.389   1.501   6.614  0.5424 -0.7119 -1.2553
 2646SOL    HW219575   2.291   1.396   6.628 -0.3527  0.5913  0.3855
 2647SOL     OW19576   0.202   4.026   0.861 -0.1475  0.2989 -0.2750
 2647SOL    HW119577   0.123   4.078   0.868 -2.8822 -4.0338  0.9239
 2647SOL    HW219578   0.187   3.951   0.803  0.9749 -0.6164  0.6125
 2648SOL     OW19579   1.720   0.937   5.422  0.1259  0.6054  0.1132
 2648SOL    HW119580   1.681   0.851   5.436  0.9503  0.3803  1.0250
 2648SOL    HW219581   1.783   0.906   5.358 -0.4515 -1.6424  0.6266
 2649SOL     OW19582   0.816   0.359   8.187  0.0006 -0.0065 -0.2345
 2649SOL    HW119583   0.907   0.353   8.218  0.2298  0.4266 -0.8245
 2649SOL    HW219584   0.828   0.291   8.121 -2.4656  0.7331 -1.4188
 2650SOL     OW19585   4.584   1.802  10.101  0.4542  0.3979  0.4717
 2650SOL    HW119586   4.571   1.844  10.016 -1.1615  0.4602  0.7507
 2650SOL    HW219587   4.536   1.719  10.102  1.3736 -0.1280  0.3856
 2651SOL     OW19588   3.954   1.363   8.318 -0.2679  0.0462  0.2571
 2651SOL    HW119589   3.979   1.311   8.241  0.0742  0.6225 -0.0189
 2651SOL    HW219590   3.969   1.455   8.297  0.1867 -0.3574 -1.1773
 2652SOL     OW19591   4.278   0.901   7.366  0.1230  0.3791 -0.1520
 2652SOL    HW119592   4.233   0.914   7.282 -0.6092 -0.8065  0.0587
 2652SOL    HW219593   4.213   0.844   7.407 -0.6157  0.7178 -0.8401
 2653SOL     OW19594   1.380   1.022   8.453 -0.2752  0.3031 -0.3361
 2653SOL    HW119595   1.347   1.001   8.366  0.9267 -1.0740 -0.4801
 2653SOL    HW219596   1.317   0.973   8.506  1.5982  0.8025  2.4106
 2654SOL     OW19597   3.527   2.374   3.818  0.3692  0.1818  0.7790
 2654SOL    HW119598   3.457   2.400   3.759  0.6623  0.9800  0.7799
 2654SOL    HW219599   3.590   2.442   3.793 -0.8992  0.7949 -0.7410
 2655SOL     OW19600   4.593   0.133  16.801 -0.4547 -0.2347  0.2730
 2655SOL    HW119601   4.579   0.156  16.894  0.5044  0.6221  0.2096
 2655SOL    HW219602   4.621   0.216  16.761  0.8105  0.9337  3.5637
 2656SOL     OW19603   3.087   0.763   0.588 -0.2409  0.2925 -0.4460
 2656SOL    HW119604   3.181   0.773   0.578 -0.3054 -0.0435 -1.4016
 2656SOL    HW219605   3.069   0.680   0.634  3.5228 -1.2335 -1.7588
 2657SOL     OW19606   3.478   3.508   4.688  0.9363  0.1420 -0.1008
 2657SOL    HW119607   3.468   3.580   4.750 -1.6092 -1.2727  1.1290
 2657SOL    HW219608   3.497   3.554   4.606  1.3777  0.4781  0.1870
 2658SOL     OW19609   1.774   2.224  12.189  0.3858  0.4612 -0.5054
 2658SOL    HW119610   1.787   2.316  12.212  2.7217  0.0834 -0.2811
 2658SOL    HW219611   1.855   2.204  12.141 -0.5862  0.0387 -1.9770
 2659SOL     OW19612   1.364   4.405   2.293  0.0504  0.0856 -0.0988
 2659SOL    HW119613   1.272   4.430   2.305  0.1819  0.2503  0.6116
 2659SOL    HW219614   1.384   4.457   2.216 -0.3648  0.5140  0.0849
 2660SOL     OW19615   0.520   1.595  12.987  0.2273 -0.2919 -0.1576
 2660SOL    HW119616   0.535   1.511  12.944 -0.0919 -0.7642  0.6585
 2660SOL    HW219617   0.611   1.619  13.002 -0.9240  2.9210  1.8185
 2661SOL     OW19618   1.241   0.375   0.967 -0.2428  0.2430 -0.6343
 2661SOL    HW119619   1.147   0.385   0.951 -0.2996 -2.0367 -1.6990
 2661SOL    HW219620   1.273   0.380   0.877  1.2829 -0.6889 -0.1427
 2662SOL     OW19621   1.140   1.725   1.668 -0.7377  0.0437 -0.3748
 2662SOL    HW119622   1.083   1.676   1.728  1.9514 -1.4382  0.9473
 2662SOL    HW219623   1.182   1.655   1.618 -0.0138 -0.3122  0.7416
 2663SOL     OW19624   0.113   2.907   8.287 -0.3131 -0.3062 -0.1983
 2663SOL    HW119625   0.066   2.971   8.340 -2.5348 -0.3106 -2.1074
 2663SOL    HW219626   0.189   2.878   8.337  0.5079  1.4433 -0.4415
 2664SOL     OW19627   3.544   2.932   9.830 -0.2271 -0.6221  0.3524
 2664SOL    HW119628   3.616   2.912   9.890 -0.0706 -2.1015 -0.3360
 2664SOL    HW219629   3.572   2.890   9.749  0.6788 -0.3000  0.4979
 2665SOL     OW19630   1.821   0.940   9.493 -0.2864 -0.0585 -0.1775
 2665SOL    HW119631   1.897   0.914   9.442 -1.0292 -0.8660 -0.8802
 2665SOL    HW219632   1.862   0.968   9.574 -1.6849  1.0781  0.1324
 2666SOL     OW19633   1.957   0.678   5.459  0.2079  0.2746 -0.3790
 2666SOL    HW119634   1.995   0.698   5.373  1.4794 -1.3705 -0.2082
 2666SOL    HW219635   2.019   0.722   5.517  0.7846 -2.6082  1.1593
 2667SOL     OW19636   2.452   2.486  12.737 -0.2141  0.1887 -0.7802
 2667SOL    HW119637   2.428   2.501  12.828 -1.0623  0.0036 -0.9767
 2667SOL    HW219638   2.495   2.569  12.718  0.1126 -0.3434 -2.4259
 2668SOL     OW19639   3.577   0.492   3.886  1.1971 -0.4045  0.1263
 2668SOL    HW119640   3.624   0.570   3.915 -0.7743  0.2096  1.6719
 2668SOL    HW219641   3.551   0.521   3.798  1.3227  1.2191  0.6314
 2669SOL     OW19642   2.904   1.091  12.589 -0.2497  0.2349  0.2663
 2669SOL    HW119643   2.926   1.076  12.681 -1.0041  0.1782  0.4353
 2669SOL    HW219644   2.913   1.186  12.580  3.3883 -0.3440 -2.2463
 2670SOL     OW19645   4.093   0.305   1.439  1.1437  0.4791  0.6764
 2670SOL    HW119646   4.117   0.360   1.365  1.6228 -1.2319 -0.4531
 2670SOL    HW219647   4.002   0.289   1.414  0.7458  0.5932  2.0589
 2671SOL     OW19648   3.000   1.710   7.342  0.3489  0.2985  0.1906
 2671SOL    HW119649   2.953   1.628   7.355 -0.0608  0.7234  1.3525
 2671SOL    HW219650   3.039   1.727   7.427  2.4659 -2.9137 -0.1665
 2672SOL     OW19651   2.440   1.363  17.398 -0.4907  0.1744  0.1550
 2672SOL    HW119652   2.467   1.393  17.311 -1.7393  1.2617  0.1425
 2672SOL    HW219653   2.455   1.446  17.443  0.4902  0.2022 -0.2264
 2673SOL     OW19654   2.620   3.159  12.935 -0.1763 -0.1607  0.1325
 2673SOL    HW119655   2.666   3.167  13.018 -0.9924  3.2430  0.2294
 2673SOL    HW219656   2.627   3.064  12.924  4.2173  0.5335 -2.8530
 2674SOL     OW19657   1.513   0.843  10.251 -0.3291 -0.0442 -0.9583
 2674SOL    HW119658   1.484   0.802  10.170  1.0583 -2.5108 -0.1858
 2674SOL    HW219659   1.471   0.794  10.321  0.7409  0.5904  0.1318
 2675SOL     OW19660   3.137   2.702  16.192  0.0858  0.0879 -0.1478
 2675SOL    HW119661   3.160   2.652  16.270  0.2574  1.6748  0.8212
 2675SOL    HW219662   3.044   2.712  16.209  0.4434 -0.3250  1.9519
 2676SOL     OW19663   1.521   1.831  16.504 -0.7737  0.1907  0.2306
 2676SOL    HW119664   1.560   1.745  16.491  1.9930  1.0474  2.8955
 2676SOL    HW219665   1.578   1.873  16.568 -0.5233  0.0103  0.1241
 2677SOL     OW19666   2.461   4.445   9.994  0.3281 -0.1173  0.6553
 2677SOL    HW119667   2.486   4.376   9.932 -3.1170 -0.4857 -0.3527
 2677SOL    HW219668   2.401   4.394  10.049 -0.3629  0.1741  0.1777
 2678SOL     OW19669   0.408   3.995   8.307  0.2936 -0.0062  0.3375
 2678SOL    HW119670   0.416   3.913   8.257 -0.0268 -0.4722  1.0444
 2678SOL    HW219671   0.361   4.058   8.252 -0.5171 -2.2421 -1.5625
 2679SOL     OW19672   0.102   2.059  11.181  0.2838  0.1219  0.3879
 2679SOL    HW119673   0.149   2.001  11.240 -2.6904 -2.7558 -0.0678
 2679SOL    HW219674   0.084   1.996  11.111  0.3620  0.7399 -0.1917
 2680SOL     OW19675   3.633   4.355   0.929  0.0668 -0.0320 -0.0936
 2680SOL    HW119676   3.624   4.441   0.968 -0.8356 -0.5943  0.9255
 2680SOL    HW219677   3.545   4.331   0.899  1.2122 -3.4011 -0.8167
 2681SOL     OW19678   2.560   0.685  15.267 -0.3893  0.1276  0.0104
 2681SOL    HW119679   2.642   0.642  15.293 -0.0946  0.4453 -0.3909
 2681SOL    HW219680   2.526   0.725  15.346 -0.7740 -0.5360  0.1770
 2682SOL     OW19681   0.040   4.218   7.551  0.0472 -0.0274 -0.0026
 2682SOL    HW119682   4.731   4.300   7.531 -0.6983 -0.0968  1.3873
 2682SOL    HW219683   0.085   4.241   7.632 -0.1118  1.3523 -0.3171
 2683SOL     OW19684   0.741   2.229   6.051 -0.3093 -0.0895  0.3138
 2683SOL    HW119685   0.671   2.291   6.035  0.7934  1.0749 -0.0251
 2683SOL    HW219686   0.802   2.246   5.979  0.2543  1.0338  1.0555
 2684SOL     OW19687   4.339   0.612   4.378 -0.2599  0.0424  0.0405
 2684SOL    HW119688   4.403   0.665   4.425 -0.5212 -0.1684  0.6451
 2684SOL    HW219689   4.320   0.666   4.302 -0.7324 -1.2536 -0.7621
 2685SOL     OW19690   0.396   3.577   8.960  0.0275 -0.5324 -0.1289
 2685SOL    HW119691   0.431   3.583   9.049 -1.4198  0.1705  0.3970
 2685SOL    HW219692   0.323   3.518   8.978  0.3594 -0.6766  0.7636
 2686SOL     OW19693   1.633   3.596   7.247 -0.5018  0.0198  0.4468
 2686SOL    HW119694   1.634   3.638   7.333 -0.4785  1.3133 -0.1900
 2686SOL    HW219695   1.546   3.620   7.215  0.5306 -0.9337 -3.0694
 2687SOL     OW19696   2.021   0.738  10.603 -0.1179 -0.3760  0.3855
 2687SOL    HW119697   2.020   0.657  10.655  0.9958  0.2531  1.3687
 2687SOL    HW219698   2.008   0.699  10.516  0.2405 -0.3086  0.3024
 2688SOL     OW19699   3.868   2.949   6.092 -0.5667  0.1786 -0.1338
 2688SOL    HW119700   3.883   3.041   6.069 -3.4071  0.6123 -0.3166
 2688SOL    HW219701   3.931   2.946   6.164  0.3882  1.3104 -0.9188
 2689SOL     OW19702   0.765   2.352  10.380  0.0921 -0.0616  0.1503
 2689SOL    HW119703   0.756   2.301  10.299 -0.5095 -0.2760  0.3603
 2689SOL    HW219704   0.687   2.407  10.380  1.1097  1.4028 -0.0956
 2690SOL     OW19705   3.367   1.389   3.059  0.3417 -0.1828  0.1047
 2690SOL    HW119706   3.378   1.294   3.067  2.0024  0.0201  0.1574
 2690SOL    HW219707   3.448   1.410   3.013  1.0266 -1.5511  0.7123
 2691SOL     OW19708   2.580   1.497   5.348  0.0086  0.7058 -0.8835
 2691SOL    HW119709   2.535   1.575   5.381 -3.0597 -2.1279  1.6576
 2691SOL    HW219710   2.664   1.525   5.312 -0.0733  1.1490 -0.7271
 2692SOL     OW19711   2.981   4.515  15.376 -0.1892  0.3226  0.8134
 2692SOL    HW119712   2.991   4.578  15.305 -1.9892 -0.7588 -0.3997
 2692SOL    HW219713   2.991   4.432  15.331 -3.0173  0.8329 -0.7327
 2693SOL     OW19714   2.927   0.876   1.945  0.2110 -0.2318 -0.3609
 2693SOL    HW119715   2.850   0.822   1.929 -0.2947  0.8228 -1.4504
 2693SOL    HW219716   2.906   0.905   2.034 -1.4960  0.9068 -1.1253
 2694SOL     OW19717   1.898   2.386  11.075 -0.4899 -0.1803 -0.6615
 2694SOL    HW119718   1.912   2.347  10.989  0.1086 -0.5652 -0.3908
 2694SOL    HW219719   1.981   2.374  11.122  1.1032 -0.8555 -3.6504
 2695SOL     OW19720   2.950   3.283   2.290  0.3970 -0.2582 -0.1238
 2695SOL    HW119721   2.856   3.285   2.275  0.0283 -1.9544  1.9490
 2695SOL    HW219722   2.951   3.350   2.359  0.5895  1.2781 -1.6419
 2696SOL     OW19723   1.636   0.408  14.715 -0.0521  0.3605 -0.1548
 2696SOL    HW119724   1.639   0.316  14.741 -0.1797  0.6879  0.9894
 2696SOL    HW219725   1.711   0.448  14.759 -0.3854  1.0735 -0.2277
 2697SOL     OW19726   4.609   2.129   4.260  0.2857 -0.4283 -0.4726
 2697SOL    HW119727   4.544   2.065   4.290 -0.8073  1.0964  0.4413
 2697SOL    HW219728   4.637   2.097   4.174 -1.7410  0.4456 -1.4768
 2698SOL     OW19729   2.266   1.539   7.107  0.1824  0.0411  0.0336
 2698SOL    HW119730   2.311   1.485   7.042  0.5844  0.5722 -0.1273
 2698SOL    HW219731   2.189   1.482   7.115  2.0226 -2.4080  0.4835
 2699SOL     OW19732   1.261   0.807   5.223 -0.0040  0.1496  0.6696
 2699SOL    HW119733   1.178   0.796   5.269 -0.6828  0.0339 -0.5657
 2699SOL    HW219734   1.277   0.715   5.201 -1.2623  0.1408 -0.2233
 2700SOL     OW19735   4.553   4.329   4.293  0.4625  0.0015 -1.1198
 2700SOL    HW119736   4.557   4.258   4.230 -0.1208 -0.9063 -0.1426
 2700SOL    HW219737   4.581   4.278   4.370 -1.1480 -1.3885 -1.4537
 2701SOL     OW19738   2.434   3.220   8.452  0.3976  0.0795  0.3042
 2701SOL    HW119739   2.465   3.275   8.380  3.2195 -0.7420  0.8900
 2701SOL    HW219740   2.351   3.189   8.416 -0.4689  0.8833  1.6482
 2702SOL     OW19741   4.248   2.778  14.727 -0.2836 -0.2851  0.3526
 2702SOL    HW119742   4.319   2.800  14.788  0.0589 -1.0974  0.2511
 2702SOL    HW219743   4.166   2.787  14.776  0.0356  1.5845  0.5455
 2703SOL     OW19744   1.805   0.502   4.491  0.5167 -0.1054 -0.1595
 2703SOL    HW119745   1.846   0.451   4.561 -0.6504  0.9613  1.3148
 2703SOL    HW219746   1.809   0.443   4.416 -0.2146 -2.4432  1.6657
 2704SOL     OW19747   2.337   1.716  13.459  0.3049  0.6035  0.3342
 2704SOL    HW119748   2.255   1.728  13.506 -0.1535  0.7062 -0.4936
 2704SOL    HW219749   2.400   1.712  13.531 -0.2388  3.3638  0.9547
 2705SOL     OW19750   2.287   3.374  15.796  0.1013 -0.4548 -0.4001
 2705SOL    HW119751   2.366   3.410  15.837  1.1638 -1.3266 -1.6749
 2705SOL    HW219752   2.328   3.342  15.716  2.2788  0.3259  0.4038
 2706SOL     OW19753   3.494   0.376   4.395  0.2600 -0.1124  0.2247
 2706SOL    HW119754   3.530   0.412   4.476  2.2670 -0.4365 -0.5116
 2706SOL    HW219755   3.564   0.401   4.334  0.3455  0.9189  0.7377
 2707SOL     OW19756   2.525   0.025   5.101 -0.1575 -0.0033  0.1219
 2707SOL    HW119757   2.544   0.071   5.019 -0.4765  0.5067  0.3348
 2707SOL    HW219758   2.438   0.059   5.119 -0.4275 -1.2638  1.1643
 2708SOL     OW19759   3.195   4.381   9.103 -0.0716 -0.2939  0.1826
 2708SOL    HW119760   3.210   4.434   9.025 -0.3044 -0.8021 -0.2090
 2708SOL    HW219761   3.102   4.400   9.119 -0.1592 -1.5288  1.2271
 2709SOL     OW19762   2.960   2.350   8.707  0.2453  0.3469 -0.6366
 2709SOL    HW119763   2.912   2.432   8.695 -0.6129  0.2316  2.1667
 2709SOL    HW219764   2.969   2.327   8.614  0.6141 -0.3831 -0.4098
 2710SOL     OW19765   2.702   4.154   2.421  0.2258  0.0410  0.0352
 2710SOL    HW119766   2.710   4.090   2.350 -0.0754  0.1524 -0.1014
 2710SOL    HW219767   2.690   4.228   2.361 -1.7492 -0.7278 -0.5330
 2711SOL     OW19768   1.591   1.749   3.022 -0.0551  0.4113  0.3668
 2711SOL    HW119769   1.571   1.841   3.036  0.7292  0.6554 -0.1395
 2711SOL    HW219770   1.680   1.753   3.056  0.2004  1.1893 -0.4050
 2712SOL     OW19771   2.815   3.520  15.973 -0.3095 -0.0224  0.0911
 2712SOL    HW119772   2.782   3.456  16.035  1.9318 -1.3474 -0.0839
 2712SOL    HW219773   2.772   3.594  16.017 -1.4496 -0.4902 -0.2595
 2713SOL     OW19774   4.625   1.095   2.975 -0.0890 -0.0612  0.2467
 2713SOL    HW119775   4.690   1.060   2.914 -1.6879 -0.5889 -1.1418
 2713SOL    HW219776   4.679   1.132   3.046  0.5814  1.5637 -1.1175
 2714SOL     OW19777   0.392   1.794   2.443  0.0690  0.1200 -0.1353
 2714SOL    HW119778   0.387   1.698   2.452 -0.5933  0.2432  0.7109
 2714SOL    HW219779   0.473   1.809   2.394 -0.5604 -0.9213 -1.5077
 2715SOL     OW19780   3.521   3.234   4.618 -0.5627  0.6930  0.4615
 2715SOL    HW119781   3.498   3.302   4.554 -0.0129 -0.4299 -0.9228
 2715SOL    HW219782   3.567   3.294   4.677 -0.8594  0.1695  1.2137
 2716SOL     OW19783   3.288   3.725   9.161  0.0784  0.4652  0.6199
 2716SOL    HW119784   3.324   3.789   9.100  2.0333  0.2580  1.5664
 2716SOL    HW219785   3.233   3.790   9.205 -3.9124 -2.4877 -0.0346
 2717SOL     OW19786   1.514   0.589   9.459 -0.1931 -0.1409  0.1564
 2717SOL    HW119787   1.560   0.666   9.427  0.5334 -0.2192  1.0111
 2717SOL    HW219788   1.577   0.565   9.527 -0.1175  0.0819  0.1671
 2718SOL     OW19789   2.950   0.086   0.444  0.0069  0.1277 -0.1898
 2718SOL    HW119790   2.941   0.102   0.538  0.5733  1.3861 -0.3583
 2718SOL    HW219791   2.868   0.041   0.423  0.3030 -0.1004 -0.8368
 2719SOL     OW19792   1.166   0.616  12.993  0.2245 -0.2351 -0.4247
 2719SOL    HW119793   1.115   0.637  13.071  0.7144 -0.7274  0.0314
 2719SOL    HW219794   1.245   0.571  13.025  1.7912  1.3707 -2.0324
 2720SOL     OW19795   4.582   0.393   3.126  0.2101 -0.3061 -0.0696
 2720SOL    HW119796   4.622   0.461   3.180  1.1906  0.5024 -1.8015
 2720SOL    HW219797   4.521   0.340   3.178 -1.8775  1.7442 -0.4358
 2721SOL     OW19798   4.098   1.643  11.604  0.2927  0.2375  0.3776
 2721SOL    HW119799   4.081   1.574  11.539 -0.3254  0.3488  0.4183
 2721SOL    HW219800   4.050   1.714  11.561  3.0080  0.9361 -1.4492
 2722SOL     OW19801   4.218   0.758   8.600 -0.2684 -0.3120 -0.0944
 2722SOL    HW119802   4.241   0.701   8.674  0.7939  0.8377  0.4454
 2722SOL    HW219803   4.185   0.701   8.530 -1.6381  2.2663 -1.5271
 2723SOL     OW19804   2.672   2.214  17.718 -0.0276  0.0159 -0.4076
 2723SOL    HW119805   2.634   2.130  17.691  0.2832  0.0288 -0.9017
 2723SOL    HW219806   2.621   2.229   0.054 -0.0465  2.5717 -0.8980
 2724SOL     OW19807   4.061   2.014  11.157  0.2897 -0.0397 -0.3941
 2724SOL    HW119808   3.996   1.999  11.088  0.6395  0.3284 -0.8044
 2724SOL    HW219809   4.087   2.104  11.137 -0.0098  0.1395  0.0290
 2725SOL     OW19810   2.924   0.915   0.414  0.4425 -0.0624 -0.4358
 2725SOL    HW119811   2.842   0.866   0.418  0.5550 -0.1334  1.2129
 2725SOL    HW219812   2.982   0.862   0.470 -0.6620  0.0229  0.7962
 2726SOL     OW19813   4.251   1.440   7.800 -0.4522  0.0239 -0.0630
 2726SOL    HW119814   4.281   1.350   7.813 -0.9780 -0.1576 -0.1296
 2726SOL    HW219815   4.264   1.488   7.882 -0.7816  2.3527 -1.3971
 2727SOL     OW19816   0.899   2.851   7.670 -0.4566 -0.6532  0.4875
 2727SOL    HW119817   0.859   2.936   7.684  1.3674  0.6786 -2.3454
 2727SOL    HW219818   0.863   2.826   7.585  1.0960 -0.8387 -0.1278
 2728SOL     OW19819   0.294   0.038   5.912  0.0175  0.7480 -0.0321
 2728SOL    HW119820   0.322   0.074   5.997 -1.1290  0.7136  0.3724
 2728SOL    HW219821   0.205   0.074   5.918  0.0974  0.8603  0.5286
 2729SOL     OW19822   1.872   1.287   8.689 -0.7926  0.3881  0.2098
 2729SOL    HW119823   1.885   1.335   8.607  1.2717 -1.8924 -0.8072
 2729SOL    HW219824   1.909   1.339   8.760 -1.6682  1.9144 -0.4658
 2730SOL     OW19825   4.153   4.208  15.762  0.6028  0.1351 -0.0688
 2730SOL    HW119826   4.197   4.144  15.819  1.6985  0.1405 -0.9094
 2730SOL    HW219827   4.224   4.254  15.717  1.4316  0.5071  1.6280
 2731SOL     OW19828   3.251   0.119  10.036  0.1627 -0.4267 -0.1570
 2731SOL    HW119829   3.343   0.107  10.059  0.1336 -0.5385 -0.0980
 2731SOL    HW219830   3.220   0.177  10.106 -0.0910  0.4911 -1.0348
 2732SOL     OW19831   0.381   2.085   2.102  0.0280  0.5345  0.4244
 2732SOL    HW119832   0.359   2.175   2.125 -1.9320  0.6344 -1.8433
 2732SOL    HW219833   0.358   2.077   2.009  4.1431 -1.2865 -0.4100
 2733SOL     OW19834   2.498   0.302   4.692  0.6331  0.2225  0.1764
 2733SOL    HW119835   2.417   0.353   4.696 -0.5262 -1.6908  1.1110
 2733SOL    HW219836   2.550   0.368   4.646  1.9968 -1.8002 -1.2091
 2734SOL     OW19837   2.651   3.814   2.657 -0.5688 -0.5922 -0.2707
 2734SOL    HW119838   2.711   3.791   2.586 -0.2484  3.0747 -1.2203
 2734SOL    HW219839   2.618   3.727   2.678  0.6697 -0.3403  2.7621
 2735SOL     OW19840   2.897   2.293   6.579 -0.1939  0.2596  0.0965
 2735SOL    HW119841   2.855   2.348   6.513 -0.1466  2.7744  2.1383
 2735SOL    HW219842   2.831   2.238   6.621 -0.0861 -0.3285 -0.5034
 2736SOL     OW19843   3.548   2.408   8.692 -0.0206 -0.1611  0.3041
 2736SOL    HW119844   3.539   2.324   8.736 -0.3173  0.2347  0.9979
 2736SOL    HW219845   3.589   2.380   8.610 -1.1924 -1.3657  0.1379
 2737SOL     OW19846   2.439   2.696   6.968  0.3250 -0.0288 -0.8013
 2737SOL    HW119847   2.430   2.742   7.052  0.8550  0.7608 -1.1757
 2737SOL    HW219848   2.493   2.759   6.921 -1.0206 -0.0879 -2.4111
 2738SOL     OW19849   0.484   3.763  16.996  0.2809 -0.0708 -0.6482
 2738SOL    HW119850   0.458   3.776  17.087  0.4501 -0.5102 -0.5413
 2738SOL    HW219851   0.398   3.762  16.953  0.3607 -3.7154 -0.7277
 2739SOL     OW19852   4.359   4.310  15.618  0.1297  0.5356 -0.0096
 2739SOL    HW119853   4.321   4.351  15.540 -2.3080  0.2122  1.0053
 2739SOL    HW219854   4.423   4.376  15.646  0.2366  0.8756 -1.0820
 2740SOL     OW19855   2.724   1.079   9.579  0.0624 -0.1954  0.4896
 2740SOL    HW119856   2.705   1.122   9.496 -1.6894 -0.1999  0.8848
 2740SOL    HW219857   2.811   1.040   9.568 -0.7282 -1.3753 -1.6455
 2741SOL     OW19858   1.639   1.095   1.703 -0.2775 -0.7168  0.7542
 2741SOL    HW119859   1.672   1.005   1.703 -2.4101 -1.5011  0.8080
 2741SOL    HW219860   1.559   1.091   1.755 -0.3838  0.3888  0.6823
 2742SOL     OW19861   3.318   3.919   3.990 -0.7479 -0.3364 -0.2848
 2742SOL    HW119862   3.251   3.952   4.050 -0.3720 -0.6867  0.3278
 2742SOL    HW219863   3.261   3.853   3.952  1.9584 -0.8729 -3.4514
 2743SOL     OW19864   4.394   2.039   6.441  0.1820 -0.2416  0.5214
 2743SOL    HW119865   4.337   2.113   6.460 -0.5813 -0.3216 -1.3850
 2743SOL    HW219866   4.347   1.966   6.482  0.8536 -1.0109 -0.0755
 2744SOL     OW19867   3.390   1.926   6.649 -0.0331  0.0335  0.3901
 2744SOL    HW119868   3.304   1.904   6.684 -0.6731  2.8572  0.5526
 2744SOL    HW219869   3.364   1.954   6.561 -0.9842 -0.4357  0.5289
 2745SOL     OW19870   2.666   0.516   6.794  0.0007 -0.2646 -0.3385
 2745SOL    HW119871   2.750   0.539   6.753  1.5880 -2.6418  1.5835
 2745SOL    HW219872   2.601   0.567   6.746  0.6711  0.7584 -0.1475
 2746SOL     OW19873   1.618   0.100  10.163 -0.0530 -0.3064  0.0374
 2746SOL    HW119874   1.584   0.013  10.143  0.2944 -0.6793  1.0484
 2746SOL    HW219875   1.708   0.079  10.138 -0.7882 -1.6413 -1.5129
 2747SOL     OW19876   2.418   3.112  15.966 -0.1918  0.3006  0.6769
 2747SOL    HW119877   2.467   3.102  15.885 -1.1730  0.3500  0.0877
 2747SOL    HW219878   2.341   3.166  15.946  0.0689  0.1580 -0.6975
 2748SOL     OW19879   4.006   2.423   8.877  0.4842  0.3188 -0.1872
 2748SOL    HW119880   3.949   2.400   8.804  0.9825 -1.9545  0.1498
 2748SOL    HW219881   4.082   2.365   8.877 -1.0180 -1.6065 -4.4838
 2749SOL     OW19882   1.338   0.934   8.180 -0.5714  0.3468  0.0001
 2749SOL    HW119883   1.368   0.931   8.089 -0.6536 -2.2578  0.0772
 2749SOL    HW219884   1.371   0.847   8.201  0.5595  0.3396 -1.8003
 2750SOL     OW19885   4.687   1.215   2.379 -0.0825 -0.6350 -0.1939
 2750SOL    HW119886   4.598   1.224   2.344 -0.9626  1.1524  2.5274
 2750SOL    HW219887   4.723   1.156   2.312  0.0993 -1.7243  0.8460
 2751SOL     OW19888   3.187   2.461   2.597  0.5228  0.5774  0.2843
 2751SOL    HW119889   3.260   2.399   2.600 -1.5628 -1.9394 -0.8311
 2751SOL    HW219890   3.140   2.434   2.676 -0.7727  0.7885 -0.4157
 2752SOL     OW19891   1.625   1.992  10.533  0.0669  0.0611  0.0054
 2752SOL    HW119892   1.564   1.973  10.461 -0.3935  1.8593 -0.0788
 2752SOL    HW219893   1.563   2.060  10.559 -0.1736  0.0099 -0.4312
 2753SOL     OW19894   4.546   4.251   2.292 -0.0280  0.0901  0.1519
 2753SOL    HW119895   4.599   4.311   2.344  1.6151  0.2401 -1.7058
 2753SOL    HW219896   4.518   4.318   2.229  0.8865 -1.5865 -2.0447
 2754SOL     OW19897   3.977   2.912  11.694  0.1722  0.1019  0.3959
 2754SOL    HW119898   3.928   2.928  11.775 -1.4862  2.0131 -0.9969
 2754SOL    HW219899   3.979   2.817  11.701  1.6632  0.1496  0.7849
 2755SOL     OW19900   0.142   0.533  12.967 -0.1208 -0.1855  0.1562
 2755SOL    HW119901   0.081   0.479  12.916 -0.6940 -1.0413  1.7531
 2755SOL    HW219902   0.082   0.606  12.986  1.5627  0.9125  1.2382
 2756SOL     OW19903   0.663   0.198   9.125  0.1801  0.2043  0.2611
 2756SOL    HW119904   0.688   0.259   9.195 -0.5620  0.8039  0.0026
 2756SOL    HW219905   0.636   0.255   9.053  2.0968 -0.6282 -1.1284
 2757SOL     OW19906   4.166   4.200  12.887 -0.0248 -0.1696  0.0471
 2757SOL    HW119907   4.236   4.263  12.902 -0.0218 -0.5816  1.8151
 2757SOL    HW219908   4.169   4.187  12.792 -0.4218 -2.9368  0.4135
 2758SOL     OW19909   0.395   3.126   3.774  0.3216  0.2267  0.0753
 2758SOL    HW119910   0.365   3.188   3.708  3.8547  0.8338 -0.9965
 2758SOL    HW219911   0.318   3.085   3.813  0.8011 -0.3606  0.4137
 2759SOL     OW19912   0.508   4.374   2.690  0.1113  0.2333  0.2964
 2759SOL    HW119913   0.468   4.345   2.772 -2.1824  0.6661 -0.6930
 2759SOL    HW219914   0.570   4.302   2.674 -0.4869 -0.2025 -0.0705
 2760SOL     OW19915   2.558   0.300   2.185 -0.4386  0.2254  0.2303
 2760SOL    HW119916   2.654   0.306   2.185 -0.4090 -0.3786 -0.2646
 2760SOL    HW219917   2.531   0.390   2.164  1.5744  0.8139  0.1293
 2761SOL     OW19918   2.063   4.328   6.640 -0.2526  0.1335 -0.1401
 2761SOL    HW119919   1.973   4.357   6.625 -0.3371 -0.3379 -0.5198
 2761SOL    HW219920   2.108   4.404   6.604 -1.6744 -0.7569 -3.7201
 2762SOL     OW19921   2.953   3.781   8.710 -0.4549 -0.0011  0.2857
 2762SOL    HW119922   2.993   3.726   8.777 -0.8821 -0.1852  0.3933
 2762SOL    HW219923   3.005   3.750   8.636 -1.9715 -1.2914 -0.2441
 2763SOL     OW19924   2.838   4.611   1.971  0.1615 -0.0328 -0.1723
 2763SOL    HW119925   2.866   4.541   1.913 -0.8350 -0.2707 -0.3590
 2763SOL    HW219926   2.750   4.625   1.936 -0.4580 -3.3921  0.0741
 2764SOL     OW19927   0.434   0.204   4.320 -0.4113  0.0533  0.0266
 2764SOL    HW119928   0.497   0.234   4.385  0.9738 -3.4201  0.2647
 2764SOL    HW219929   0.479   0.235   4.242 -0.6185  0.4266  0.0530
 2765SOL     OW19930   0.737   2.509   6.767  0.1374  0.0869 -0.5901
 2765SOL    HW119931   0.763   2.596   6.735  1.9373  0.2982  1.4943
 2765SOL    HW219932   0.819   2.460   6.763 -0.2210 -0.2832 -3.9934
 2766SOL     OW19933   4.250   0.971  15.622  0.5122 -0.1854  0.4481
 2766SOL    HW119934   4.234   0.884  15.659  1.7021 -0.2449  0.8401
 2766SOL    HW219935   4.298   1.011  15.695  1.2156  0.8563 -0.5849
 2767SOL     OW19936   0.416   1.936  17.631  0.5422 -0.3418  0.7058
 2767SOL    HW119937   0.389   2.028  17.630 -0.8911 -0.8184 -3.3719
 2767SOL    HW219938   0.490   1.956  17.573 -0.9475  0.7561 -0.8482
 2768SOL     OW19939   2.532   3.212   8.971 -0.3252 -0.0124 -0.2793
 2768SOL    HW119940   2.513   3.222   8.878  0.6694  1.5138 -0.3242
 2768SOL    HW219941   2.625   3.190   8.974 -0.4525 -0.3132  1.3590
 2769SOL     OW19942   2.412   0.219   5.618 -0.2082 -0.5008  0.1313
 2769SOL    HW119943   2.498   0.176   5.618 -0.4532 -0.9813 -1.0999
 2769SOL    HW219944   2.360   0.149   5.657  0.8638 -1.6233 -0.4626
 2770SOL     OW19945   4.295   4.365   7.632 -0.5226 -0.3789 -0.0904
 2770SOL    HW119946   4.309   4.458   7.647 -0.3025 -0.2099 -1.3102
 2770SOL    HW219947   4.202   4.375   7.615 -0.4701  2.0332  1.0757
 2771SOL     OW19948   0.683   2.083   7.232  0.6374  0.2585 -0.5119
 2771SOL    HW119949   0.687   2.018   7.162  0.1166 -1.4875  1.0583
 2771SOL    HW219950   0.770   2.074   7.271 -0.3734  0.5692  1.8253
 2772SOL     OW19951   3.310   2.326   6.715 -0.2422 -0.3697 -0.0592
 2772SOL    HW119952   3.299   2.419   6.733  0.7709 -0.5395  1.4658
 2772SOL    HW219953   3.249   2.279   6.772  1.2870 -1.2902  0.8161
 2773SOL     OW19954   3.705   1.309   4.754 -0.0474  0.8224  0.6354
 2773SOL    HW119955   3.653   1.363   4.695  0.7064  0.4723 -0.3821
 2773SOL    HW219956   3.699   1.224   4.709 -0.1316  0.7530  0.7807
 2774SOL     OW19957   2.384   3.825   6.640  0.4389  0.8264 -0.2917
 2774SOL    HW119958   2.393   3.799   6.732  0.0882 -0.1016 -0.5158
 2774SOL    HW219959   2.324   3.900   6.639 -0.3782  0.1572 -1.5843
 2775SOL     OW19960   2.188   1.746   9.773 -0.4848 -0.8558  0.4190
 2775SOL    HW119961   2.124   1.734   9.703  0.3380  1.3837 -0.6955
 2775SOL    HW219962   2.212   1.657   9.800 -2.0842 -1.1213  0.9623
 2776SOL     OW19963   2.184   4.366   3.938  0.5917  0.1671 -0.1417
 2776SOL    HW119964   2.213   4.440   3.885  2.6112  0.6827  1.6961
 2776SOL    HW219965   2.151   4.412   4.015  2.5861  2.3939 -0.6240
 2777SOL     OW19966   4.550   2.788   6.062 -0.3347  0.3887 -0.3682
 2777SOL    HW119967   4.625   2.848   6.065 -1.5403  1.9786 -1.8603
 2777SOL    HW219968   4.549   2.764   6.154  0.5743  0.4717 -0.3309
 2778SOL     OW19969   2.729   4.152   6.470  0.1032 -0.0116  0.5498
 2778SOL    HW119970   2.637   4.161   6.446 -0.1816 -2.7149  0.6072
 2778SOL    HW219971   2.749   4.070   6.425 -0.0572  1.0513 -1.4774
 2779SOL     OW19972   2.339   3.884  14.919  0.0256  0.5967  0.1337
 2779SOL    HW119973   2.358   3.977  14.934 -0.1208  0.4439  1.2408
 2779SOL    HW219974   2.355   3.867  14.826 -0.8073  1.3654 -0.1606
 2780SOL     OW19975   3.728   4.145   8.177 -0.3547  0.2872  0.4702
 2780SOL    HW119976   3.643   4.188   8.170 -1.3403 -1.3712  2.2832
 2780SOL    HW219977   3.712   4.074   8.114  0.7407  0.3361  0.1315
 2781SOL     OW19978   4.259   1.539  12.773  0.2105  0.0728  0.0588
 2781SOL    HW119979   4.346   1.520  12.808  1.3753  1.1253 -2.2566
 2781SOL    HW219980   4.197   1.508  12.840 -1.2400 -0.0083 -1.3296
 2782SOL     OW19981   2.477   3.190   9.643  0.2451  0.4017  0.6142
 2782SOL    HW119982   2.568   3.164   9.658 -0.5938 -2.0254  1.4561
 2782SOL    HW219983   2.473   3.284   9.656  0.1439  0.0609  3.0597
 2783SOL     OW19984   2.206   3.962   6.788 -0.3409 -0.2929 -0.3045
 2783SOL    HW119985   2.263   3.960   6.865 -1.3970  0.6370  0.5044
 2783SOL    HW219986   2.145   4.033   6.807 -0.3465 -0.6874  1.1323
 2784SOL     OW19987   1.536   2.606   5.772  0.4623 -0.4980 -0.3454
 2784SOL    HW119988   1.583   2.566   5.698 -1.7438 -0.7842 -1.5955
 2784SOL    HW219989   1.508   2.527   5.818 -0.3454 -0.4313 -0.7313
 2785SOL     OW19990   2.487   1.091   2.746 -0.2804 -0.4787 -0.0715
 2785SOL    HW119991   2.573   1.101   2.705  1.2143 -0.0979  3.1687
 2785SOL    HW219992   2.507   1.010   2.793 -0.1512 -0.4457 -0.0683
 2786SOL     OW19993   2.899   4.588   2.722 -0.2199 -0.2597  0.1305
 2786SOL    HW119994   2.919   4.517   2.782 -1.8831  1.4682  2.7383
 2786SOL    HW219995   2.841   4.545   2.659 -3.0209  0.1336  2.4323
 2787SOL     OW19996   1.179   3.535   8.524 -0.4731  0.6589  0.2218
 2787SOL    HW119997   1.104   3.502   8.574  0.6779 -0.4868  1.1774
 2787SOL    HW219998   1.241   3.550   8.594 -1.0939 -1.7858  1.3203
 2788SOL     OW19999   2.371   4.071   2.791  0.2383 -0.0556  0.7402
 2788SOL    HW120000   2.395   4.074   2.883  2.7253 -0.8211  0.1047
 2788SOL    HW220001   2.456   4.069   2.747  0.4759 -1.6995  1.3066
 2789SOL     OW20002   0.539   4.701   4.478 -0.2319  0.1651  0.0873
 2789SOL    HW120003   0.588   0.015   4.413 -0.2876 -0.0035 -0.0852
 2789SOL    HW220004   0.451   0.000   4.464 -1.3927 -2.9362 -0.5061
 2790SOL     OW20005   1.865   0.108  12.802 -0.1627  0.5737 -0.6795
 2790SOL    HW120006   1.773   0.099  12.777 -0.0552  1.1957 -1.3126
 2790SOL    HW220007   1.850   0.117  12.896 -0.2064  0.4188 -0.6730
 2791SOL     OW20008   0.759   2.646   0.929 -0.3746  0.2897  0.3662
 2791SOL    HW120009   0.679   2.594   0.936  1.0853 -1.9839  0.4301
 2791SOL    HW220010   0.805   2.592   0.864 -0.3872  0.3136  0.3373
 2792SOL     OW20011   1.532   0.978  16.355 -0.1137  0.4210 -0.1113
 2792SOL    HW120012   1.509   0.887  16.372  0.6826 -0.3379 -3.0781
 2792SOL    HW220013   1.470   1.023  16.413 -2.0570  0.3060 -2.0746
 2793SOL     OW20014   0.332   1.758   8.627 -0.0885 -0.3239 -0.4307
 2793SOL    HW120015   0.422   1.769   8.657  0.2331 -0.1874 -1.4361
 2793SOL    HW220016   0.301   1.846   8.606  0.7809 -0.5945 -2.7720
 2794SOL     OW20017   3.817   1.414   6.874 -0.4756  0.2046 -0.6515
 2794SOL    HW120018   3.732   1.448   6.902  0.4067  0.8740  1.2972
 2794SOL    HW220019   3.828   1.348   6.943 -0.4298 -0.0356 -0.8928
 2795SOL     OW20020   3.130   1.199   9.094  0.1228  0.1344 -0.1059
 2795SOL    HW120021   3.110   1.105   9.099  0.6882 -0.0783 -1.6343
 2795SOL    HW220022   3.189   1.198   9.169  1.9265 -0.4273 -1.5314
 2796SOL     OW20023   1.448   1.063   2.675 -0.0419 -0.3511 -0.8503
 2796SOL    HW120024   1.365   1.014   2.668  0.2365 -0.6683 -2.0287
 2796SOL    HW220025   1.497   0.996   2.721 -0.9617 -1.4638 -1.4665
 2797SOL     OW20026   0.414   4.154   7.382  0.2251 -0.3135 -0.2868
 2797SOL    HW120027   0.348   4.218   7.356 -0.9998 -1.0020  1.1454
 2797SOL    HW220028   0.367   4.103   7.447  0.4184  0.1326  0.1969
 2798SOL     OW20029   3.701   4.595   7.092  0.3566  0.0745 -0.2115
 2798SOL    HW120030   3.707   4.676   7.041  0.6240  0.6510  0.7244
 2798SOL    HW220031   3.738   4.540   7.023  0.0041  1.1371 -1.2518
 2799SOL     OW20032   1.896   1.661   9.904 -0.2976 -0.2892 -0.4657
 2799SOL    HW120033   1.967   1.609   9.868  0.8460  0.2566  1.0583
 2799SOL    HW220034   1.824   1.599   9.894 -0.8666  0.4329 -0.8836
 2800SOL     OW20035   0.429   0.382   6.650  0.3985  0.3751 -0.1471
 2800SOL    HW120036   0.430   0.389   6.555 -0.3856  0.9573 -0.1105
 2800SOL    HW220037   0.497   0.444   6.676  0.2372  0.8808 -0.9576
 2801SOL     OW20038   2.552   0.033   7.378  0.1358  0.0162  0.0755
 2801SOL    HW120039   2.476   0.026   7.319  0.9138 -2.6617 -0.6178
 2801SOL    HW220040   2.622   0.062   7.320  1.3145 -1.1331  0.9456
 2802SOL     OW20041   4.393   4.265   4.905 -0.1589 -0.1628 -0.4470
 2802SOL    HW120042   4.455   4.305   4.843 -0.6400  0.5012 -0.4907
 2802SOL    HW220043   4.364   4.186   4.859  1.6683 -1.3559  0.4414
 2803SOL     OW20044   3.169   0.653   5.798  0.3771  0.6060  0.2300
 2803SOL    HW120045   3.245   0.701   5.833  1.0892 -0.7896  0.5789
 2803SOL    HW220046   3.097   0.707   5.830  0.3763 -1.0771  2.9969
 2804SOL     OW20047   3.844   1.093   9.375  0.2121 -0.0849 -0.3317
 2804SOL    HW120048   3.912   1.053   9.320 -0.0109 -0.8710 -0.0432
 2804SOL    HW220049   3.892   1.142   9.442  0.3659 -0.4055 -0.2075
 2805SOL     OW20050   2.833   3.272   3.051 -0.1811  0.5388 -0.0169
 2805SOL    HW120051   2.804   3.354   3.092  1.4346  1.8333 -1.4210
 2805SOL    HW220052   2.827   3.206   3.119  0.6825  1.0914  0.6040
 2806SOL     OW20053   0.245   1.275   9.322  0.1301 -0.1633  0.2728
 2806SOL    HW120054   0.291   1.356   9.301  0.3673 -1.0213 -2.5458
 2806SOL    HW220055   0.323   1.219   9.317 -0.9731 -1.5829 -1.1434
 2807SOL     OW20056   3.237   2.961   6.306  0.4555 -0.3150  0.5359
 2807SOL    HW120057   3.156   2.983   6.352  1.5253  2.3055  1.1663
 2807SOL    HW220058   3.291   3.034   6.337  0.8818  0.2060 -1.4254
 2808SOL     OW20059   3.079   0.974   2.560 -0.6128  0.3777  0.3283
 2808SOL    HW120060   3.140   1.014   2.621 -1.1026  1.9036 -0.1911
 2808SOL    HW220061   3.009   0.935   2.614 -0.4583 -0.8971 -0.3871
 2809SOL     OW20062   2.069   1.526   6.801 -0.7366 -0.1318  0.2907
 2809SOL    HW120063   2.059   1.498   6.892  0.5075 -0.8092  0.2250
 2809SOL    HW220064   2.098   1.444   6.761 -0.0820 -0.1461  0.8133
 2810SOL     OW20065   4.423   1.988   7.912  0.2653  0.2282 -0.0784
 2810SOL    HW120066   4.412   2.079   7.887 -3.6310  0.0438  1.0227
 2810SOL    HW220067   4.436   1.956   7.823 -0.0563  1.8668 -0.7096
 2811SOL     OW20068   0.823   0.510   4.955  0.1308  0.4604  0.0539
 2811SOL    HW120069   0.770   0.576   4.911 -1.0337  0.6235  1.7238
 2811SOL    HW220070   0.885   0.495   4.884 -1.2068  1.8384 -1.4033
 2812SOL     OW20071   3.750   3.504   4.471 -0.2569 -0.2960 -0.0849
 2812SOL    HW120072   3.788   3.515   4.558  0.0781 -1.6842 -0.0581
 2812SOL    HW220073   3.676   3.564   4.471 -0.1312 -0.1388 -0.6820
 2813SOL     OW20074   3.512   3.121  11.816  0.6924  0.7456  0.0509
 2813SOL    HW120075   3.491   3.122  11.723  0.9738  2.0689 -0.0094
 2813SOL    HW220076   3.438   3.175  11.846 -2.0412 -2.2230 -1.4458
 2814SOL     OW20077   2.896   4.194   3.503 -0.5078  0.0154 -0.8741
 2814SOL    HW120078   2.897   4.147   3.587  0.2410  1.6933  0.0637
 2814SOL    HW220079   2.881   4.283   3.535  1.0598  0.6631 -1.9315
 2815SOL     OW20080   2.296   3.725   4.477 -0.1955  0.7974  0.1311
 2815SOL    HW120081   2.339   3.759   4.555  2.1015 -0.7171 -0.4709
 2815SOL    HW220082   2.362   3.666   4.441 -0.1126 -0.1450  1.8283
 2816SOL     OW20083   1.641   3.379   5.283  0.2054 -0.1432  0.1087
 2816SOL    HW120084   1.578   3.414   5.220 -0.7860  0.3417  1.3534
 2816SOL    HW220085   1.720   3.373   5.230  1.0686  0.5633  1.3408
 2817SOL     OW20086   0.949   2.057   7.334  0.5444  0.3830 -0.1039
 2817SOL    HW120087   1.018   2.111   7.294  1.4840  0.0099  1.0372
 2817SOL    HW220088   0.974   1.975   7.291 -0.8975  0.5062 -1.1823
 2818SOL     OW20089   0.302   2.480  11.909 -0.3335 -0.1337 -0.6086
 2818SOL    HW120090   0.335   2.566  11.885 -0.9780 -0.0007 -1.0225
 2818SOL    HW220091   0.250   2.466  11.829 -1.5673 -0.5761  0.2692
 2819SOL     OW20092   1.609   3.701   6.533 -0.4150 -0.3581 -0.5615
 2819SOL    HW120093   1.613   3.619   6.484  0.4438  0.1171 -1.2766
 2819SOL    HW220094   1.551   3.755   6.479 -0.9803 -0.6299 -0.2280
 2820SOL     OW20095   4.673   3.137   8.129 -0.4051  0.3866  0.4283
 2820SOL    HW120096   4.662   3.064   8.068  1.3771 -0.3210  0.9607
 2820SOL    HW220097   0.020   3.168   8.095  0.6341 -2.6081  0.2538
 2821SOL     OW20098   2.187   0.976   7.428 -0.1697 -0.7276 -0.1489
 2821SOL    HW120099   2.124   0.950   7.496 -0.8584 -0.4779 -0.6959
 2821SOL    HW220100   2.138   1.045   7.383 -1.2070 -0.8439  0.7776
 2822SOL     OW20101   2.665   1.390   9.124 -0.7097 -0.2475 -0.5800
 2822SOL    HW120102   2.707   1.470   9.094  1.0285 -1.4861 -1.4685
 2822SOL    HW220103   2.654   1.408   9.217 -0.4032  0.9851 -0.7899
 2823SOL     OW20104   0.417   1.459   6.553 -0.2101  0.3035  0.8047
 2823SOL    HW120105   0.485   1.522   6.579  0.3283  0.6161 -1.3808
 2823SOL    HW220106   0.417   1.472   6.458 -3.6599  2.2885  1.0740
 2824SOL     OW20107   0.370   3.771  14.158  0.8251  0.4504 -0.3991
 2824SOL    HW120108   0.429   3.732  14.094  1.4409  3.4552 -1.6755
 2824SOL    HW220109   0.287   3.745  14.119  0.5637 -0.3358  0.6992
 2825SOL     OW20110   0.723   3.035   3.746 -0.3865 -0.0288  0.2575
 2825SOL    HW120111   0.651   2.975   3.727  0.7318 -1.0876 -0.6403
 2825SOL    HW220112   0.785   2.967   3.771 -0.0384 -0.2370 -1.1364
 2826SOL     OW20113   3.555   0.642   3.670  0.2542  0.5235  0.6531
 2826SOL    HW120114   3.477   0.698   3.668  1.5283  2.1825 -1.5134
 2826SOL    HW220115   3.577   0.637   3.577 -0.0356  0.0948  0.6075
 2827SOL     OW20116   1.336   4.534   5.986 -0.2874 -0.6492  0.5268
 2827SOL    HW120117   1.283   4.522   6.065  1.1534 -0.0548  1.5788
 2827SOL    HW220118   1.263   4.525   5.924 -0.2350 -0.5194  0.4471
 2828SOL     OW20119   1.771   1.243   2.987  0.2917  0.3600  0.6227
 2828SOL    HW120120   1.834   1.314   2.976 -0.5644  0.8328 -1.1648
 2828SOL    HW220121   1.712   1.285   3.049  1.2478  0.7132  1.3030
 2829SOL     OW20122   0.010   1.159   7.610  0.3997  0.1916  0.0131
 2829SOL    HW120123   0.076   1.091   7.622 -0.0137 -0.3364 -0.7229
 2829SOL    HW220124   4.720   1.147   7.518  3.4731  0.4697 -0.8887
 2830SOL     OW20125   3.922   3.469   6.058 -0.2247  0.0367 -0.1249
 2830SOL    HW120126   4.014   3.492   6.071 -0.1216  0.2084 -1.1421
 2830SOL    HW220127   3.907   3.520   5.979  2.5367 -1.4784 -1.6206
 2831SOL     OW20128   0.771   0.547   7.923  0.5228  0.1795 -0.2197
 2831SOL    HW120129   0.856   0.526   7.883  0.0729 -0.6953 -0.7261
 2831SOL    HW220130   0.791   0.532   8.015  1.4621  0.7072 -0.3347
 2832SOL     OW20131   2.279   0.880   8.471 -0.2937  0.2379 -0.2565
 2832SOL    HW120132   2.193   0.887   8.513 -1.1502  0.7496 -2.1112
 2832SOL    HW220133   2.274   0.910   8.381 -1.8342  0.1711 -0.1832
 2833SOL     OW20134   2.600   2.219   5.024  0.0481  0.0030  0.0808
 2833SOL    HW120135   2.652   2.300   5.020 -1.1054  0.7405  0.1368
 2833SOL    HW220136   2.655   2.164   5.079  0.0598 -1.2582 -1.2106
 2834SOL     OW20137   0.824   4.636   6.174 -0.1254  0.8042 -0.1833
 2834SOL    HW120138   0.783   4.563   6.221  1.6627  1.0523  1.7513
 2834SOL    HW220139   0.774   4.704   6.218 -0.8056 -0.0747  0.4130
 2835SOL     OW20140   2.615   3.406  11.774  0.3231 -0.0154  0.2746
 2835SOL    HW120141   2.564   3.333  11.811  1.0808 -1.4597 -1.5380
 2835SOL    HW220142   2.663   3.377  11.697  1.1383 -0.7092  1.0420
 2836SOL     OW20143   4.307   0.762   7.987 -0.1385 -0.0644  0.2614
 2836SOL    HW120144   4.396   0.798   7.987 -0.0085 -0.3918 -0.2766
 2836SOL    HW220145   4.301   0.732   8.078 -2.9249  0.6500  0.3128
 2837SOL     OW20146   3.042   4.639  15.624 -0.2486  0.1636  0.0325
 2837SOL    HW120147   3.035   4.572  15.556 -1.4761  1.0633 -0.7149
 2837SOL    HW220148   3.001   4.713  15.580 -0.2874  0.5999  0.7989
 2838SOL     OW20149   1.840   3.390  16.415 -0.2639 -0.6999  0.1946
 2838SOL    HW120150   1.778   3.348  16.355 -1.9832  0.2582  1.2944
 2838SOL    HW220151   1.862   3.467  16.362  2.6368 -0.7981  1.2383
 2839SOL     OW20152   2.896   2.296   8.198  0.3074 -0.3049  0.2198
 2839SOL    HW120153   2.942   2.246   8.266  0.1136  1.1843  1.4521
 2839SOL    HW220154   2.866   2.230   8.136  1.9426 -0.0723 -0.8219
 2840SOL     OW20155   3.448   0.258  11.807  0.2344  0.5917  0.0788
 2840SOL    HW120156   3.507   0.186  11.825  0.1256  0.7299  0.9614
 2840SOL    HW220157   3.361   0.220  11.818 -0.2095  1.0112 -1.9032
 2841SOL     OW20158   2.892   4.688   0.907 -0.6673 -0.5201  0.1247
 2841SOL    HW120159   2.897   4.658   0.998 -1.2241  0.0739  0.3473
 2841SOL    HW220160   2.984   4.671   0.886 -0.8462 -0.3035 -0.8327
 2842SOL     OW20161   1.214   2.404   7.991  0.1422 -0.3756 -0.5291
 2842SOL    HW120162   1.178   2.454   8.063  0.5586 -3.3648  1.7753
 2842SOL    HW220163   1.205   2.316   8.028 -1.2663  0.0682  0.1538
 2843SOL     OW20164   1.871   0.686   9.915  0.1455  0.0012  0.2948
 2843SOL    HW120165   1.905   0.646   9.835  0.1495 -0.4075  0.5042
 2843SOL    HW220166   1.792   0.634   9.931  0.9949 -1.3392  0.1357
 2844SOL     OW20167   1.186   2.059   5.960  0.0392  0.7328 -0.5360
 2844SOL    HW120168   1.214   2.091   5.875  2.3997  0.7887  0.2485
 2844SOL    HW220169   1.264   2.038   6.012 -0.8232  1.2614  0.9612
 2845SOL     OW20170   2.059   0.018   3.705 -0.1971 -0.0722 -0.0392
 2845SOL    HW120171   2.096   0.105   3.692  3.0270 -1.4228  0.1609
 2845SOL    HW220172   1.987   0.020   3.642 -1.7100 -0.3397  1.6625
 2846SOL     OW20173   3.536   1.492  16.627 -0.4702  0.0691 -0.2694
 2846SOL    HW120174   3.538   1.448  16.712  0.9614  0.5871 -0.0349
 2846SOL    HW220175   3.555   1.581  16.658 -0.5603 -0.7604  2.1851
 2847SOL     OW20176   4.072   4.237  14.855  0.8007 -0.6617 -0.1634
 2847SOL    HW120177   4.017   4.197  14.788 -2.7972  1.0547  1.7566
 2847SOL    HW220178   4.145   4.183  14.824  1.2739  0.7185 -1.4596
 2848SOL     OW20179   3.280   2.083   1.938  0.3601 -0.2169 -0.1308
 2848SOL    HW120180   3.309   2.174   1.942 -0.5281  0.1001 -0.9661
 2848SOL    HW220181   3.185   2.095   1.944  1.0458  3.8926  2.8440
 2849SOL     OW20182   2.578   2.544  13.810  0.4653 -0.6943 -0.6024
 2849SOL    HW120183   2.566   2.512  13.720 -0.0362 -1.4391 -0.2706
 2849SOL    HW220184   2.665   2.583  13.811 -0.0342  0.4474 -1.3012
 2850SOL     OW20185   1.590   1.439   4.392  0.0536 -0.1436  0.6091
 2850SOL    HW120186   1.614   1.439   4.485  0.3806  0.9553  0.5346
 2850SOL    HW220187   1.614   1.351   4.364 -2.5130 -0.9654  0.9810
 2851SOL     OW20188   3.211   1.460   8.509 -0.1690  0.4120 -0.9533
 2851SOL    HW120189   3.295   1.499   8.534 -0.6594  0.5529  0.4789
 2851SOL    HW220190   3.162   1.492   8.585  0.4860  3.0988 -1.6827
 2852SOL     OW20191   0.253   2.420  14.944 -0.8228  0.0170 -0.0975
 2852SOL    HW120192   0.321   2.465  14.994 -1.8657  1.0883  0.3572
 2852SOL    HW220193   0.292   2.340  14.909 -1.1520  0.0083 -0.4481
 2853SOL     OW20194   1.625   0.125   7.818  0.2215 -0.0267 -0.4819
 2853SOL    HW120195   1.699   0.065   7.826  2.2080  2.5056 -0.0916
 2853SOL    HW220196   1.665   0.193   7.872  3.4756 -1.2501 -1.3687
 2854SOL     OW20197   2.223   1.344   8.838 -0.1855  0.0988 -0.3598
 2854SOL    HW120198   2.245   1.252   8.854  1.4348  0.6812  0.8449
 2854SOL    HW220199   2.292   1.393   8.884  0.5128  0.9275 -2.3295
 2855SOL     OW20200   2.162   1.706   4.204 -0.2656 -0.2058 -0.1957
 2855SOL    HW120201   2.076   1.719   4.163 -1.0752 -2.5926  0.7284
 2855SOL    HW220202   2.138   1.724   4.295 -0.5293 -3.5177  0.3718
 2856SOL     OW20203   3.819   0.642  10.012  0.2950 -0.3214  0.8735
 2856SOL    HW120204   3.820   0.646   9.916  1.1813 -1.7145  0.8209
 2856SOL    HW220205   3.897   0.693  10.035  0.6422 -0.6277  0.3884
 2857SOL     OW20206   1.252   3.741  12.083  0.0942  0.2133 -0.5852
 2857SOL    HW120207   1.184   3.778  12.139  1.1077 -1.5176  1.8141
 2857SOL    HW220208   1.299   3.816  12.047 -0.4632  1.3679  1.1243
 2858SOL     OW20209   3.665   2.672   5.233  0.0351 -0.6543  0.3333
 2858SOL    HW120210   3.715   2.616   5.174 -0.0301  1.1003 -1.3908
 2858SOL    HW220211   3.717   2.751   5.220 -2.9683  1.2439 -0.0479
 2859SOL     OW20212   2.821   0.575  15.323 -0.4166 -0.0810 -0.2511
 2859SOL    HW120213   2.846   0.666  15.304  2.6272 -0.8537  0.0189
 2859SOL    HW220214   2.910   0.540  15.325 -0.3466 -0.1446 -3.3685
 2860SOL     OW20215   4.176   1.750   2.139 -0.8124 -0.5300 -0.0190
 2860SOL    HW120216   4.194   1.790   2.224  0.9886  1.3768 -1.3326
 2860SOL    HW220217   4.110   1.681   2.153 -1.7378  0.6442  1.3455
 2861SOL     OW20218   1.541   4.346   3.902  0.4356 -0.1839  0.0679
 2861SOL    HW120219   1.590   4.308   3.830  3.5807  1.5499  1.2906
 2861SOL    HW220220   1.494   4.267   3.929 -1.1811  0.7909  0.1708
 2862SOL     OW20221   2.505   2.366   2.958  0.2907  0.6833 -0.2745
 2862SOL    HW120222   2.464   2.281   2.947 -0.3440  1.1590 -1.6438
 2862SOL    HW220223   2.482   2.411   3.039  0.1534 -0.1879  0.1630
 2863SOL     OW20224   2.518   1.735   8.164  0.5162 -0.6451  0.1665
 2863SOL    HW120225   2.425   1.741   8.142  0.1678  1.5569  2.2036
 2863SOL    HW220226   2.543   1.823   8.194  0.2316 -0.1032 -1.2071
 2864SOL     OW20227   4.410   2.872  10.901  0.3209  0.0816  0.5677
 2864SOL    HW120228   4.434   2.938  10.837 -2.0835 -0.2650 -0.7125
 2864SOL    HW220229   4.370   2.928  10.968 -0.2215 -0.4464  0.6880
 2865SOL     OW20230   1.999   2.136   5.241 -0.1114  0.5160  0.5278
 2865SOL    HW120231   2.039   2.148   5.155  1.1729 -0.0639  1.0482
 2865SOL    HW220232   2.056   2.185   5.301  0.0138  1.1158 -0.0795
 2866SOL     OW20233   4.073   2.007   3.317 -0.3147  0.3181  0.5266
 2866SOL    HW120234   4.007   2.032   3.252 -0.9144  0.3592  1.1611
 2866SOL    HW220235   4.070   1.912   3.309  0.2245  0.4115 -0.9979
 2867SOL     OW20236   0.872   3.196   1.771 -0.1777  0.6245  0.1818
 2867SOL    HW120237   0.832   3.174   1.855  1.9890 -2.9480  0.2867
 2867SOL    HW220238   0.846   3.122   1.717  0.7889  1.0522 -0.8778
 2868SOL     OW20239   2.128   4.736   7.553  0.6937 -0.5352 -0.2958
 2868SOL    HW120240   2.184   0.077   7.548  0.6473 -0.5271 -0.7551
 2868SOL    HW220241   2.090   0.009   7.640 -0.7567 -2.0263 -0.7637
 2869SOL     OW20242   0.689   2.556   8.861  0.1012  0.2013  0.0256
 2869SOL    HW120243   0.696   2.650   8.880  0.0883  0.3549 -0.7597
 2869SOL    HW220244   0.750   2.522   8.926  0.3048 -0.7317 -0.6561
 2870SOL     OW20245   4.022   1.006   5.540  0.0519  0.5326  0.9251
 2870SOL    HW120246   3.968   0.928   5.530  0.8845  0.1124 -0.2214
 2870SOL    HW220247   3.984   1.035   5.623  1.2685  0.8731  1.3588
 2871SOL     OW20248   4.417   4.418  12.833  0.9314 -0.1280 -0.4011
 2871SOL    HW120249   4.503   4.453  12.811  1.0701 -1.0864 -1.3505
 2871SOL    HW220250   4.388   4.383  12.749 -1.5376  0.9356 -0.0136
 2872SOL     OW20251   4.401   3.231  16.003  0.6772 -0.0302  0.5618
 2872SOL    HW120252   4.324   3.287  15.988  1.1529 -0.1233 -2.2117
 2872SOL    HW220253   4.470   3.258  15.944  0.2954  0.6199  0.4047
 2873SOL     OW20254   0.366   3.187   8.067  0.5906 -0.4590 -0.2870
 2873SOL    HW120255   0.399   3.187   7.977  2.6721 -0.7288  0.4774
 2873SOL    HW220256   0.408   3.110   8.105 -0.1544 -1.1544 -0.9043
 2874SOL     OW20257   0.193   4.484   7.496 -0.1536 -0.0086 -0.0683
 2874SOL    HW120258   0.118   4.543   7.508  0.1614  0.9968 -3.0643
 2874SOL    HW220259   0.163   4.413   7.439  0.2327 -1.1379  1.1355
 2875SOL     OW20260   3.421   1.801   3.898 -0.0675 -0.1082  0.2850
 2875SOL    HW120261   3.435   1.888   3.861  1.1492 -0.4170  0.0077
 2875SOL    HW220262   3.347   1.814   3.957  0.3387  0.0839  0.7480
 2876SOL     OW20263   0.624   1.072   5.812 -0.5052  0.1485 -0.2972
 2876SOL    HW120264   0.694   1.007   5.819  0.0565  0.9013  0.9657
 2876SOL    HW220265   0.673   1.154   5.810 -0.1399 -0.0889 -1.2001
 2877SOL     OW20266   3.946   1.954   4.263 -0.0917 -0.3500  0.3271
 2877SOL    HW120267   3.885   1.880   4.254 -0.4774 -0.1041  0.8792
 2877SOL    HW220268   4.016   1.925   4.321  1.9052 -2.3972 -3.0773
 2878SOL     OW20269   3.943   0.886   6.060 -0.5147 -0.2449  0.1736
 2878SOL    HW120270   3.860   0.868   6.105 -0.3274  1.1941  1.0889
 2878SOL    HW220271   3.999   0.844   6.125  0.0631  2.0631  1.1412
 2879SOL     OW20272   2.939   3.231   9.832 -0.4609  0.2547 -0.1128
 2879SOL    HW120273   2.999   3.291   9.877  0.0232 -1.1039  1.0421
 2879SOL    HW220274   2.991   3.152   9.843  1.6332  1.0666 -4.2506
 2880SOL     OW20275   2.519   4.566  16.037 -0.1921 -0.0718 -0.1688
 2880SOL    HW120276   2.599   4.580  16.087  0.4235 -0.7330 -0.9599
 2880SOL    HW220277   2.559   4.592  15.954 -0.1628 -0.8558 -0.4034
 2881SOL     OW20278   3.348   1.259  16.158 -0.1035  0.3872  0.0796
 2881SOL    HW120279   3.377   1.350  16.159  2.2638 -0.3799 -0.5632
 2881SOL    HW220280   3.314   1.249  16.248 -2.6451  0.6371 -0.8523
 2882SOL     OW20281   2.649   0.608  11.545  0.7825  0.3172  0.1868
 2882SOL    HW120282   2.738   0.641  11.561  0.5396  0.7164  0.7265
 2882SOL    HW220283   2.592   0.677  11.578  0.2628 -0.1995  0.3716
 2883SOL     OW20284   2.732   4.263   6.166  0.1834  0.2573 -0.5297
 2883SOL    HW120285   2.803   4.204   6.141  0.1277 -0.9927  2.2919
 2883SOL    HW220286   2.776   4.326   6.223  1.0861 -0.3593 -0.5516
 2884SOL     OW20287   0.614   3.176   8.412  0.1585  0.0007 -0.3051
 2884SOL    HW120288   0.642   3.267   8.401  0.3927 -0.1633 -1.0331
 2884SOL    HW220289   0.586   3.150   8.324 -1.5848 -1.4188  0.6637
 2885SOL     OW20290   3.896   1.141  16.337 -0.1443  0.0866  0.4758
 2885SOL    HW120291   3.928   1.148  16.247 -0.3268  1.0570  0.4925
 2885SOL    HW220292   3.800   1.147  16.337 -0.0583  1.2821  1.0732
 2886SOL     OW20293   2.023   0.239   8.051  0.4256  0.2085  0.1754
 2886SOL    HW120294   1.990   0.312   8.102  0.2344  0.3797 -0.1949
 2886SOL    HW220295   1.949   0.231   7.991 -0.4378  3.3755  0.8309
 2887SOL     OW20296   3.836   0.574   4.746 -0.2771 -0.1828 -0.2226
 2887SOL    HW120297   3.784   0.571   4.666  0.7421  0.7946 -0.9324
 2887SOL    HW220298   3.883   0.492   4.728 -0.1850 -0.3864  0.9905
 2888SOL     OW20299   1.380   0.515   9.235  0.2283  0.2617 -0.1532
 2888SOL    HW120300   1.442   0.583   9.209  0.3672  0.7268  1.3820
 2888SOL    HW220301   1.385   0.515   9.331  0.6542 -1.0587 -0.1690
 2889SOL     OW20302   0.030   0.689  14.197 -0.0290 -0.4834 -0.1779
 2889SOL    HW120303   0.016   0.596  14.215  2.6024 -0.7535  0.5240
 2889SOL    HW220304   4.688   0.732  14.231  1.2954  0.7991  1.2035
 2890SOL     OW20305   2.747   1.893   8.792 -0.1286  0.0608 -0.1531
 2890SOL    HW120306   2.830   1.927   8.824 -0.2651 -0.4381  0.7249
 2890SOL    HW220307   2.691   1.971   8.793 -0.8979 -0.4934  0.1586
 2891SOL     OW20308   4.538   1.200  15.360  0.1727  0.2706 -0.6959
 2891SOL    HW120309   4.609   1.227  15.303  1.5984  1.1247  1.4867
 2891SOL    HW220310   4.488   1.156  15.292  0.3306 -1.4998  0.3215
 2892SOL     OW20311   2.939   1.360   7.797  0.5841  0.1843  0.7896
 2892SOL    HW120312   2.945   1.267   7.776 -0.2524  0.2954  0.0923
 2892SOL    HW220313   2.916   1.395   7.711 -2.2684 -1.2349  0.9877
 2893SOL     OW20314   4.170   1.289  15.712 -0.1451 -0.2653 -0.0796
 2893SOL    HW120315   4.218   1.277  15.630 -0.1947 -1.9289  0.1373
 2893SOL    HW220316   4.198   1.374  15.746 -2.1110 -0.5854  2.3339
 2894SOL     OW20317   2.760   4.671   1.568  0.4560  0.3571 -0.3308
 2894SOL    HW120318   2.747   4.702   1.657 -2.1383  1.2944 -1.0630
 2894SOL    HW220319   2.673   4.674   1.529 -0.6371  0.3886  2.1174
 2895SOL     OW20320   2.634   2.986  11.328  0.3249 -0.3267 -0.2261
 2895SOL    HW120321   2.666   3.001  11.417  1.1636  0.8740 -0.7268
 2895SOL    HW220322   2.712   3.012  11.277  1.2330 -0.6665  0.9934
 2896SOL     OW20323   2.851   3.972   3.300 -0.0189  0.2496 -0.3354
 2896SOL    HW120324   2.816   4.035   3.237 -1.7367 -1.1781 -0.8183
 2896SOL    HW220325   2.869   4.041   3.364 -0.3544  1.5126 -1.6088
 2897SOL     OW20326   2.607   4.721   8.129 -0.0722  0.1087 -0.3564
 2897SOL    HW120327   2.660   0.028   8.063 -0.8710 -0.5666 -1.4236
 2897SOL    HW220328   2.520   0.001   8.093  0.3673 -0.0065 -1.4540
 2898SOL     OW20329   4.534   3.226   0.001 -0.3265 -0.3325 -0.4071
 2898SOL    HW120330   4.495   3.258  17.662  0.0084 -1.2513 -0.9344
 2898SOL    HW220331   4.460   3.227   0.061  1.0371 -1.2673  1.3091
 2899SOL     OW20332   3.544   0.482   4.631 -0.5928 -0.7548  0.2371
 2899SOL    HW120333   3.542   0.484   4.727 -1.2741 -1.0633  0.2293
 2899SOL    HW220334   3.480   0.551   4.617  1.9067  1.5290  0.1555
 2900SOL     OW20335   2.428   3.732   4.016 -0.3743  0.3498  0.4150
 2900SOL    HW120336   2.333   3.730   4.021 -0.3294 -1.0449  0.7553
 2900SOL    HW220337   2.451   3.792   4.088 -0.4027  0.3069  0.4597
 2901SOL     OW20338   0.141   2.479   0.118 -0.2656  0.1698  0.5581
 2901SOL    HW120339   0.121   2.386   0.106  1.0700 -0.1694  0.9138
 2901SOL    HW220340   0.219   2.483   0.174  0.9928  1.1660 -1.2488
 2902SOL     OW20341   2.787   0.918   8.338 -0.1726  0.0431 -0.0672
 2902SOL    HW120342   2.703   0.907   8.295 -1.2115 -1.3312  2.3056
 2902SOL    HW220343   2.762   0.989   8.396 -0.3953 -2.5769  3.0720
 2903SOL     OW20344   0.889   1.327  14.746  0.5149  0.0078  0.1466
 2903SOL    HW120345   0.939   1.259  14.791 -0.0634 -0.2967  0.3275
 2903SOL    HW220346   0.962   1.375  14.706 -0.0942  2.3324  1.8479
 2904SOL     OW20347   3.144   1.925   9.173 -0.2340 -0.7582  0.1361
 2904SOL    HW120348   3.056   1.888   9.179  0.5018 -2.6099 -0.4679
 2904SOL    HW220349   3.195   1.890   9.246  0.0247 -2.9111 -1.0760
 2905SOL     OW20350   4.439   2.056  16.843  0.1995 -0.3158  0.1839
 2905SOL    HW120351   4.534   2.047  16.833  0.0890  1.2698 -2.2976
 2905SOL    HW220352   4.404   1.982  16.793 -0.6944 -0.9514  1.7411
 2906SOL     OW20353   2.432   3.108   6.505 -0.5776 -0.0632 -0.0893
 2906SOL    HW120354   2.488   3.031   6.519  0.2038 -0.0891 -3.2052
 2906SOL    HW220355   2.501   3.166   6.473 -0.3757 -1.6598 -2.6006
 2907SOL     OW20356   4.373   1.906   8.452  0.0591  0.3861  0.4380
 2907SOL    HW120357   4.334   1.981   8.406  0.5373 -1.0155 -2.3049
 2907SOL    HW220358   4.439   1.953   8.502  1.5838  0.9526 -2.0996
 2908SOL     OW20359   0.092   0.645   2.907  0.4426  0.1185 -0.4406
 2908SOL    HW120360   0.140   0.654   2.825 -0.9770  0.5267 -1.2263
 2908SOL    HW220361   0.079   0.550   2.913  0.0833  0.2037  0.1443
 2909SOL     OW20362   2.045   0.012   6.015 -0.1457  1.0361 -0.2483
 2909SOL    HW120363   2.064   4.655   6.002 -0.6419  0.9421 -0.2877
 2909SOL    HW220364   2.121   0.033   6.070 -0.4101 -0.8189  0.8476
 2910SOL     OW20365   0.985   4.164   3.757  0.1153  0.0221 -0.5016
 2910SOL    HW120366   0.893   4.148   3.776  1.0311 -1.2466  2.7686
 2910SOL    HW220367   0.991   4.260   3.759 -2.3591  0.1479  1.1014
 2911SOL     OW20368   1.867   0.239   4.288 -1.1656 -0.3430 -0.0263
 2911SOL    HW120369   1.920   0.160   4.291 -0.4136  0.0966 -1.4088
 2911SOL    HW220370   1.837   0.250   4.378 -0.1415 -1.2733  0.4207
 2912SOL     OW20371   1.005   0.677   2.473  0.5527  0.1414  0.8723
 2912SOL    HW120372   1.043   0.736   2.408  0.1372  1.7982  2.1241
 2912SOL    HW220373   0.977   0.736   2.543 -0.6826 -0.9661  1.3192
 2913SOL     OW20374   4.603   2.604   7.259  0.2835 -0.4275  0.1143
 2913SOL    HW120375   4.507   2.607   7.266  0.5379 -0.1585  3.3830
 2913SOL    HW220376   4.601   2.561   7.174  1.3055 -0.6691  0.2121
 2914SOL     OW20377   0.019   2.399   5.761  0.2238  0.5506  0.0222
 2914SOL    HW120378   0.082   2.464   5.730  1.1395  0.0228  0.7966
 2914SOL    HW220379   0.011   2.337   5.689  0.2333  1.3429 -0.6676
 2915SOL     OW20380   1.655   1.817   4.460 -0.2052 -0.2274  0.1136
 2915SOL    HW120381   1.568   1.808   4.498 -1.2132 -1.0090 -2.3596
 2915SOL    HW220382   1.704   1.747   4.503  1.8650  2.3111  1.8907
 2916SOL     OW20383   2.476   4.650  17.618  0.3786  0.0562  0.4227
 2916SOL    HW120384   2.403   4.588  17.623  0.2168  0.2301  0.1682
 2916SOL    HW220385   2.435   4.729  17.584  2.5093  0.6503 -0.7769
 2917SOL     OW20386   4.478   3.299   5.610 -0.3052 -0.4549 -0.1045
 2917SOL    HW120387   4.572   3.286   5.618 -0.2127 -0.0863 -0.5951
 2917SOL    HW220388   4.467   3.356   5.686  0.9995 -0.5525  0.1637
 2918SOL     OW20389   1.109   3.159   8.818  0.1304  0.2447 -0.1542
 2918SOL    HW120390   1.073   3.244   8.843  2.4519  0.7745  1.4853
 2918SOL    HW220391   1.201   3.186   8.824  0.5547 -1.0342 -0.7904
 2919SOL     OW20392   2.463   3.993   8.108 -0.4467 -0.2748  0.3321
 2919SOL    HW120393   2.374   3.995   8.143  0.4237 -0.9597  2.6091
 2919SOL    HW220394   2.437   3.995   8.016  0.7882 -0.1918 -0.0188
 2920SOL     OW20395   0.094   1.493   0.157  0.2249  0.0819  0.3860
 2920SOL    HW120396   0.030   1.424   0.141 -0.4915  0.8655 -0.1284
 2920SOL    HW220397   0.110   1.510   0.064 -0.1855  0.5358  0.3996
 2921SOL     OW20398   1.467   0.686   2.425  0.2077 -0.0058  0.4374
 2921SOL    HW120399   1.445   0.738   2.348  2.4775 -0.4412 -0.5110
 2921SOL    HW220400   1.408   0.726   2.489 -1.5160  1.7987 -2.3007
 2922SOL     OW20401   2.677   3.218   2.181  0.3157  0.1458  0.2190
 2922SOL    HW120402   2.595   3.175   2.157  0.6863 -0.4971  0.0865
 2922SOL    HW220403   2.636   3.300   2.206  1.3390  1.4164 -2.2616
 2923SOL     OW20404   2.916   0.498  10.930  0.1337 -0.3433 -0.1701
 2923SOL    HW120405   2.922   0.495  11.026  0.6980 -1.6454 -0.2465
 2923SOL    HW220406   3.000   0.464  10.899  0.0403  1.1483 -2.0546
 2924SOL     OW20407   1.037   2.053   7.863 -0.1245 -0.0205  0.1380
 2924SOL    HW120408   1.010   1.969   7.903  1.5422 -0.8453 -0.4756
 2924SOL    HW220409   1.093   2.087   7.933  0.2642 -0.4646  0.0398
 2925SOL     OW20410   0.647   1.943  13.154  0.0155  0.1173 -0.2567
 2925SOL    HW120411   0.643   1.922  13.247 -1.1012 -1.7677 -0.7387
 2925SOL    HW220412   0.735   1.981  13.147  0.9403 -1.6493  1.8573
 2926SOL     OW20413   2.518   1.114  17.500 -0.1098  0.1021 -0.0266
 2926SOL    HW120414   2.502   1.207  17.481  1.2788  0.8243  2.2959
 2926SOL    HW220415   2.550   1.081  17.416  0.3881  1.5506 -0.4120
 2927SOL     OW20416   4.159   3.538   6.177 -0.1351 -0.5001 -0.7826
 2927SOL    HW120417   4.244   3.568   6.145 -0.8555  0.4580 -1.7875
 2927SOL    HW220418   4.188   3.514   6.265  0.6359  0.9896 -0.6393
 2928SOL     OW20419   1.698   1.403   0.554 -0.1115 -0.2988  0.3289
 2928SOL    HW120420   1.657   1.489   0.564  2.4324  1.0169 -0.3659
 2928SOL    HW220421   1.625   1.349   0.584  0.3859 -0.8946  0.4743
 2929SOL     OW20422   3.945   4.023   5.807 -0.3107 -0.3233 -0.3124
 2929SOL    HW120423   3.984   4.039   5.893 -1.6464 -1.6747  0.5485
 2929SOL    HW220424   3.978   4.102   5.766 -0.8927 -0.7865 -1.6664
 2930SOL     OW20425   3.704   1.580   4.035  0.6863 -0.4111  0.0484
 2930SOL    HW120426   3.662   1.593   3.950  0.1654 -3.5548 -0.1661
 2930SOL    HW220427   3.770   1.516   4.011  0.5790 -0.0658 -1.1863
 2931SOL     OW20428   1.187   1.482   5.932 -0.3040 -0.2711  0.0588
 2931SOL    HW120429   1.191   1.395   5.972 -1.1959 -0.1410  0.4460
 2931SOL    HW220430   1.222   1.542   5.997  2.2426 -1.1658 -0.5047
 2932SOL     OW20431   2.172   0.800   6.533 -0.3033  0.1375 -0.4039
 2932SOL    HW120432   2.110   0.818   6.462 -3.5693 -2.5383  1.7827
 2932SOL    HW220433   2.227   0.878   6.523 -0.2557 -0.0959 -2.0078
 2933SOL     OW20434   3.462   4.128   4.840  0.5168 -0.0460  0.3424
 2933SOL    HW120435   3.550   4.162   4.853 -0.2132  1.6126  1.0441
 2933SOL    HW220436   3.427   4.178   4.766 -2.1457 -1.6520  0.5042
 2934SOL     OW20437   3.008   0.014  10.290  0.4321 -0.4370  0.2518
 2934SOL    HW120438   3.019   0.105  10.318  1.1774 -0.6807  0.7571
 2934SOL    HW220439   2.952   0.025  10.213 -0.4061  0.0382  0.9334
 2935SOL     OW20440   3.772   0.220   2.341  0.3049 -0.4687  0.1465
 2935SOL    HW120441   3.818   0.151   2.390  1.4001  1.3692  1.7240
 2935SOL    HW220442   3.800   0.297   2.390  1.9312 -1.3866  0.6798
 2936SOL     OW20443   2.726   1.796   6.286  0.2865  0.2665 -0.5531
 2936SOL    HW120444   2.759   1.833   6.204  1.3147  0.9457  0.1712
 2936SOL    HW220445   2.749   1.705   6.266 -1.7024 -0.5178  0.7106
 2937SOL     OW20446   0.236   2.973   6.340  0.1351  0.0494  0.2369
 2937SOL    HW120447   0.292   2.970   6.417 -0.0161  0.3896  0.3614
 2937SOL    HW220448   0.193   2.888   6.349  2.9476 -1.2006  1.8344
 2938SOL     OW20449   4.201   0.825   0.759  0.0843 -0.0178  0.1457
 2938SOL    HW120450   4.230   0.764   0.691 -0.1623 -0.9167  0.8436
 2938SOL    HW220451   4.258   0.896   0.730 -1.4694  0.2599 -2.2606
 2939SOL     OW20452   4.629   3.961   8.597 -0.1925  0.2644 -0.1136
 2939SOL    HW120453   4.594   4.007   8.521 -1.1664 -0.0749  0.1291
 2939SOL    HW220454   4.680   3.892   8.555  0.2306 -0.0316  0.9010
 2940SOL     OW20455   0.000   1.582   2.674 -0.0083  0.0321  0.3621
 2940SOL    HW120456   4.665   1.554   2.731 -1.6075  0.2937 -1.4806
 2940SOL    HW220457   4.688   1.639   2.613 -0.2602  0.0680  0.5977
 2941SOL     OW20458   4.107   2.807   2.535  0.1258  0.2247  0.2497
 2941SOL    HW120459   4.031   2.821   2.479  0.3215 -0.6083 -0.2150
 2941SOL    HW220460   4.177   2.797   2.471 -1.5505  1.2387 -1.7081
 2942SOL     OW20461   4.064   0.341   5.991 -0.1598 -0.3034  0.2727
 2942SOL    HW120462   3.986   0.345   6.046 -1.0378 -1.6179 -0.8734
 2942SOL    HW220463   4.022   0.344   5.905 -0.6217 -1.7531  0.4477
 2943SOL     OW20464   1.342   2.506   6.444 -0.3596 -0.0644  0.5827
 2943SOL    HW120465   1.417   2.556   6.478  1.3743 -2.7848  0.7724
 2943SOL    HW220466   1.326   2.557   6.364 -1.6192  1.4337  1.8044
 2944SOL     OW20467   4.192   1.321   5.734 -0.3355  0.3349 -0.1738
 2944SOL    HW120468   4.257   1.255   5.710 -1.1158 -0.5669  0.2078
 2944SOL    HW220469   4.185   1.300   5.827 -1.3123  1.6028  0.0374
 2945SOL     OW20470   2.552   4.591   9.611 -0.0068  0.1321 -0.1393
 2945SOL    HW120471   2.633   4.593   9.560  0.9138 -3.5666  1.1805
 2945SOL    HW220472   2.538   4.497   9.598  0.7993 -0.1683  1.2313
 2946SOL     OW20473   0.817   3.622  13.270 -0.0552  0.0194 -0.3446
 2946SOL    HW120474   0.899   3.604  13.315 -0.5343  0.4507  0.7003
 2946SOL    HW220475   0.834   3.594  13.180 -1.0080  1.2911 -0.9254
 2947SOL     OW20476   1.579   0.390   1.254  0.4495  0.1338  0.1868
 2947SOL    HW120477   1.573   0.434   1.338 -3.1598  0.4833 -0.2299
 2947SOL    HW220478   1.542   0.469   1.215  1.6164  1.1618  1.1925
 2948SOL     OW20479   2.397   0.627   1.488  0.3835  0.2600 -0.2597
 2948SOL    HW120480   2.341   0.693   1.447 -0.7752 -0.0486  0.8182
 2948SOL    HW220481   2.396   0.651   1.581  0.1521 -0.4792 -0.0725
 2949SOL     OW20482   2.964   4.656   8.844  0.2764 -0.1163  0.3484
 2949SOL    HW120483   2.928   4.690   8.763  0.4833  0.0414  0.3233
 2949SOL    HW220484   3.051   4.696   8.848 -0.9972  2.6742 -0.3089
 2950SOL     OW20485   2.754   4.284   7.416  0.0936 -0.2732 -0.1174
 2950SOL    HW120486   2.698   4.350   7.376 -1.3224 -1.9964 -0.9886
 2950SOL    HW220487   2.741   4.307   7.508  1.8161 -0.3751  0.1610
 2951SOL     OW20488   1.230   1.256   6.354  0.7008 -0.1551  0.1528
 2951SOL    HW120489   1.198   1.167   6.364 -1.2332  0.5014 -0.1953
 2951SOL    HW220490   1.228   1.270   6.259  0.6402 -1.0474  0.0253
 2952SOL     OW20491   3.761   1.890   6.046 -0.4113 -0.2321  0.5889
 2952SOL    HW120492   3.772   1.802   6.009  0.6555 -0.4938  1.5349
 2952SOL    HW220493   3.674   1.907   6.010 -0.1272  0.5992  0.2917
 2953SOL     OW20494   3.590   3.895   9.309 -0.1429  0.3479 -0.2943
 2953SOL    HW120495   3.599   3.830   9.240 -0.2794 -1.6560  1.5491
 2953SOL    HW220496   3.552   3.968   9.261 -0.3619  1.2424  1.2143
 2954SOL     OW20497   0.820   0.447  10.685 -0.0613  0.2682 -0.1131
 2954SOL    HW120498   0.822   0.532  10.641 -3.2522 -0.3142 -1.4075
 2954SOL    HW220499   0.762   0.390  10.634 -0.2399 -0.2358  0.6551
 2955SOL     OW20500   2.297   0.776  16.775  0.1010 -0.0632  0.4905
 2955SOL    HW120501   2.366   0.765  16.840  1.1697 -1.5128 -0.8888
 2955SOL    HW220502   2.316   0.696  16.725 -1.5015 -0.0568 -0.1551
 2956SOL     OW20503   3.377   3.453   2.178  0.1344  0.2880 -0.2274
 2956SOL    HW120504   3.410   3.523   2.123 -0.7712 -0.6379 -1.9614
 2956SOL    HW220505   3.357   3.496   2.261  1.1782  1.2008 -0.4565
 2957SOL     OW20506   0.674   2.123   9.037  0.4477 -0.2982  0.1143
 2957SOL    HW120507   0.599   2.112   9.095  2.6632  0.8839  3.2304
 2957SOL    HW220508   0.652   2.206   8.994 -0.6244 -0.1900  0.8926
 2958SOL     OW20509   0.533   1.317   3.091 -0.7934 -0.6295 -0.3479
 2958SOL    HW120510   0.454   1.367   3.108 -0.0792 -0.6740  3.0556
 2958SOL    HW220511   0.571   1.305   3.178  1.4703 -0.6244 -1.3283
 2959SOL     OW20512   3.926   2.053   2.171  0.7599 -0.0849 -0.0013
 2959SOL    HW120513   3.923   2.015   2.083 -0.1977  0.7705 -0.3347
 2959SOL    HW220514   3.935   2.145   2.148  0.4591  0.1270  0.7232
 2960SOL     OW20515   1.937   0.105  10.134 -0.9736  0.0385  0.1240
 2960SOL    HW120516   1.971   0.142  10.215 -0.3685 -0.9970  0.3431
 2960SOL    HW220517   1.968   0.164  10.065 -0.0630 -1.1119 -0.4466
 2961SOL     OW20518   3.785   3.232  10.861  0.1999 -0.4040  0.5463
 2961SOL    HW120519   3.710   3.286  10.838 -0.4183 -1.2810  0.5393
 2961SOL    HW220520   3.839   3.283  10.922  1.5854 -1.3136  0.0791
 2962SOL     OW20521   4.478   4.409   4.633  0.1621  0.5814 -0.1527
 2962SOL    HW120522   4.403   4.457   4.668 -1.1111 -0.8242 -0.9294
 2962SOL    HW220523   4.544   4.478   4.639 -0.3893  0.9180  2.1566
 2963SOL     OW20524   1.788   4.017   5.534 -0.1930  0.0972 -0.1813
 2963SOL    HW120525   1.774   3.938   5.481 -1.9720  1.9684 -2.5398
 2963SOL    HW220526   1.818   4.069   5.459 -0.4742 -0.2506 -0.5388
 2964SOL     OW20527   3.790   0.959   9.730  0.0751 -0.3294  0.5186
 2964SOL    HW120528   3.707   0.994   9.698  0.0296  0.0840  1.0902
 2964SOL    HW220529   3.831   1.045   9.745 -0.0715 -0.4132  1.3642
 2965SOL     OW20530   2.804   1.445  15.917  0.5013 -0.5390 -0.5924
 2965SOL    HW120531   2.853   1.368  15.948 -2.2041 -0.7390  3.2104
 2965SOL    HW220532   2.765   1.477  15.999 -0.7898 -2.3463 -0.4863
 2966SOL     OW20533   1.151   1.388   2.326  0.1581  0.0161  0.4270
 2966SOL    HW120534   1.243   1.367   2.340  0.0600 -0.2554  0.6504
 2966SOL    HW220535   1.113   1.326   2.389 -0.5614 -0.6734 -0.6993
 2967SOL     OW20536   3.124   0.384   7.627 -0.6738 -0.2569 -0.1096
 2967SOL    HW120537   3.135   0.391   7.532  0.0058  0.9288  0.0593
 2967SOL    HW220538   3.031   0.359   7.626 -0.8902  0.6328 -2.5213
 2968SOL     OW20539   2.831   0.577   0.517  0.3066  0.0791 -0.2448
 2968SOL    HW120540   2.855   0.506   0.457 -0.8662 -0.0093 -0.6148
 2968SOL    HW220541   2.892   0.565   0.589  0.8082  1.3010 -0.4731
 2969SOL     OW20542   1.943   2.548   4.999  0.0724 -0.0080  0.4481
 2969SOL    HW120543   2.023   2.596   5.021 -0.1756  0.1651  0.9656
 2969SOL    HW220544   1.970   2.505   4.917  0.5599  2.6734 -0.8037
 2970SOL     OW20545   0.744   3.754   9.642  0.4721 -0.1502 -0.0622
 2970SOL    HW120546   0.819   3.771   9.585 -1.6462  0.2606 -2.7278
 2970SOL    HW220547   0.684   3.735   9.571  0.2441  0.7522 -0.1154
 2971SOL     OW20548   0.323   3.109  14.324  0.0923 -0.4788  0.2128
 2971SOL    HW120549   0.248   3.059  14.292 -0.5004 -0.4398  1.5332
 2971SOL    HW220550   0.375   3.089  14.246  0.2304 -1.4374  0.5469
 2972SOL     OW20551   0.794   2.835   0.291 -0.6175  0.1267  1.3602
 2972SOL    HW120552   0.723   2.770   0.293  0.7059 -1.4082 -1.0585
 2972SOL    HW220553   0.790   2.856   0.197 -1.6122 -2.8125  0.7236
 2973SOL     OW20554   1.741   3.992   9.964  0.0324 -0.6623  0.2148
 2973SOL    HW120555   1.776   4.079   9.944  1.6266 -1.4890 -0.6037
 2973SOL    HW220556   1.700   3.959   9.884 -2.1660 -0.9800  1.4649
 2974SOL     OW20557   0.786   1.401   3.000 -0.3522 -0.2762  0.0091
 2974SOL    HW120558   0.794   1.425   2.907  0.9412 -0.9323 -0.0450
 2974SOL    HW220559   0.690   1.404   3.002 -0.2543  1.0889  2.2894
 2975SOL     OW20560   4.458   1.895  12.978 -0.1979  0.4862  0.4744
 2975SOL    HW120561   4.474   1.907  12.884 -3.3882 -3.4576 -0.5751
 2975SOL    HW220562   4.508   1.964  13.021 -0.9167  0.2550  1.6658
 2976SOL     OW20563   2.874   1.445   7.567  0.4075 -0.3607  0.0003
 2976SOL    HW120564   2.833   1.527   7.595  0.5945 -0.5357  0.7826
 2976SOL    HW220565   2.801   1.412   7.514  0.5425 -0.1897 -0.2914
 2977SOL     OW20566   3.808   1.287   7.119 -0.1644  0.0538  0.4256
 2977SOL    HW120567   3.764   1.366   7.151 -0.4984  0.0181  0.0605
 2977SOL    HW220568   3.760   1.213   7.157 -0.2066  0.7750  1.7669
 2978SOL     OW20569   0.803   2.052  16.481 -0.7292  0.2252 -0.1858
 2978SOL    HW120570   0.844   2.005  16.554 -1.7949 -0.9497 -0.3291
 2978SOL    HW220571   0.846   2.006  16.408  0.1021  1.1357 -0.2726
 2979SOL     OW20572   2.836   4.369   0.690 -0.5429  0.0354  0.1669
 2979SOL    HW120573   2.774   4.426   0.736 -0.1312  1.8258 -1.5084
 2979SOL    HW220574   2.886   4.342   0.767 -2.2392  2.1367  2.0130
 2980SOL     OW20575   2.041   3.440   2.903 -0.2970 -0.0541  0.2789
 2980SOL    HW120576   2.063   3.444   2.996 -0.1456 -0.4266  0.2576
 2980SOL    HW220577   2.121   3.470   2.859  0.9273 -1.9072  1.2302
 2981SOL     OW20578   2.288   1.319   5.356 -0.5311 -0.3273  0.5560
 2981SOL    HW120579   2.360   1.264   5.387 -0.2589 -0.6241 -0.5991
 2981SOL    HW220580   2.281   1.388   5.422  0.1705  1.0972 -0.8768
 2982SOL     OW20581   3.773   3.221  11.811  0.1767 -0.2090  0.6224
 2982SOL    HW120582   3.784   3.193  11.720 -3.4996  0.7529 -0.1233
 2982SOL    HW220583   3.694   3.176  11.843  0.9921 -0.8786  1.6956
 2983SOL     OW20584   2.095   0.411   7.804  0.7668 -0.0290 -0.0757
 2983SOL    HW120585   2.079   0.505   7.814 -2.3241 -0.4913 -0.7859
 2983SOL    HW220586   2.188   0.399   7.825  0.7237 -1.1169 -0.5240
 2984SOL     OW20587   3.627   1.857   3.051  0.0043  0.8183  0.1353
 2984SOL    HW120588   3.701   1.803   3.078 -0.6747  0.9511  2.2713
 2984SOL    HW220589   3.668   1.917   2.988  0.1182  0.9548  0.3400
 2985SOL     OW20590   1.743   0.277  14.223 -0.0865 -0.0560 -0.5766
 2985SOL    HW120591   1.816   0.335  14.202 -0.4142  0.5603  0.0055
 2985SOL    HW220592   1.789   0.193  14.228 -0.9662 -0.3266  3.0137
 2986SOL     OW20593   1.670   2.365  12.551 -0.1062  0.1577 -0.2170
 2986SOL    HW120594   1.729   2.373  12.476  0.3975  0.3416  0.2068
 2986SOL    HW220595   1.716   2.298  12.602  0.0977  1.6611  1.5451
 2987SOL     OW20596   1.438   1.697   6.542 -0.1983  0.7645  0.6788
 2987SOL    HW120597   1.523   1.727   6.510  0.1093 -1.1182 -0.3137
 2987SOL    HW220598   1.409   1.644   6.468 -0.6598  1.3334  0.4517
 2988SOL     OW20599   0.213   2.290   9.049 -0.2970  0.7226 -0.6697
 2988SOL    HW120600   0.158   2.220   9.013 -1.0483  1.1423 -0.3321
 2988SOL    HW220601   0.162   2.364   9.017 -3.7905 -1.0672  0.8212
 2989SOL     OW20602   2.721   1.145   1.863 -0.3982 -0.1721 -0.4306
 2989SOL    HW120603   2.718   1.093   1.782 -2.7870 -1.4048  0.4300
 2989SOL    HW220604   2.653   1.105   1.917 -0.3424 -0.2597 -0.4252
 2990SOL     OW20605   2.899   0.829  12.548  0.0097 -0.0698 -0.4156
 2990SOL    HW120606   2.894   0.925  12.554  1.5972 -0.0897  1.2640
 2990SOL    HW220607   2.823   0.809  12.493 -0.1375 -1.7369  0.3947
 2991SOL     OW20608   3.744   0.064   5.445  0.2212  0.2387 -0.4809
 2991SOL    HW120609   3.713   0.037   5.532 -0.3725  1.0729 -0.4401
 2991SOL    HW220610   3.674   0.030   5.390  0.1921 -0.4413 -0.0249
 2992SOL     OW20611   2.179   2.843  10.412  0.2050 -0.1247  0.2816
 2992SOL    HW120612   2.176   2.786  10.489  1.1433  2.1313  1.9789
 2992SOL    HW220613   2.180   2.929  10.453 -2.4118 -0.6591  1.4830
 2993SOL     OW20614   3.254   4.150   4.619  0.0399  0.6644 -0.0019
 2993SOL    HW120615   3.288   4.131   4.532 -0.8589  1.1100 -0.4523
 2993SOL    HW220616   3.201   4.227   4.600  1.3957  1.1869 -1.5716
 2994SOL     OW20617   3.425   1.108   2.576 -0.2299  0.0921 -0.2757
 2994SOL    HW120618   3.473   1.139   2.652 -0.6715 -0.9663  0.4463
 2994SOL    HW220619   3.412   1.186   2.522  1.1296  1.7251  1.7733
 2995SOL     OW20620   4.412   3.673  16.401 -0.6149 -0.7881 -0.3519
 2995SOL    HW120621   4.477   3.687  16.332 -0.1901 -1.0074 -0.0012
 2995SOL    HW220622   4.356   3.750  16.398 -0.0633 -0.3317  0.9726
 2996SOL     OW20623   3.885   1.626   0.476 -0.3592  0.4329  0.4953
 2996SOL    HW120624   3.910   1.709   0.435 -1.1577  0.8253  0.8217
 2996SOL    HW220625   3.929   1.571   0.411  3.7910  1.3162  2.4954
 2997SOL     OW20626   0.473   3.961  12.683 -0.4148  0.4363 -0.3386
 2997SOL    HW120627   0.543   3.901  12.710 -0.3424  2.0300  3.0079
 2997SOL    HW220628   0.402   3.898  12.690  0.4194 -0.2594  1.8560
 2998SOL     OW20629   1.821   1.977   1.696 -0.4630 -0.6548  0.0553
 2998SOL    HW120630   1.805   2.071   1.682  0.8469 -0.1323  1.9295
 2998SOL    HW220631   1.797   1.978   1.789 -2.0373 -1.2135 -0.3540
 2999SOL     OW20632   2.444   2.957   3.420 -0.0030 -0.3986 -0.1075
 2999SOL    HW120633   2.409   2.904   3.348 -0.1277  0.2843 -0.5461
 2999SOL    HW220634   2.375   2.950   3.486 -0.8041  3.6275 -0.5326
 3000SOL     OW20635   3.886   4.063   6.609 -0.0322  0.2142 -0.0057
 3000SOL    HW120636   3.929   4.127   6.552 -0.3850 -0.4239 -1.0008
 3000SOL    HW220637   3.859   3.997   6.544  0.6160  1.6428 -1.7245
 3001SOL     OW20638   0.818   2.913   5.479  0.0501 -0.2111 -0.2497
 3001SOL    HW120639   0.859   2.917   5.393  0.1065 -0.6941 -0.2447
 3001SOL    HW220640   0.868   2.984   5.521 -0.9540 -0.4133  1.3080
 3002SOL     OW20641   3.543   3.719   4.832 -0.1174  1.0074  0.1285
 3002SOL    HW120642   3.636   3.740   4.824 -0.5924  2.5080 -1.5317
 3002SOL    HW220643   3.526   3.789   4.895 -1.2564  2.6261 -1.9585
 3003SOL     OW20644   2.081   1.627   8.274 -0.0162  0.0981  0.3853
 3003SOL    HW120645   2.131   1.677   8.210  0.3045  1.0615  1.3912
 3003SOL    HW220646   2.139   1.627   8.350  0.9101  2.7766 -0.3244
 3004SOL     OW20647   1.994   2.952  16.018  0.0999  0.4381 -0.4594
 3004SOL    HW120648   2.050   3.029  16.020  0.8475 -0.1064 -0.1455
 3004SOL    HW220649   2.049   2.875  16.037 -0.6049 -0.2981 -1.3516
 3005SOL     OW20650   4.553   2.455   4.998  0.1327  0.3436 -0.2928
 3005SOL    HW120651   4.572   2.465   4.905 -1.0087 -0.5628 -0.6267
 3005SOL    HW220652   4.620   2.391   5.019 -1.0335 -0.2298  1.7243
 3006SOL     OW20653   0.731   0.304   4.208  0.1338  0.5384  0.4371
 3006SOL    HW120654   0.814   0.324   4.164  1.6445 -1.7093  2.2571
 3006SOL    HW220655   0.679   0.381   4.184 -0.2713  0.0196 -0.3520
 3007SOL     OW20656   3.549   0.612   5.181 -0.2828  0.9116  0.3032
 3007SOL    HW120657   3.465   0.623   5.136  0.7358  0.6014 -1.6326
 3007SOL    HW220658   3.604   0.653   5.114  0.3793  0.9831  0.8883
 3008SOL     OW20659   1.946   3.295   4.086 -0.1910  0.6629 -0.2853
 3008SOL    HW120660   1.863   3.328   4.120 -0.1177 -1.3895  1.8619
 3008SOL    HW220661   1.926   3.282   3.993 -2.3658 -0.2317  0.2902
 3009SOL     OW20662   3.171   0.104   9.237 -0.5238  0.1787  0.1439
 3009SOL    HW120663   3.198   0.092   9.146  1.4323 -2.2973  1.0746
 3009SOL    HW220664   3.195   0.194   9.257 -1.6538 -0.0236  2.4041
 3010SOL     OW20665   2.589   0.603   0.167 -0.0147 -0.3230  0.2821
 3010SOL    HW120666   2.616   0.513   0.149  1.0073  0.2513 -1.0321
 3010SOL    HW220667   2.634   0.645   0.093  1.8664 -2.4534  0.2062
 3011SOL     OW20668   4.248   3.092   6.738  0.1175 -0.0545  0.0214
 3011SOL    HW120669   4.201   3.142   6.671 -2.0950 -0.5591  1.1925
 3011SOL    HW220670   4.183   3.049   6.794  1.2175  0.2149  1.4958
 3012SOL     OW20671   3.576   2.499   4.563 -0.5880  0.4533 -0.0555
 3012SOL    HW120672   3.617   2.582   4.538  0.3295  0.0052 -0.0253
 3012SOL    HW220673   3.543   2.471   4.477  2.8578  1.7712 -1.8036
 3013SOL     OW20674   0.655   0.449   1.992  0.0139  0.0295 -0.0660
 3013SOL    HW120675   0.620   0.439   1.903  1.4080  1.6953 -0.8004
 3013SOL    HW220676   0.684   0.360   2.011 -1.3001 -0.4782 -0.4181
 3014SOL     OW20677   3.832   4.655   8.125  0.2687 -0.5263 -0.0270
 3014SOL    HW120678   3.917   4.632   8.163  0.9121  0.6272 -0.7435
 3014SOL    HW220679   3.866   4.674   8.038 -1.4554  1.6877 -0.2149
 3015SOL     OW20680   0.384   3.232   2.781 -0.5905  0.0301  0.6508
 3015SOL    HW120681   0.454   3.298   2.782 -0.8151  0.2879 -1.0556
 3015SOL    HW220682   0.424   3.167   2.724 -1.0301  0.6451 -0.3633
 3016SOL     OW20683   4.065   1.907  10.801 -0.0358  0.0031  0.2525
 3016SOL    HW120684   4.136   1.878  10.858  0.2238  0.5397  0.2047
 3016SOL    HW220685   4.107   1.989  10.775  0.9541 -0.4262  0.4859
 3017SOL     OW20686   4.315   1.389   4.769  0.0585 -0.4547 -0.6437
 3017SOL    HW120687   4.296   1.418   4.858  1.7784  0.7459 -0.6811
 3017SOL    HW220688   4.265   1.453   4.717 -0.1095 -1.0582 -1.2228
 3018SOL     OW20689   4.197   2.673   0.956 -0.2835 -0.3950  0.4776
 3018SOL    HW120690   4.262   2.659   1.025 -1.1065 -2.1831  0.8965
 3018SOL    HW220691   4.231   2.755   0.918 -0.8446 -0.3604  0.0495
 3019SOL     OW20692   1.778   0.296   7.969  0.6345 -0.1446 -0.2715
 3019SOL    HW120693   1.796   0.388   7.988  2.6145 -0.5882  0.0035
 3019SOL    HW220694   1.724   0.285   8.048 -1.7380 -0.5470 -1.9297
 3020SOL     OW20695   3.140   3.470   7.279  0.7089 -0.4432 -0.0466
 3020SOL    HW120696   3.090   3.501   7.355  0.3801  0.2475 -0.5460
 3020SOL    HW220697   3.070   3.446   7.219 -0.1578  0.6308  0.5427
 3021SOL     OW20698   2.056   2.027   6.329  0.4211  0.5286 -0.3223
 3021SOL    HW120699   1.975   1.985   6.359  1.7005 -1.6899  0.0574
 3021SOL    HW220700   2.098   2.062   6.407  0.7803 -0.8608  0.1212
 3022SOL     OW20701   2.053   3.419   2.485  0.2456 -0.8083 -0.6531
 3022SOL    HW120702   1.994   3.348   2.461 -1.8693  0.8436 -0.3904
 3022SOL    HW220703   2.002   3.451   2.559  2.2279  0.8587 -0.0167
 3023SOL     OW20704   1.677   4.028   5.809  0.6307  0.0155 -0.1326
 3023SOL    HW120705   1.743   4.007   5.875 -0.6705 -1.6594  0.6254
 3023SOL    HW220706   1.720   4.007   5.727  2.2009  2.5619  0.0202
 3024SOL     OW20707   3.172   3.976   5.137  0.2119  0.2952  0.0703
 3024SOL    HW120708   3.231   3.902   5.124  0.3011  0.5624 -1.0598
 3024SOL    HW220709   3.099   3.935   5.183  0.6875 -0.6343 -0.0186
 3025SOL     OW20710   0.562   4.556  15.663 -0.6027  0.0262  0.4566
 3025SOL    HW120711   0.492   4.497  15.690 -0.5698 -0.6193 -0.8899
 3025SOL    HW220712   0.509   4.621  15.617  0.0958  0.0880 -0.2699
 3026SOL     OW20713   3.167   2.151   6.258 -0.1425 -0.0969 -0.4043
 3026SOL    HW120714   3.131   2.237   6.277 -0.6279  0.2202 -2.7962
 3026SOL    HW220715   3.088   2.100   6.277  0.4111 -1.2710 -1.2143
 3027SOL     OW20716   2.119   2.512   2.489  0.0616  0.0970  0.1635
 3027SOL    HW120717   2.214   2.499   2.491  0.4862  2.5477 -3.5838
 3027SOL    HW220718   2.107   2.568   2.412  1.3110 -1.5146 -1.2049
 3028SOL     OW20719   2.647   0.228   0.712  0.0396 -0.3823 -0.2090
 3028SOL    HW120720   2.619   0.148   0.756  1.8220 -2.3577 -2.6098
 3028SOL    HW220721   2.740   0.206   0.722 -0.1237 -0.3062  1.4565
 3029SOL     OW20722   4.525   3.705   6.954 -0.0097  0.6844  0.0376
 3029SOL    HW120723   4.466   3.694   7.028 -0.6636 -0.4152 -0.6414
 3029SOL    HW220724   4.468   3.689   6.879  1.7451  0.9090 -1.3342
 3030SOL     OW20725   3.425   2.035  12.898 -0.0152  0.1245 -0.0660
 3030SOL    HW120726   3.450   1.983  12.974  1.2940  0.5750 -0.1831
 3030SOL    HW220727   3.458   1.981  12.827  1.2940  0.9123 -0.0661
 3031SOL     OW20728   2.302   2.940   3.647 -0.8338  0.4162  0.1892
 3031SOL    HW120729   2.346   2.910   3.726  0.3327  2.9632  0.5163
 3031SOL    HW220730   2.278   3.028   3.676 -1.7179  0.6459 -1.1950
 3032SOL     OW20731   2.501   1.932   6.368 -0.0038 -0.1560 -0.0485
 3032SOL    HW120732   2.460   1.856   6.327 -0.7751 -0.1703  0.7495
 3032SOL    HW220733   2.589   1.905   6.343 -0.3891 -0.1337 -1.4202
 3033SOL     OW20734   2.040   0.555  10.357  0.1102 -0.3681  0.1605
 3033SOL    HW120735   1.953   0.591  10.342  1.3712  1.7014 -2.1085
 3033SOL    HW220736   2.050   0.506  10.275  1.8978  1.5839 -0.7798
 3034SOL     OW20737   0.623   3.456   6.832  0.6732 -0.2363  0.2999
 3034SOL    HW120738   0.683   3.525   6.861 -0.0912 -0.2712  2.0201
 3034SOL    HW220739   0.617   3.468   6.738 -1.7436 -1.8492  0.2623
 3035SOL     OW20740   3.886   1.225   3.600 -0.1507  0.7115  0.7591
 3035SOL    HW120741   3.958   1.164   3.612  1.3571  2.3357  0.0137
 3035SOL    HW220742   3.846   1.183   3.524  1.8623  0.5188 -0.1954
 3036SOL     OW20743   4.486   3.469   4.713 -0.4572 -0.3215  0.2657
 3036SOL    HW120744   4.548   3.472   4.641 -0.4681 -2.4130  0.1785
 3036SOL    HW220745   4.400   3.476   4.672 -0.7049  1.1048  1.0445
 3037SOL     OW20746   1.334   0.819   6.039  0.1347  0.4098  0.3584
 3037SOL    HW120747   1.343   0.814   5.944 -1.8238 -2.2409  0.2939
 3037SOL    HW220748   1.378   0.903   6.054 -0.8313  0.9914 -0.1123
 3038SOL     OW20749   1.625   0.334   9.225  0.2754 -0.5724  0.0324
 3038SOL    HW120750   1.538   0.373   9.213 -0.6243 -1.9656  2.1437
 3038SOL    HW220751   1.657   0.326   9.135 -1.4923  0.6898 -0.6931
 3039SOL     OW20752   0.966   4.145   4.184  0.8089 -0.1704 -0.0896
 3039SOL    HW120753   1.049   4.182   4.153  0.9924 -1.3168 -0.9540
 3039SOL    HW220754   0.909   4.222   4.188  0.2772 -0.5492 -0.4630
 3040SOL     OW20755   4.061   1.477   6.391 -0.3315 -0.2215 -0.4876
 3040SOL    HW120756   4.078   1.385   6.413  3.3533  0.4169 -0.6629
 3040SOL    HW220757   4.138   1.503   6.341  2.2090 -1.9876  2.4392
 3041SOL     OW20758   1.152   3.525   3.514  0.1881 -0.3000  0.2752
 3041SOL    HW120759   1.227   3.485   3.557 -1.0503 -1.9922  0.8680
 3041SOL    HW220760   1.116   3.576   3.586  1.6936  3.7496 -1.8314
 3042SOL     OW20761   4.550   1.175   8.852  0.4374  0.0909 -0.4810
 3042SOL    HW120762   4.611   1.102   8.845  1.6995  1.0715  0.1806
 3042SOL    HW220763   4.589   1.248   8.804  0.9192 -0.4891 -0.9750
 3043SOL     OW20764   0.298   0.657   5.375  0.2421  0.1774 -0.2197
 3043SOL    HW120765   0.309   0.752   5.376  0.9241  0.1135 -2.0018
 3043SOL    HW220766   0.254   0.642   5.291  1.8573  0.8412 -1.2001
 3044SOL     OW20767   0.056   0.977   4.866 -0.2446 -0.0505  0.3331
 3044SOL    HW120768   4.727   0.985   4.936 -0.1649  1.5026  0.2152
 3044SOL    HW220769   0.010   1.027   4.799 -1.0025 -2.2096 -0.7760
 3045SOL     OW20770   1.537   4.221  12.052  0.2158 -0.3312 -0.1044
 3045SOL    HW120771   1.507   4.212  12.143  0.5096 -2.8256 -0.2586
 3045SOL    HW220772   1.628   4.247  12.061 -0.4468  1.3231  1.8255
 3046SOL     OW20773   1.196   2.562   6.864  0.1013  0.5381 -0.2483
 3046SOL    HW120774   1.164   2.549   6.953 -1.7873  0.2233 -0.9650
 3046SOL    HW220775   1.284   2.525   6.863 -0.5811 -1.0910 -0.3992
 3047SOL     OW20776   2.065   3.394   1.179  0.2710 -0.3153  0.1452
 3047SOL    HW120777   2.127   3.323   1.191 -0.1376 -0.5350  0.9521
 3047SOL    HW220778   1.998   3.365   1.116  0.0777  3.1676 -1.2862
 3048SOL     OW20779   2.596   0.502   7.577  0.2352  0.5831  0.5699
 3048SOL    HW120780   2.562   0.538   7.660  0.0599  3.2811 -0.6632
 3048SOL    HW220781   2.513   0.487   7.532  0.1396  1.5846  0.4096
 3049SOL     OW20782   1.180   2.481   4.260 -0.6807  0.3716 -0.2276
 3049SOL    HW120783   1.151   2.390   4.266  2.3897 -0.5107  0.9064
 3049SOL    HW220784   1.142   2.504   4.176  0.1288 -2.5621 -1.3824
 3050SOL     OW20785   0.360   0.728  12.924  0.1760  0.1622 -0.0969
 3050SOL    HW120786   0.288   0.666  12.908  0.5727  0.5413 -3.2458
 3050SOL    HW220787   0.339   0.761  13.012 -0.0652  1.0983 -0.5069
 3051SOL     OW20788   0.857   3.612  13.830 -0.2604 -0.8241 -0.0122
 3051SOL    HW120789   0.857   3.551  13.757  1.9865 -0.5973 -0.2156
 3051SOL    HW220790   0.821   3.690  13.788 -0.6725 -0.4126  1.1153
 3052SOL     OW20791   2.593   4.177   3.577 -0.2719  0.1753  0.1232
 3052SOL    HW120792   2.572   4.251   3.634 -1.6629 -0.6957  0.7448
 3052SOL    HW220793   2.687   4.191   3.570 -0.2504  0.0846  0.2396
 3053SOL     OW20794   4.061   0.351   9.126 -0.5093 -0.2696  0.0263
 3053SOL    HW120795   4.010   0.427   9.151 -0.3960 -0.3471  0.4806
 3053SOL    HW220796   4.001   0.280   9.151 -2.3520  1.8945  1.6538
 3054SOL     OW20797   0.244   0.162   4.662  0.6594  0.5102  0.3529
 3054SOL    HW120798   0.231   0.105   4.586  1.8770  2.1648 -1.1252
 3054SOL    HW220799   0.163   0.146   4.709  1.2662  0.8796  1.5366
 3055SOL     OW20800   3.951   4.203   4.349  0.2845  0.1997 -0.1968
 3055SOL    HW120801   3.960   4.299   4.345  0.2207  0.1703 -1.0117
 3055SOL    HW220802   3.887   4.187   4.280  1.5852 -2.6031 -0.7296
 3056SOL     OW20803   2.733   4.443   4.829  0.5891 -0.5330  0.8343
 3056SOL    HW120804   2.790   4.515   4.803  0.8766 -1.7682 -2.0282
 3056SOL    HW220805   2.787   4.371   4.794  1.1439  0.0139  0.5636
 3057SOL     OW20806   2.583   3.408   5.864 -0.0185  0.7071  0.7138
 3057SOL    HW120807   2.523   3.379   5.933 -2.1418  0.1307 -1.3715
 3057SOL    HW220808   2.514   3.445   5.809  1.3074 -0.4704 -1.7379
 3058SOL     OW20809   2.160   0.258  11.876  0.6117 -0.2153 -0.1199
 3058SOL    HW120810   2.128   0.256  11.966 -3.6002  2.2804 -1.5689
 3058SOL    HW220811   2.116   0.336  11.844 -1.2583 -2.5209 -3.1418
 3059SOL     OW20812   3.946   0.460   4.173 -0.6084 -0.4046  0.1342
 3059SOL    HW120813   3.948   0.551   4.144  0.1559 -0.0094  1.4656
 3059SOL    HW220814   4.039   0.439   4.174  0.2378  3.3322  0.2723
 3060SOL     OW20815   3.339   1.416  15.227 -0.9539  0.1336  0.3078
 3060SOL    HW120816   3.243   1.422  15.224 -1.1299 -2.1622  0.8957
 3060SOL    HW220817   3.350   1.505  15.260 -0.3126 -0.1817  0.9290
 3061SOL     OW20818   1.690   3.536   8.173 -0.6893 -0.0037  0.5875
 3061SOL    HW120819   1.614   3.591   8.193  0.8665  2.5614 -0.5544
 3061SOL    HW220820   1.735   3.582   8.102  2.5196 -0.6992  2.1908
 3062SOL     OW20821   2.154   4.099  12.660  0.1292 -0.3185 -0.1657
 3062SOL    HW120822   2.224   4.043  12.693 -1.0405 -1.1048  0.9551
 3062SOL    HW220823   2.104   4.041  12.603  1.8852 -0.6776 -1.3625
 3063SOL     OW20824   1.708   0.200  10.417  0.2354  0.0895  0.3328
 3063SOL    HW120825   1.798   0.232  10.415  0.4630 -0.3638  4.5763
 3063SOL    HW220826   1.679   0.202  10.325  0.0037  0.8064  0.4250
 3064SOL     OW20827   0.450   4.368   7.132 -0.1599 -0.2181 -0.3584
 3064SOL    HW120828   0.430   4.394   7.042 -1.2637  0.7570  0.1644
 3064SOL    HW220829   0.447   4.444   7.190 -0.0345  0.5692 -1.3970
 3065SOL     OW20830   1.974   3.913   3.455  0.6552 -0.4190  0.6565
 3065SOL    HW120831   1.919   3.991   3.459  1.1797 -0.0156  0.0280
 3065SOL    HW220832   1.908   3.845   3.438  0.5727 -0.0202 -0.5948
 3066SOL     OW20833   2.066   2.480   5.464 -0.1681 -0.6558  0.1620
 3066SOL    HW120834   2.136   2.424   5.429  0.0367  0.6993 -1.5906
 3066SOL    HW220835   2.042   2.429   5.542  0.2457 -0.6630  0.2869
 3067SOL     OW20836   2.758   1.349  15.110 -0.5332 -0.3745  0.4684
 3067SOL    HW120837   2.725   1.437  15.131 -0.5009 -0.3731  0.5126
 3067SOL    HW220838   2.751   1.341  15.015  1.1115  2.4704  0.1192
 3068SOL     OW20839   0.875   3.228  14.156 -0.3404 -0.1703  0.5426
 3068SOL    HW120840   0.823   3.308  14.167 -0.8903 -0.5544  0.7537
 3068SOL    HW220841   0.966   3.256  14.152 -0.1396 -0.7645  0.9925
 3069SOL     OW20842   2.686   1.444   3.003  0.2098 -0.4190 -0.3826
 3069SOL    HW120843   2.686   1.441   2.907 -0.2042 -0.8880 -0.3684
 3069SOL    HW220844   2.656   1.355   3.023 -2.8256  0.7909  0.4374
 3070SOL     OW20845   0.740   4.653   4.815 -0.5062 -0.3776  0.3378
 3070SOL    HW120846   0.712   0.006   4.794  0.2959  0.0883  1.2424
 3070SOL    HW220847   0.701   4.639   4.901  0.7920 -1.9359  0.6873
 3071SOL     OW20848   1.651   4.322   4.202  0.2011  0.6753  0.7196
 3071SOL    HW120849   1.735   4.278   4.217  0.6716  0.8339 -1.3838
 3071SOL    HW220850   1.684   4.410   4.183  2.2537 -0.3068 -0.3287
 3072SOL     OW20851   3.286   2.909   9.084 -0.2260  0.0355  0.3139
 3072SOL    HW120852   3.321   2.879   9.168 -0.0574 -1.0242 -0.1372
 3072SOL    HW220853   3.255   2.827   9.047  1.0173 -1.5192  2.7204
 3073SOL     OW20854   4.485   2.434   7.923  0.5092 -0.4717 -0.4114
 3073SOL    HW120855   4.518   2.523   7.918  0.4729 -0.4934 -1.0138
 3073SOL    HW220856   4.453   2.429   8.013 -1.9939 -1.4692 -1.3767
 3074SOL     OW20857   0.357   2.473   4.066 -0.4011 -0.5763 -0.6425
 3074SOL    HW120858   0.268   2.484   4.100  0.9905 -2.5206  3.6830
 3074SOL    HW220859   0.371   2.382   4.092  0.6058 -0.4802 -0.8474
 3075SOL     OW20860   0.111   1.961   4.893  0.8059  0.7233 -0.0704
 3075SOL    HW120861   0.109   1.972   4.988 -1.8893 -0.4406  0.0230
 3075SOL    HW220862   0.029   1.915   4.872  0.4044  1.6885 -0.6026
 3076SOL     OW20863   3.289   0.898   1.643 -0.1930 -0.3297 -0.1123
 3076SOL    HW120864   3.265   0.885   1.551  1.8779  0.0427 -0.6962
 3076SOL    HW220865   3.238   0.969   1.681 -1.7462 -1.6639  0.2946
 3077SOL     OW20866   3.717   0.308   2.700  0.5031  0.4033 -0.5938
 3077SOL    HW120867   3.799   0.290   2.653 -0.0526 -1.7631 -0.7192
 3077SOL    HW220868   3.752   0.382   2.750  0.6698 -1.2565  1.7328
 3078SOL     OW20869   0.842   3.718   8.112 -0.2838 -0.5776  0.1955
 3078SOL    HW120870   0.759   3.766   8.108  1.0332  1.6463 -0.2944
 3078SOL    HW220871   0.882   3.731   8.027  0.0989  0.4836  0.5472
 3079SOL     OW20872   1.653   3.211   2.243 -0.4992  0.1062 -0.6000
 3079SOL    HW120873   1.581   3.270   2.267  0.6891  0.8699  1.0662
 3079SOL    HW220874   1.606   3.128   2.236 -0.0043 -0.2543  0.3919
 3080SOL     OW20875   3.892   2.883   2.383 -0.4153  0.1963 -0.7494
 3080SOL    HW120876   3.875   2.827   2.307 -2.5457 -0.1980  0.0401
 3080SOL    HW220877   3.805   2.912   2.411  0.4192  2.3510 -0.3637
 3081SOL     OW20878   4.541   1.625  15.642 -1.0313 -0.3077  0.4643
 3081SOL    HW120879   4.536   1.531  15.621 -0.0896 -0.5904  1.4762
 3081SOL    HW220880   4.460   1.640  15.692 -0.1656 -0.2431  1.8446
 3082SOL     OW20881   3.141   0.151  10.524 -0.5815 -0.4933  0.0684
 3082SOL    HW120882   3.211   0.198  10.480 -1.0459 -0.5467 -0.7254
 3082SOL    HW220883   3.182   0.064  10.515 -0.0278 -0.2077 -0.1363
 3083SOL     OW20884   3.085   1.822   8.765  0.5033  0.9883 -0.0272
 3083SOL    HW120885   3.125   1.900   8.727 -0.1440  1.5206  0.3883
 3083SOL    HW220886   3.055   1.863   8.846 -0.6822  0.8820 -0.4154
 3084SOL     OW20887   4.438   0.008  13.477 -0.0702 -0.0405  0.2177
 3084SOL    HW120888   4.474   4.656  13.461  0.6642  0.6993 -2.1677
 3084SOL    HW220889   4.395   0.021  13.392 -1.6336  2.5893  1.4426
 3085SOL     OW20890   3.871   1.859   7.822 -0.3352  0.0647  0.7950
 3085SOL    HW120891   3.937   1.813   7.873 -0.3855 -0.0363  0.7697
 3085SOL    HW220892   3.931   1.907   7.765  1.9795 -1.7737  1.7013
 3086SOL     OW20893   0.851   3.354   9.766  0.1988 -0.7252  0.2798
 3086SOL    HW120894   0.813   3.291   9.826 -0.6465  1.2256  1.8076
 3086SOL    HW220895   0.792   3.425   9.792 -0.4559 -1.4483  0.7572
 3087SOL     OW20896   3.169   1.103   2.816  0.2226 -0.7321 -0.0830
 3087SOL    HW120897   3.261   1.087   2.796  0.0427 -0.7547 -0.8666
 3087SOL    HW220898   3.181   1.143   2.902  0.4486  0.3466 -0.6200
 3088SOL     OW20899   3.509   3.868   1.442 -0.3371 -0.5199  0.5203
 3088SOL    HW120900   3.483   3.958   1.423  0.0994 -0.7305 -1.1057
 3088SOL    HW220901   3.527   3.843   1.351 -1.3317  1.9215 -0.3436
 3089SOL     OW20902   2.221   0.811   2.192  0.7655  0.3544  0.0460
 3089SOL    HW120903   2.163   0.830   2.265  1.1335 -2.8571  1.1761
 3089SOL    HW220904   2.228   0.894   2.146 -3.0417  2.4861  3.3747
 3090SOL     OW20905   3.930   2.801   8.720 -0.1337  0.5070 -0.3489
 3090SOL    HW120906   3.882   2.718   8.724  2.7943 -1.1982 -1.5217
 3090SOL    HW220907   3.873   2.849   8.781 -2.0705 -1.5911 -0.5080
 3091SOL     OW20908   3.958   3.993   7.131 -0.2498 -0.4892 -0.1562
 3091SOL    HW120909   4.005   4.074   7.150 -2.2955  0.7252 -0.2848
 3091SOL    HW220910   3.947   4.014   7.038  0.7948  0.7918  0.0170
 3092SOL     OW20911   1.175   1.447   5.568 -0.2091 -0.3264  0.4359
 3092SOL    HW120912   1.250   1.503   5.549 -1.0169  0.6490  0.1677
 3092SOL    HW220913   1.226   1.373   5.602 -0.9320 -1.3098 -0.5909
 3093SOL     OW20914   3.298   1.102   5.498  0.1120 -0.7101  0.1693
 3093SOL    HW120915   3.270   1.057   5.419  0.2555 -2.1265  0.9233
 3093SOL    HW220916   3.387   1.075   5.521  0.0177 -1.5246 -0.4285
 3094SOL     OW20917   4.013   1.385   4.052 -0.0900 -0.4216 -0.1214
 3094SOL    HW120918   3.929   1.340   4.041  0.5497 -1.8439  0.8321
 3094SOL    HW220919   4.031   1.373   4.145  0.8374 -1.3899 -0.4156
 3095SOL     OW20920   3.103   1.577   6.591 -0.1391  0.0772  0.4161
 3095SOL    HW120921   3.185   1.528   6.585  0.0308  0.6090 -1.7077
 3095SOL    HW220922   3.130   1.656   6.637 -1.6051  0.4977  0.5640
 3096SOL     OW20923   1.404   3.375   2.286  0.3195  0.3922 -0.5974
 3096SOL    HW120924   1.391   3.435   2.360 -1.4586  0.1409 -0.7090
 3096SOL    HW220925   1.326   3.386   2.231 -0.0580  2.1515  0.2861
 3097SOL     OW20926   2.876   1.996   3.341 -0.2061  0.5829  0.2177
 3097SOL    HW120927   2.824   2.076   3.338 -0.4447  0.5111  2.9660
 3097SOL    HW220928   2.880   1.992   3.245  1.6822 -1.9921  0.3831
 3098SOL     OW20929   1.043   0.611   2.875 -0.0552 -0.2597 -0.1620
 3098SOL    HW120930   1.079   0.592   2.788  0.0280  2.9687 -0.8425
 3098SOL    HW220931   0.995   0.693   2.865  0.5988  0.2071  0.6300
 3099SOL     OW20932   3.811   1.920   6.543 -0.0042 -0.6216  0.5417
 3099SOL    HW120933   3.840   1.839   6.585 -1.0372 -1.1558  0.2034
 3099SOL    HW220934   3.783   1.886   6.458  1.0414 -0.0365 -0.0344
 3100SOL     OW20935   1.116   2.535   6.582  0.5390 -0.5792  0.2313
 3100SOL    HW120936   1.133   2.537   6.676  0.3617 -0.6422  0.2643
 3100SOL    HW220937   1.202   2.539   6.540 -0.1572 -0.1449 -1.1308
 3101SOL     OW20938   2.883   1.196   6.525  0.1209 -0.3481 -0.1441
 3101SOL    HW120939   2.892   1.276   6.576 -1.0901 -0.8824  0.9066
 3101SOL    HW220940   2.968   1.157   6.544  0.7991  1.0785 -0.2111
 3102SOL     OW20941   0.365   1.166   7.338  0.2289  0.0425  0.0536
 3102SOL    HW120942   0.290   1.225   7.335 -0.4650 -0.8389 -0.0205
 3102SOL    HW220943   0.321   1.080   7.339  1.5581 -0.6507 -1.0282
 3103SOL     OW20944   2.118   2.143  14.844  0.4289  0.0019 -0.0226
 3103SOL    HW120945   2.070   2.077  14.894  1.5574  0.3702  1.5667
 3103SOL    HW220946   2.042   2.194  14.814 -0.4931 -1.7861 -0.6889
 3104SOL     OW20947   1.609   1.948   4.227 -0.0108 -0.0231 -0.3293
 3104SOL    HW120948   1.683   2.008   4.226 -0.5436  0.6286 -1.2061
 3104SOL    HW220949   1.638   1.877   4.285 -0.4546 -1.2917 -1.6338
 3105SOL     OW20950   0.201   3.657   0.057 -0.2691  0.7468 -0.2209
 3105SOL    HW120951   0.215   3.746   0.026  3.2375  0.0214 -0.8075
 3105SOL    HW220952   0.106   3.651   0.053 -0.2846  0.6475  0.2384
 3106SOL     OW20953   0.005   2.982   4.279 -0.0118  0.0024 -0.5694
 3106SOL    HW120954   0.090   2.956   4.243  0.8312  0.2445  1.2127
 3106SOL    HW220955   4.699   3.014   4.199 -0.2482  1.7667  0.2615
 3107SOL     OW20956   0.317   2.835   0.942  0.6595 -0.8053  0.5476
 3107SOL    HW120957   0.317   2.844   0.847  0.8982 -1.5175  0.4801
 3107SOL    HW220958   0.236   2.787   0.962  0.5941 -1.4392 -1.3013
 3108SOL     OW20959   0.227   4.163   6.925  0.2545  0.0408  0.0384
 3108SOL    HW120960   0.244   4.113   7.005 -1.4063 -0.0348  0.3643
 3108SOL    HW220961   0.168   4.230   6.962  0.9141  0.7009 -0.1147
 3109SOL     OW20962   4.144   3.768   5.961 -0.1791 -0.0547  0.2579
 3109SOL    HW120963   4.156   3.819   6.041  0.7406 -0.9175  0.6728
 3109SOL    HW220964   4.205   3.695   5.975 -0.7726 -0.5929  0.0370
 3110SOL     OW20965   0.977   0.031  13.859  0.2662  0.0877 -0.2882
 3110SOL    HW120966   1.004   4.730  13.775  1.7626 -0.6055  0.4888
 3110SOL    HW220967   1.038   4.722  13.918 -1.7515  0.5050  2.0816
 3111SOL     OW20968   2.557   0.675   2.444  0.5722  0.6680  0.1649
 3111SOL    HW120969   2.507   0.644   2.368  1.4216  0.3494 -0.2693
 3111SOL    HW220970   2.631   0.613   2.445  0.0993  0.1462  2.4566
 3112SOL     OW20971   3.968   2.933  13.729 -0.2835 -0.4156 -0.0445
 3112SOL    HW120972   3.919   2.851  13.725 -2.4697  0.9540 -1.9061
 3112SOL    HW220973   4.056   2.908  13.703 -0.5069  0.1737 -1.3991
 3113SOL     OW20974   4.715   0.250   2.466 -0.0698 -0.7654 -0.0979
 3113SOL    HW120975   4.714   0.332   2.417 -0.5687 -1.1418 -0.6986
 3113SOL    HW220976   4.636   0.206   2.436 -0.0341 -1.9039  1.4690
 3114SOL     OW20977   4.735   4.077   2.166 -0.2278 -0.3563 -0.8929
 3114SOL    HW120978   4.663   4.127   2.205  0.7402  0.3548 -0.0260
 3114SOL    HW220979   0.023   4.018   2.238 -3.6246 -0.2239  0.3889
 3115SOL     OW20980   2.531   1.783  12.937 -0.8055  0.0686  0.0292
 3115SOL    HW120981   2.536   1.688  12.942 -2.3618 -0.0035  0.1094
 3115SOL    HW220982   2.556   1.805  13.026  1.3887 -1.4718 -0.2101
 3116SOL     OW20983   3.586   1.418   2.911  0.0232  0.0618  0.0105
 3116SOL    HW120984   3.671   1.442   2.949 -0.5628 -0.6560  1.7959
 3116SOL    HW220985   3.579   1.471   2.832  1.5874  2.5472  1.5098
 3117SOL     OW20986   0.709   1.919   7.485 -0.4586  0.6098 -0.3103
 3117SOL    HW120987   0.715   1.869   7.567 -1.0326 -0.3617 -0.8661
 3117SOL    HW220988   0.799   1.947   7.467 -0.0643  0.5451  1.5465
 3118SOL     OW20989   0.834   0.944   1.775  0.0684 -0.1586  0.3335
 3118SOL    HW120990   0.894   0.878   1.808 -0.5693  0.4945  2.7653
 3118SOL    HW220991   0.895   1.014   1.798 -1.0185  0.8283  0.2027
 3119SOL     OW20992   4.706   1.224   6.085  0.7092  0.2404 -0.5591
 3119SOL    HW120993   4.663   1.305   6.111  1.1622 -0.5335  2.5525
 3119SOL    HW220994   4.714   1.250   5.993 -1.7615 -0.9867 -1.1341
 3120SOL     OW20995   0.893   3.994   6.290 -0.4776 -0.0627 -0.0056
 3120SOL    HW120996   0.965   3.975   6.351  0.4792  2.3756 -0.3572
 3120SOL    HW220997   0.835   4.040   6.351  1.3982  0.7889  1.1644
 3121SOL     OW20998   0.419   2.867   2.124  0.6145 -0.1025  0.2736
 3121SOL    HW120999   0.359   2.937   2.098  1.2632  0.8187  1.2646
 3121SOL    HW221000   0.483   2.913   2.178 -0.2058 -1.2137  2.2282
 3122SOL     OW21001   3.104   3.966   2.853 -0.5713  0.4881  0.0757
 3122SOL    HW121002   3.012   3.989   2.843 -0.5828 -0.2148 -1.4580
 3122SOL    HW221003   3.114   3.954   2.948  1.5305 -0.2240 -0.2397
 3123SOL     OW21004   3.367   0.622   8.353 -0.0599 -0.5796  0.3586
 3123SOL    HW121005   3.306   0.652   8.421  0.2902  1.1888 -0.0926
 3123SOL    HW221006   3.444   0.614   8.409  0.0112 -0.3346  0.2978
 3124SOL     OW21007   2.709   0.491   9.346 -0.0783 -0.2530  0.0715
 3124SOL    HW121008   2.771   0.470   9.416 -2.0587  1.7139  2.4274
 3124SOL    HW221009   2.771   0.485   9.274 -0.7919  1.1126 -0.6622
 3125SOL     OW21010   1.235   4.684   8.376  0.0184  0.2051  0.2803
 3125SOL    HW121011   1.183   4.612   8.413 -0.5444 -0.7609 -2.3934
 3125SOL    HW221012   1.208   0.029   8.418 -2.4468 -0.3916 -0.1151
 3126SOL     OW21013   2.191   1.930   5.597  0.4778  0.0678 -0.1569
 3126SOL    HW121014   2.263   1.921   5.534  0.7812 -1.8330  0.4510
 3126SOL    HW221015   2.228   1.870   5.661  0.6371 -0.1766 -0.4750
 3127SOL     OW21016   3.515   0.367   9.815  0.0374 -0.4815  0.2804
 3127SOL    HW121017   3.487   0.288   9.860  0.0203  0.9233  2.7335
 3127SOL    HW221018   3.475   0.433   9.873 -0.3774  0.1543 -0.7290
 3128SOL     OW21019   2.767   3.120   7.274  0.5821 -0.1700  0.3699
 3128SOL    HW121020   2.719   3.137   7.193 -0.2068 -0.6309  0.7423
 3128SOL    HW221021   2.786   3.207   7.310 -2.2687  0.7019 -0.2167
 3129SOL     OW21022   0.274   4.119  15.296 -0.0533  0.2803  0.0084
 3129SOL    HW121023   0.343   4.133  15.361 -1.3547 -1.7575  1.8321
 3129SOL    HW221024   0.194   4.126  15.348 -1.3110  1.3492 -2.0916
 3130SOL     OW21025   1.683   3.054  12.102 -0.4198  0.0562  0.1138
 3130SOL    HW121026   1.660   3.110  12.027 -1.0867  0.6016  0.7247
 3130SOL    HW221027   1.601   3.007  12.118 -0.5217  0.6472  1.3052
 3131SOL     OW21028   0.747   4.545   5.921 -0.3508 -0.1742 -0.4309
 3131SOL    HW121029   0.758   4.575   6.011  0.3497 -0.4814 -0.4185
 3131SOL    HW221030   0.823   4.490   5.906  1.3487  1.4571  2.3922
 3132SOL     OW21031   3.133   0.797   2.365  0.5613 -0.4546 -0.2594
 3132SOL    HW121032   3.187   0.844   2.301 -0.8158  1.1878 -0.2165
 3132SOL    HW221033   3.126   0.860   2.436 -0.7199  2.0327 -2.5713
 3133SOL     OW21034   0.591   3.332   3.401  0.2729 -0.0778 -0.0247
 3133SOL    HW121035   0.548   3.363   3.322  0.7018  1.5827  0.3926
 3133SOL    HW221036   0.582   3.240   3.378  2.2069  0.0514 -1.3308
 3134SOL     OW21037   1.530   0.621  11.367  0.2864 -0.1139  0.4655
 3134SOL    HW121038   1.612   0.601  11.414  1.9681 -0.1849 -2.5355
 3134SOL    HW221039   1.516   0.709  11.402  0.3447  0.6411 -1.4343
 3135SOL     OW21040   4.595   1.218  12.399 -0.1695 -0.3853 -0.0382
 3135SOL    HW121041   4.672   1.243  12.347  1.4492 -1.1484  1.9938
 3135SOL    HW221042   4.622   1.141  12.448  0.9369  0.1348  0.1726
 3136SOL     OW21043   2.955   0.001   9.335 -0.9798 -0.3552  0.7299
 3136SOL    HW121044   2.888   0.060   9.301 -0.6630  1.4021  3.1666
 3136SOL    HW221045   3.040   0.044   9.324 -2.2733  1.9313 -0.1233
 3137SOL     OW21046   1.558   1.665  15.015 -0.1827 -0.0077  0.3989
 3137SOL    HW121047   1.492   1.606  14.981 -3.4086  1.7409  3.5807
 3137SOL    HW221048   1.577   1.629  15.102 -2.6289  3.3211  2.3495
 3138SOL     OW21049   1.479   4.571   2.120 -0.1093 -0.0161  0.2825
 3138SOL    HW121050   1.480   4.566   2.025  1.3968 -1.0613  0.3418
 3138SOL    HW221051   1.531   4.651   2.127 -1.9336  1.3483 -1.9624
 3139SOL     OW21052   2.931   4.603   7.793  0.3984  0.7682 -0.4995
 3139SOL    HW121053   2.948   4.693   7.821  0.9124 -0.1162  1.9955
 3139SOL    HW221054   2.913   4.558   7.876  0.4910  2.0034  0.1894
 3140SOL     OW21055   3.003   3.022   7.066 -0.5142  0.4956 -0.2064
 3140SOL    HW121056   2.948   2.948   7.092 -2.0943  1.2570 -1.3699
 3140SOL    HW221057   2.941   3.084   7.028 -1.6100  0.3325  1.3091
 3141SOL     OW21058   0.507   0.749   2.516  0.3956  0.1316  0.8210
 3141SOL    HW121059   0.575   0.812   2.491  1.4745 -0.6704  1.7931
 3141SOL    HW221060   0.564   0.676   2.539 -1.0171 -0.9939  0.6956
 3142SOL     OW21061   2.576   3.416   9.341  0.2075 -0.4299 -0.6909
 3142SOL    HW121062   2.550   3.410   9.433  1.3517  0.6325 -0.2813
 3142SOL    HW221063   2.670   3.401   9.351  0.0091 -0.7300  0.7180
 3143SOL     OW21064   2.916   4.687  14.088  0.1577 -0.0092  0.5759
 3143SOL    HW121065   2.825   4.692  14.059  0.1049 -0.3589  0.6773
 3143SOL    HW221066   2.914   4.592  14.104 -0.5550  0.0142  0.6127
 3144SOL     OW21067   2.450   3.094  16.252  0.0574 -0.3484  0.0691
 3144SOL    HW121068   2.464   3.176  16.300  0.2163  0.0297 -0.6202
 3144SOL    HW221069   2.406   3.126  16.174  0.4842  1.8771  0.7458
 3145SOL     OW21070   4.568   1.262   4.851 -1.2764  0.0685  0.1272
 3145SOL    HW121071   4.489   1.316   4.853 -0.9798  0.5511 -1.1712
 3145SOL    HW221072   4.576   1.249   4.756 -0.0733  0.3589  0.1860
 3146SOL     OW21073   0.971   4.123   6.569  0.1071 -0.2696  0.1618
 3146SOL    HW121074   0.907   4.181   6.528  1.2688  0.4426 -0.6331
 3146SOL    HW221075   0.992   4.173   6.648 -3.8368  0.9419  0.4261
 3147SOL     OW21076   1.140   2.516  15.480 -0.5777  0.3335  0.2640
 3147SOL    HW121077   1.122   2.422  15.492 -2.2290  0.8903  2.0925
 3147SOL    HW221078   1.164   2.528  15.389  1.3710  0.2590  0.7777
 3148SOL     OW21079   3.305   0.931   2.104 -0.0517  0.4671 -0.4337
 3148SOL    HW121080   3.343   1.004   2.054 -0.4675  0.7188 -0.3806
 3148SOL    HW221081   3.357   0.938   2.184  1.2181  0.5246 -1.2537
 3149SOL     OW21082   4.400   0.921   1.143 -0.6607 -0.4161 -0.3571
 3149SOL    HW121083   4.323   0.894   1.093 -2.1477  2.8190  0.2105
 3149SOL    HW221084   4.371   0.907   1.233  1.9774  0.2188  0.5706
 3150SOL     OW21085   1.032   0.037   4.185  0.2633  0.4057  0.6063
 3150SOL    HW121086   1.042   0.131   4.201 -0.8159  0.0601  3.3116
 3150SOL    HW221087   1.112   4.734   4.222  0.7681 -0.0127 -0.9172
 3151SOL     OW21088   0.032   4.311   7.054  0.6852  0.2279  0.0631
 3151SOL    HW121089   4.711   4.265   6.993 -0.0163 -2.1062  2.5358
 3151SOL    HW221090   4.706   4.378   7.083 -0.3234 -0.4783 -0.4852
 3152SOL     OW21091   2.132   2.258   7.446 -0.2124 -0.4001  0.0814
 3152SOL    HW121092   2.181   2.339   7.461 -1.5588  0.5161 -0.3776
 3152SOL    HW221093   2.042   2.290   7.455  0.3813  1.3474 -0.1614
 3153SOL     OW21094   2.642   1.123  15.512 -0.2059 -0.0772 -0.5642
 3153SOL    HW121095   2.561   1.085  15.480 -0.5813  0.0105  0.2778
 3153SOL    HW221096   2.619   1.215  15.525 -0.4891 -0.4813  1.9132
 3154SOL     OW21097   0.458   0.473   4.997  0.2051  0.4381  0.1019
 3154SOL    HW121098   0.404   0.548   4.973 -0.1179  1.1127  2.9206
 3154SOL    HW221099   0.447   0.425   4.915 -0.5251  0.1487  0.3721
 3155SOL     OW21100   3.638   0.133   7.525  0.2844 -0.0756  0.2122
 3155SOL    HW121101   3.694   0.166   7.596  1.1358  2.2534 -1.5325
 3155SOL    HW221102   3.599   0.059   7.571  1.3852 -0.9974 -0.3265
 3156SOL     OW21103   3.818   2.074   1.519  0.1243  0.1106  0.5111
 3156SOL    HW121104   3.746   2.119   1.475 -1.4536 -1.3665  1.5235
 3156SOL    HW221105   3.788   2.084   1.610 -2.0418  2.3746 -0.4714
 3157SOL     OW21106   1.936   2.979   4.324 -0.6493 -0.1754 -0.2501
 3157SOL    HW121107   1.922   2.894   4.366  1.6771 -1.0286 -1.1729
 3157SOL    HW221108   1.887   3.037   4.381 -2.1484 -1.9645  0.2994
 3158SOL     OW21109   0.567   1.229   3.376 -0.2973  0.0613  0.5091
 3158SOL    HW121110   0.632   1.296   3.396 -0.0618  0.0500 -0.2295
 3158SOL    HW221111   0.494   1.275   3.417  0.5534  3.0254 -1.3545
 3159SOL     OW21112   4.293   3.079   8.887 -0.0046 -0.1070  0.6332
 3159SOL    HW121113   4.338   3.126   8.956 -1.1968 -1.1884  2.1351
 3159SOL    HW221114   4.311   2.987   8.906  0.0077  0.1774  1.9488
 3160SOL     OW21115   3.842   2.364   3.566 -0.3974  0.4394 -0.0840
 3160SOL    HW121116   3.849   2.376   3.661  0.1719  0.2754 -0.1064
 3160SOL    HW221117   3.800   2.278   3.564 -3.4969  2.0355 -3.3549
 3161SOL     OW21118   3.278   2.798   4.131 -0.3066  0.1175  0.2163
 3161SOL    HW121119   3.188   2.831   4.132 -0.2089  0.4278 -1.6590
 3161SOL    HW221120   3.282   2.774   4.039  1.6774  0.8156  0.1104
 3162SOL     OW21121   1.266   4.334   6.938 -0.1326 -0.1270  0.6094
 3162SOL    HW121122   1.225   4.420   6.947  2.8837  1.5560 -1.7228
 3162SOL    HW221123   1.293   4.337   6.846 -1.3162  0.8098  0.2887
 3163SOL     OW21124   0.135   3.960  13.317  0.4135 -0.1667  1.0667
 3163SOL    HW121125   0.065   3.924  13.371  1.3685 -0.2852  2.2444
 3163SOL    HW221126   0.173   4.020  13.382 -0.4276  0.7240  0.7140
 3164SOL     OW21127   1.999   4.634   8.074  0.0984 -0.3792  0.2198
 3164SOL    HW121128   1.930   4.638   8.008 -0.0883  1.1074  0.4978
 3164SOL    HW221129   2.076   4.673   8.033  0.1252  0.2388  0.8652
 3165SOL     OW21130   0.728   3.578   5.934  0.5572 -0.3060  0.4722
 3165SOL    HW121131   0.741   3.620   6.019 -1.5836  1.5314 -0.0900
 3165SOL    HW221132   0.725   3.484   5.950  0.3352 -0.0093  2.1304
 3166SOL     OW21133   3.019   0.625   1.159 -0.6655 -0.4406 -0.0464
 3166SOL    HW121134   3.048   0.539   1.191  0.1147  0.9559  2.9914
 3166SOL    HW221135   2.926   0.622   1.180 -0.6697  1.6041  0.1765
 3167SOL     OW21136   0.087   1.477   1.817  0.4763  0.1099 -0.5628
 3167SOL    HW121137   0.176   1.477   1.854  0.7011 -1.2404 -1.0892
 3167SOL    HW221138   0.091   1.566   1.782 -0.1440  0.1322 -0.5726
 3168SOL     OW21139   4.566   0.364   6.945 -0.1255 -0.3238 -0.0417
 3168SOL    HW121140   4.634   0.310   6.904  0.6702  1.3652 -0.9295
 3168SOL    HW221141   4.582   0.348   7.038 -0.2630 -1.0357 -0.1380
 3169SOL     OW21142   3.206   3.650   7.055 -0.6406 -0.1138 -0.0762
 3169SOL    HW121143   3.205   3.596   7.134  1.1463 -1.8161 -1.1993
 3169SOL    HW221144   3.146   3.719   7.083  0.2527  0.3422  0.7058
 3170SOL     OW21145   0.516   4.673   0.175 -0.1752 -0.8066  0.2460
 3170SOL    HW121146   0.501   0.026   0.205 -3.0975 -1.5059  0.8118
 3170SOL    HW221147   0.438   4.654   0.123 -0.1554  1.8660 -0.7677
 3171SOL     OW21148   2.199   1.315   7.509  0.0880  0.4345 -0.6240
 3171SOL    HW121149   2.105   1.330   7.524  0.2262  2.3617 -1.6053
 3171SOL    HW221150   2.220   1.279   7.595  2.1861  2.6104 -0.2288
 3172SOL     OW21151   4.094   1.265   1.723  0.0552 -0.0949  0.2804
 3172SOL    HW121152   4.044   1.341   1.753 -1.8308 -1.1278 -0.2272
 3172SOL    HW221153   4.045   1.227   1.650 -1.3185 -0.4914  1.4021
 3173SOL     OW21154   0.895   2.997  16.030 -0.2639  0.3105  0.0631
 3173SOL    HW121155   0.877   2.929  16.094  0.9243 -0.9839 -0.9696
 3173SOL    HW221156   0.906   2.949  15.948 -1.7993 -0.7639  0.4946
 3174SOL     OW21157   2.636   3.558   4.120 -0.6672 -0.3339 -0.4400
 3174SOL    HW121158   2.573   3.627   4.102 -1.8791 -1.3889 -0.2419
 3174SOL    HW221159   2.592   3.485   4.077 -1.0865  0.0833 -0.7157
 3175SOL     OW21160   3.456   3.065   4.424  0.0070 -0.1678  0.1159
 3175SOL    HW121161   3.474   3.120   4.500  1.7656 -1.5416  0.7117
 3175SOL    HW221162   3.454   3.136   4.360 -0.2023  0.5283  0.9019
 3176SOL     OW21163   3.783   3.469   5.249  0.3246 -0.2921  0.7120
 3176SOL    HW121164   3.834   3.417   5.311 -0.6513 -2.2014 -0.0838
 3176SOL    HW221165   3.849   3.490   5.184  0.6309 -1.8930  0.5133
 3177SOL     OW21166   0.703   1.651   3.289  0.4547  0.0367 -0.1892
 3177SOL    HW121167   0.619   1.692   3.313  0.7606  1.3378 -1.3258
 3177SOL    HW221168   0.753   1.674   3.367 -2.5418  2.6724  0.9770
 3178SOL     OW21169   0.219   1.652  10.577  0.2197 -0.2027  0.2280
 3178SOL    HW121170   0.292   1.597  10.548  0.3695  0.3685 -0.4803
 3178SOL    HW221171   0.205   1.627  10.668  0.8113 -3.2021 -0.4911
 3179SOL     OW21172   2.124   1.328   6.585 -1.2786 -0.5460 -0.2829
 3179SOL    HW121173   2.105   1.235   6.574  1.4971 -1.4780  2.7283
 3179SOL    HW221174   2.072   1.375   6.520  1.0561  0.4268 -1.4408
 3180SOL     OW21175   3.853   3.579   2.788  0.4235 -0.4252  0.1869
 3180SOL    HW121176   3.923   3.565   2.723 -1.1016 -0.2076 -1.5032
 3180SOL    HW221177   3.911   3.609   2.858 -0.5136  1.1445  0.2628
 3181SOL     OW21178   2.830   3.926   4.111 -0.1740 -0.4766  0.0694
 3181SOL    HW121179   2.799   3.958   4.196  1.1187 -1.4336  0.9053
 3181SOL    HW221180   2.768   3.967   4.051 -0.5220 -5.7967 -3.2279
 3182SOL     OW21181   1.806   2.522   8.561 -0.2669 -0.2174  0.7500
 3182SOL    HW121182   1.747   2.535   8.635  0.1979 -1.0095  1.2557
 3182SOL    HW221183   1.814   2.613   8.530  1.8054  0.3827  3.0348
 3183SOL     OW21184   1.265   2.852  16.117 -0.1163  0.1398  0.3861
 3183SOL    HW121185   1.252   2.941  16.150 -0.2260 -0.1921  1.2626
 3183SOL    HW221186   1.358   2.856  16.096  0.0582 -2.6062  0.6761
 3184SOL     OW21187   0.961   1.551   8.490  0.0775 -0.4206 -0.1370
 3184SOL    HW121188   1.029   1.514   8.547  1.4833  2.3750  0.0033
 3184SOL    HW221189   1.002   1.534   8.405 -1.3953 -0.5248 -0.8184
 3185SOL     OW21190   2.428   2.180   1.897  0.0223 -0.9608  0.6184
 3185SOL    HW121191   2.518   2.194   1.868  0.1864 -2.2163  0.5306
 3185SOL    HW221192   2.401   2.272   1.898  0.5407 -0.7894 -0.3409
 3186SOL     OW21193   3.726   2.051   4.794  0.5352  0.0886  0.3153
 3186SOL    HW121194   3.736   2.146   4.792 -0.2383  0.1708  0.0407
 3186SOL    HW221195   3.676   2.039   4.875 -0.6700 -2.0478 -0.7294
 3187SOL     OW21196   2.430   4.204   7.395 -0.0418  0.0436  0.1141
 3187SOL    HW121197   2.489   4.278   7.410 -0.5740  0.4154  0.3366
 3187SOL    HW221198   2.420   4.163   7.481  0.2225  2.1094  1.1362
 3188SOL     OW21199   4.217   3.432  16.039  0.3607 -0.2170 -0.4217
 3188SOL    HW121200   4.143   3.455  16.095  1.9434  2.4627  0.5736
 3188SOL    HW221201   4.290   3.464  16.093 -0.1834  0.7582 -0.2606
 3189SOL     OW21202   2.912   3.381   4.866 -0.3509  0.5255 -0.1384
 3189SOL    HW121203   2.979   3.314   4.881 -1.7347 -0.9014 -0.3188
 3189SOL    HW221204   2.863   3.388   4.947 -0.6568  0.9932 -0.3674
 3190SOL     OW21205   3.396   3.850   0.584 -0.0344  0.2284 -0.6834
 3190SOL    HW121206   3.411   3.939   0.616 -1.0172  0.2643 -0.3375
 3190SOL    HW221207   3.487   3.820   0.572  0.4714  2.2831 -1.9144
 3191SOL     OW21208   1.250   2.415   9.653 -0.5835  0.2528  1.0191
 3191SOL    HW121209   1.315   2.486   9.657  1.8030 -1.8640 -0.1519
 3191SOL    HW221210   1.258   2.381   9.565 -1.6169  0.0247  1.0135
 3192SOL     OW21211   4.244   2.671   7.628  0.1106  0.0572 -0.7146
 3192SOL    HW121212   4.204   2.731   7.691 -1.2916 -0.8636 -0.7380
 3192SOL    HW221213   4.304   2.726   7.577  1.9085 -0.2927  1.0252
 3193SOL     OW21214   0.339   0.190  16.280  0.0309  0.2932  0.8236
 3193SOL    HW121215   0.415   0.210  16.335  0.4606  0.6998  0.0720
 3193SOL    HW221216   0.358   0.106  16.239 -0.0095 -0.7007  2.8143
 3194SOL     OW21217   3.277   2.207   1.467 -0.0501  0.2312 -0.3051
 3194SOL    HW121218   3.312   2.137   1.412 -2.3299 -0.9414 -0.2434
 3194SOL    HW221219   3.186   2.196   1.440  0.7870 -1.4559 -2.4230
 3195SOL     OW21220   2.073   0.542  15.751 -0.3998 -0.3645 -0.0558
 3195SOL    HW121221   2.050   0.592  15.830  2.1710  0.0119  0.4482
 3195SOL    HW221222   2.089   0.614  15.690 -1.8792  0.1180  0.1102
 3196SOL     OW21223   0.778   3.934   7.572  0.1715  0.2005 -0.5268
 3196SOL    HW121224   0.814   3.894   7.493  0.7412  1.0280 -0.6895
 3196SOL    HW221225   0.851   3.987   7.605  0.3983 -0.5432  0.1575
 3197SOL     OW21226   2.208   0.028   9.764  0.7666  0.2894  0.0354
 3197SOL    HW121227   2.255   0.104   9.731 -0.6177  0.0731 -2.4753
 3197SOL    HW221228   2.117   0.059   9.763  0.3335 -0.9613  0.4296
 3198SOL     OW21229   2.536   4.454   7.428 -0.1483 -0.4663  0.0828
 3198SOL    HW121230   2.446   4.480   7.446  0.1646  0.3683  0.4732
 3198SOL    HW221231   2.583   4.528   7.467  0.5380 -0.9988  0.2699
 3199SOL     OW21232   1.225   0.756   7.304 -0.2708  0.0008  0.7835
 3199SOL    HW121233   1.246   0.696   7.233  0.6218 -1.5745  2.3877
 3199SOL    HW221234   1.182   0.691   7.359 -0.4855 -0.9688 -0.5259
 3200SOL     OW21235   4.054   2.714   2.910  0.4085  0.0562  0.6567
 3200SOL    HW121236   4.051   2.677   2.999  0.7406  0.2357  0.7468
 3200SOL    HW221237   3.970   2.758   2.903  0.5275  0.3500  1.0774
 3201SOL     OW21238   0.377   3.453   3.937  0.1698  0.2010 -0.7089
 3201SOL    HW121239   0.363   3.499   3.855 -0.3782  1.7710  0.2687
 3201SOL    HW221240   0.457   3.405   3.915  0.6628 -0.1797  1.8538
 3202SOL     OW21241   0.124   1.216  17.070  0.0552  0.6168 -0.0900
 3202SOL    HW121242   0.200   1.271  17.087 -0.8033  2.0361 -0.8165
 3202SOL    HW221243   0.147   1.127  17.099 -0.1151  1.2208  1.9028
 3203SOL     OW21244   3.275   2.624   5.526 -0.9842  0.3144  0.2099
 3203SOL    HW121245   3.277   2.551   5.587 -0.3723 -0.2552 -0.4858
 3203SOL    HW221246   3.365   2.625   5.494 -0.6887  0.7320  1.0630
 3204SOL     OW21247   0.346   2.516   3.033  0.5705  0.8043 -0.0025
 3204SOL    HW121248   0.431   2.533   3.074  0.1866 -0.0429  1.1466
 3204SOL    HW221249   0.311   2.602   3.012 -0.3981  0.0057 -1.6505
 3205SOL     OW21250   0.609   0.271   2.362  1.0129 -0.1682 -0.5242
 3205SOL    HW121251   0.629   0.198   2.420  2.1446  0.6748  0.1564
 3205SOL    HW221252   0.528   0.302   2.401  0.4045 -0.0531 -1.8883
 3206SOL     OW21253   4.581   4.072  11.242  0.4732 -0.4290  0.6167
 3206SOL    HW121254   4.649   4.028  11.190 -0.4809  1.2049 -2.0170
 3206SOL    HW221255   4.606   4.164  11.245 -0.6272 -0.0847 -0.9192
 3207SOL     OW21256   3.079   0.683   6.205  0.3486  0.1580  0.3220
 3207SOL    HW121257   3.153   0.739   6.229  0.8224  0.8484 -2.6914
 3207SOL    HW221258   3.121   0.601   6.228 -1.3298 -0.6042  0.6616
 3208SOL     OW21259   1.541   3.762   4.456  0.1428  0.4193 -0.1766
 3208SOL    HW121260   1.490   3.722   4.526  0.0074 -0.8018 -0.9654
 3208SOL    HW221261   1.630   3.765   4.492  0.1574 -0.3510 -0.1490
 3209SOL     OW21262   2.055   1.245   5.232 -0.6084  0.2926 -0.2382
 3209SOL    HW121263   2.146   1.269   5.251 -1.0890  1.2350  0.8602
 3209SOL    HW221264   2.038   1.192   5.310 -1.0871 -1.0220 -1.2438
 3210SOL     OW21265   0.714   3.086   6.434  0.2567 -0.7133 -0.2676
 3210SOL    HW121266   0.735   3.174   6.403 -2.0289 -0.2816 -0.5912
 3210SOL    HW221267   0.802   3.054   6.454  1.0030  1.5896  0.2269
 3211SOL     OW21268   1.977   1.218   4.986 -0.4145 -0.0818 -0.0917
 3211SOL    HW121269   1.885   1.193   4.991  0.0722 -1.5639  1.3203
 3211SOL    HW221270   1.996   1.226   5.080  2.6149  1.0748 -0.8025
 3212SOL     OW21271   0.963   3.449   8.653 -1.3317  0.1897  0.3589
 3212SOL    HW121272   0.983   3.449   8.746  2.0603  0.6436 -0.3907
 3212SOL    HW221273   0.923   3.536   8.641 -1.4542  0.2276  1.0576
 3213SOL     OW21274   2.806   0.265   1.583  0.1702  0.2523  0.3344
 3213SOL    HW121275   2.721   0.309   1.581  1.2098  2.2450  0.2502
 3213SOL    HW221276   2.776   0.178   1.612 -2.0513  0.6625 -0.6804
 3214SOL     OW21277   3.485   4.487   6.727 -0.0079 -0.4373 -0.2925
 3214SOL    HW121278   3.536   4.418   6.770 -1.3464 -1.7507 -0.8044
 3214SOL    HW221279   3.487   4.449   6.639 -1.1128 -1.7026  0.2196
 3215SOL     OW21280   3.436   1.622   3.243  0.1184 -0.1614  0.1423
 3215SOL    HW121281   3.389   1.692   3.199  1.4735 -1.4410 -3.3926
 3215SOL    HW221282   3.403   1.557   3.181 -2.9707  0.5639  1.0524
 3216SOL     OW21283   3.577   0.660   7.726  0.2814  0.0842  0.2441
 3216SOL    HW121284   3.566   0.568   7.751  0.2335 -0.5300 -2.0257
 3216SOL    HW221285   3.500   0.690   7.678  1.0349  0.7309 -0.5557
 3217SOL     OW21286   2.466   4.463   3.616 -1.0655  0.4967 -0.6941
 3217SOL    HW121287   2.400   4.396   3.598 -0.3200 -0.6868  0.9293
 3217SOL    HW221288   2.406   4.507   3.676 -1.9399 -0.5118 -0.8254
 3218SOL     OW21289   0.958   2.211   1.214  0.0050 -0.7221 -0.6302
 3218SOL    HW121290   0.992   2.149   1.280  0.1796 -0.7451 -0.7415
 3218SOL    HW221291   0.920   2.277   1.271 -0.4395 -0.5860 -1.0900
 3219SOL     OW21292   4.445   3.495  14.047 -0.4435  0.5216  0.0078
 3219SOL    HW121293   4.382   3.476  13.977  0.1467 -2.6098  0.3089
 3219SOL    HW221294   4.425   3.435  14.119 -2.2401  2.0841  0.8164
 3220SOL     OW21295   3.955   3.059   8.023  0.3779 -0.5440  0.0411
 3220SOL    HW121296   3.976   3.021   8.109  1.7696 -0.7391 -0.3900
 3220SOL    HW221297   3.864   3.082   8.039  0.1284 -0.5825 -1.3504
 3221SOL     OW21298   4.475   0.940   7.746 -0.1393  0.1607  0.0592
 3221SOL    HW121299   4.569   0.933   7.763  0.3620 -0.3419 -2.8297
 3221SOL    HW221300   4.477   0.993   7.666 -0.7470 -1.5116 -1.0806
 3222SOL     OW21301   3.644   4.136   0.298 -0.0923 -0.0419  0.2969
 3222SOL    HW121302   3.651   4.195   0.223 -0.7788  1.0371  1.0743
 3222SOL    HW221303   3.586   4.070   0.260  1.0244 -0.5167 -0.5634
 3223SOL     OW21304   2.828   1.717   4.232 -0.0227  0.1974  0.1318
 3223SOL    HW121305   2.898   1.776   4.203  0.1629  0.6314  1.4727
 3223SOL    HW221306   2.774   1.712   4.153  1.6037 -1.3693 -0.8743
 3224SOL     OW21307   1.814   4.219   7.003  0.1901  0.3243  0.3286
 3224SOL    HW121308   1.745   4.202   6.939 -0.8471 -1.1382  1.8247
 3224SOL    HW221309   1.759   4.257   7.071  0.4557  1.2196  0.0345
 3225SOL     OW21310   1.023   4.126  17.740  0.2386 -0.1177  0.2093
 3225SOL    HW121311   0.956   4.194  17.739 -0.2839 -0.6379  1.2919
 3225SOL    HW221312   0.984   4.064   0.058  0.9391 -0.5551  0.2228
 3226SOL     OW21313   2.327   4.177  13.279 -0.0489 -0.1877  0.5941
 3226SOL    HW121314   2.313   4.270  13.258  0.4125  0.3193  2.5376
 3226SOL    HW221315   2.400   4.178  13.341 -1.0344  0.8399  1.7491
 3227SOL     OW21316   0.222   4.145  14.018  0.3162  0.0901 -0.4074
 3227SOL    HW121317   0.313   4.116  14.017  0.4343  0.2940  2.4184
 3227SOL    HW221318   0.170   4.083  13.968  0.3111 -0.4645  0.2871
 3228SOL     OW21319   4.095   0.228   3.291  0.4268 -0.3633  0.0332
 3228SOL    HW121320   4.025   0.208   3.229  0.5783  0.1728 -0.3116
 3228SOL    HW221321   4.104   0.144   3.336 -0.9409 -0.2968  0.4425
 3229SOL     OW21322   4.448   2.912  14.893 -0.0026  0.0604 -0.1168
 3229SOL    HW121323   4.532   2.932  14.934 -0.1971 -0.1454  0.3936
 3229SOL    HW221324   4.405   2.996  14.906  1.2974  0.6253  0.5516
 3230SOL     OW21325   4.026   1.276   2.721 -0.4894  0.6770  0.1127
 3230SOL    HW121326   3.960   1.240   2.662 -0.0829  1.1530 -0.6424
 3230SOL    HW221327   4.019   1.370   2.701  0.0199  1.1351  2.0720
 3231SOL     OW21328   0.088   1.572   7.254  0.0608 -0.4913  0.4714
 3231SOL    HW121329   0.069   1.592   7.346  0.3690 -1.1148  0.6747
 3231SOL    HW221330   0.144   1.644   7.224 -0.3304 -0.8018 -0.9987
 3232SOL     OW21331   1.050   1.584   2.156  0.2367  0.1033  0.0839
 3232SOL    HW121332   0.974   1.607   2.210  1.6280  2.2001  1.1239
 3232SOL    HW221333   1.083   1.513   2.212  0.1104 -0.1520 -0.1641
 3233SOL     OW21334   3.090   2.994  11.393  0.4142  0.4979 -0.0408
 3233SOL    HW121335   3.160   2.988  11.458  1.6976  0.5697 -1.4120
 3233SOL    HW221336   3.135   3.027  11.315  3.4658  0.2719  1.6322
 3234SOL     OW21337   4.523   2.725   0.483 -0.0671  0.1061 -0.2700
 3234SOL    HW121338   4.436   2.712   0.445 -0.1903  2.8915 -0.9099
 3234SOL    HW221339   4.529   2.819   0.473  0.4005  0.4914  3.5188
 3235SOL     OW21340   0.359   1.596  16.528  0.1380 -0.0044 -0.4717
 3235SOL    HW121341   0.395   1.596  16.439  1.8655 -1.4228  0.2350
 3235SOL    HW221342   0.267   1.580  16.507  0.4622 -1.5567 -0.6920
 3236SOL     OW21343   2.997   2.490  15.226 -0.4679 -0.1500  0.3738
 3236SOL    HW121344   2.903   2.503  15.212 -0.5545  0.7105  1.8668
 3236SOL    HW221345   2.996   2.454  15.315  3.4550 -0.9621  0.0861
 3237SOL     OW21346   3.912   0.702  10.392 -0.6899  0.0275  0.9349
 3237SOL    HW121347   3.949   0.622  10.428  0.8995 -0.2510 -1.3290
 3237SOL    HW221348   3.926   0.768  10.461  1.7765  0.0334  0.4387
 3238SOL     OW21349   0.009   0.552   8.489  0.7423 -0.4578  0.5513
 3238SOL    HW121350   4.654   0.570   8.512  1.3435  0.7212  1.9881
 3238SOL    HW221351   0.018   0.586   8.400 -0.3380  1.5910  1.2172
 3239SOL     OW21352   3.123   1.541   2.112 -0.1365 -0.2946  0.1274
 3239SOL    HW121353   3.074   1.620   2.088  0.3134 -0.3688 -1.0487
 3239SOL    HW221354   3.211   1.580   2.119 -0.6657  0.8673  0.3621
 3240SOL     OW21355   0.245   1.451   7.575 -0.2209  0.1383  0.3019
 3240SOL    HW121356   0.258   1.418   7.486  1.5454  0.3943  0.4709
 3240SOL    HW221357   0.176   1.515   7.559 -2.2328 -1.6076  2.0094
 3241SOL     OW21358   2.032   0.537   7.555 -0.2680  0.1053 -0.1894
 3241SOL    HW121359   2.056   0.467   7.616  1.2748  0.9393  0.1655
 3241SOL    HW221360   2.110   0.593   7.555  0.7626 -1.3046  1.0341
 3242SOL     OW21361   3.146   2.299   2.359  0.2030 -0.3242  0.2394
 3242SOL    HW121362   3.136   2.364   2.428  0.6726  0.3036 -0.2714
 3242SOL    HW221363   3.235   2.265   2.366  0.3904 -0.2736 -1.8137
 3243SOL     OW21364   0.113   3.843   3.874 -0.6083  0.7646 -0.3356
 3243SOL    HW121365   0.090   3.862   3.783  0.1711 -0.7707 -0.8411
 3243SOL    HW221366   0.204   3.813   3.871 -0.8446  0.1244 -1.1008
 3244SOL     OW21367   0.566   1.100   5.064  0.0524 -0.0793  0.4103
 3244SOL    HW121368   0.550   1.007   5.081 -1.6749  0.1050 -0.1586
 3244SOL    HW221369   0.513   1.136   5.135 -0.5101  0.6385 -0.3670
 3245SOL     OW21370   1.778   2.314   4.979 -0.2825 -0.3295 -0.0471
 3245SOL    HW121371   1.785   2.232   5.027 -1.5306  0.6319  1.7787
 3245SOL    HW221372   1.782   2.373   5.055 -0.4015 -2.8523  1.8992
 3246SOL     OW21373   3.023   0.782   3.027  0.2120 -0.0110  0.8008
 3246SOL    HW121374   3.046   0.761   2.936 -0.4801 -1.7415  1.0301
 3246SOL    HW221375   2.937   0.741   3.023 -1.1649  3.0024 -0.8669
 3247SOL     OW21376   2.240   1.435  13.804 -0.1962 -0.1842 -0.3992
 3247SOL    HW121377   2.180   1.383  13.858  0.8716  0.3616  1.3093
 3247SOL    HW221378   2.194   1.519  13.803  1.5577  0.7902  0.6103
 3248SOL     OW21379   0.545   3.819   1.665  0.0824  0.8895 -0.2538
 3248SOL    HW121380   0.639   3.804   1.675 -0.6032 -1.3169  3.0391
 3248SOL    HW221381   0.549   3.865   1.581  3.6643  1.2704  0.1093
 3249SOL     OW21382   2.767   2.034   4.319 -0.3435 -0.5573  0.1759
 3249SOL    HW121383   2.802   2.119   4.345 -0.8209 -0.4317  0.4090
 3249SOL    HW221384   2.824   2.016   4.244 -0.6987  0.1153 -0.2499
 3250SOL     OW21385   3.601   1.859  13.331 -0.4414 -0.3182 -0.1789
 3250SOL    HW121386   3.649   1.802  13.272 -2.4764 -1.6357 -0.5736
 3250SOL    HW221387   3.534   1.804  13.371 -1.0112  0.3627 -0.1808
 3251SOL     OW21388   4.679   1.328   1.114  0.0117 -0.8335  0.2103
 3251SOL    HW121389   4.659   1.415   1.080 -3.1172 -1.6485  0.0178
 3251SOL    HW221390   0.023   1.343   1.164  0.0250 -2.3730  0.6692
 3252SOL     OW21391   1.593   3.891   2.257 -0.1381 -0.2301 -0.0830
 3252SOL    HW121392   1.566   3.900   2.166  0.2827 -0.7512 -0.2602
 3252SOL    HW221393   1.658   3.961   2.267  0.5836 -0.8282 -0.6616
 3253SOL     OW21394   4.188   2.316   3.924  0.0574  0.2010 -0.0503
 3253SOL    HW121395   4.258   2.329   3.859  0.6561  1.2736  0.8039
 3253SOL    HW221396   4.158   2.226   3.915  1.6211 -0.2625 -0.6142
 3254SOL     OW21397   3.642   3.749   5.187 -0.5206 -0.3309 -0.2504
 3254SOL    HW121398   3.692   3.794   5.254  0.3866  1.3081 -2.0352
 3254SOL    HW221399   3.599   3.690   5.249 -0.5166  0.8950  0.9137
 3255SOL     OW21400   2.424   3.267  14.731  0.3055  0.1915  0.1603
 3255SOL    HW121401   2.492   3.228  14.675 -0.6827 -0.4093 -0.6103
 3255SOL    HW221402   2.475   3.324  14.790  0.8985 -0.0437 -0.1256
 3256SOL     OW21403   3.170   1.057  14.729 -1.2495 -0.5128  0.1359
 3256SOL    HW121404   3.099   1.121  14.719  0.8649  1.7689 -0.3500
 3256SOL    HW221405   3.235   1.123  14.755  0.9371 -2.5077 -0.3238
 3257SOL     OW21406   2.325   0.402   0.936 -0.8514 -0.5873  0.0865
 3257SOL    HW121407   2.360   0.473   0.882 -1.1966 -0.4548  0.0331
 3257SOL    HW221408   2.240   0.435   0.964 -1.0874 -1.1042 -0.0274
 3258SOL     OW21409   3.694   1.416  12.221  0.0836  0.1155 -0.5332
 3258SOL    HW121410   3.783   1.441  12.198  0.2243  1.7779  1.9165
 3258SOL    HW221411   3.694   1.322  12.199  0.7545 -0.4149  1.7511
 3259SOL     OW21412   2.066   1.918   3.970 -0.0991  0.1270  0.1952
 3259SOL    HW121413   2.109   1.896   3.888 -2.4538 -0.3502 -0.9113
 3259SOL    HW221414   2.005   1.845   3.982 -1.6012  1.3308 -0.1245
 3260SOL     OW21415   3.491   0.131  10.155 -0.1280  0.0505  0.2357
 3260SOL    HW121416   3.517   0.134  10.063 -0.9559  2.4750  0.0879
 3260SOL    HW221417   3.572   0.134  10.205 -0.7635 -0.8730  1.3348
 3261SOL     OW21418   1.714   2.117   8.032  0.0250 -0.2945  0.7651
 3261SOL    HW121419   1.785   2.112   8.095  1.5952  1.9628 -0.8388
 3261SOL    HW221420   1.718   2.209   8.005  0.0681 -0.5060  0.0412
 3262SOL     OW21421   2.706   0.971  15.924 -0.7711 -0.5259  0.0642
 3262SOL    HW121422   2.692   0.941  15.834  1.4982  2.1735 -1.1975
 3262SOL    HW221423   2.773   1.037  15.906 -0.7277 -0.8008 -0.7633
 3263SOL     OW21424   3.139   3.624   5.169 -0.0640  0.2809 -0.3535
 3263SOL    HW121425   3.072   3.662   5.112  1.7849  0.9363 -2.0687
 3263SOL    HW221426   3.075   3.599   5.236 -0.8529 -2.5125 -2.1518
 3264SOL     OW21427   4.144   3.317   7.036  0.1069 -0.2061 -0.1985
 3264SOL    HW121428   4.144   3.332   7.130  2.5165 -2.4141  0.1283
 3264SOL    HW221429   4.193   3.235   7.032  3.2359  1.6228  0.9392
 3265SOL     OW21430   2.390   1.918  10.798  0.0459  0.0703 -0.0831
 3265SOL    HW121431   2.403   1.927  10.704  0.2139 -0.6324 -0.1224
 3265SOL    HW221432   2.418   1.828  10.811 -3.0854 -0.6322  1.6990
 3266SOL     OW21433   0.669   0.503   0.725 -0.1224 -0.0636  0.4561
 3266SOL    HW121434   0.653   0.417   0.685  0.2677 -1.1228  2.5639
 3266SOL    HW221435   0.591   0.520   0.777  1.6748  0.5383  2.9803
 3267SOL     OW21436   3.347   2.579   2.154 -0.3407 -0.2650  0.1784
 3267SOL    HW121437   3.266   2.630   2.159 -0.6659 -0.8172  0.4545
 3267SOL    HW221438   3.369   2.606   2.065 -3.6196 -0.7414 -0.7662
 3268SOL     OW21439   2.763   0.693   5.147  0.3780 -0.3438 -0.4648
 3268SOL    HW121440   2.790   0.608   5.181  2.1228 -0.8212 -3.0838
 3268SOL    HW221441   2.682   0.710   5.196  1.2324 -0.6678  1.0341
 3269SOL     OW21442   1.651   3.209   7.294 -0.0007 -0.0894  0.7505
 3269SOL    HW121443   1.563   3.235   7.323 -0.4992  0.0815 -0.9403
 3269SOL    HW221444   1.699   3.267   7.353 -1.2122  1.5175  0.1681
 3270SOL     OW21445   2.013   3.827   4.683 -0.4807 -0.9029 -0.2400
 3270SOL    HW121446   2.058   3.880   4.618  1.7607 -2.5896 -0.0310
 3270SOL    HW221447   2.055   3.855   4.765 -0.2698  0.8772 -0.9582
 3271SOL     OW21448   0.313   1.076   4.849  0.2361 -0.3365 -0.5626
 3271SOL    HW121449   0.296   1.129   4.927  2.6531 -0.7054  0.2358
 3271SOL    HW221450   0.225   1.045   4.829  0.6754 -1.5694 -0.5719
 3272SOL     OW21451   3.409   1.859   5.418  0.0463  0.4446  0.4038
 3272SOL    HW121452   3.478   1.905   5.370  1.2193  0.0088  1.6730
 3272SOL    HW221453   3.341   1.852   5.351 -0.1013 -0.7142  0.6747
 3273SOL     OW21454   4.623   4.713   9.442 -0.4760  0.2706 -0.2599
 3273SOL    HW121455   4.645   0.069   9.428  0.4202  0.2373  0.9237
 3273SOL    HW221456   4.699   4.677   9.487 -0.4793  0.4002 -0.1502
 3274SOL     OW21457   3.968   1.856   0.929 -0.0013  0.0288 -0.4959
 3274SOL    HW121458   3.946   1.896   1.013  0.8417  0.5811 -0.5412
 3274SOL    HW221459   3.937   1.767   0.946 -0.8600  0.1887 -1.1917
 3275SOL     OW21460   0.088   2.779   4.900  0.7018  0.1774 -0.1743
 3275SOL    HW121461   0.078   2.861   4.852  2.0761  0.8940  0.7790
 3275SOL    HW221462   0.002   2.774   4.941  1.0704 -1.6555  0.3795
 3276SOL     OW21463   1.401   3.783  14.755 -0.0440  0.0882 -0.1789
 3276SOL    HW121464   1.459   3.790  14.831  0.6835  0.8002 -0.7943
 3276SOL    HW221465   1.353   3.701  14.765  1.8217 -0.8487  1.1471
 3277SOL     OW21466   0.609   3.540  17.430  0.2542 -0.3864 -0.0874
 3277SOL    HW121467   0.556   3.506  17.359  0.0395 -1.2821  0.5048
 3277SOL    HW221468   0.539   3.553  17.494 -1.4178 -2.5925 -1.4850
 3278SOL     OW21469   1.913   3.057  15.473 -0.2038 -0.2015 -0.1486
 3278SOL    HW121470   1.952   3.053  15.560 -2.0457  0.9269  0.7246
 3278SOL    HW221471   1.911   3.153  15.464  0.8710 -0.0618  1.1821
 3279SOL     OW21472   3.414   0.163  12.926 -0.0931  0.3428 -0.1325
 3279SOL    HW121473   3.405   0.079  12.881  0.4469 -0.4956  1.3390
 3279SOL    HW221474   3.361   0.135  13.001 -2.9456  0.5014 -2.1062
 3280SOL     OW21475   1.592   0.162   0.422 -0.5760  0.0523 -0.2544
 3280SOL    HW121476   1.681   0.128   0.418 -0.4675  0.1519  1.2871
 3280SOL    HW221477   1.573   0.164   0.516  0.9863  1.9548  0.0305
 3281SOL     OW21478   4.472   4.630   3.565 -0.2781 -0.5870  0.4503
 3281SOL    HW121479   4.514   4.609   3.482  1.7913 -0.2306  1.4099
 3281SOL    HW221480   4.550   4.633   3.621 -1.1506  1.4962  1.5478
 3282SOL     OW21481   0.267   1.368   6.253 -0.3102 -0.0593  0.0767
 3282SOL    HW121482   0.361   1.366   6.269 -0.3263 -3.2256 -0.2953
 3282SOL    HW221483   0.251   1.453   6.212 -1.6442 -0.1650  0.3481
 3283SOL     OW21484   1.746   3.589   7.616 -0.1430 -0.3089  0.1658
 3283SOL    HW121485   1.759   3.542   7.698  0.8326  1.2675  0.9230
 3283SOL    HW221486   1.797   3.667   7.636  0.0724 -0.4016 -0.0159
 3284SOL     OW21487   3.088   0.508  10.579 -0.0796  0.5031 -0.0767
 3284SOL    HW121488   3.177   0.515  10.614  0.1951  0.0273 -0.6793
 3284SOL    HW221489   3.114   0.491  10.488  0.1228 -0.9502  0.2641
 3285SOL     OW21490   2.597   3.187   5.574  0.4580 -0.2672  0.6032
 3285SOL    HW121491   2.618   3.095   5.592 -0.5567 -0.4343  0.9446
 3285SOL    HW221492   2.674   3.233   5.609  1.0930 -0.7826 -0.1062
 3286SOL     OW21493   0.350   2.742   8.063  0.4672 -0.4067 -0.4977
 3286SOL    HW121494   0.288   2.709   7.998 -1.4732  0.7623  0.7790
 3286SOL    HW221495   0.422   2.681   8.046  2.4419  1.3090  1.7164
 3287SOL     OW21496   3.012   3.636  10.585  0.3339  0.1867  0.0004
 3287SOL    HW121497   3.103   3.610  10.573 -0.1984 -1.7782  0.2225
 3287SOL    HW221498   3.021   3.713  10.641  0.8146 -1.4987  2.2388
 3288SOL     OW21499   1.202   2.838   6.936  0.1647  0.3487 -0.6235
 3288SOL    HW121500   1.183   2.751   6.901  0.3200  0.2512 -0.4681
 3288SOL    HW221501   1.152   2.842   7.018 -1.7010 -2.3486 -1.6291
 3289SOL     OW21502   1.524   2.261   2.516 -0.2431 -0.6929  0.0444
 3289SOL    HW121503   1.577   2.340   2.522 -0.8461 -0.2538 -0.3894
 3289SOL    HW221504   1.579   2.213   2.453  1.3665  3.6891 -1.8852
 3290SOL     OW21505   1.987   1.913   2.090 -0.3946  0.3988  0.4118
 3290SOL    HW121506   2.018   1.906   2.181  1.9236  0.0202 -0.4042
 3290SOL    HW221507   1.898   1.883   2.108  0.2825 -0.9358  1.5870
 3291SOL     OW21508   0.112   0.081  16.473  0.0323  0.5020 -0.3503
 3291SOL    HW121509   0.036   0.120  16.429  0.1518  1.8656  0.6358
 3291SOL    HW221510   0.188   0.122  16.432 -0.0092 -0.3633 -1.2632
 3292SOL     OW21511   0.872   0.322   7.223 -0.1331  0.5569 -0.0253
 3292SOL    HW121512   0.837   0.260   7.159  2.9331 -0.4042 -0.8149
 3292SOL    HW221513   0.818   0.312   7.301  1.3100 -1.4287  0.7143
 3293SOL     OW21514   3.278   1.467   9.959  0.1004  0.4668 -0.3617
 3293SOL    HW121515   3.270   1.488  10.052  0.2366 -1.9753  0.1791
 3293SOL    HW221516   3.328   1.544   9.932 -2.0165  1.9199 -0.1258
 3294SOL     OW21517   2.372   0.727   1.731  0.6334  0.3149 -0.3111
 3294SOL    HW121518   2.397   0.745   1.822 -0.4243 -0.0236  0.0391
 3294SOL    HW221519   2.295   0.781   1.712 -0.0649 -0.2087  1.0772
 3295SOL     OW21520   4.033   1.850   6.313 -0.3515  0.2036 -0.0346
 3295SOL    HW121521   4.108   1.845   6.254 -0.9201 -1.4175 -0.6283
 3295SOL    HW221522   4.041   1.942   6.337 -0.3344  0.6442 -1.7610
 3296SOL     OW21523   0.861   3.458   8.238  0.1458  0.0783 -0.6063
 3296SOL    HW121524   0.787   3.462   8.299 -0.3176 -1.4266 -1.0511
 3296SOL    HW221525   0.847   3.542   8.195  0.1533  0.7263  0.6561
 3297SOL     OW21526   1.067   2.831   0.723 -0.0559 -0.2975  0.0540
 3297SOL    HW121527   1.060   2.891   0.648 -3.1406 -1.0507 -0.2801
 3297SOL    HW221528   1.162   2.829   0.729 -0.2177 -1.7235  2.0262
 3298SOL     OW21529   2.789   3.898   1.921  0.0174 -0.2026  0.1220
 3298SOL    HW121530   2.772   3.974   1.866  1.6229 -3.0214 -4.2982
 3298SOL    HW221531   2.868   3.863   1.879  0.1309 -0.6396  0.6955
 3299SOL     OW21532   4.736   0.201   2.726  0.2991  0.3106  0.1649
 3299SOL    HW121533   0.071   0.137   2.722  1.3698  1.5863 -1.1202
 3299SOL    HW221534   0.009   0.233   2.636 -0.4757 -2.1442 -0.7892
 3300SOL     OW21535   2.139   0.820  16.483  0.1034  0.1823  0.2833
 3300SOL    HW121536   2.176   0.842  16.567  2.2122  1.2369 -0.9419
 3300SOL    HW221537   2.079   0.891  16.458 -0.3004 -0.0066  0.7032
 3301SOL     OW21538   3.169   3.820   6.110  0.1577 -0.5183  0.1608
 3301SOL    HW121539   3.080   3.797   6.084 -0.1092  1.7718 -1.0239
 3301SOL    HW221540   3.197   3.864   6.029  2.3963  1.6444  2.0954
 3302SOL     OW21541   2.861   0.457  11.672  0.0377  0.0345  0.2885
 3302SOL    HW121542   2.767   0.478  11.669  0.0533 -0.5908 -3.7915
 3302SOL    HW221543   2.887   0.521  11.607  0.2228 -1.7525 -1.4024
 3303SOL     OW21544   4.420   3.332   9.401 -0.8108 -0.1968 -0.0696
 3303SOL    HW121545   4.434   3.354   9.309 -2.6996 -3.5352 -1.1159
 3303SOL    HW221546   4.423   3.237   9.398 -1.7536 -0.1909 -0.7727
 3304SOL     OW21547   1.290   0.582   2.985  0.2629  0.7741  0.4049
 3304SOL    HW121548   1.206   0.595   2.940 -0.6131 -1.0780  1.5086
 3304SOL    HW221549   1.260   0.636   3.058  0.2695  1.6777 -0.2542
 3305SOL     OW21550   4.255   4.305  16.550 -0.0473  0.5118  0.1378
 3305SOL    HW121551   4.270   4.254  16.470 -0.8065  0.0949  0.2626
 3305SOL    HW221552   4.234   4.242  16.618 -0.2129  0.3545 -0.0595
 3306SOL     OW21553   3.419   3.607   2.620  0.0074  0.0659 -0.0911
 3306SOL    HW121554   3.355   3.622   2.690  2.3473  0.2738  1.9668
 3306SOL    HW221555   3.483   3.673   2.646 -0.4318  0.0667  0.9880
 3307SOL     OW21556   4.316   0.043   5.216 -0.0882 -0.0013  0.0862
 3307SOL    HW121557   4.405   0.069   5.192 -0.0731  0.3827  0.5594
 3307SOL    HW221558   4.256   0.077   5.149 -1.4326 -2.3670  0.0910
 3308SOL     OW21559   0.424   1.038  10.260  0.0455  0.2349 -0.1283
 3308SOL    HW121560   0.348   1.064  10.311 -1.5760 -2.1026 -1.3322
 3308SOL    HW221561   0.459   1.126  10.245  0.1911  0.1559 -0.2560
 3309SOL     OW21562   0.703   4.308   2.449  0.2718 -0.0481  0.0954
 3309SOL    HW121563   0.796   4.291   2.434  0.3924  1.1101 -0.4167
 3309SOL    HW221564   0.674   4.369   2.381 -2.1068  2.6611  3.5466
 3310SOL     OW21565   4.693   4.637   5.071  0.0447  0.2384  0.2266
 3310SOL    HW121566   4.713   4.716   5.121  2.0728 -0.3680  0.4133
 3310SOL    HW221567   4.649   4.592   5.142 -0.1299 -1.4171 -0.9339
 3311SOL     OW21568   3.107   3.491   2.089  0.0775  0.7815  0.1132
 3311SOL    HW121569   3.145   3.456   2.169  1.4586 -1.0215 -1.3015
 3311SOL    HW221570   3.015   3.465   2.091  0.5820 -0.8438  2.5225
 3312SOL     OW21571   1.950   4.412  11.160 -0.2961 -0.1109 -0.3622
 3312SOL    HW121572   2.007   4.478  11.119 -0.9347  1.2637  0.9601
 3312SOL    HW221573   1.869   4.462  11.164 -0.4315 -0.2612 -1.1477
 3313SOL     OW21574   1.270   0.300   9.474 -0.2142  0.2541  0.2862
 3313SOL    HW121575   1.231   0.386   9.489 -2.0318 -0.1632 -1.9958
 3313SOL    HW221576   1.239   0.255   9.552  0.9771  0.4466  0.8732
 3314SOL     OW21577   3.156   0.667   7.286  0.0275  0.1270 -0.5425
 3314SOL    HW121578   3.075   0.657   7.335  0.8678  0.6899  0.9783
 3314SOL    HW221579   3.181   0.756   7.312  0.5603 -0.0083 -0.5873
 3315SOL     OW21580   0.979   4.417  11.515  0.0324  0.3962 -0.4141
 3315SOL    HW121581   1.067   4.453  11.506  1.0504 -1.6345  1.4107
 3315SOL    HW221582   0.933   4.496  11.486  1.1550  1.2751  0.1677
 3316SOL     OW21583   0.047   0.969  12.944 -0.0687  0.8744 -0.3220
 3316SOL    HW121584   0.005   1.055  12.942 -0.7852  0.4589 -2.6577
 3316SOL    HW221585   0.139   0.992  12.934  0.4797  0.2279  3.1078
 3317SOL     OW21586   3.417   3.671   6.453  0.1891  0.7180 -0.3017
 3317SOL    HW121587   3.322   3.676   6.462  0.1243  0.0777 -0.6799
 3317SOL    HW221588   3.442   3.715   6.535  1.9048 -1.1580  0.1798
 3318SOL     OW21589   3.612   3.794   1.966 -0.5833 -0.2283 -0.3935
 3318SOL    HW121590   3.633   3.881   2.000  2.5546 -0.4450 -1.7799
 3318SOL    HW221591   3.600   3.818   1.874 -0.4732  2.0268  0.1907
 3319SOL     OW21592   3.237   0.498   8.858  0.5129 -0.4222 -0.0435
 3319SOL    HW121593   3.277   0.565   8.913  1.3705 -0.6496 -0.3860
 3319SOL    HW221594   3.320   0.465   8.825  0.5550 -1.1935  0.8226
 3320SOL     OW21595   0.140   4.249   5.144  0.2507  0.3756 -0.7041
 3320SOL    HW121596   0.130   4.175   5.084 -0.3748 -1.5134  1.7238
 3320SOL    HW221597   0.054   4.251   5.185  0.5330 -1.0809 -0.0381
 3321SOL     OW21598   4.705   4.066   3.128 -0.4228 -0.5157  0.6933
 3321SOL    HW121599   4.654   3.985   3.130 -1.7505  0.2945 -0.2915
 3321SOL    HW221600   0.053   4.031   3.158 -0.1132 -0.9564 -0.6711
 3322SOL     OW21601   3.314   0.875  16.045 -0.4642 -0.4787  0.0106
 3322SOL    HW121602   3.318   0.822  16.124  0.3064 -1.6371 -0.8076
 3322SOL    HW221603   3.302   0.801  15.985  0.2260 -0.5937  0.0237
 3323SOL     OW21604   4.455   1.812   3.217  0.3366 -0.3820 -0.3060
 3323SOL    HW121605   4.453   1.736   3.274 -1.4032  1.2284  1.7710
 3323SOL    HW221606   4.545   1.804   3.186  1.4314  0.3298  2.7552
 3324SOL     OW21607   1.699   0.783   4.055 -0.3135 -0.4627  0.0960
 3324SOL    HW121608   1.783   0.767   4.012  0.4723  0.6056  1.2304
 3324SOL    HW221609   1.675   0.860   4.004 -0.4333 -1.4623 -1.3811
 3325SOL     OW21610   0.984   3.980   9.165  0.2508 -0.1506 -0.0401
 3325SOL    HW121611   0.927   3.928   9.109  0.6691 -0.2598 -0.3582
 3325SOL    HW221612   1.017   4.049   9.108  0.3846 -1.5834 -1.7034
 3326SOL     OW21613   4.479   0.378   4.757  0.1155 -0.0464 -0.1206
 3326SOL    HW121614   4.570   0.409   4.762  0.1016 -0.4327  2.4274
 3326SOL    HW221615   4.494   0.309   4.693  0.3142 -2.4553  2.4922
 3327SOL     OW21616   3.652   3.389   1.240 -0.1425 -0.1337 -0.1841
 3327SOL    HW121617   3.686   3.475   1.267  2.3883 -0.7651 -1.4027
 3327SOL    HW221618   3.629   3.351   1.324 -3.6777  1.0599 -0.6172
 3328SOL     OW21619   2.834   1.983   3.084 -0.1579  0.4212  0.5720
 3328SOL    HW121620   2.844   2.068   3.041  0.1901  0.1399  0.0925
 3328SOL    HW221621   2.767   1.943   3.029  0.8489  0.7413 -0.8879
 3329SOL     OW21622   1.442   0.977   3.121  0.2435 -0.6432 -0.1190
 3329SOL    HW121623   1.534   0.954   3.112 -0.4110 -2.7208 -1.3988
 3329SOL    HW221624   1.429   0.955   3.213 -0.7943  2.5648  0.4975
 3330SOL     OW21625   0.917   1.841  17.296  0.2282  0.2057  0.4679
 3330SOL    HW121626   0.826   1.866  17.314  0.3411  2.4118 -2.2421
 3330SOL    HW221627   0.960   1.854  17.381  0.6247  0.7920  0.1719
 3331SOL     OW21628   2.263   4.500   7.471  0.3322 -0.1528 -0.7646
 3331SOL    HW121629   2.181   4.478   7.426 -0.6571 -0.4559  1.2097
 3331SOL    HW221630   2.229   4.578   7.514 -0.1552 -1.3712  1.0700
 3332SOL     OW21631   1.552   4.286  13.072  0.3457  0.2280 -0.5408
 3332SOL    HW121632   1.478   4.228  13.052  1.7183 -1.6961 -0.1122
 3332SOL    HW221633   1.594   4.299  12.987  1.3292  1.9086  0.2180
 3333SOL     OW21634   3.849   3.019  12.156 -0.5177 -0.0404 -0.0752
 3333SOL    HW121635   3.832   3.022  12.250  0.0867 -2.0769  0.1117
 3333SOL    HW221636   3.767   3.047  12.116 -0.2022 -0.4060 -0.9970
 3334SOL     OW21637   2.798   0.208   4.059  0.7073  0.4167  0.6567
 3334SOL    HW121638   2.870   0.147   4.041  0.7247  0.4720  0.5376
 3334SOL    HW221639   2.823   0.260   3.983 -2.7160 -2.7631 -2.6325
 3335SOL     OW21640   1.457   3.509   0.369  0.2168  0.0641  0.5020
 3335SOL    HW121641   1.409   3.508   0.451  0.2216  0.9778  0.5236
 3335SOL    HW221642   1.493   3.421   0.361 -2.6912 -1.0345 -0.4107
 3336SOL     OW21643   1.778   3.281  17.739  0.4711 -0.4318  0.3940
 3336SOL    HW121644   1.751   3.227  17.665 -1.6017  1.4285 -0.2242
 3336SOL    HW221645   1.755   3.363  17.695  1.6370 -0.4362 -0.2086
 3337SOL     OW21646   1.915   2.768   6.812 -0.0184 -0.0041  0.3415
 3337SOL    HW121647   1.928   2.733   6.724 -2.3184  0.1001 -0.0447
 3337SOL    HW221648   1.885   2.685   6.848 -1.8652  1.4436  2.1398
 3338SOL     OW21649   2.269   0.745   3.277  0.2362 -0.0581  0.6368
 3338SOL    HW121650   2.328   0.791   3.217  0.4268 -1.4285 -0.2328
 3338SOL    HW221651   2.229   0.692   3.208 -0.8442  2.1748 -0.4608
 3339SOL     OW21652   1.117   4.329   2.073 -0.0007 -0.3658 -0.0269
 3339SOL    HW121653   1.064   4.284   2.006 -0.1089  0.4821 -0.5104
 3339SOL    HW221654   1.202   4.336   2.029 -0.8471  1.6263 -1.3301
 3340SOL     OW21655   4.418   3.086  11.205  0.2098  0.2634  0.3411
 3340SOL    HW121656   4.499   3.075  11.155 -0.3335  0.3862 -0.5476
 3340SOL    HW221657   4.445   3.054  11.292  0.3817  0.8305  0.4937
 3341SOL     OW21658   2.771   2.249   2.967 -0.2183 -0.3492  0.2109
 3341SOL    HW121659   2.677   2.246   2.953 -0.2908 -0.3593  0.7019
 3341SOL    HW221660   2.781   2.334   3.010  0.2267 -0.1041 -0.3623
 3342SOL     OW21661   3.602   0.582  12.561  0.0895  0.2390  0.1342
 3342SOL    HW121662   3.625   0.498  12.602  1.0759  1.2188  1.5837
 3342SOL    HW221663   3.573   0.630  12.638  1.5280 -0.0648  0.8604
 3343SOL     OW21664   1.358   4.123   9.322  0.1718  0.2172  0.2067
 3343SOL    HW121665   1.327   4.128   9.232  0.6305  2.1793  0.1586
 3343SOL    HW221666   1.433   4.182   9.320 -0.8562  1.5533  1.5849
 3344SOL     OW21667   4.399   1.035   2.640 -0.2182 -0.4908  0.1301
 3344SOL    HW121668   4.393   1.108   2.578  1.8365 -0.2668  0.1745
 3344SOL    HW221669   4.466   0.985   2.594 -0.1563  1.0296 -1.4394
 3345SOL     OW21670   4.587   3.668   3.855 -0.1175  0.2910 -0.4970
 3345SOL    HW121671   4.622   3.586   3.890  0.5706  0.4749 -0.7414
 3345SOL    HW221672   4.638   3.741   3.892  1.4124 -0.3842 -1.2620
 3346SOL     OW21673   2.544   2.718  14.341  0.5322  0.7135  0.4387
 3346SOL    HW121674   2.464   2.667  14.352 -0.2002  2.4778  3.2669
 3346SOL    HW221675   2.604   2.647  14.367  0.6264  0.0237 -1.7366
 3347SOL     OW21676   3.316   2.810  15.607  0.5506 -0.2733 -0.4182
 3347SOL    HW121677   3.361   2.727  15.622  1.1673  0.3742  1.2455
 3347SOL    HW221678   3.384   2.875  15.626 -0.9759  1.8371 -2.1573
 3348SOL     OW21679   0.383   3.769   3.948 -0.3793  0.1302  0.4120
 3348SOL    HW121680   0.409   3.694   3.895  0.8953  0.4038  0.6481
 3348SOL    HW221681   0.432   3.747   4.028  1.2167 -0.4484 -0.7084
 3349SOL     OW21682   1.768   3.807   6.744  0.3366 -0.4306  0.6987
 3349SOL    HW121683   1.721   3.785   6.664 -0.5122  0.9267  0.8385
 3349SOL    HW221684   1.696   3.835   6.801 -0.2590  2.5355 -1.5485
 3350SOL     OW21685   3.872   4.017   8.772  0.5187 -0.5025  0.0597
 3350SOL    HW121686   3.935   4.068   8.722 -2.2451  2.6178 -0.2360
 3350SOL    HW221687   3.878   4.058   8.858 -0.7976  0.2138 -0.1987
 3351SOL     OW21688   0.346   4.632   4.200  0.2506 -0.2524 -0.0317
 3351SOL    HW121689   0.263   4.664   4.164  0.7177  0.5591 -0.4052
 3351SOL    HW221690   0.340   4.657   4.292 -1.1420 -0.3823 -0.0848
 3352SOL     OW21691   2.707   1.780   2.600 -0.0264  0.1537 -0.6529
 3352SOL    HW121692   2.801   1.791   2.614 -0.0070 -1.6949  0.6925
 3352SOL    HW221693   2.684   1.839   2.529 -1.3187  1.3411  0.7564
 3353SOL     OW21694   0.854   2.476   8.340  0.3095  0.4818  0.0184
 3353SOL    HW121695   0.873   2.481   8.434 -1.1789  2.7452  0.2107
 3353SOL    HW221696   0.943   2.473   8.304  0.3739 -1.9558  0.3890
 3354SOL     OW21697   2.901   0.729  11.575 -0.2476 -0.0471 -0.1057
 3354SOL    HW121698   2.861   0.815  11.591 -0.8647 -0.1187 -1.2408
 3354SOL    HW221699   2.970   0.734  11.641 -1.6687  0.5964  1.3445
 3355SOL     OW21700   1.542   2.953   7.580 -0.3415 -0.1066 -0.2951
 3355SOL    HW121701   1.559   3.030   7.635  0.6892 -0.1766 -0.5149
 3355SOL    HW221702   1.485   2.904   7.640 -0.4594  1.2065  0.6864
 3356SOL     OW21703   4.075   0.250   6.992 -0.2021 -0.0817 -0.1596
 3356SOL    HW121704   4.163   0.214   6.978 -0.2027 -0.1281 -0.0414
 3356SOL    HW221705   4.048   0.174   7.043  2.6382 -0.8202  0.2178
 3357SOL     OW21706   0.441   3.250   6.814 -0.3097 -0.0267  0.5806
 3357SOL    HW121707   0.510   3.189   6.791 -0.8225  0.6090 -2.6405
 3357SOL    HW221708   0.495   3.327   6.828  0.0041 -0.5251  2.0661
 3358SOL     OW21709   2.642   1.979  12.367  0.8355  0.1952 -0.2883
 3358SOL    HW121710   2.717   1.926  12.342 -0.2407 -1.3477 -0.2749
 3358SOL    HW221711   2.595   1.981  12.284  0.1827 -1.4699  0.0462
 3359SOL     OW21712   4.644   1.097   5.738  0.3206  0.6766 -0.0900
 3359SOL    HW121713   4.641   1.090   5.642 -0.9925  0.9091 -0.0626
 3359SOL    HW221714   4.674   1.187   5.749 -1.3222  0.9497  2.0331
 3360SOL     OW21715   2.406   3.854   5.651 -0.2013 -0.3236  0.1429
 3360SOL    HW121716   2.494   3.878   5.622 -0.6459 -0.3001 -1.1662
 3360SOL    HW221717   2.388   3.916   5.722  0.1548  0.4745 -0.4804
 3361SOL     OW21718   3.564   3.988   8.514  0.2907  0.4285  0.3423
 3361SOL    HW121719   3.569   3.959   8.423  2.5542 -0.2011  0.6618
 3361SOL    HW221720   3.502   4.059   8.501 -0.1945 -0.3604 -1.6206
 3362SOL     OW21721   0.202   1.837  15.442  0.3495 -0.2497 -0.3872
 3362SOL    HW121722   0.217   1.755  15.488 -0.2640  1.0368  2.1149
 3362SOL    HW221723   0.162   1.893  15.509  0.6332 -1.2611  0.6144
 3363SOL     OW21724   0.389   3.672   2.155 -1.0948 -0.6382  0.0473
 3363SOL    HW121725   0.473   3.644   2.118 -0.7117  1.0697 -0.4117
 3363SOL    HW221726   0.354   3.728   2.086  0.4236  1.4016  0.9296
 3364SOL     OW21727   1.059   3.157  16.400  0.1579 -0.3395  0.5837
 3364SOL    HW121728   1.056   3.067  16.367  0.1814 -1.3045  3.2027
 3364SOL    HW221729   1.029   3.152  16.491 -0.0483 -2.5706  0.4009
 3365SOL     OW21730   3.780   3.093  12.648  0.3367 -0.6613  0.4009
 3365SOL    HW121731   3.750   3.166  12.594  0.0648 -0.3991  0.9032
 3365SOL    HW221732   3.740   3.113  12.733  0.6951 -2.7743  1.0645
 3366SOL     OW21733   0.013   1.875   8.444  0.7818  0.1606 -0.7894
 3366SOL    HW121734   4.717   1.787   8.425  0.9188  0.0332 -0.4116
 3366SOL    HW221735   4.730   1.929   8.366 -0.5858 -1.2312 -1.4247
 3367SOL     OW21736   1.377   0.763  16.106 -0.6062 -0.8210 -0.5208
 3367SOL    HW121737   1.410   0.849  16.080 -0.6736  0.1496  2.6454
 3367SOL    HW221738   1.401   0.761  16.199 -1.3457  1.8059 -0.2755
 3368SOL     OW21739   1.989   1.047   9.833 -0.0374  0.0197 -0.9881
 3368SOL    HW121740   2.046   1.123   9.847 -0.9496  0.8179 -1.6378
 3368SOL    HW221741   2.050   0.977   9.855 -1.1344 -0.8834 -0.8365
 3369SOL     OW21742   4.473   0.577   6.529 -0.0829  0.3293 -0.1450
 3369SOL    HW121743   4.413   0.651   6.524 -0.9972 -0.3638  0.5656
 3369SOL    HW221744   4.435   0.543   6.610 -0.0457  1.7131  0.4591
 3370SOL     OW21745   2.598   3.844   2.943  0.5846  0.0860  0.0170
 3370SOL    HW121746   2.552   3.765   2.914  0.7221  0.1433 -0.3532
 3370SOL    HW221747   2.534   3.915   2.953  2.0747  1.5677 -1.1895
 3371SOL     OW21748   3.224   1.517   3.560 -0.5437  0.4569  0.3380
 3371SOL    HW121749   3.164   1.570   3.507 -1.6260  0.8495  1.9640
 3371SOL    HW221750   3.299   1.577   3.563  0.2196 -0.6055  2.1385
 3372SOL     OW21751   1.002   2.172   7.611  0.0735  0.1218  0.2981
 3372SOL    HW121752   0.992   2.097   7.552  1.7725 -1.1973  1.7068
 3372SOL    HW221753   1.027   2.124   7.689  2.3159  2.1761  0.8387
 3373SOL     OW21754   1.162   3.102   4.072 -0.3415 -0.1134 -0.1116
 3373SOL    HW121755   1.210   3.065   3.998 -0.6203 -0.2261 -0.2343
 3373SOL    HW221756   1.100   3.033   4.095  0.1132 -1.1440 -2.0472
 3374SOL     OW21757   4.704   3.542  16.515  0.4366  0.2431 -0.0747
 3374SOL    HW121758   0.061   3.567  16.521 -0.1579  2.1557  1.1570
 3374SOL    HW221759   4.680   3.520  16.604  2.7843  1.5992  0.8903
 3375SOL     OW21760   1.841   4.315   2.453  0.0603  0.7644  0.0254
 3375SOL    HW121761   1.778   4.374   2.411 -0.7405 -1.0553 -1.3007
 3375SOL    HW221762   1.792   4.290   2.532  1.5851 -3.4478 -0.3632
 3376SOL     OW21763   2.551   1.813   1.924  0.5906  0.4507  0.3074
 3376SOL    HW121764   2.635   1.854   1.902 -0.4041  1.2356 -1.9919
 3376SOL    HW221765   2.513   1.787   1.840  0.6087  1.3803  0.0050
 3377SOL     OW21766   1.864   3.483   2.703 -0.1862  0.0122  0.6335
 3377SOL    HW121767   1.915   3.474   2.783  0.5527  0.2017  0.1760
 3377SOL    HW221768   1.801   3.544   2.740 -0.6401 -1.2917  2.0047
 3378SOL     OW21769   1.242   2.149  11.439 -0.2377 -0.5138 -0.0793
 3378SOL    HW121770   1.186   2.120  11.367  0.6371 -1.2998 -0.4502
 3378SOL    HW221771   1.177   2.149  11.510  1.0374  1.0665  1.0764
 3379SOL     OW21772   2.592   0.962   1.709  0.9018 -0.1928 -0.6556
 3379SOL    HW121773   2.651   0.916   1.648 -0.4391 -1.5111 -0.9636
 3379SOL    HW221774   2.522   0.897   1.720  0.8119 -0.2083 -1.3187
 3380SOL     OW21775   1.683   3.200   8.148  0.6056 -0.1042  0.2381
 3380SOL    HW121776   1.748   3.268   8.134  1.1502 -0.9197 -1.2829
 3380SOL    HW221777   1.710   3.150   8.071  0.2421 -2.2656  1.5123
 3381SOL     OW21778   2.366   2.041   5.378 -0.1139  0.2533  0.3919
 3381SOL    HW121779   2.449   2.077   5.412  1.6536 -3.0342 -0.4587
 3381SOL    HW221780   2.401   1.963   5.334  0.0897  0.1730  0.6922
 3382SOL     OW21781   4.666   0.079  13.897 -0.3510 -0.4370  0.8204
 3382SOL    HW121782   4.638   0.159  13.852 -1.4664 -0.5794  1.2675
 3382SOL    HW221783   4.712   0.031  13.828 -0.5519 -1.1100  1.1596
 3383SOL     OW21784   2.821   0.796   1.388 -0.5614 -0.3106  0.3949
 3383SOL    HW121785   2.756   0.865   1.394 -0.1184 -0.0570  2.3058
 3383SOL    HW221786   2.793   0.748   1.310 -2.0060 -0.8658  1.2592
 3384SOL     OW21787   2.785   0.057   9.033 -0.4132  0.2721  0.5354
 3384SOL    HW121788   2.766   0.117   8.961  1.8053 -1.4691 -1.5033
 3384SOL    HW221789   2.841   4.725   8.996 -1.4741  0.5185 -1.5074
 3385SOL     OW21790   0.714   1.233   6.515 -0.3840 -0.1352  0.0291
 3385SOL    HW121791   0.704   1.256   6.423  0.1980  1.1898  0.3030
 3385SOL    HW221792   0.729   1.317   6.559  3.4908 -1.1846  0.7181
 3386SOL     OW21793   2.058   0.335   4.622 -0.5957 -0.3571  0.3204
 3386SOL    HW121794   2.136   0.391   4.624  1.3759 -3.0943 -1.3146
 3386SOL    HW221795   2.096   0.251   4.598  0.2609 -0.0308  0.5358
 3387SOL     OW21796   0.514   1.964   7.059 -0.2399 -0.5064  0.2946
 3387SOL    HW121797   0.597   1.930   7.026 -1.0983 -1.2819 -1.0460
 3387SOL    HW221798   0.479   1.952   6.971 -0.3641 -0.1292  0.2907
 3388SOL     OW21799   2.779   0.050   3.055 -0.3055 -0.4982  0.3013
 3388SOL    HW121800   2.747   4.703   3.088  0.2450 -0.7504  0.1953
 3388SOL    HW221801   2.831   0.076   3.131 -0.6751  0.7357  0.1349
 3389SOL     OW21802   3.660   3.382   6.292  0.1576  0.6001  0.4752
 3389SOL    HW121803   3.610   3.456   6.258  0.5317 -0.0235 -1.4315
 3389SOL    HW221804   3.654   3.316   6.224  1.9565 -1.0836  1.9576
 3390SOL     OW21805   4.611   2.547  16.098  0.1927 -0.2010  0.1720
 3390SOL    HW121806   4.608   2.560  16.193  0.6895 -2.6179  0.5083
 3390SOL    HW221807   4.554   2.623  16.090 -0.8670 -0.8711  1.3527
 3391SOL     OW21808   4.446   4.616  14.832  0.0902  0.2971  0.1051
 3391SOL    HW121809   4.485   4.602  14.746 -2.6163  2.1974 -1.4270
 3391SOL    HW221810   4.523   4.639  14.885  2.5323 -2.8109 -2.0936
 3392SOL     OW21811   0.460   1.965  16.613 -0.3896  0.3720 -0.0502
 3392SOL    HW121812   0.526   1.896  16.614 -1.1867 -0.3684  1.2977
 3392SOL    HW221813   0.515   2.043  16.614 -0.4116  0.3774  0.8107
 3393SOL     OW21814   3.246   1.663   6.890  0.6346 -0.1730  0.5017
 3393SOL    HW121815   3.224   1.619   6.972 -1.2464  0.8689  0.5699
 3393SOL    HW221816   3.339   1.641   6.888  0.1182 -2.2902 -0.0710
 3394SOL     OW21817   2.967   1.182   4.760  0.0181 -0.1487 -0.1530
 3394SOL    HW121818   2.960   1.098   4.713 -0.7236 -0.1524 -0.0340
 3394SOL    HW221819   3.061   1.197   4.755  0.2357 -1.8087 -1.1036
 3395SOL     OW21820   3.544   0.609   2.713  0.3063  0.6007  0.5624
 3395SOL    HW121821   3.510   0.533   2.666 -1.0249  2.3274 -1.2985
 3395SOL    HW221822   3.630   0.582   2.745  0.5048  0.9275  0.2959
 3396SOL     OW21823   2.654   1.843   9.270  0.0877  0.5825  0.3227
 3396SOL    HW121824   2.628   1.794   9.347 -0.6288 -1.8808 -1.4793
 3396SOL    HW221825   2.615   1.929   9.283  0.7333  1.2853 -2.3913
 3397SOL     OW21826   3.327   2.095  14.203 -0.4275 -0.0217  0.0803
 3397SOL    HW121827   3.356   2.100  14.112  0.1472  1.9063  0.3728
 3397SOL    HW221828   3.235   2.068  14.198 -0.0726 -1.0526 -0.9093
 3398SOL     OW21829   4.074   3.290   7.980 -0.2904  0.2681 -0.5234
 3398SOL    HW121830   4.025   3.347   8.040  1.0181  0.6764  0.1515
 3398SOL    HW221831   4.021   3.211   7.975  1.6067 -0.9273 -1.8580
 3399SOL     OW21832   0.448   2.471   4.874 -0.3341  0.1055  0.4996
 3399SOL    HW121833   0.490   2.387   4.892  0.8125  0.6043  0.1601
 3399SOL    HW221834   0.383   2.481   4.943 -0.9133 -1.7392  0.2295
 3400SOL     OW21835   0.812   1.862  17.663  0.1873 -0.1634 -0.2285
 3400SOL    HW121836   0.848   1.950  17.666  0.1164 -0.0167 -3.0331
 3400SOL    HW221837   0.792   1.846   0.012 -0.9277 -1.0108 -0.6229
 3401SOL     OW21838   4.246   4.008   8.622 -0.5504  0.1945  0.4288
 3401SOL    HW121839   4.274   3.918   8.636  0.4308  0.4681  0.2295
 3401SOL    HW221840   4.297   4.050   8.692  1.2065  1.7304 -1.8031
 3402SOL     OW21841   4.475   1.679   2.271 -0.1954  0.1227  0.4296
 3402SOL    HW121842   4.538   1.744   2.240  0.5623 -0.8836 -0.1408
 3402SOL    HW221843   4.487   1.603   2.213 -1.1720 -0.4881  1.0268
 3403SOL     OW21844   1.332   1.769   4.592 -0.3439  0.5189  0.3693
 3403SOL    HW121845   1.293   1.744   4.676  1.3286  0.2215  1.0527
 3403SOL    HW221846   1.262   1.814   4.545 -0.6812  0.7658  1.1020
 3404SOL     OW21847   3.499   0.745   3.181  0.2815  0.1494 -0.0119
 3404SOL    HW121848   3.474   0.671   3.126 -0.4524  0.0573  0.4447
 3404SOL    HW221849   3.420   0.757   3.233  0.3156  1.6750 -0.3068
 3405SOL     OW21850   0.269   3.027   4.181  0.4066 -0.3393 -0.1454
 3405SOL    HW121851   0.346   2.991   4.226 -0.4039 -1.3976  0.3914
 3405SOL    HW221852   0.295   3.119   4.167 -1.9355  0.0451 -1.8462
 3406SOL     OW21853   2.361   0.449   7.413 -0.4860  0.0655  0.5510
 3406SOL    HW121854   2.334   0.537   7.439 -1.6080 -0.2522  0.4591
 3406SOL    HW221855   2.400   0.474   7.329  0.3168  1.1799  1.2563
 3407SOL     OW21856   2.641   2.697   8.426 -0.1117  0.4110  0.0793
 3407SOL    HW121857   2.587   2.655   8.359 -0.7312  0.2268  0.6952
 3407SOL    HW221858   2.577   2.748   8.476  1.5865  1.3425  1.2902
 3408SOL     OW21859   4.129   1.192  15.429  0.4450 -0.5694 -0.1647
 3408SOL    HW121860   4.194   1.130  15.462  2.5458  2.0785  0.6488
 3408SOL    HW221861   4.050   1.141  15.443  1.0303 -1.9674 -1.9564
 3409SOL     OW21862   4.014   1.667   7.403  0.1657 -0.2667 -0.1680
 3409SOL    HW121863   4.007   1.574   7.425 -1.1053  0.5325  2.8895
 3409SOL    HW221864   3.947   1.704   7.460 -1.3527 -0.6015 -1.7373
 3410SOL     OW21865   4.073   4.556   7.358 -0.1410 -0.0466  0.4346
 3410SOL    HW121866   4.161   4.540   7.325 -1.2063 -2.6512 -1.1585
 3410SOL    HW221867   4.025   4.499   7.298  0.8578  1.1847 -1.5598
 3411SOL     OW21868   1.991   2.277   2.561 -0.1706  0.4125 -0.4094
 3411SOL    HW121869   2.037   2.361   2.556 -1.7366  1.2405 -0.9431
 3411SOL    HW221870   1.971   2.267   2.468 -0.2999  1.1946 -0.4637
 3412SOL     OW21871   0.081   2.551   5.281  0.1290 -0.0162  0.5603
 3412SOL    HW121872   0.046   2.640   5.287 -3.1409 -1.1264 -1.8944
 3412SOL    HW221873   0.023   2.512   5.346 -2.9981 -0.5606 -2.5731
 3413SOL     OW21874   0.751   0.115   3.897  0.2367 -0.2972  0.1044
 3413SOL    HW121875   0.673   0.169   3.882 -0.3827 -1.2806 -0.1898
 3413SOL    HW221876   0.726   0.077   3.981 -1.2064 -0.7738 -0.5374
 3414SOL     OW21877   2.986   2.418   1.453 -0.1122 -0.7990 -0.2783
 3414SOL    HW121878   2.992   2.496   1.507  0.3736 -0.1292 -1.3052
 3414SOL    HW221879   2.989   2.462   1.368  0.7542  2.9831  1.7369
 3415SOL     OW21880   2.207   1.827   3.759  0.5948  0.0245 -0.2013
 3415SOL    HW121881   2.298   1.823   3.729  0.3080 -0.1717 -1.0328
 3415SOL    HW221882   2.166   1.861   3.679  0.2662 -0.4011 -0.2112
 3416SOL     OW21883   0.396   3.593   3.696 -0.0045  0.4634 -0.5992
 3416SOL    HW121884   0.483   3.630   3.692  0.3050 -0.1538  0.4465
 3416SOL    HW221885   0.369   3.579   3.605 -0.3698  1.9078 -0.7081
 3417SOL     OW21886   4.011   1.393   7.482 -0.2012 -0.3890 -0.1859
 3417SOL    HW121887   4.067   1.335   7.533 -1.9011 -3.0284 -1.2969
 3417SOL    HW221888   4.011   1.353   7.395  2.5712 -0.3706 -0.1759
 3418SOL     OW21889   4.249   3.433   2.048 -0.5122 -0.5338 -0.2451
 3418SOL    HW121890   4.286   3.355   2.089  1.0264  1.3349  1.9299
 3418SOL    HW221891   4.222   3.480   2.127  0.2647  0.7196 -0.7189
 3419SOL     OW21892   4.468   3.669  14.589  0.2094  0.3539 -0.3370
 3419SOL    HW121893   4.543   3.644  14.642  1.9769  0.9690 -2.5584
 3419SOL    HW221894   4.485   3.763  14.579  0.0128  0.3097 -1.1486
 3420SOL     OW21895   3.014   2.784  17.024  0.0569  0.1787 -0.3131
 3420SOL    HW121896   2.962   2.865  17.023  0.8780  0.7301  0.6774
 3420SOL    HW221897   3.060   2.791  17.107 -0.7882 -0.5374  0.2165
 3421SOL     OW21898   1.441   0.557   6.489 -0.1906 -0.2682 -0.1377
 3421SOL    HW121899   1.518   0.554   6.545  0.6398 -1.9247 -1.3746
 3421SOL    HW221900   1.419   0.650   6.486 -1.7513 -0.5248  3.3892
 3422SOL     OW21901   0.911   0.159   2.462 -0.1608  0.1238  0.1199
 3422SOL    HW121902   0.902   0.250   2.491 -1.1512  0.3772 -0.9881
 3422SOL    HW221903   0.843   0.129   2.523  0.3173 -2.1559 -0.4698
 3423SOL     OW21904   1.724   1.508   0.240 -0.0974  0.4770 -0.4440
 3423SOL    HW121905   1.649   1.497   0.297 -1.0155  1.8496 -1.4050
 3423SOL    HW221906   1.750   1.417   0.258  0.1582  0.3228 -1.5378
 3424SOL     OW21907   1.556   3.532   6.318 -0.5960 -0.0617  0.0470
 3424SOL    HW121908   1.521   3.554   6.231  1.0677 -0.3469 -0.6859
 3424SOL    HW221909   1.520   3.446   6.342 -0.9519 -0.0442 -0.4234
 3425SOL     OW21910   4.301   4.732  13.247  0.1923  0.9141  0.3629
 3425SOL    HW121911   4.275   0.071  13.194  0.7267  0.3895 -0.6316
 3425SOL    HW221912   4.229   4.671  13.237  1.0568  0.1248 -1.0000
 3426SOL     OW21913   0.519   4.242   2.977  0.5403  0.0016 -0.0639
 3426SOL    HW121914   0.590   4.304   2.961 -0.3708  1.5430  1.9495
 3426SOL    HW221915   0.564   4.181   3.035  0.7663  0.7623  0.5573
 3427SOL     OW21916   0.938   4.364   7.852 -0.0603 -0.5103 -0.5298
 3427SOL    HW121917   0.923   4.290   7.911  0.8350 -1.7850 -1.9076
 3427SOL    HW221918   0.996   4.322   7.789 -0.6447 -0.0329 -1.3872
 3428SOL     OW21919   4.441   3.742   0.989 -0.1151 -0.2299  0.1115
 3428SOL    HW121920   4.351   3.763   1.012  0.8593  1.1229  2.7201
 3428SOL    HW221921   4.426   3.680   0.918 -0.0984 -0.3646  0.2240
 3429SOL     OW21922   2.652   4.321   2.904  0.0701 -0.2202 -0.1673
 3429SOL    HW121923   2.561   4.347   2.886 -0.0580  1.0339  2.3613
 3429SOL    HW221924   2.695   4.327   2.819 -0.9810  1.4973 -0.5748
 3430SOL     OW21925   2.223   0.772   4.688  0.3036 -0.3438 -0.1669
 3430SOL    HW121926   2.277   0.825   4.629  1.9836 -1.0076  0.7571
 3430SOL    HW221927   2.192   0.838   4.749  2.1791  0.3648  0.0296
 3431SOL     OW21928   2.881   4.445  15.076 -0.3002 -0.0155 -0.3895
 3431SOL    HW121929   2.934   4.521  15.100  1.4229 -0.9900 -1.1030
 3431SOL    HW221930   2.940   4.371  15.084  2.6261  2.4866  1.2458
 3432SOL     OW21931   4.231   2.493   9.140 -0.1748 -0.0895 -0.2303
 3432SOL    HW121932   4.206   2.437   9.213  2.2448 -0.4761  0.3222
 3432SOL    HW221933   4.164   2.562   9.141 -1.1978 -1.1012  0.8033
 3433SOL     OW21934   1.251   3.615   6.982 -0.5123 -0.2001  0.5903
 3433SOL    HW121935   1.174   3.573   7.018 -1.6333 -0.2284 -1.8410
 3433SOL    HW221936   1.293   3.540   6.939  0.7370  1.5065 -1.1846
 3434SOL     OW21937   1.405   1.595   5.433 -0.3520  0.0099 -0.3688
 3434SOL    HW121938   1.413   1.638   5.348  0.6609  0.6090  0.0339
 3434SOL    HW221939   1.457   1.515   5.427 -0.8109 -0.2538 -0.8693
 3435SOL     OW21940   0.436   3.107   5.402  0.2347 -0.7820  0.2839
 3435SOL    HW121941   0.459   3.056   5.480  1.3051  0.1503  0.5665
 3435SOL    HW221942   0.518   3.113   5.354  0.0478  3.2338  0.4920
 3436SOL     OW21943   4.644   2.060  15.008  0.2955 -0.9534  0.1398
 3436SOL    HW121944   4.636   2.012  15.091  1.2112 -0.6420  0.4124
 3436SOL    HW221945   4.712   2.123  15.031 -1.7466  1.2984  0.0504
 3437SOL     OW21946   4.105   2.967   4.744  0.0720  0.0377 -0.1464
 3437SOL    HW121947   4.107   3.005   4.656  1.7015  1.1922  0.3874
 3437SOL    HW221948   4.039   3.024   4.784  0.0185 -0.3561  0.3323
 3438SOL     OW21949   2.983   0.050   1.403  0.9862  0.8152 -0.1149
 3438SOL    HW121950   2.979   4.735   1.485  1.2928  0.5911 -0.2389
 3438SOL    HW221951   2.925   0.124   1.417 -1.6349 -1.1766 -0.4822
 3439SOL     OW21952   3.470   1.342   4.584  0.5244 -0.1923 -0.6068
 3439SOL    HW121953   3.462   1.433   4.614  2.0078  0.1512 -1.2470
 3439SOL    HW221954   3.462   1.346   4.489 -0.6000 -2.1415 -0.5848
 3440SOL     OW21955   1.658   3.244   3.952 -0.3011 -0.0799 -0.2016
 3440SOL    HW121956   1.685   3.156   3.927 -1.1627 -0.3571 -0.1396
 3440SOL    HW221957   1.617   3.223   4.036  0.8861 -2.3414 -0.1863
 3441SOL     OW21958   3.367   4.512   8.352 -0.6789 -0.0473 -0.0752
 3441SOL    HW121959   3.443   4.497   8.295  0.5859 -0.9744  1.8777
 3441SOL    HW221960   3.307   4.543   8.284  0.8304  1.1214 -0.8756
 3442SOL     OW21961   0.355   2.790   8.872  0.1991  0.1143  0.4390
 3442SOL    HW121962   0.373   2.810   8.964  0.4622  3.5601 -0.3759
 3442SOL    HW221963   0.264   2.820   8.864  0.4920  0.8764 -0.0267
 3443SOL     OW21964   0.829   1.500  17.534 -0.1209  0.0237  0.2379
 3443SOL    HW121965   0.784   1.582  17.514  1.6733  0.9676  0.0521
 3443SOL    HW221966   0.806   1.490  17.627 -0.7429  2.9232  0.4016
 3444SOL     OW21967   2.263   0.575   6.316  0.1031 -0.3819 -0.3591
 3444SOL    HW121968   2.193   0.554   6.254  0.0564 -0.3838 -0.3051
 3444SOL    HW221969   2.311   0.492   6.312  0.7712 -0.0339  0.3994
 3445SOL     OW21970   1.736   1.738   7.674 -0.3255 -0.1297  0.4449
 3445SOL    HW121971   1.649   1.760   7.707  0.4533  0.3867  2.1582
 3445SOL    HW221972   1.790   1.785   7.737 -0.4398 -2.0260  1.9597
 3446SOL     OW21973   4.007   4.225   8.667 -0.0928 -0.8277  0.2023
 3446SOL    HW121974   4.079   4.232   8.604 -1.6451  1.0607 -1.3277
 3446SOL    HW221975   4.054   4.266   8.740  2.1204  1.2042 -2.3436
 3447SOL     OW21976   0.528   1.832   9.332  0.0970 -0.2692 -0.1577
 3447SOL    HW121977   0.511   1.909   9.278 -0.0816  0.2051  0.5779
 3447SOL    HW221978   0.438   1.812   9.358  0.4580  0.9067  2.0543
 3448SOL     OW21979   1.557   4.262   7.967 -0.1815 -0.1051 -0.0181
 3448SOL    HW121980   1.606   4.325   8.020  1.6372 -0.7067 -0.9914
 3448SOL    HW221981   1.503   4.316   7.909  0.2089 -0.3313 -0.5876
 3449SOL     OW21982   1.260   0.890   2.197 -0.3289 -0.7629 -0.2582
 3449SOL    HW121983   1.249   0.855   2.108  1.0978 -0.9538 -0.3528
 3449SOL    HW221984   1.302   0.976   2.189 -2.0527  0.3191  2.2164
 3450SOL     OW21985   4.266   0.822   1.918 -0.1731  0.0474 -0.0443
 3450SOL    HW121986   4.216   0.902   1.934  0.6229  0.7758 -1.2167
 3450SOL    HW221987   4.353   0.861   1.922  0.0297 -0.4471  0.3732
 3451SOL     OW21988   4.391   1.698  15.401  0.5153  0.2922 -0.4438
 3451SOL    HW121989   4.417   1.631  15.464  0.1567  0.9442  0.4011
 3451SOL    HW221990   4.316   1.653  15.363 -0.3387  1.5104 -0.2360
 3452SOL     OW21991   4.266   2.237  16.711  0.6400  0.2716  0.0692
 3452SOL    HW121992   4.329   2.255  16.641  0.6708  1.8622  0.4911
 3452SOL    HW221993   4.322   2.187  16.770  0.4510  0.7568  0.6661
 3453SOL     OW21994   3.620   2.755  11.891 -0.7550  0.1762 -0.3249
 3453SOL    HW121995   3.713   2.780  11.896 -1.5290  3.2298 -1.3396
 3453SOL    HW221996   3.608   2.697  11.967 -1.7705  0.5723 -0.1846
 3454SOL     OW21997   1.928   1.959   5.578  0.6328 -0.1375 -0.1846
 3454SOL    HW121998   1.897   1.974   5.489  0.9789  0.2153 -0.2465
 3454SOL    HW221999   2.022   1.971   5.562  0.4711  1.6956  0.1755
 3455SOL     OW22000   1.046   1.225   0.675  0.3577  0.6495 -0.3425
 3455SOL    HW122001   1.128   1.263   0.643  1.3066 -1.0139  0.0796
 3455SOL    HW222002   0.989   1.255   0.605 -1.6252  1.4882  1.6250
 3456SOL     OW22003   0.751   4.086  16.055 -0.9000 -0.5184  0.1145
 3456SOL    HW122004   0.704   4.021  16.002 -1.1774 -1.0952  1.0798
 3456SOL    HW222005   0.809   4.129  15.992  0.2916 -1.0406  0.8580
 3457SOL     OW22006   0.448   1.307   5.938  0.0454  0.2953  0.8291
 3457SOL    HW122007   0.395   1.365   5.992  0.6561  1.2482  0.4035
 3457SOL    HW222008   0.536   1.341   5.955  0.1315 -0.6972  2.3696
 3458SOL     OW22009   0.810   0.462   3.754  0.0346  0.3780 -0.2322
 3458SOL    HW122010   0.836   0.459   3.847 -0.6128  0.1395 -0.0610
 3458SOL    HW222011   0.896   0.479   3.714  0.0082 -0.9415 -0.8399
 3459SOL     OW22012   0.291   0.583   2.664  0.1455 -0.2403 -0.6425
 3459SOL    HW122013   0.327   0.530   2.593  1.7273 -0.9803  0.7074
 3459SOL    HW222014   0.198   0.559   2.665  0.1376 -0.2234 -2.6095
 3460SOL     OW22015   3.811   0.166   7.333  0.0725 -0.1117 -0.4624
 3460SOL    HW122016   3.741   0.151   7.397  2.0663 -0.4263  1.6648
 3460SOL    HW222017   3.824   0.261   7.330 -1.7618  0.1614  0.0940
 3461SOL     OW22018   2.408   0.802   9.114  0.1384 -0.0358 -0.6679
 3461SOL    HW122019   2.448   0.735   9.170 -0.5451 -0.7439 -1.0397
 3461SOL    HW222020   2.319   0.769   9.117 -0.1909  0.7291 -1.8136
 3462SOL     OW22021   2.297   3.167   2.428 -0.7257 -0.5905  0.0316
 3462SOL    HW122022   2.278   3.183   2.335 -1.8045 -0.9016  0.2022
 3462SOL    HW222023   2.298   3.258   2.459  1.9619 -1.8585  3.6339
 3463SOL     OW22024   4.412   3.416   4.256  0.2398 -0.3085 -0.5355
 3463SOL    HW122025   4.406   3.358   4.180 -0.4353 -0.4170 -0.3993
 3463SOL    HW222026   4.380   3.350   4.318 -0.1332  0.5231  0.1469
 3464SOL     OW22027   2.269   2.366   7.215 -0.3523  0.7167  0.1303
 3464SOL    HW122028   2.232   2.289   7.260  1.4980 -0.4066 -0.2602
 3464SOL    HW222029   2.263   2.426   7.289  0.2368  1.1822 -0.1972
 3465SOL     OW22030   1.020   3.518  15.286  0.5254  0.1662 -0.4593
 3465SOL    HW122031   0.942   3.468  15.308  1.3375 -1.4956 -1.3614
 3465SOL    HW222032   0.995   3.522  15.194 -0.3538 -1.9392 -0.3063
 3466SOL     OW22033   1.077   1.267   0.039  0.0781  0.1960  0.6598
 3466SOL    HW122034   1.070   1.348   0.090  0.0610  1.0733 -0.7341
 3466SOL    HW222035   0.987   1.235   0.042  1.4780 -3.7300  0.2486
 3467SOL     OW22036   0.029   0.625  15.655  0.5200  0.4331  0.3398
 3467SOL    HW122037   0.106   0.674  15.682 -0.8027  1.7217  1.7434
 3467SOL    HW222038   4.692   0.685  15.669 -2.4864 -2.9927 -0.5049
 3468SOL     OW22039   1.873   0.048   4.623 -0.4918 -0.2723 -0.0111
 3468SOL    HW122040   1.788   0.078   4.655 -0.8068 -0.0450 -1.0365
 3468SOL    HW222041   1.885   4.702   4.670 -0.2375 -0.2784 -0.0883
 3469SOL     OW22042   3.658   0.179  11.419 -0.4617  0.4870  0.3915
 3469SOL    HW122043   3.663   0.107  11.482  0.2298  0.6924  0.5660
 3469SOL    HW222044   3.579   0.153  11.371  0.1852 -1.2123  0.2345
 3470SOL     OW22045   2.880   1.711  16.755  1.2627  0.2279 -0.4632
 3470SOL    HW122046   2.841   1.642  16.809 -1.1336  2.6096  0.8598
 3470SOL    HW222047   2.814   1.724  16.687  1.7668 -0.6567 -1.1158
 3471SOL     OW22048   0.076   2.472   6.386  0.1598 -0.3985  0.1304
 3471SOL    HW122049   4.719   2.449   6.388 -0.2451  1.1487 -0.2564
 3471SOL    HW222050   0.111   2.392   6.424 -0.6100 -0.6184  0.3738
 3472SOL     OW22051   3.269   3.557   4.917 -0.3761 -0.3963  0.0808
 3472SOL    HW122052   3.360   3.562   4.944  0.1712 -2.0766 -1.4477
 3472SOL    HW222053   3.219   3.579   4.996  1.6843  2.8540  0.5158
 3473SOL     OW22054   0.540   1.479  16.715 -0.0806  0.7309  0.5711
 3473SOL    HW122055   0.488   1.485  16.635  0.0950  0.8995  0.4680
 3473SOL    HW222056   0.627   1.494  16.676 -0.1016 -2.5106 -0.6770
 3474SOL     OW22057   0.675   2.383   2.488 -0.0341  0.2323 -0.8568
 3474SOL    HW122058   0.769   2.373   2.502 -0.2601  0.3246  0.6959
 3474SOL    HW222059   0.664   2.420   2.400  0.7838  0.5053 -0.8468
 3475SOL     OW22060   0.715   3.571   9.862  0.2970  0.2136 -0.1711
 3475SOL    HW122061   0.759   3.609   9.938  1.4623 -1.7486  0.1245
 3475SOL    HW222062   0.716   3.638   9.793 -2.2707 -0.3429 -0.7627
 3476SOL     OW22063   0.022   1.329   5.036  0.2022 -0.5427  0.1262
 3476SOL    HW122064   4.705   1.291   4.966  0.8241  0.2670 -0.7799
 3476SOL    HW222065   0.104   1.343   4.989  0.5523 -0.5695  0.7266
 3477SOL     OW22066   4.488   3.339  16.650  0.1238 -0.3407 -0.0646
 3477SOL    HW122067   4.536   3.314  16.730 -2.5601 -1.2481  1.2503
 3477SOL    HW222068   4.399   3.341  16.685 -0.1736  1.4759 -0.9405
 3478SOL     OW22069   0.986   3.659  12.471  0.0253  0.2284 -0.2989
 3478SOL    HW122070   0.986   3.701  12.384  1.9329  1.0828  0.1089
 3478SOL    HW222071   1.069   3.689  12.509 -0.4371  0.3880  0.5732
 3479SOL     OW22072   1.417   2.947   7.346 -0.5655 -0.1453 -0.4895
 3479SOL    HW122073   1.361   2.895   7.403 -1.0111 -1.0072 -1.7080
 3479SOL    HW222074   1.480   2.973   7.414 -1.2622  0.0077  0.0904
 3480SOL     OW22075   0.463   3.148   9.012 -0.0172 -0.2414 -0.2191
 3480SOL    HW122076   0.419   3.106   9.085  0.1859  1.5836  0.9548
 3480SOL    HW222077   0.525   3.078   8.994  0.4624  0.2445 -0.4510
 3481SOL     OW22078   2.444   3.135   7.282 -0.1551  0.4251 -0.1296
 3481SOL    HW122079   2.442   3.057   7.227  3.7863 -0.5184  1.1101
 3481SOL    HW222080   2.398   3.093   7.355  1.1546 -0.1242  0.3708
 3482SOL     OW22081   1.728   3.970  12.089 -0.0894  0.4732  0.6351
 3482SOL    HW122082   1.662   3.987  12.021 -0.5265 -0.1314  0.9105
 3482SOL    HW222083   1.810   4.014  12.065 -0.2755  0.4796  0.0141
 3483SOL     OW22084   4.321   2.576   7.265  0.4178 -0.5872 -0.5037
 3483SOL    HW122085   4.237   2.598   7.306  1.9333  0.3250  2.1385
 3483SOL    HW222086   4.301   2.511   7.197 -0.5699 -0.6996 -0.1030
 3484SOL     OW22087   2.955   2.692   8.865 -0.5686 -0.2391  0.0931
 3484SOL    HW122088   2.921   2.647   8.788 -0.8835  1.6051 -0.8248
 3484SOL    HW222089   2.881   2.752   8.877 -1.7793 -1.9789  1.3228
 3485SOL     OW22090   3.117   0.708  11.384  0.8199 -0.2235 -0.4458
 3485SOL    HW122091   3.188   0.673  11.439  1.5473  0.3224 -1.0416
 3485SOL    HW222092   3.044   0.702  11.446  0.2497 -1.8477 -1.2844
 3486SOL     OW22093   4.146   4.440   3.483 -0.2909  0.1027  0.5360
 3486SOL    HW122094   4.108   4.420   3.397  0.4834 -0.1427  0.2513
 3486SOL    HW222095   4.118   4.532   3.480  2.5426  0.9171 -0.8942
 3487SOL     OW22096   3.700   0.676   4.962  0.2008 -0.1892 -0.3033
 3487SOL    HW122097   3.755   0.637   4.893  1.0084  2.2020 -1.0108
 3487SOL    HW222098   3.630   0.720   4.913  2.3640  0.7991 -2.4899
 3488SOL     OW22099   2.192   1.034   4.054 -0.0587 -0.2822 -0.0822
 3488SOL    HW122100   2.281   1.000   4.041 -1.0085 -2.5385 -0.6481
 3488SOL    HW222101   2.199   1.123   4.088 -0.7911 -1.3295  2.7888
 3489SOL     OW22102   2.871   2.146   4.001 -0.0570  0.1602 -0.4463
 3489SOL    HW122103   2.885   2.117   3.911  2.0425 -0.1490 -0.0277
 3489SOL    HW222104   2.912   2.231   4.013  2.1111 -0.9940  0.3617
 3490SOL     OW22105   2.506   4.335   3.273 -0.1280  0.0456 -0.5229
 3490SOL    HW122106   2.543   4.329   3.361 -1.3313  1.7494  0.0970
 3490SOL    HW222107   2.460   4.251   3.271  3.9054 -2.1719  0.3340
 3491SOL     OW22108   2.792   4.008   4.363  0.1267  0.1696  0.1398
 3491SOL    HW122109   2.852   4.082   4.378  0.4393  0.2971 -1.6888
 3491SOL    HW222110   2.853   3.935   4.378  1.4689  1.3437  0.4057
 3492SOL     OW22111   4.199   1.248   8.552  0.1185  0.2315 -0.4847
 3492SOL    HW122112   4.221   1.338   8.527  1.1941 -0.7018 -2.9188
 3492SOL    HW222113   4.242   1.239   8.637  0.1879 -1.7111 -0.7145
 3493SOL     OW22114   0.122   4.355  17.659  0.2952  0.0710 -0.1870
 3493SOL    HW122115   0.098   4.264  17.678 -1.5394  0.1418 -2.1117
 3493SOL    HW222116   0.084   4.343  17.571 -0.2142  0.5140 -0.0266
 3494SOL     OW22117   4.527   4.509   5.258 -0.3424  0.0551 -0.5385
 3494SOL    HW122118   4.548   4.522   5.351  0.7798 -0.5843 -0.7010
 3494SOL    HW222119   4.437   4.540   5.252  0.2274  1.7999 -0.0531
 3495SOL     OW22120   0.361   1.682   3.105  0.3423 -0.2558  0.1328
 3495SOL    HW122121   0.321   1.598   3.086 -3.0330  1.9148 -2.4043
 3495SOL    HW222122   0.278   1.730   3.104 -0.3572 -1.4966 -0.1621
 3496SOL     OW22123   4.678   2.371   4.488  0.3301  0.2391  0.2792
 3496SOL    HW122124   0.001   2.312   4.535 -0.5306 -1.7922 -1.1835
 3496SOL    HW222125   4.670   2.325   4.405 -0.0280  0.6251  0.0994
 3497SOL     OW22126   3.533   2.435   6.995 -0.3801 -0.0559 -0.0655
 3497SOL    HW122127   3.466   2.431   7.064 -1.4030  0.3966 -1.0231
 3497SOL    HW222128   3.608   2.442   7.053 -0.4273 -3.0241  0.3753
 3498SOL     OW22129   3.466   2.746   6.333 -0.3764  0.0656  0.6244
 3498SOL    HW122130   3.498   2.820   6.385  1.5391  0.4913 -1.1566
 3498SOL    HW222131   3.522   2.677   6.368  1.6803  0.6424 -1.5638
 3499SOL     OW22132   4.104   3.644   8.418 -0.1099 -0.0738  0.4056
 3499SOL    HW122133   4.151   3.670   8.498 -1.7233  1.7739  0.7575
 3499SOL    HW222134   4.108   3.549   8.429  0.8070 -0.0967 -0.1190
 3500SOL     OW22135   0.037   0.432  10.472  0.1556  0.5701 -0.1385
 3500SOL    HW122136   0.081   0.348  10.481  2.7387  2.1503  1.8391
 3500SOL    HW222137   4.684   0.412  10.500  0.4407 -0.7623 -0.1666
 3501SOL     OW22138   0.243   0.187   0.794  0.7709 -0.4726 -0.1371
 3501SOL    HW122139   0.267   0.259   0.852  0.0636 -0.8426  0.6145
 3501SOL    HW222140   0.196   0.239   0.729  0.6083 -0.4077  0.0343
 3502SOL     OW22141   3.729   1.755   3.321  0.3610  0.7266  0.0178
 3502SOL    HW122142   3.799   1.749   3.256  0.1656  1.0950 -0.2231
 3502SOL    HW222143   3.652   1.703   3.299  1.3834 -1.3908  1.4300
 3503SOL     OW22144   2.569   2.486   9.038 -0.4965 -0.4125 -0.3497
 3503SOL    HW122145   2.558   2.405   9.088 -0.5769 -0.6053 -0.6829
 3503SOL    HW222146   2.481   2.499   9.004 -0.3234 -1.5329 -1.2446
 3504SOL     OW22147   0.866   3.955   3.408 -0.0824  0.1210  0.3169
 3504SOL    HW122148   0.877   4.049   3.420  0.5891  0.1089 -0.2034
 3504SOL    HW222149   0.913   3.923   3.485  1.5699  0.9164 -0.3618
 3505SOL     OW22150   1.664   2.828   4.343  0.2214  0.4475 -0.1095
 3505SOL    HW122151   1.706   2.812   4.427  0.9527  0.0441 -0.5447
 3505SOL    HW222152   1.572   2.832   4.371 -0.1093  2.5224 -1.5230
 3506SOL     OW22153   0.986   0.049   2.868 -0.1863 -0.0023  0.5206
 3506SOL    HW122154   0.986   0.122   2.806 -2.5368  0.3942  0.9718
 3506SOL    HW222155   1.005   0.099   2.947  1.3099  0.6706 -0.2755
 3507SOL     OW22156   3.953   3.726   5.328 -0.0806  0.0507  0.4101
 3507SOL    HW122157   3.921   3.646   5.370  2.3237 -0.5818  1.0472
 3507SOL    HW222158   3.889   3.789   5.362 -0.4362 -0.2667  0.3224
 3508SOL     OW22159   1.264   4.008   8.456  0.2105  0.4119  0.0061
 3508SOL    HW122160   1.299   4.025   8.369  2.5871  0.8563  1.0489
 3508SOL    HW222161   1.321   3.943   8.498 -0.3947  1.7593  2.9309
 3509SOL     OW22162   2.050   2.606   3.358  0.5145 -0.1329  0.1587
 3509SOL    HW122163   1.971   2.615   3.411 -0.7941  2.5625 -2.1950
 3509SOL    HW222164   2.024   2.593   3.267 -1.4393 -0.8146  0.8302
 3510SOL     OW22165   1.278   3.966   4.582 -0.0224  0.2941  0.0164
 3510SOL    HW122166   1.227   3.887   4.601  1.9667 -0.6202  1.4543
 3510SOL    HW222167   1.215   4.020   4.534 -0.6344 -2.4195 -2.2211
 3511SOL     OW22168   1.347   4.058   7.717  0.4539  0.1568 -0.1931
 3511SOL    HW122169   1.343   3.998   7.642 -0.9777 -0.5797  0.4709
 3511SOL    HW222170   1.427   4.104   7.691 -0.9224  3.0919  0.7618
 3512SOL     OW22171   4.227   4.384   4.373 -0.1415  0.3381  0.3114
 3512SOL    HW122172   4.239   4.295   4.340 -0.3450 -0.0271  1.2338
 3512SOL    HW222173   4.171   4.418   4.303  0.4114  0.1015 -0.2458
 3513SOL     OW22174   0.837   3.258  16.106 -0.4763 -0.7046  0.4690
 3513SOL    HW122175   0.862   3.167  16.092  1.8186 -0.0923  0.6559
 3513SOL    HW222176   0.914   3.304  16.140  0.2866 -1.9470  0.4346
 3514SOL     OW22177   3.343   4.521  17.265 -0.0461  0.0299 -1.0088
 3514SOL    HW122178   3.314   4.522  17.356  0.4324 -1.5537 -0.8317
 3514SOL    HW222179   3.397   4.442  17.263 -0.4868 -0.2993  0.0784
 3515SOL     OW22180   1.823   0.585   9.090 -0.2608  0.2779  0.6905
 3515SOL    HW122181   1.881   0.616   9.020  0.0426  0.2582  0.9365
 3515SOL    HW222182   1.745   0.569   9.037 -0.2490 -1.8031  1.3140
 3516SOL     OW22183   3.038   0.107   7.867 -0.7465  0.5914 -0.2196
 3516SOL    HW122184   3.024   0.187   7.917 -0.6098 -0.2223  1.1075
 3516SOL    HW222185   3.131   0.097   7.889 -0.7108  0.7422 -0.3037
 3517SOL     OW22186   3.215   2.400  15.882 -0.2614 -0.0248 -0.5574
 3517SOL    HW122187   3.163   2.413  15.803 -1.5576 -3.3644 -0.2211
 3517SOL    HW222188   3.242   2.491  15.897 -1.5406  0.4411 -1.1389
 3518SOL     OW22189   0.644   1.411   3.746 -0.6185  0.2349 -0.2551
 3518SOL    HW122190   0.674   1.465   3.819 -0.4347 -1.6823  1.0848
 3518SOL    HW222191   0.642   1.473   3.673 -1.9319 -0.1559 -0.5376
 3519SOL     OW22192   2.495   0.648   9.344  0.2077 -0.5330  0.2067
 3519SOL    HW122193   2.529   0.692   9.422  0.4762  1.1854 -0.8663
 3519SOL    HW222194   2.568   0.587   9.331 -0.2548 -0.7111 -1.5624
 3520SOL     OW22195   3.072   0.642   0.140 -0.0366  0.5500 -0.0013
 3520SOL    HW122196   3.019   0.716   0.110  3.5812  2.8101 -0.8251
 3520SOL    HW222197   3.007   0.602   0.197  1.0539 -0.4245  0.5550
 3521SOL     OW22198   1.726   1.857   8.661 -0.0268  0.1310  0.1081
 3521SOL    HW122199   1.802   1.802   8.645 -0.8572 -1.3650  1.3205
 3521SOL    HW222200   1.758   1.884   8.747 -0.0056  1.3537 -0.2688
 3522SOL     OW22201   2.066   1.472   2.250 -0.0520  0.0673 -0.2229
 3522SOL    HW122202   2.025   1.399   2.296  0.6313  0.4945  1.0734
 3522SOL    HW222203   2.157   1.447   2.232 -0.3290 -0.8564 -0.3247
 3523SOL     OW22204   1.288   0.074   7.143  0.6009  0.4087 -0.0363
 3523SOL    HW122205   1.367   0.033   7.178 -0.7898 -1.7205  0.6171
 3523SOL    HW222206   1.277   0.029   7.059  2.9204 -1.4531  0.6614
 3524SOL     OW22207   2.257   4.493   4.932 -0.6347 -0.4159 -0.1244
 3524SOL    HW122208   2.215   4.511   5.016 -0.2861  4.2702 -0.9443
 3524SOL    HW222209   2.337   4.446   4.958 -0.4434  0.3825  0.7385
 3525SOL     OW22210   2.397   3.264  11.894  0.5624  0.3949  0.0221
 3525SOL    HW122211   2.331   3.223  11.949  1.3725 -2.3460 -1.0709
 3525SOL    HW222212   2.349   3.338  11.859  0.7248 -0.3141 -1.6692
 3526SOL     OW22213   4.362   3.315   1.793  0.6965  0.3376  0.9515
 3526SOL    HW122214   4.273   3.326   1.760  0.5220 -1.5322  0.8069
 3526SOL    HW222215   4.402   3.279   1.714 -2.1109 -2.8503  0.9913
 3527SOL     OW22216   3.802   2.359   5.403  0.6007  0.3268 -0.2987
 3527SOL    HW122217   3.823   2.417   5.330 -2.1294  1.7078  0.0097
 3527SOL    HW222218   3.834   2.411   5.477  0.2948  0.1987 -0.0736
 3528SOL     OW22219   3.531   2.066   7.082  0.3560 -0.0886 -0.3859
 3528SOL    HW122220   3.526   2.073   6.986 -1.8823  0.4256 -0.2408
 3528SOL    HW222221   3.625   2.067   7.097 -0.3347 -2.6448  3.8337
 3529SOL     OW22222   4.122   4.153   3.806 -0.0107 -0.3694 -0.1568
 3529SOL    HW122223   4.172   4.081   3.844 -0.2079 -1.1438 -1.3624
 3529SOL    HW222224   4.083   4.187   3.887 -1.2177  0.0367 -0.9116
 3530SOL     OW22225   1.312   0.688   0.225  0.4914 -0.1726  0.2192
 3530SOL    HW122226   1.357   0.766   0.258  0.7823 -0.4566  0.4905
 3530SOL    HW222227   1.276   0.715   0.140 -0.9191  0.4946  1.0270
 3531SOL     OW22228   2.762   1.444   2.671 -0.3347 -0.0549 -0.3379
 3531SOL    HW122229   2.754   1.503   2.596  2.7745  2.1777  1.1018
 3531SOL    HW222230   2.845   1.397   2.671 -0.4851 -0.3247  0.2251
 3532SOL     OW22231   2.556   4.588   7.143 -0.0594  0.4208  0.3038
 3532SOL    HW122232   2.483   4.640   7.175 -1.0701 -0.0823 -1.1898
 3532SOL    HW222233   2.601   4.556   7.222 -1.2232  0.8288  1.1417
 3533SOL     OW22234   4.646   0.274   8.883  0.2261 -0.1958  0.0728
 3533SOL    HW122235   0.003   0.267   8.865 -0.1139 -1.0841 -1.3596
 3533SOL    HW222236   4.615   0.184   8.889 -3.7296  1.0405 -1.4942
 3534SOL     OW22237   3.318   2.515   8.065  0.1617  0.2236 -0.4746
 3534SOL    HW122238   3.233   2.473   8.077  0.4100  0.1793  1.0981
 3534SOL    HW222239   3.377   2.442   8.086  0.4314  0.6549  0.2675
 3535SOL     OW22240   4.167   2.159  11.415  0.5741  0.5300  0.1578
 3535SOL    HW122241   4.110   2.105  11.360 -2.1708  0.4393  3.0672
 3535SOL    HW222242   4.249   2.134  11.374 -0.1351 -1.0251 -0.3378
 3536SOL     OW22243   1.673   4.457   8.169  0.2303 -0.0324 -0.0292
 3536SOL    HW122244   1.749   4.503   8.203 -1.9185  3.2506  0.3155
 3536SOL    HW222245   1.601   4.520   8.172  1.4261  1.2266  1.6411
 3537SOL     OW22246   4.582   0.805   8.016  0.2390  0.0487  0.0102
 3537SOL    HW122247   4.648   0.768   8.075 -0.3179  0.9880  1.2207
 3537SOL    HW222248   4.633   0.830   7.939  2.2431 -2.7430  0.4292
 3538SOL     OW22249   1.955   1.426   2.905 -0.4021  0.1651  0.0691
 3538SOL    HW122250   2.005   1.352   2.940 -0.5498  0.4471  0.8826
 3538SOL    HW222251   2.007   1.452   2.829  0.7185 -1.3584  0.3106
 3539SOL     OW22252   4.603   4.546  17.025 -0.0409 -0.1777 -0.1606
 3539SOL    HW122253   4.573   4.463  17.063 -0.5570  0.1747  0.2126
 3539SOL    HW222254   4.692   4.546  17.060 -1.1620 -1.5784  2.7606
 3540SOL     OW22255   3.101   0.196   8.804  0.3385 -0.0989  0.3109
 3540SOL    HW122256   3.181   0.185   8.752  0.3231  0.4990  0.1603
 3540SOL    HW222257   3.137   0.159   8.885 -1.3146 -2.0970  0.1121
 3541SOL     OW22258   4.319   4.540  16.405 -0.2932  0.0531 -0.0089
 3541SOL    HW122259   4.279   4.466  16.450 -1.6249  0.1436 -1.0391
 3541SOL    HW222260   4.246   4.602  16.393 -0.9006 -0.5341  0.7155
 3542SOL     OW22261   1.537   1.790   8.053 -1.0661 -0.0640 -0.1326
 3542SOL    HW122262   1.492   1.708   8.033  1.7233 -1.1948 -1.7621
 3542SOL    HW222263   1.624   1.767   8.086 -0.3049 -1.9610 -3.4107
 3543SOL     OW22264   3.428   1.338  16.401  0.1690 -0.2302  0.2232
 3543SOL    HW122265   3.361   1.400  16.371  1.6255  1.4479  0.4075
 3543SOL    HW222266   3.466   1.381  16.477 -2.1362  0.7291  0.8358
 3544SOL     OW22267   3.504   2.268   6.535 -0.5129 -0.0829  0.3495
 3544SOL    HW122268   3.427   2.287   6.589 -1.8492 -1.5288 -1.0628
 3544SOL    HW222269   3.500   2.175   6.512 -0.4626  0.5296 -2.1194
 3545SOL     OW22270   3.994   1.318  16.512  0.3674 -0.1266 -0.2365
 3545SOL    HW122271   3.948   1.251  16.563  1.6655  1.3960  2.9215
 3545SOL    HW222272   3.990   1.263  16.434  0.5805  1.2163 -1.1796
 3546SOL     OW22273   4.543   4.116  15.546  0.2955 -0.1084  0.9321
 3546SOL    HW122274   4.506   4.050  15.487 -0.0731  0.8890  0.0332
 3546SOL    HW222275   4.471   4.175  15.572  0.1347 -1.6954  4.0976
 3547SOL     OW22276   4.414   4.651   2.879 -0.4107  0.1416 -0.2141
 3547SOL    HW122277   4.449   4.588   2.942 -1.0271  0.7899  0.7786
 3547SOL    HW222278   4.392   4.725   2.935 -0.1343  1.0748 -1.3158
 3548SOL     OW22279   1.722   4.606  17.420  0.0905 -0.0579  0.0764
 3548SOL    HW122280   1.676   4.596  17.503  1.7423  0.5402  1.0545
 3548SOL    HW222281   1.813   4.587  17.443 -0.0728 -0.1930  0.6212
 3549SOL     OW22282   3.201   2.855   2.124 -0.1954  0.0978  0.3826
 3549SOL    HW122283   3.137   2.920   2.155  0.1632  0.0160  1.3075
 3549SOL    HW222284   3.147   2.777   2.112  0.1940  0.1859 -1.8734
 3550SOL     OW22285   2.206   0.039   2.256 -0.9234 -0.5004  0.1071
 3550SOL    HW122286   2.170   4.700   2.303 -3.9909  0.7442 -0.2582
 3550SOL    HW222287   2.187   0.005   2.168 -0.8902  0.4777 -0.2689
 3551SOL     OW22288   0.074   3.115   0.688  0.1079  0.4331  0.2306
 3551SOL    HW122289   4.731   3.167   0.704 -0.8395 -0.6859 -0.8110
 3551SOL    HW222290   0.087   3.131   0.594  1.9151 -0.3235  0.3433
 3552SOL     OW22291   0.954   0.524   3.430 -0.5742  0.0505  0.8722
 3552SOL    HW122292   0.960   0.573   3.348  0.1062 -0.2586  0.7369
 3552SOL    HW222293   0.860   0.527   3.446 -0.5588 -0.3824  1.0274
 3553SOL     OW22294   3.850   0.183   9.185  0.0766 -0.1163  0.2587
 3553SOL    HW122295   3.853   0.118   9.255 -0.0710  0.2167  0.5778
 3553SOL    HW222296   3.804   0.254   9.231  0.6443  0.8458 -0.6636
 3554SOL     OW22297   0.210   3.857  17.604  0.4795 -0.2118  0.0959
 3554SOL    HW122298   0.164   3.812  17.534  0.8616 -0.8157  0.2381
 3554SOL    HW222299   0.162   3.939  17.619 -1.2892 -0.9068 -1.7609
 3555SOL     OW22300   4.492   2.867   4.777 -0.1284 -0.3786 -0.2343
 3555SOL    HW122301   4.401   2.891   4.795  0.1998  0.0092  0.8724
 3555SOL    HW222302   4.507   2.841   4.868 -1.1910 -0.5685 -0.1137
 3556SOL     OW22303   2.940   3.160   6.803  0.1646 -0.0984 -0.4386
 3556SOL    HW122304   3.023   3.155   6.754  0.6141  0.2427  0.2855
 3556SOL    HW222305   2.878   3.131   6.736  1.0485  1.7922 -2.0856
 3557SOL     OW22306   2.478   1.782   4.598 -0.3002 -0.1751  0.1248
 3557SOL    HW122307   2.496   1.874   4.619  0.4040  0.0516 -1.4716
 3557SOL    HW222308   2.496   1.783   4.504 -1.2093 -0.0204 -0.0500
 3558SOL     OW22309   1.035   1.819  16.937  0.3969 -0.4095  0.3004
 3558SOL    HW122310   1.015   1.726  16.920 -1.7903  0.1736 -0.3187
 3558SOL    HW222311   1.129   1.810  16.952  0.7818  0.1711 -1.7583
 3559SOL     OW22312   0.180   0.746   4.677 -0.0168  0.6285 -0.4343
 3559SOL    HW122313   0.110   0.762   4.613 -0.8196 -0.1965  0.2435
 3559SOL    HW222314   0.149   0.816   4.735  0.6119 -0.6894  1.4607
 3560SOL     OW22315   2.329   3.853   9.003 -0.1729  0.0002  0.2350
 3560SOL    HW122316   2.328   3.877   8.910 -0.1770  1.6239  0.6566
 3560SOL    HW222317   2.235   3.854   9.020  0.0320 -1.2381  1.4721
 3561SOL     OW22318   3.809   2.967   4.471  0.1517 -0.9311  0.0126
 3561SOL    HW122319   3.892   2.923   4.454 -0.8517 -2.6912 -0.4546
 3561SOL    HW222320   3.824   3.051   4.429  0.3132 -0.5734  0.7763
 3562SOL     OW22321   0.587   1.577   7.431  0.2135  0.1016  0.3401
 3562SOL    HW122322   0.680   1.589   7.414  0.2467 -1.8857 -0.9423
 3562SOL    HW222323   0.558   1.663   7.398 -0.2602 -0.0614  0.3251
 3563SOL     OW22324   1.579   0.234   8.129 -0.6363 -0.1722  0.1674
 3563SOL    HW122325   1.516   0.289   8.083  0.1255  1.3159  0.9308
 3563SOL    HW222326   1.530   0.225   8.211 -0.3350  2.3681  0.6062
 3564SOL     OW22327   0.160   2.947   2.071  0.7058  0.0448 -0.0232
 3564SOL    HW122328   0.078   2.925   2.029  0.6630  2.3391 -1.1668
 3564SOL    HW222329   0.145   3.041   2.057  1.3028  0.0768 -0.4716
 3565SOL     OW22330   0.341   2.411   0.317 -0.4722  0.6641 -0.0318
 3565SOL    HW122331   0.350   2.488   0.372 -4.5476  0.2657  1.2399
 3565SOL    HW222332   0.423   2.362   0.323  0.1233  1.7844  0.8365
 3566SOL     OW22333   0.897   1.076   4.718 -0.1210  0.0077  0.5015
 3566SOL    HW122334   0.891   1.169   4.700 -0.0391 -0.5069 -2.1769
 3566SOL    HW222335   0.819   1.050   4.669  1.1447  1.0351 -2.0542
 3567SOL     OW22336   2.614   2.083   3.864 -0.5516 -0.5535  0.0356
 3567SOL    HW122337   2.660   2.137   3.928 -1.0440  0.2445 -0.2935
 3567SOL    HW222338   2.651   1.997   3.882 -0.5106 -0.9025 -1.7224
 3568SOL     OW22339   1.360   0.551  16.787 -0.4758 -0.5510  0.5404
 3568SOL    HW122340   1.361   0.512  16.874 -1.0454 -0.1219  0.7370
 3568SOL    HW222341   1.360   0.472  16.733 -1.1577 -0.3270  0.2145
 3569SOL     OW22342   0.100   2.463  15.400  0.2765  0.0224 -0.5036
 3569SOL    HW122343   0.102   2.399  15.329  1.2627  1.3729 -1.7207
 3569SOL    HW222344   0.194   2.482  15.402  0.5583 -1.4422 -0.1405
 3570SOL     OW22345   0.144   1.368  16.609  0.0792  0.0646 -0.6714
 3570SOL    HW122346   0.209   1.315  16.565  1.4024 -0.3930  1.8436
 3570SOL    HW222347   0.091   1.304  16.657  2.4515 -1.4059 -0.0293
 3571SOL     OW22348   2.601   4.594   0.562  0.3379 -0.5936 -0.0117
 3571SOL    HW122349   2.621   4.671   0.616 -0.2923  0.9684 -2.0106
 3571SOL    HW222350   2.631   4.610   0.473  1.9384 -1.7995  0.3102
 3572SOL     OW22351   3.574   3.949   6.305  0.3065 -0.2521  0.0121
 3572SOL    HW122352   3.486   3.915   6.320 -0.4252  1.5028 -0.2479
 3572SOL    HW222353   3.558   4.043   6.316  1.5041 -0.0711  0.2039
 3573SOL     OW22354   2.973   1.236   8.632  0.1694  0.4880  0.1164
 3573SOL    HW122355   2.890   1.271   8.664 -0.0724 -0.2315  0.2682
 3573SOL    HW222356   2.939   1.201   8.550  1.1684 -1.0697  0.3746
 3574SOL     OW22357   3.404   0.669   4.253  0.2601  0.2198  0.3443
 3574SOL    HW122358   3.392   0.652   4.160 -1.6265  3.9941 -0.1107
 3574SOL    HW222359   3.371   0.586   4.286  1.6151 -0.0203  1.1020
 3575SOL     OW22360   2.989   3.062  17.204 -0.2883 -0.0957  0.0392
 3575SOL    HW122361   3.065   3.012  17.234  0.1532  0.1335 -0.6818
 3575SOL    HW222362   3.007   3.104  17.120 -0.2326  1.6488  0.9223
 3576SOL     OW22363   2.362   0.406  17.107 -0.0531  0.5895  0.0539
 3576SOL    HW122364   2.392   0.459  17.033  0.7628  2.0104  1.4009
 3576SOL    HW222365   2.274   0.392  17.073 -1.5201  2.1017  3.2236
 3577SOL     OW22366   3.854   3.254   6.469 -0.0316  0.4636 -0.3816
 3577SOL    HW122367   3.926   3.234   6.410 -0.1880 -2.2238  0.3419
 3577SOL    HW222368   3.810   3.322   6.417  0.3930  0.3106 -0.9418
 3578SOL     OW22369   0.762   3.383  15.341 -0.2614 -0.7071 -0.0299
 3578SOL    HW122370   0.724   3.471  15.336  0.6521 -0.3348 -0.2923
 3578SOL    HW222371   0.699   3.333  15.289 -1.2206 -0.8872  1.2823
 3579SOL     OW22372   1.719   3.764   6.259 -0.1065  0.0593 -0.2554
 3579SOL    HW122373   1.650   3.709   6.295  1.2726 -0.8569  0.9768
 3579SOL    HW222374   1.762   3.705   6.197  1.8338  0.3634  0.7990
 3580SOL     OW22375   3.062   0.302   0.862  0.0122  0.0817  0.1864
 3580SOL    HW122376   3.018   0.367   0.917  0.7639 -0.6582  1.6497
 3580SOL    HW222377   3.132   0.266   0.915  0.0440 -0.3358 -0.1362
 3581SOL     OW22378   3.760   3.189   1.722 -0.2853 -0.4007 -0.2112
 3581SOL    HW122379   3.789   3.101   1.747 -1.4543 -0.8400 -0.4377
 3581SOL    HW222380   3.729   3.223   1.806  0.3278  0.3550 -0.2889
 3582SOL     OW22381   2.367   1.178  12.264 -0.6928  0.1479  0.3747
 3582SOL    HW122382   2.408   1.205  12.182 -3.2189 -1.0682 -1.2585
 3582SOL    HW222383   2.361   1.265  12.303  0.0385  0.8153 -1.0355
 3583SOL     OW22384   3.015   1.727   0.892  0.5912 -1.0835 -0.5057
 3583SOL    HW122385   2.941   1.764   0.845  0.9778  0.0039 -0.2645
 3583SOL    HW222386   2.971   1.644   0.909 -3.2798  1.2850  0.8554
 3584SOL     OW22387   3.423   1.603   8.284 -0.1840 -0.7376  0.3626
 3584SOL    HW122388   3.451   1.681   8.235  0.3091 -0.7164  0.6698
 3584SOL    HW222389   3.506   1.575   8.325 -0.3997 -0.3845  1.0461
 3585SOL     OW22390   3.774   0.538  12.979  0.0331  0.2052  0.2797
 3585SOL    HW122391   3.753   0.631  12.985 -1.8845 -0.3594  2.3197
 3585SOL    HW222392   3.856   0.541  12.930 -0.5102  0.8458 -0.6108
 3586SOL     OW22393   3.341   3.689   2.369 -0.2077  0.0221  0.1296
 3586SOL    HW122394   3.298   3.773   2.388  0.7200  0.7635 -1.0363
 3586SOL    HW222395   3.350   3.664   2.461 -0.2589 -0.2173  0.0697
 3587SOL     OW22396   0.767   0.106   9.920  0.7784 -0.4462 -0.0278
 3587SOL    HW122397   0.816   0.185   9.898 -1.1604  0.4685 -1.0474
 3587SOL    HW222398   0.837   0.045   9.946 -0.2357 -2.6777 -2.5089
 3588SOL     OW22399   0.783   2.747   7.412 -0.3036 -0.2251  0.6854
 3588SOL    HW122400   0.710   2.808   7.399 -3.6123 -4.3889 -0.3457
 3588SOL    HW222401   0.763   2.674   7.353 -1.5200  1.4868 -0.9982
 3589SOL     OW22402   1.014   0.344   4.204 -0.8895 -0.0864  0.4473
 3589SOL    HW122403   1.109   0.343   4.206 -0.8653 -1.3173 -1.1399
 3589SOL    HW222404   1.003   0.333   4.298 -2.1214 -1.7157  0.1012
 3590SOL     OW22405   3.468   2.628   7.651 -0.1517  0.2917 -0.3184
 3590SOL    HW122406   3.438   2.659   7.736 -4.7971 -0.7997 -1.5611
 3590SOL    HW222407   3.488   2.713   7.611  1.0827  0.0281 -0.2442
 3591SOL     OW22408   0.998   3.276   9.182 -0.0817 -0.0029 -0.0038
 3591SOL    HW122409   0.999   3.343   9.250  2.0978 -0.6306  0.5793
 3591SOL    HW222410   1.067   3.218   9.214  0.1416 -0.4615 -1.3295
 3592SOL     OW22411   2.515   4.194  13.527 -0.0341  0.2607  0.5476
 3592SOL    HW122412   2.534   4.113  13.572  0.7808  0.1193 -0.0554
 3592SOL    HW222413   2.599   4.210  13.483 -1.3312  3.0162 -0.9741
 3593SOL     OW22414   2.137   1.476   5.877  0.3491 -0.0422  0.1077
 3593SOL    HW122415   2.177   1.563   5.880  0.7574 -0.2073 -0.5609
 3593SOL    HW222416   2.140   1.454   5.784  1.1544  1.3187 -0.1761
 3594SOL     OW22417   2.407   3.237  12.256  0.0433  0.1371 -0.1201
 3594SOL    HW122418   2.480   3.272  12.206  1.8439 -0.8789  1.8295
 3594SOL    HW222419   2.434   3.148  12.279  2.2070  0.5275 -1.1606
 3595SOL     OW22420   0.689   2.147  11.576 -0.1600 -0.1626  0.3822
 3595SOL    HW122421   0.603   2.184  11.597  0.4023  0.9064  0.7912
 3595SOL    HW222422   0.678   2.121  11.485 -3.4761  0.5263  0.6003
 3596SOL     OW22423   2.247   2.124   0.423 -0.1790  0.6169  0.0280
 3596SOL    HW122424   2.232   2.032   0.404  1.2764  0.0252  1.7939
 3596SOL    HW222425   2.267   2.162   0.337 -0.5481  1.6258  0.3874
 3597SOL     OW22426   3.704   1.668   2.489 -0.0523  0.2249  0.2190
 3597SOL    HW122427   3.773   1.713   2.441  1.5703 -2.9419 -0.4692
 3597SOL    HW222428   3.736   1.674   2.579  1.8233  1.9409 -0.5810
 3598SOL     OW22429   2.024   3.159   8.482  0.3602  0.0952  0.0852
 3598SOL    HW122430   2.069   3.148   8.565  0.4571 -0.9095 -0.1016
 3598SOL    HW222431   2.013   3.254   8.472 -0.3660 -0.0831 -0.8623
 3599SOL     OW22432   1.051   1.812   7.222  0.7262 -0.0136 -0.2266
 3599SOL    HW122433   1.073   1.749   7.153  0.1940  0.3249 -0.7094
 3599SOL    HW222434   1.136   1.813   7.265  0.1528  0.6060  0.8772
 3600SOL     OW22435   3.670   0.057   6.889 -0.6656 -0.1401  0.4525
 3600SOL    HW122436   3.624   0.012   6.819 -1.1593  0.6118  0.2952
 3600SOL    HW222437   3.736   0.099   6.834  0.6749 -2.1416  0.5182
 3601SOL     OW22438   4.638   0.897  15.228 -0.0604  0.1143 -0.0718
 3601SOL    HW122439   4.728   0.915  15.256 -0.4754  1.2027  0.5732
 3601SOL    HW222440   4.628   0.807  15.257  1.0642  0.1182  0.3366
 3602SOL     OW22441   4.109   1.496   5.255 -0.0864 -0.1609  0.2633
 3602SOL    HW122442   4.022   1.494   5.294 -0.1434  0.2873  0.1625
 3602SOL    HW222443   4.164   1.453   5.320  2.1513 -0.6095 -1.8980
 3603SOL     OW22444   3.375   3.170   2.138 -0.1891 -0.0122 -0.0833
 3603SOL    HW122445   3.371   3.266   2.133  0.0610 -0.0955 -2.0467
 3603SOL    HW222446   3.352   3.162   2.231 -0.1453 -1.3424 -0.1866
 3604SOL     OW22447   0.130   0.959  17.160  0.6014  0.6046 -0.5630
 3604SOL    HW122448   0.048   0.913  17.179  0.4808  2.0365  2.3809
 3604SOL    HW222449   0.175   0.946  17.244  2.0083 -0.9415 -1.5579
 3605SOL     OW22450   1.373   4.194  13.701  0.0468 -0.5275 -0.6113
 3605SOL    HW122451   1.350   4.118  13.755 -0.4689 -0.0611 -0.1788
 3605SOL    HW222452   1.332   4.163  13.620 -2.5187  2.3587 -0.4170
 3606SOL     OW22453   1.572   2.270   4.153  0.4723  0.1559  0.3448
 3606SOL    HW122454   1.576   2.284   4.058 -2.2026 -1.2517  0.0262
 3606SOL    HW222455   1.579   2.361   4.181 -1.7132  0.4168  0.0653
 3607SOL     OW22456   2.674   3.949   4.981  0.6014 -0.0570  0.8809
 3607SOL    HW122457   2.724   3.874   4.949 -0.4661 -0.4509  0.1492
 3607SOL    HW222458   2.619   3.970   4.906  1.2929 -1.3876  0.0002
 3608SOL     OW22459   3.019   2.896   4.149  0.3681  0.5180  0.0889
 3608SOL    HW122460   2.953   2.844   4.195  1.8835 -2.2942 -0.8606
 3608SOL    HW222461   2.960   2.951   4.098  0.1861  0.7007  0.4955
 3609SOL     OW22462   2.481   3.381  16.102 -0.3564 -0.0397  0.4444
 3609SOL    HW122463   2.484   3.298  16.055  0.2459  0.1204  0.2059
 3609SOL    HW222464   2.567   3.390  16.143 -0.6254  0.2883  0.9394
 3610SOL     OW22465   2.204   0.516   2.610  0.2281  0.0648 -0.3824
 3610SOL    HW122466   2.234   0.603   2.634  0.8864 -0.2978  0.0913
 3610SOL    HW222467   2.128   0.558   2.569  0.6583 -0.8086 -2.1011
 3611SOL     OW22468   0.346   1.379  17.139 -0.1416 -0.2367  0.2537
 3611SOL    HW122469   0.398   1.389  17.219  1.1897  4.2298 -1.1681
 3611SOL    HW222470   0.420   1.380  17.079  0.3472  0.0727  0.8639
 3612SOL     OW22471   1.896   4.480   3.029  0.6605 -0.7174  0.3510
 3612SOL    HW122472   1.963   4.437   3.082  0.4296 -0.6677  0.6838
 3612SOL    HW222473   1.848   4.510   3.106 -0.4937  2.1839 -1.4930
 3613SOL     OW22474   0.022   0.029   9.832 -0.3541 -0.0179 -0.4699
 3613SOL    HW122475   0.030   4.700   9.762  0.9628  0.8595 -1.1124
 3613SOL    HW222476   0.110   0.064   9.825 -0.3297  0.1453  0.5816
 3614SOL     OW22477   4.683   0.935   8.771 -0.0816 -0.2076  0.2491
 3614SOL    HW122478   4.607   0.925   8.713 -0.5203  0.4710  0.7017
 3614SOL    HW222479   4.652   0.879   8.842 -1.2408 -0.2032 -0.2401
 3615SOL     OW22480   3.842   0.698   2.318 -0.1244  0.1525 -0.0988
 3615SOL    HW122481   3.846   0.658   2.231  1.0969 -2.8536  1.3240
 3615SOL    HW222482   3.904   0.770   2.307  0.3643 -0.2218  0.1492
 3616SOL     OW22483   3.021   2.408   4.533  0.5569 -0.4965  0.3683
 3616SOL    HW122484   3.100   2.417   4.479  0.8197  0.5680  0.9375
 3616SOL    HW222485   3.020   2.493   4.578  2.3072 -1.2034  1.7283
 3617SOL     OW22486   3.940   0.966  10.655 -0.2748 -0.5495 -0.2494
 3617SOL    HW122487   3.985   1.019  10.720 -0.7673 -1.0602  0.5045
 3617SOL    HW222488   3.900   1.035  10.602  0.4857 -1.0277 -1.4418
 3618SOL     OW22489   4.556   2.988   3.534 -0.2387 -0.4389 -0.1277
 3618SOL    HW122490   4.504   3.052   3.485 -0.7338 -1.5618 -1.0699
 3618SOL    HW222491   4.563   3.043   3.612 -1.6965 -2.2395  1.2591
 3619SOL     OW22492   1.859   4.669   1.237 -0.4198 -0.1735  0.1128
 3619SOL    HW122493   1.905   4.683   1.320  1.8016  0.0114 -1.1663
 3619SOL    HW222494   1.793   0.001   1.249  0.8110  0.9558  0.4736
 3620SOL     OW22495   3.099   2.205   4.724 -0.4151 -0.3328  0.5924
 3620SOL    HW122496   3.080   2.278   4.665  0.4670  0.7359  1.6398
 3620SOL    HW222497   3.052   2.244   4.797 -0.9396  0.6469 -0.2709
 3621SOL     OW22498   0.762   2.411   7.008 -0.8815 -0.1943 -0.3928
 3621SOL    HW122499   0.744   2.445   6.921 -3.6144  1.4133  0.8071
 3621SOL    HW222500   0.671   2.390   7.027 -0.4387 -1.1462  0.6932
 3622SOL     OW22501   4.650   0.160  14.487 -0.6095 -0.0817  0.2117
 3622SOL    HW122502   4.717   0.224  14.505 -2.7809  1.4646  2.8203
 3622SOL    HW222503   4.697   0.094  14.435  2.4239  2.8353 -0.7239
 3623SOL     OW22504   0.565   2.237   4.940  0.4704 -0.6412  0.3196
 3623SOL    HW122505   0.586   2.143   4.939  2.2174 -0.2659  0.7840
 3623SOL    HW222506   0.527   2.256   5.026 -0.4656 -0.5644 -0.1107
 3624SOL     OW22507   4.734   1.066   7.335 -0.4231 -0.5214 -0.1490
 3624SOL    HW122508   4.643   1.085   7.312  0.0974  0.6933 -1.2391
 3624SOL    HW222509   0.018   1.020   7.253  0.2700  1.7562 -1.2590
 3625SOL     OW22510   3.904   3.103   3.054 -0.5873 -0.0769 -0.0899
 3625SOL    HW122511   3.895   3.198   3.042  2.6479  0.3593  0.7676
 3625SOL    HW222512   3.941   3.075   2.971 -1.4212 -0.2843 -0.3836
 3626SOL     OW22513   1.723   3.918  12.388 -0.3844  0.5973  0.0351
 3626SOL    HW122514   1.713   3.935  12.294 -2.9371 -1.7746 -0.1192
 3626SOL    HW222515   1.661   3.846  12.396  2.0065 -1.7393 -2.6365
 3627SOL     OW22516   3.371   2.850  11.903  0.0550  0.1308  0.7938
 3627SOL    HW122517   3.458   2.816  11.921  0.2639 -0.7690 -1.9102
 3627SOL    HW222518   3.396   2.908  11.831 -1.0988  0.5401  0.7220
 3628SOL     OW22519   2.746   0.136   7.220  0.0451 -0.2628 -0.2207
 3628SOL    HW122520   2.749   0.226   7.253  0.4486 -0.4740  0.3315
 3628SOL    HW222521   2.794   0.153   7.139 -0.1755  0.5445 -0.1795
 3629SOL     OW22522   0.461   2.856   2.820 -0.1539  0.2992 -0.2999
 3629SOL    HW122523   0.402   2.825   2.889 -0.0805 -0.2897 -0.5058
 3629SOL    HW222524   0.396   2.856   2.750  0.8707  3.2028 -1.2287
 3630SOL     OW22525   0.215   1.029   8.926  0.7724 -0.2836  0.5300
 3630SOL    HW122526   0.136   0.989   8.890  0.9089 -1.0519  1.0908
 3630SOL    HW222527   0.253   1.047   8.840  1.4355  2.1917  1.3417
 3631SOL     OW22528   1.675   4.514   2.378 -0.2252 -0.3182  0.0109
 3631SOL    HW122529   1.734   4.576   2.335  0.1869 -1.0202 -0.4258
 3631SOL    HW222530   1.585   4.544   2.364 -1.0260 -1.8891  1.7965
 3632SOL     OW22531   2.784   4.131  13.940  0.3700  0.2994 -0.2519
 3632SOL    HW122532   2.795   4.114  14.033  1.0174  0.1568 -0.3554
 3632SOL    HW222533   2.691   4.154  13.938  0.0638 -0.8398  1.0030
 3633SOL     OW22534   4.312   1.642   3.717 -0.0348  0.3511  0.6130
 3633SOL    HW122535   4.401   1.679   3.724 -1.4425  3.8223  0.0620
 3633SOL    HW222536   4.259   1.716   3.689 -0.6108  0.1689  1.2281
 3634SOL     OW22537   2.899   4.128   8.878 -0.2349 -0.5173 -0.0234
 3634SOL    HW122538   2.862   4.130   8.967  1.0183 -0.1091  0.4914
 3634SOL    HW222539   2.924   4.220   8.872  0.9685 -0.8627 -0.2323
 3635SOL     OW22540   2.967   0.268  10.708 -0.2761  0.1042  0.4918
 3635SOL    HW122541   3.014   0.351  10.710 -0.9682  0.4796  0.8964
 3635SOL    HW222542   3.005   0.231  10.628 -1.3791  0.7762 -0.3279
 3636SOL     OW22543   0.830   2.858   8.188  0.3220 -0.0879 -0.3835
 3636SOL    HW122544   0.766   2.851   8.259 -0.3949  0.6287 -0.9608
 3636SOL    HW222545   0.819   2.776   8.141  0.6835  0.2977 -1.1466
 3637SOL     OW22546   1.065   0.576  16.998 -0.1597 -0.5032 -0.1110
 3637SOL    HW122547   1.053   0.549  17.089 -0.7432  1.2675  0.3287
 3637SOL    HW222548   1.132   0.641  17.019 -0.0993 -0.3455 -0.7848
 3638SOL     OW22549   4.508   3.840   2.816  0.0319 -0.0509 -0.0250
 3638SOL    HW122550   4.485   3.792   2.737 -1.7153 -1.2498  1.2144
 3638SOL    HW222551   4.442   3.803   2.874 -0.2127  2.3767  1.2245
 3639SOL     OW22552   1.941   1.101   5.455 -0.0692  0.2268  0.0921
 3639SOL    HW122553   1.851   1.070   5.464 -0.0355 -0.2742 -1.2609
 3639SOL    HW222554   1.937   1.163   5.527 -0.5136 -1.7890  1.8159
 3640SOL     OW22555   1.462   0.185   8.429 -0.5542  0.7728 -0.0357
 3640SOL    HW122556   1.509   0.262   8.398  0.9021 -0.0222  0.1870
 3640SOL    HW222557   1.533   0.134   8.467 -0.9913  1.2990  1.4928
 3641SOL     OW22558   2.209   2.271   5.749 -0.1762 -0.0650  0.3147
 3641SOL    HW122559   2.132   2.317   5.717  1.6678  3.2506  0.6409
 3641SOL    HW222560   2.282   2.331   5.732  1.8431 -3.0150 -1.3355
 3642SOL     OW22561   2.578   2.164   9.669 -0.2723  0.0245  0.2397
 3642SOL    HW122562   2.548   2.074   9.684 -0.9127  0.0622 -0.8850
 3642SOL    HW222563   2.667   2.133   9.652 -0.2025  1.8699 -2.8056
 3643SOL     OW22564   4.149   4.199   6.845 -0.1913  0.0314 -0.4113
 3643SOL    HW122565   4.071   4.155   6.878 -0.7808  1.5387  0.2148
 3643SOL    HW222566   4.109   4.259   6.782  0.8668  0.3457 -0.7852
 3644SOL     OW22567   0.873   0.023   7.700 -0.2041 -0.1469 -0.6127
 3644SOL    HW122568   0.785   0.044   7.731  0.0476 -0.5230  0.3459
 3644SOL    HW222569   0.919   4.722   7.775  0.0904  0.7826 -0.3302
 3645SOL     OW22570   2.392   3.558  13.973  0.1613 -0.2392  0.0485
 3645SOL    HW122571   2.449   3.632  13.994  0.1972  0.3857 -2.2456
 3645SOL    HW222572   2.384   3.550  13.878  2.7051 -0.4666 -0.1584
 3646SOL     OW22573   1.209   3.665   2.850  0.1826  0.0172 -0.0513
 3646SOL    HW122574   1.292   3.658   2.802 -1.0446 -0.3690 -2.1515
 3646SOL    HW222575   1.227   3.617   2.930  1.3314 -0.9402 -0.8820
 3647SOL     OW22576   1.356   1.923   9.565  0.1464 -0.4932 -0.0136
 3647SOL    HW122577   1.291   1.946   9.632 -0.0842 -1.0406 -0.0407
 3647SOL    HW222578   1.439   1.946   9.605  0.1892  1.8192 -1.4284
 3648SOL     OW22579   2.602   3.148   6.214  0.5988  0.1594  0.3674
 3648SOL    HW122580   2.578   3.168   6.124 -1.6472 -2.7337  0.3375
 3648SOL    HW222581   2.684   3.196   6.226  0.4546  0.8248 -1.3365
 3649SOL     OW22582   2.129   1.835  11.654 -0.2741  0.0860 -0.0984
 3649SOL    HW122583   2.099   1.866  11.740  1.1055 -1.6145  0.9848
 3649SOL    HW222584   2.131   1.919  11.608  1.6402  0.9180  1.5089
 3650SOL     OW22585   0.309   1.434  13.109 -0.0100 -0.5753  0.5308
 3650SOL    HW122586   0.376   1.491  13.072 -1.4568  2.8138  3.1128
 3650SOL    HW222587   0.235   1.493  13.119  1.6342  0.9733  3.4570
 3651SOL     OW22588   2.911   1.102  16.220 -0.4688 -0.5747  0.1986
 3651SOL    HW122589   2.994   1.085  16.265 -0.4865 -2.3913 -0.4628
 3651SOL    HW222590   2.870   1.168  16.277  3.2725  0.1927  2.0091
 3652SOL     OW22591   0.764   1.184   9.405 -0.1080  0.2826 -0.2873
 3652SOL    HW122592   0.820   1.106   9.406 -1.6174 -0.8154 -1.0816
 3652SOL    HW222593   0.740   1.170   9.497  2.6756  2.1601  0.7121
 3653SOL     OW22594   1.449   0.878   3.376  0.1480 -0.2754 -0.0557
 3653SOL    HW122595   1.374   0.903   3.431  1.9515  0.6827  1.9508
 3653SOL    HW222596   1.477   0.797   3.418 -1.1431  0.1040  1.5531
 3654SOL     OW22597   1.619   0.454   8.971 -0.4446  0.5144 -0.3903
 3654SOL    HW122598   1.564   0.514   8.921  1.0196  2.0365 -0.1984
 3654SOL    HW222599   1.639   0.399   8.895 -1.1244 -2.2298  1.4205
 3655SOL     OW22600   0.299   1.943   9.953  0.6404  0.2475  0.0066
 3655SOL    HW122601   0.352   1.869   9.925 -1.5050 -1.1453 -0.2963
 3655SOL    HW222602   0.336   1.954  10.041  1.9323 -1.0742 -0.3821
 3656SOL     OW22603   3.524   3.647  11.400  0.3000 -0.0870 -0.0405
 3656SOL    HW122604   3.457   3.693  11.351  1.1232 -0.5987 -1.6362
 3656SOL    HW222605   3.515   3.683  11.488 -0.4856 -0.6853  0.1301
 3657SOL     OW22606   2.575   1.243   5.844  0.3836  0.4825 -0.3948
 3657SOL    HW122607   2.563   1.296   5.922  1.6243 -0.1535  0.2342
 3657SOL    HW222608   2.659   1.274   5.809 -0.4151  1.2037 -1.6944
 3658SOL     OW22609   4.535   1.335  15.763 -0.4156  0.3847  0.5446
 3658SOL    HW122610   4.616   1.360  15.719 -1.1630 -0.2538 -1.1959
 3658SOL    HW222611   4.480   1.342  15.685 -2.9927  1.0779  2.4193
 3659SOL     OW22612   1.085   2.430  11.637  0.3430 -0.3369 -0.0667
 3659SOL    HW122613   1.146   2.366  11.673  1.7085  0.2384 -1.3447
 3659SOL    HW222614   1.016   2.370  11.609 -0.4110 -0.4746  2.0865
 3660SOL     OW22615   1.286   1.879   3.576  0.0204  0.2559 -0.1574
 3660SOL    HW122616   1.266   1.785   3.582 -0.3605  0.2795 -1.0798
 3660SOL    HW222617   1.305   1.896   3.668 -2.1776  2.3155 -0.0981
 3661SOL     OW22618   3.334   1.151   8.660 -0.2138 -0.1619  0.3094
 3661SOL    HW122619   3.270   1.189   8.720 -1.9707  1.0151 -2.3226
 3661SOL    HW222620   3.297   1.179   8.576 -1.2344 -1.9242  0.1921
 3662SOL     OW22621   0.197   2.878   3.258 -0.2128 -0.2627 -0.6042
 3662SOL    HW122622   0.292   2.868   3.266 -0.1785 -0.4480 -1.2921
 3662SOL    HW222623   0.160   2.885   3.347 -0.3933  1.9156 -0.8514
 3663SOL     OW22624   0.963   1.456   5.758 -0.2747  0.0967  0.3234
 3663SOL    HW122625   1.026   1.437   5.827  0.1380 -2.0012 -0.6242
 3663SOL    HW222626   1.021   1.439   5.685  1.4200 -1.5819  2.0701
 3664SOL     OW22627   0.801   2.215   3.685  0.0292 -0.1513  0.7619
 3664SOL    HW122628   0.763   2.147   3.630  0.5300 -1.4770  2.0425
 3664SOL    HW222629   0.748   2.201   3.764  3.9839 -0.7538  3.3370
 3665SOL     OW22630   1.841   0.416  15.654 -0.2131  0.6238  0.2154
 3665SOL    HW122631   1.924   0.452  15.686  1.0358 -0.2781 -2.0411
 3665SOL    HW222632   1.799   0.376  15.730 -1.2474 -1.0863 -1.2505
 3666SOL     OW22633   3.895   0.591   8.871  0.2395 -0.4813  0.3858
 3666SOL    HW122634   3.967   0.538   8.837 -0.8696 -1.7477  0.0161
 3666SOL    HW222635   3.819   0.535   8.859  0.1538 -0.4346  0.7095
 3667SOL     OW22636   2.776   1.664   5.228  0.3357 -0.1822 -0.0648
 3667SOL    HW122637   2.756   1.609   5.152  1.5962  2.4039 -2.2530
 3667SOL    HW222638   2.849   1.718   5.199  0.5468 -0.6975 -0.4788
 3668SOL     OW22639   2.077   3.421   9.283 -0.5066  0.2821 -0.2809
 3668SOL    HW122640   2.031   3.504   9.275  0.6429  0.9524  0.0122
 3668SOL    HW222641   2.119   3.409   9.198  0.2332 -0.4676  0.1838
 3669SOL     OW22642   3.120   2.667   6.971  0.0231  0.2366 -0.4045
 3669SOL    HW122643   3.192   2.649   6.910  0.6551 -1.8772  0.9430
 3669SOL    HW222644   3.054   2.698   6.910 -1.1263  2.7681  2.1150
 3670SOL     OW22645   2.823   0.389   2.723  0.6040  0.0854  0.3253
 3670SOL    HW122646   2.830   0.294   2.720  1.0379  0.1273  0.1118
 3670SOL    HW222647   2.903   0.413   2.770  1.2808  0.7896 -1.2026
 3671SOL     OW22648   3.930   3.910  13.289 -0.0112  0.1922  0.1596
 3671SOL    HW122649   3.893   3.987  13.332 -1.9615 -0.4756 -0.2960
 3671SOL    HW222650   4.012   3.951  13.261  0.5465 -1.7179 -0.9802
 3672SOL     OW22651   1.050   1.483  10.024  0.0142  0.2969  0.2049
 3672SOL    HW122652   1.113   1.476   9.953 -0.6513 -0.4372 -0.3092
 3672SOL    HW222653   1.071   1.407  10.078  1.8434  1.3946  1.0306
 3673SOL     OW22654   2.152   0.521  17.690 -0.0731 -0.4298 -0.0447
 3673SOL    HW122655   2.205   0.508   0.025 -0.6205  2.5993  0.8346
 3673SOL    HW222656   2.104   0.603  17.702 -1.0323 -0.5265 -3.3284
 3674SOL     OW22657   0.240   0.934  11.219  0.2731  0.1870 -0.0095
 3674SOL    HW122658   0.258   0.849  11.178  1.6098  0.9710 -1.0312
 3674SOL    HW222659   0.169   0.965  11.165 -0.3226 -2.6918 -0.9019
 3675SOL     OW22660   0.230   1.161  12.856  0.6062  0.5532  0.5127
 3675SOL    HW122661   0.264   1.187  12.942 -1.2377  2.3934  0.6961
 3675SOL    HW222662   0.292   1.209  12.801 -0.1248 -0.9834 -1.6414
 3676SOL     OW22663   3.540   3.557   1.691 -0.0629 -0.7035 -0.3517
 3676SOL    HW122664   3.551   3.652   1.679  0.6361 -0.8739 -1.0851
 3676SOL    HW222665   3.632   3.529   1.693 -0.0267 -0.3239  2.3949
 3677SOL     OW22666   1.942   3.168   3.376  0.1027  0.0628  0.0319
 3677SOL    HW122667   1.979   3.250   3.407 -2.7856  2.0867 -1.8309
 3677SOL    HW222668   1.889   3.126   3.444 -0.0805  0.6165  0.2260
 3678SOL     OW22669   3.505   1.024   8.238  0.1512 -0.2217  0.0030
 3678SOL    HW122670   3.564   0.984   8.302 -0.0961  1.1141  1.0611
 3678SOL    HW222671   3.524   0.974   8.159  0.5264 -1.8036  1.0768
 3679SOL     OW22672   2.271   1.250   2.740 -0.1554  0.2033  0.2370
 3679SOL    HW122673   2.334   1.178   2.744 -0.6358 -0.0785  2.5068
 3679SOL    HW222674   2.325   1.318   2.778 -0.2679 -0.6390  1.8964
 3680SOL     OW22675   4.627   1.923  11.626 -0.5201 -0.6029  0.5417
 3680SOL    HW122676   4.580   1.999  11.660  1.2281  0.2298  1.0988
 3680SOL    HW222677   4.630   1.952  11.535  2.8742  1.1144  1.2142
 3681SOL     OW22678   3.526   4.097   7.100  0.3795  0.0619 -0.2884
 3681SOL    HW122679   3.463   4.028   7.076  0.5866  0.6994 -2.7202
 3681SOL    HW222680   3.573   4.058   7.173  0.0263 -0.8764 -0.5603
 3682SOL     OW22681   2.083   1.976   8.956  0.1966 -0.0704  0.5014
 3682SOL    HW122682   2.116   1.913   8.892  0.1925  1.2759 -0.8097
 3682SOL    HW222683   2.112   1.944   9.041  2.0850 -0.0337 -0.1290
 3683SOL     OW22684   3.335   2.606   0.282  0.1892 -0.1892 -0.0382
 3683SOL    HW122685   3.370   2.518   0.291 -1.4489 -0.7210  0.9838
 3683SOL    HW222686   3.408   2.638   0.228 -1.3570 -0.7856 -2.5250
 3684SOL     OW22687   1.806   1.590   5.533 -0.2573 -0.1633  0.0505
 3684SOL    HW122688   1.720   1.567   5.497 -0.3000 -0.6330  0.4568
 3684SOL    HW222689   1.851   1.506   5.543 -0.9400 -0.4885  0.3893
 3685SOL     OW22690   2.878   3.664   9.474 -0.5644 -0.0448 -0.5657
 3685SOL    HW122691   2.950   3.613   9.512 -0.0634  0.5946 -0.6591
 3685SOL    HW222692   2.822   3.593   9.441  0.5689 -0.4069 -1.7459
 3686SOL     OW22693   3.353   0.577   0.204  0.5851 -0.0341  0.0926
 3686SOL    HW122694   3.365   0.503   0.146  1.0559  0.9633 -1.0805
 3686SOL    HW222695   3.258   0.584   0.200  0.4503 -0.0995  3.2111
 3687SOL     OW22696   3.049   2.234   9.132  0.5847  0.4929 -0.0666
 3687SOL    HW122697   3.088   2.286   9.202 -0.8578  1.2800  0.1596
 3687SOL    HW222698   2.978   2.287   9.096 -0.0427  0.3411  0.9289
 3688SOL     OW22699   1.149   4.310   2.623  0.4980 -0.1180  0.5238
 3688SOL    HW122700   1.082   4.253   2.662 -0.8457 -0.1556 -1.8184
 3688SOL    HW222701   1.125   4.401   2.641 -1.3901 -0.2226 -1.3985
 3689SOL     OW22702   3.911   1.236   9.635  0.2576  0.1042 -0.0761
 3689SOL    HW122703   3.926   1.252   9.728  3.1322 -2.6692 -0.0640
 3689SOL    HW222704   3.832   1.289   9.624  0.4586  0.6385  1.0586
 3690SOL     OW22705   3.471   1.463   0.170 -0.1887 -0.1491  0.5360
 3690SOL    HW122706   3.409   1.436   0.103  1.3413 -0.1483 -0.8587
 3690SOL    HW222707   3.416   1.437   0.244 -1.8801  0.2882 -0.5659
 3691SOL     OW22708   3.933   0.209   4.056 -0.8631  0.4684 -0.4356
 3691SOL    HW122709   3.841   0.213   4.030 -0.9824 -1.3228 -0.2895
 3691SOL    HW222710   3.954   0.297   4.085 -2.3539  0.9583 -0.8624
 3692SOL     OW22711   1.309   2.730   2.595  0.2355 -0.9759  0.5907
 3692SOL    HW122712   1.303   2.650   2.647 -0.2140 -1.9847 -1.0207
 3692SOL    HW222713   1.312   2.707   2.502  2.8298 -2.6898  1.0833
 3693SOL     OW22714   2.822   4.164  15.177 -0.0826  0.1632 -0.3995
 3693SOL    HW122715   2.790   4.196  15.262  2.3509 -0.4473  0.7678
 3693SOL    HW222716   2.856   4.079  15.208 -0.9452 -0.4221 -1.0576
 3694SOL     OW22717   0.020   2.594  11.651 -0.1334  0.0976  0.5296
 3694SOL    HW122718   0.012   2.565  11.560 -1.1971 -1.0087  0.9661
 3694SOL    HW222719   0.068   2.518  11.685  1.3443  0.4858 -0.7312
 3695SOL     OW22720   2.363   2.063   4.978 -0.0974 -0.0144 -0.1945
 3695SOL    HW122721   2.439   2.119   4.996 -0.1961 -0.5397  1.8771
 3695SOL    HW222722   2.403   2.029   4.898 -0.0072 -0.8834  0.2158
 3696SOL     OW22723   4.443   0.177   4.606 -0.1137  0.4214  0.1522
 3696SOL    HW122724   4.427   0.213   4.519 -1.3144 -1.0988 -0.2451
 3696SOL    HW222725   4.372   0.117   4.628 -1.8512  3.1322  1.9971
 3697SOL     OW22726   3.132   2.294   3.862  0.1738 -0.2627 -0.6023
 3697SOL    HW122727   3.128   2.221   3.800  2.6902 -1.3230  0.4658
 3697SOL    HW222728   3.042   2.323   3.851 -0.2433 -1.6930 -1.0472
 3698SOL     OW22729   3.569   4.445  14.346  0.4737  0.2098  0.1370
 3698SOL    HW122730   3.632   4.517  14.350  0.6058  0.2209 -1.8208
 3698SOL    HW222731   3.489   4.498  14.346 -0.4277 -1.1799  3.1578
 3699SOL     OW22732   3.278   1.102   8.025 -0.0432  0.1290 -0.5600
 3699SOL    HW122733   3.370   1.091   8.051 -0.5074 -0.6089  0.7733
 3699SOL    HW222734   3.266   1.195   8.048  0.2725 -0.1777  0.8762
 3700SOL     OW22735   0.848   3.648   5.335 -0.2764 -0.3025 -0.5843
 3700SOL    HW122736   0.785   3.699   5.283 -0.3673 -0.1455 -0.3183
 3700SOL    HW222737   0.916   3.708   5.365 -0.8684  0.3920 -0.6179
 3701SOL     OW22738   2.547   2.396   2.061  0.2973  0.5422 -0.1018
 3701SOL    HW122739   2.622   2.356   2.017 -0.7509 -0.7454 -0.7215
 3701SOL    HW222740   2.569   2.489   2.052  1.0681  0.2467 -1.2514
 3702SOL     OW22741   1.451   2.485   6.872  0.0204 -0.2030 -0.2946
 3702SOL    HW122742   1.522   2.488   6.807  0.2643 -2.1570 -0.1131
 3702SOL    HW222743   1.454   2.396   6.909  1.0416 -0.0568 -0.0114
 3703SOL     OW22744   3.898   2.640  13.140 -0.3184 -0.1971  0.2360
 3703SOL    HW122745   3.967   2.680  13.193 -1.0313 -0.9149  1.6965
 3703SOL    HW222746   3.939   2.553  13.130 -2.8389 -0.8841 -4.0630
 3704SOL     OW22747   0.583   1.639   7.872  0.7690 -0.5655  0.2993
 3704SOL    HW122748   0.512   1.590   7.830  0.1318  1.1052 -0.5613
 3704SOL    HW222749   0.540   1.665   7.953 -3.0993  0.2364 -2.0126
 3705SOL     OW22750   3.677   2.973   8.769  0.5766 -0.0556  0.5062
 3705SOL    HW122751   3.658   3.004   8.857  0.2249  4.1660 -1.0591
 3705SOL    HW222752   3.729   3.050   8.744 -2.1410  1.7442  0.3589
 3706SOL     OW22753   3.389   2.652   9.971  0.2763 -0.3669 -0.3999
 3706SOL    HW122754   3.447   2.628  10.044 -0.0750  0.4381  0.1330
 3706SOL    HW222755   3.357   2.566   9.943  0.2999 -0.1310 -1.1558
 3707SOL     OW22756   4.517   3.369   6.409  0.3164 -0.2954 -0.2318
 3707SOL    HW122757   4.575   3.301   6.444 -1.5949 -0.9683  1.6474
 3707SOL    HW222758   4.560   3.380   6.324 -0.6134  3.7783 -0.1674
 3708SOL     OW22759   2.186   3.505   9.505 -0.1441  0.0136 -0.0438
 3708SOL    HW122760   2.114   3.568   9.512 -2.6629 -2.8631  0.1282
 3708SOL    HW222761   2.160   3.463   9.423  1.2716  0.1595 -0.5631
 3709SOL     OW22762   1.363   4.196  12.761  0.2671 -1.1150  0.2776
 3709SOL    HW122763   1.346   4.159  12.848 -0.6096 -1.0261  0.1501
 3709SOL    HW222764   1.457   4.209  12.765  0.1115 -0.1273  0.7481
 3710SOL     OW22765   3.233   2.656  14.098  0.2535 -0.1738  0.4705
 3710SOL    HW122766   3.245   2.562  14.112 -0.1836 -0.2992 -0.0153
 3710SOL    HW222767   3.322   2.678  14.127 -1.0152  1.4953  3.1261
 3711SOL     OW22768   1.858   1.802   9.345 -0.4326  1.0704  0.0331
 3711SOL    HW122769   1.815   1.770   9.424  0.8601  0.3729  0.4488
 3711SOL    HW222770   1.789   1.861   9.315 -0.3790  0.8679 -0.4803
 3712SOL     OW22771   0.260   1.007   6.024 -0.1561  0.4972  0.0788
 3712SOL    HW122772   0.306   1.022   5.942 -0.6187  0.5785 -0.1645
 3712SOL    HW222773   0.192   1.074   6.016 -1.7497 -1.1423  0.0197
 3713SOL     OW22774   4.560   3.094  17.408  0.5612 -0.0907 -0.3197
 3713SOL    HW122775   4.618   3.136  17.343 -0.9322  0.2889 -1.4133
 3713SOL    HW222776   4.519   3.027  17.354 -2.6819  0.5180  1.3808
 3714SOL     OW22777   1.519   1.361   4.660 -0.3522  0.1681  0.4494
 3714SOL    HW122778   1.442   1.305   4.650 -0.8750  0.7359  1.3253
 3714SOL    HW222779   1.588   1.296   4.676 -1.3382 -0.5902  1.6423
 3715SOL     OW22780   1.240   1.241   5.330 -0.1313  0.4902 -0.4336
 3715SOL    HW122781   1.199   1.295   5.398 -0.9886  0.7437 -1.1637
 3715SOL    HW222782   1.330   1.219   5.356  0.5170  0.2530 -2.9192
 3716SOL     OW22783   3.808   2.718   7.432  0.1863 -0.2699  0.2104
 3716SOL    HW122784   3.799   2.812   7.424  0.4754 -0.4473 -2.5355
 3716SOL    HW222785   3.781   2.708   7.523  0.0161 -0.2343  0.1631
 3717SOL     OW22786   1.609   4.736   9.585 -0.4810  0.3377  0.6742
 3717SOL    HW122787   1.538   0.021   9.645 -0.5236  0.9540  0.4068
 3717SOL    HW222788   1.568   0.038   9.507  2.0307 -0.2818 -0.9427
 3718SOL     OW22789   1.646   2.244   7.724  0.0647 -0.5612  0.1064
 3718SOL    HW122790   1.576   2.290   7.677  1.1258  1.3576  0.4031
 3718SOL    HW222791   1.649   2.303   7.799 -0.9836  0.6225 -0.7932
 3719SOL     OW22792   2.744   0.855   7.422 -0.3692 -0.0857 -0.1694
 3719SOL    HW122793   2.730   0.771   7.380 -1.9039  1.3269 -2.5006
 3719SOL    HW222794   2.717   0.919   7.357 -0.6682  0.9061  0.9164
 3720SOL     OW22795   3.262   3.931   2.422 -0.0984  0.2915 -0.0459
 3720SOL    HW122796   3.250   4.026   2.419 -2.1672  0.0301 -0.3266
 3720SOL    HW222797   3.230   3.923   2.512 -1.5855 -1.5843 -0.7204
 3721SOL     OW22798   3.264   0.215   4.318 -0.7598  0.4780 -0.1500
 3721SOL    HW122799   3.227   0.276   4.254  1.1943  1.5629 -0.2339
 3721SOL    HW222800   3.337   0.271   4.345  0.5639 -0.6457 -1.4494
 3722SOL     OW22801   3.168   0.935   7.470 -0.2538 -0.2509  0.3191
 3722SOL    HW122802   3.174   0.999   7.541 -0.0590 -1.4443  1.3825
 3722SOL    HW222803   3.178   0.986   7.389 -1.1586 -2.1667 -0.9879
 3723SOL     OW22804   1.114   0.177   6.436  0.7937  0.6611 -0.2023
 3723SOL    HW122805   1.173   0.192   6.510  0.8532 -2.1781  0.3086
 3723SOL    HW222806   1.158   0.224   6.365 -0.0912  1.1984 -0.3924
 3724SOL     OW22807   1.046   3.158   2.371 -0.2673 -0.1744 -0.3621
 3724SOL    HW122808   1.128   3.151   2.420  0.0272  0.4848 -0.7639
 3724SOL    HW222809   0.996   3.092   2.420 -1.9671  1.9218  0.7029
 3725SOL     OW22810   3.073   4.025  15.149  0.0728 -0.6083  0.0814
 3725SOL    HW122811   3.078   3.960  15.219  0.0493 -2.0374 -1.2321
 3725SOL    HW222812   3.081   3.969  15.071  0.6162  1.5853 -1.4488
 3726SOL     OW22813   3.807   0.840   1.653 -0.0775  0.0894 -0.4293
 3726SOL    HW122814   3.743   0.910   1.662  0.5081  0.4730  0.7712
 3726SOL    HW222815   3.829   0.834   1.747  0.5783  1.2702 -0.5070
 3727SOL     OW22816   1.485   3.398   1.362  0.2689 -0.3770  0.5159
 3727SOL    HW122817   1.423   3.336   1.401 -0.7358 -0.9842 -2.0794
 3727SOL    HW222818   1.421   3.449   1.311  0.9757  1.1835  1.1870
 3728SOL     OW22819   1.502   4.485  16.626  0.1083 -0.3441 -0.6524
 3728SOL    HW122820   1.567   4.555  16.616  0.3275 -0.5906 -0.9352
 3728SOL    HW222821   1.428   4.528  16.670  0.3418 -0.5630 -0.0501
 3729SOL     OW22822   2.865   2.243   2.682  0.2800  0.0963 -0.3624
 3729SOL    HW122823   2.781   2.209   2.712 -0.2031  0.8301 -0.9272
 3729SOL    HW222824   2.844   2.334   2.700  1.2683  0.6639 -2.0918
 3730SOL     OW22825   4.335   0.939   4.782 -0.4048  0.6961  0.3171
 3730SOL    HW122826   4.259   0.997   4.788  0.2686  1.4069  1.8464
 3730SOL    HW222827   4.292   0.855   4.763  1.2025  0.4737 -2.4362
 3731SOL     OW22828   1.374   4.384  13.916 -0.2174  0.0414  0.1841
 3731SOL    HW122829   1.416   4.326  13.852 -1.0452  1.6139 -1.7924
 3731SOL    HW222830   1.328   4.455  13.870 -2.8309 -1.2409  0.8360
 3732SOL     OW22831   0.675   0.555   2.311 -0.3788  0.7065  0.1978
 3732SOL    HW122832   0.697   0.590   2.398 -0.6825 -1.5925  1.1997
 3732SOL    HW222833   0.667   0.461   2.329 -0.0626  0.8140  0.9084
 3733SOL     OW22834   3.910   2.180   4.489  0.3313 -0.1909 -0.2055
 3733SOL    HW122835   3.930   2.115   4.557 -0.9196  0.0477  0.4027
 3733SOL    HW222836   3.975   2.163   4.421 -0.1796 -3.4153  0.1302
 3734SOL     OW22837   0.980   0.233   3.442 -0.6640 -0.2304 -0.2241
 3734SOL    HW122838   0.890   0.202   3.432 -0.6918 -0.9374  2.0423
 3734SOL    HW222839   0.969   0.328   3.442 -1.4390 -0.3215 -0.5045
 3735SOL     OW22840   3.392   4.531   2.253  0.4098  0.5863 -0.0959
 3735SOL    HW122841   3.461   4.555   2.315  0.5764 -0.3460  0.0750
 3735SOL    HW222842   3.319   4.572   2.299  2.6845  2.8400  1.5401
 3736SOL     OW22843   2.696   1.044  14.733 -0.5354 -0.4435 -0.2041
 3736SOL    HW122844   2.629   0.992  14.689 -0.8757 -1.7668  1.8866
 3736SOL    HW222845   2.706   1.002  14.818  1.0410 -0.4996 -0.4095
 3737SOL     OW22846   0.395   0.817   4.538  0.2316  0.0850  0.2912
 3737SOL    HW122847   0.343   0.887   4.498 -0.4719 -0.7370 -0.2200
 3737SOL    HW222848   0.322   0.778   4.587  1.4108 -0.0315  1.9714
 3738SOL     OW22849   0.304   3.566   4.938 -0.2833 -0.4789 -0.4342
 3738SOL    HW122850   0.333   3.487   4.984  1.1336 -0.3272 -1.0766
 3738SOL    HW222851   0.273   3.623   5.008 -0.1910 -0.0398 -0.7549
 3739SOL     OW22852   0.649   0.235   7.359 -0.0484 -0.4570 -0.2479
 3739SOL    HW122853   0.615   0.159   7.311  1.1297  1.1309 -3.5636
 3739SOL    HW222854   0.590   0.246   7.434  1.3017 -0.8764  0.8635
 3740SOL     OW22855   2.012   1.090   6.017  0.0102  0.4813  0.5526
 3740SOL    HW122856   2.062   1.013   5.991 -2.0161 -0.3363 -0.9617
 3740SOL    HW222857   2.077   1.155   5.990 -1.4282  0.7706 -2.2559
 3741SOL     OW22858   3.253   2.736   3.300 -0.4226 -0.1501  0.6067
 3741SOL    HW122859   3.158   2.727   3.293 -0.5574  2.3359 -0.8243
 3741SOL    HW222860   3.268   2.768   3.389 -1.4793 -1.1748  1.1480
 3742SOL     OW22861   0.128   1.962  15.674 -0.0366  0.2587 -0.4398
 3742SOL    HW122862   0.207   1.966  15.729 -0.3639  1.2648 -0.0584
 3742SOL    HW222863   0.119   2.056  15.663 -3.1106 -0.2577 -2.2089
 3743SOL     OW22864   2.587   0.492   0.608 -0.4255 -0.7436 -0.0379
 3743SOL    HW122865   2.610   0.412   0.656 -2.3056 -1.6904 -0.6787
 3743SOL    HW222866   2.675   0.520   0.584  0.0377 -2.1784 -0.0370
 3744SOL     OW22867   0.333   1.681   7.713  0.0138  0.3779  0.0053
 3744SOL    HW122868   0.394   1.747   7.678 -0.6042  1.0239  0.1415
 3744SOL    HW222869   0.345   1.619   7.641  1.5454 -0.4056  0.9292
 3745SOL     OW22870   0.122   3.640   5.451  0.3694  0.1018 -0.4879
 3745SOL    HW122871   0.165   3.721   5.477 -0.3546  0.5192 -0.6227
 3745SOL    HW222872   0.157   3.621   5.364  2.4529  0.7046  0.2190
 3746SOL     OW22873   0.259   0.303  17.665 -0.2133 -0.3792 -0.5042
 3746SOL    HW122874   0.312   0.223  17.669 -0.5668 -0.5742  0.2171
 3746SOL    HW222875   0.179   0.265  17.628  0.7064 -3.2960  0.4772
 3747SOL     OW22876   0.149   3.625   6.090  0.5107 -0.2302 -0.1011
 3747SOL    HW122877   0.151   3.712   6.129  3.4360 -0.4778  0.3151
 3747SOL    HW222878   0.156   3.579   6.174  0.9752  0.3077  0.1550
 3748SOL     OW22879   4.526   2.078   8.588 -0.5109 -0.1816 -0.8705
 3748SOL    HW122880   4.564   2.128   8.516  0.6014  1.8611  1.1421
 3748SOL    HW222881   4.485   2.144   8.643 -0.4399 -1.9115  1.2507
 3749SOL     OW22882   2.605   4.398   7.925  0.3546 -0.0067  0.3363
 3749SOL    HW122883   2.593   4.389   8.019  0.1037 -0.2410  0.2861
 3749SOL    HW222884   2.572   4.487   7.909  1.7287  0.1061 -1.8754
 3750SOL     OW22885   0.854   3.557   3.013 -0.7010  0.2477 -0.2576
 3750SOL    HW122886   0.840   3.642   3.055  0.2240  0.5181 -0.4873
 3750SOL    HW222887   0.853   3.500   3.090 -0.0536  0.2680 -0.2333
 3751SOL     OW22888   1.685   1.761   6.415  0.1019 -0.0022 -0.2858
 3751SOL    HW122889   1.681   1.841   6.364 -0.2745 -0.8632 -1.6217
 3751SOL    HW222890   1.760   1.725   6.369  1.1186 -1.0020  2.1677
 3752SOL     OW22891   1.509   1.385   8.445  0.1428  0.0780 -0.1706
 3752SOL    HW122892   1.418   1.410   8.428  0.3944  2.3223  1.8724
 3752SOL    HW222893   1.546   1.446   8.381  1.1669  0.4415  0.7648
 3753SOL     OW22894   4.340   3.248   4.458  0.0444 -0.3498  0.3723
 3753SOL    HW122895   4.432   3.234   4.481  0.3653 -0.6391 -1.1251
 3753SOL    HW222896   4.301   3.161   4.466 -1.3498  0.4368  2.1174
 3754SOL     OW22897   3.421   0.700   7.113  0.1183  0.0840 -0.1608
 3754SOL    HW122898   3.430   0.678   7.206 -1.0621 -1.3062 -0.3687
 3754SOL    HW222899   3.382   0.616   7.088 -0.1697  0.9583 -2.6030
 3755SOL     OW22900   3.399   3.880   5.499  0.3756  0.0375  0.0980
 3755SOL    HW122901   3.349   3.846   5.573  1.6871  1.2705  1.5540
 3755SOL    HW222902   3.404   3.798   5.452 -0.9365  0.3671 -0.6123
 3756SOL     OW22903   3.320   1.818   5.812 -0.3033 -0.0993  0.5703
 3756SOL    HW122904   3.239   1.846   5.769  0.5236 -0.2712 -1.0840
 3756SOL    HW222905   3.279   1.766   5.881  0.6702  0.3993  1.5144
 3757SOL     OW22906   2.393   1.106   1.451 -0.1633  0.4996  0.4291
 3757SOL    HW122907   2.335   1.076   1.521 -2.4409 -1.6188 -2.3820
 3757SOL    HW222908   2.386   1.202   1.445  2.9035  0.7617  0.7987
 3758SOL     OW22909   1.842   0.253   7.555  0.5345  0.1086  0.7368
 3758SOL    HW122910   1.765   0.309   7.567 -0.1204 -0.3397 -1.4044
 3758SOL    HW222911   1.883   0.291   7.478 -1.3430 -0.2998 -0.4605
 3759SOL     OW22912   1.976   0.168  14.759 -0.5212  0.1367  0.3007
 3759SOL    HW122913   1.971   0.220  14.679 -0.6354  0.4110  0.4861
 3759SOL    HW222914   1.883   0.143  14.758 -0.5995  0.4213  0.8889
 3760SOL     OW22915   1.364   1.780  11.285  0.5718 -0.2081  0.2454
 3760SOL    HW122916   1.345   1.830  11.205 -2.9148 -1.4145  0.3498
 3760SOL    HW222917   1.401   1.694  11.262  1.9802  0.5647 -0.4266
 3761SOL     OW22918   2.593   4.020   8.913 -0.0498 -0.0266  0.2307
 3761SOL    HW122919   2.685   4.043   8.924  0.0750  0.9025 -2.8555
 3761SOL    HW222920   2.593   3.929   8.943 -0.4425  0.7004  2.4469
 3762SOL     OW22921   1.654   4.521   2.666  0.3012 -0.7474 -0.4670
 3762SOL    HW122922   1.707   4.596   2.641 -1.2499 -0.1396 -1.9245
 3762SOL    HW222923   1.635   4.479   2.582 -0.6108 -0.8819 -0.2021
 3763SOL     OW22924   1.359   1.619   3.945  0.4012 -0.7811 -0.1208
 3763SOL    HW122925   1.452   1.629   3.926  0.2267 -1.1756 -1.1925
 3763SOL    HW222926   1.359   1.526   3.967 -0.5070 -0.8010 -0.1819
 3764SOL     OW22927   2.476   3.600   6.508  0.5020 -0.5202 -0.0761
 3764SOL    HW122928   2.474   3.680   6.560 -2.4908 -0.9745  0.4936
 3764SOL    HW222929   2.420   3.624   6.434  1.1519  1.7145  0.1779
 3765SOL     OW22930   2.924   2.909  14.271 -0.1670 -0.3147 -0.0138
 3765SOL    HW122931   2.840   2.877  14.237 -0.2216  0.2928 -0.4432
 3765SOL    HW222932   2.935   2.862  14.353  1.5184  0.7051  0.3486
 3766SOL     OW22933   3.343   1.460   6.554 -0.1598 -0.0186 -0.6016
 3766SOL    HW122934   3.435   1.470   6.581 -0.3092 -1.0672  0.3063
 3766SOL    HW222935   3.354   1.464   6.459 -0.0386 -0.8953 -0.6258
 3767SOL     OW22936   2.215   2.727   4.362 -0.7159 -0.4303 -0.8351
 3767SOL    HW122937   2.245   2.810   4.325 -0.5458 -0.4574 -0.7558
 3767SOL    HW222938   2.287   2.672   4.333 -0.8480  0.0055 -2.0072
 3768SOL     OW22939   3.276   0.064   6.850 -0.1115  0.3375  0.1318
 3768SOL    HW122940   3.276   4.708   6.824  1.9116 -0.3074  2.3598
 3768SOL    HW222941   3.338   0.096   6.785  0.7372  0.9314  1.2175
 3769SOL     OW22942   3.645   0.354   0.951  0.5846  0.2303  0.1195
 3769SOL    HW122943   3.708   0.426   0.954  0.7936  0.1429 -1.9653
 3769SOL    HW222944   3.702   0.283   0.923 -0.7386 -0.1410 -1.6176
 3770SOL     OW22945   2.705   3.473   3.193 -0.3356  0.2082  0.1803
 3770SOL    HW122946   2.747   3.549   3.234  1.2530 -0.8531  0.5305
 3770SOL    HW222947   2.625   3.513   3.159 -0.6087  0.6079  1.2791
 3771SOL     OW22948   2.797   4.059   5.190 -0.1249 -0.2470  0.2836
 3771SOL    HW122949   2.863   3.993   5.212  2.8395  2.4154 -0.5837
 3771SOL    HW222950   2.754   4.021   5.114  1.9534 -0.5246 -0.7493
 3772SOL     OW22951   3.819   2.996   7.715 -0.6243 -0.4138  0.0817
 3772SOL    HW122952   3.818   3.080   7.669  0.5651  0.4321  1.5761
 3772SOL    HW222953   3.898   3.013   7.766 -1.7975  3.1766  0.7135
 3773SOL     OW22954   1.726   3.117   5.723 -0.5738 -0.6979  0.3389
 3773SOL    HW122955   1.641   3.112   5.767 -0.5663  0.2691  0.4504
 3773SOL    HW222956   1.784   3.116   5.799  0.7404 -1.3199 -0.6650
 3774SOL     OW22957   3.517   2.618   0.581 -0.1787  0.0610  0.5368
 3774SOL    HW122958   3.584   2.686   0.572  0.8890 -0.7568  2.3399
 3774SOL    HW222959   3.558   2.540   0.543 -0.2279 -0.1539  0.9285
 3775SOL     OW22960   2.791   2.063   2.138 -0.5632 -0.1457 -0.0661
 3775SOL    HW122961   2.789   2.086   2.230 -1.4307 -3.0816  0.6551
 3775SOL    HW222962   2.697   2.062   2.120 -0.6285 -0.3106  0.2826
 3776SOL     OW22963   0.577   3.670   3.214 -0.0364  0.1707  0.1800
 3776SOL    HW122964   0.651   3.665   3.275 -1.4767 -1.9557  1.7576
 3776SOL    HW222965   0.607   3.695   3.127  0.7171 -0.9226  0.1247
 3777SOL     OW22966   3.279   0.816   3.315  0.3657  0.3390 -0.1987
 3777SOL    HW122967   3.229   0.783   3.390  0.7164 -0.3368 -0.2602
 3777SOL    HW222968   3.321   0.893   3.353 -0.1723  1.5746 -2.1362
 3778SOL     OW22969   2.972   0.314   4.268  0.0551  0.0623  0.3710
 3778SOL    HW122970   2.937   0.237   4.222 -0.8206  0.4270  0.4364
 3778SOL    HW222971   2.904   0.326   4.334 -0.8227  1.3018 -0.7719
 3779SOL     OW22972   2.567   4.729   9.855 -0.1798  0.1041  0.7402
 3779SOL    HW122973   2.543   4.677   9.779  1.0224 -1.3198  1.3219
 3779SOL    HW222974   2.506   4.703   9.924 -1.2020  1.9976  0.5396
 3780SOL     OW22975   2.756   4.375   4.029  0.0076 -0.6513 -0.2085
 3780SOL    HW122976   2.732   4.450   3.975  0.2435 -0.7925 -0.5097
 3780SOL    HW222977   2.785   4.436   4.097  1.5324  0.6979 -2.0627
 3781SOL     OW22978   0.655   2.716   6.478 -0.5391 -1.1990  0.1520
 3781SOL    HW122979   0.698   2.643   6.523  0.9070  0.6092  1.7578
 3781SOL    HW222980   0.667   2.797   6.529 -1.6272  0.3192 -2.0188
 3782SOL     OW22981   4.331   3.724   8.589 -0.4375 -0.2702 -0.3859
 3782SOL    HW122982   4.404   3.675   8.552  2.1758  1.5138  2.3395
 3782SOL    HW222983   4.344   3.699   8.680 -0.0097 -0.3113 -0.4562
 3783SOL     OW22984   1.381   2.289   9.863  0.3958  0.0587  0.2995
 3783SOL    HW122985   1.321   2.316   9.793  0.4942  0.7671  0.4812
 3783SOL    HW222986   1.468   2.315   9.831  0.1617 -0.3115 -0.6264
 3784SOL     OW22987   1.706   0.077   8.444 -0.4869  0.2096  0.5253
 3784SOL    HW122988   1.790   0.081   8.399 -1.2683  0.0414 -0.9385
 3784SOL    HW222989   1.740   0.104   8.530 -1.0492 -0.2696  0.8973
 3785SOL     OW22990   1.098   1.336   5.101  0.2584 -0.0388  0.0813
 3785SOL    HW122991   1.050   1.253   5.101 -0.0335  0.1344 -0.3291
 3785SOL    HW222992   1.161   1.328   5.173  0.1059  1.9477  0.4328
 3786SOL     OW22993   3.980   0.238   6.304 -0.2895  0.0079 -0.1810
 3786SOL    HW122994   4.063   0.269   6.339 -0.2851 -2.5310  2.0789
 3786SOL    HW222995   3.987   0.157   6.355  3.1656  0.6918  0.3781
 3787SOL     OW22996   1.304   1.500   7.676 -0.3219  0.3843 -0.5233
 3787SOL    HW122997   1.300   1.433   7.745  1.3432  1.6707  0.8403
 3787SOL    HW222998   1.225   1.547   7.701 -0.4317 -0.1905  0.2010
 3788SOL     OW22999   2.044   1.331  10.244 -0.3512 -0.4581 -0.2454
 3788SOL    HW123000   1.973   1.277  10.280 -0.4485 -1.1695 -1.5042
 3788SOL    HW223001   2.046   1.291  10.157  1.0020 -0.4227 -0.2266
 3789SOL     OW23002   4.102   2.571   4.018  0.1064  0.4184 -0.1654
 3789SOL    HW123003   4.090   2.587   3.925  1.7694 -0.0970 -0.4779
 3789SOL    HW223004   4.141   2.485   4.006 -1.5977  0.0338 -2.7541
 3790SOL     OW23005   1.659   1.969   6.243  0.0905  0.2544  0.0133
 3790SOL    HW123006   1.728   1.953   6.178  1.8045 -0.3800  1.9817
 3790SOL    HW223007   1.578   1.969   6.193 -0.9416  0.1164  1.7088
 3791SOL     OW23008   1.582   3.980  15.660  0.2007 -0.0416  0.4692
 3791SOL    HW123009   1.653   4.038  15.688 -0.4525  0.4164  1.2061
 3791SOL    HW223010   1.554   4.023  15.579 -1.8292 -2.5386 -0.1675
 3792SOL     OW23011   2.914   3.610   3.294 -0.2462 -0.1821 -0.4606
 3792SOL    HW123012   2.997   3.618   3.248 -0.5727 -1.7819 -1.3307
 3792SOL    HW223013   2.914   3.519   3.325  1.0579  0.5894  1.8145
 3793SOL     OW23014   0.454   4.345   8.474  0.7257 -0.2660  0.1755
 3793SOL    HW123015   0.460   4.256   8.507 -0.5235 -0.3745  0.1034
 3793SOL    HW223016   0.359   4.355   8.470  0.5253 -0.2525  5.1185
 3794SOL     OW23017   4.111   3.269   3.238 -0.0341 -0.0232  0.0528
 3794SOL    HW123018   4.110   3.275   3.333 -3.5851 -0.3562  0.0360
 3794SOL    HW223019   4.071   3.183   3.225  0.7082 -0.0345 -2.1110
 3795SOL     OW23020   2.750   3.968   8.649 -0.1989 -0.5357  0.1234
 3795SOL    HW123021   2.778   4.034   8.713  1.8011  1.7482 -3.0368
 3795SOL    HW223022   2.825   3.911   8.666  1.1432  1.3351  0.5575
 3796SOL     OW23023   2.087   3.642  14.006  0.9067  0.1847 -0.2319
 3796SOL    HW123024   2.062   3.641  14.099  1.4399 -2.3526 -0.1191
 3796SOL    HW223025   2.177   3.673  14.015  1.2189 -0.1033 -2.3883
 3797SOL     OW23026   4.120   0.374   8.847  0.1198  0.4651 -0.2830
 3797SOL    HW123027   4.211   0.347   8.841  0.0722  0.1532  0.3702
 3797SOL    HW223028   4.103   0.360   8.940  1.0270  3.8016  0.3509
 3798SOL     OW23029   3.608   3.836   1.203  0.7666 -0.2703  0.5463
 3798SOL    HW123030   3.646   3.787   1.130 -1.6647  0.0703 -0.9388
 3798SOL    HW223031   3.583   3.911   1.149  0.5911  1.3215  2.8519
 3799SOL     OW23032   2.385   3.541   6.819 -0.0642  1.0448  0.4708
 3799SOL    HW123033   2.407   3.626   6.857  0.7038  0.0046  2.3488
 3799SOL    HW223034   2.299   3.561   6.783  0.6093 -0.8112 -2.1926
 3800SOL     OW23035   2.743   3.137   6.997 -0.1424 -0.1284 -0.5310
 3800SOL    HW123036   2.810   3.186   6.950 -0.1906  0.2293 -0.2242
 3800SOL    HW223037   2.660   3.160   6.953 -0.6183  0.6654  0.7809
 3801SOL     OW23038   4.585   3.469   5.838  0.0753 -0.3522 -0.5738
 3801SOL    HW123039   4.561   3.551   5.881  0.3550  0.0168 -1.1400
 3801SOL    HW223040   4.642   3.499   5.768 -0.2577  0.7489 -0.3775
 3802SOL     OW23041   2.111   0.606   8.407 -0.0063  0.0990  0.4086
 3802SOL    HW123042   2.065   0.656   8.339  4.5467  0.6702 -2.2887
 3802SOL    HW223043   2.201   0.613   8.374  0.4060 -2.2248  1.0677
 3803SOL     OW23044   0.094   3.580   6.582 -0.1054  0.1446 -0.1124
 3803SOL    HW123045   0.058   3.568   6.670  0.8347 -1.5939  0.0256
 3803SOL    HW223046   0.183   3.609   6.603 -0.0227 -0.8168  0.8452
 3804SOL     OW23047   4.351   0.903   0.126 -0.3387 -0.1727  0.1612
 3804SOL    HW123048   4.394   0.824   0.094 -0.0907 -0.2854  0.7725
 3804SOL    HW223049   4.371   0.896   0.219 -0.3130 -3.2031 -0.0786
 3805SOL     OW23050   2.670   3.059   4.658 -0.3628 -0.4200 -0.4140
 3805SOL    HW123051   2.645   2.969   4.636 -2.4809 -0.5847  2.6671
 3805SOL    HW223052   2.580   3.091   4.664 -0.3239  0.2051 -3.2858
 3806SOL     OW23053   1.648   2.747   7.945 -0.0378 -0.3435  0.4621
 3806SOL    HW123054   1.655   2.695   7.865 -0.1413  0.2151  0.0916
 3806SOL    HW223055   1.566   2.723   7.987 -1.5720  1.0019 -1.7702
 3807SOL     OW23056   3.517   0.342   5.278 -0.8717  0.5523  0.0225
 3807SOL    HW123057   3.437   0.303   5.245 -1.2013  0.5781  0.7870
 3807SOL    HW223058   3.517   0.428   5.236 -1.1927  1.2013  1.3582
 3808SOL     OW23059   0.905   1.192  13.009  0.3659 -0.3741  0.0641
 3808SOL    HW123060   0.955   1.111  13.000  1.3468  0.1223  1.0367
 3808SOL    HW223061   0.964   1.255  12.969 -0.2629  0.2281  0.0945
 3809SOL     OW23062   3.361   1.372   8.143  0.7282 -0.4783  0.0754
 3809SOL    HW123063   3.398   1.446   8.191 -0.0133 -0.7054  0.9986
 3809SOL    HW223064   3.324   1.404   8.061 -0.5743 -0.5694  0.6283
 3810SOL     OW23065   3.452   2.916   2.075 -0.0017 -0.2418 -0.2103
 3810SOL    HW123066   3.443   3.009   2.097 -0.6102 -0.7010  1.4647
 3810SOL    HW223067   3.366   2.883   2.101 -0.2572  1.5304  1.1927
 3811SOL     OW23068   3.403   3.138   7.568  0.2378 -0.2403  0.0065
 3811SOL    HW123069   3.443   3.216   7.608 -0.9898 -0.2286  1.2226
 3811SOL    HW223070   3.317   3.177   7.555 -1.2277 -3.2506  0.6627
 3812SOL     OW23071   0.696   0.519  10.917  0.5178 -0.4254  0.0036
 3812SOL    HW123072   0.749   0.512  10.997 -0.2772 -0.1844  0.5464
 3812SOL    HW223073   0.740   0.470  10.848 -0.1370  0.3674 -0.9761
 3813SOL     OW23074   3.098   2.825   6.086  0.0066 -0.2746  0.2627
 3813SOL    HW123075   3.153   2.839   6.009 -0.4624  0.2029  0.0145
 3813SOL    HW223076   3.157   2.845   6.158 -0.0447  1.9252 -0.3184
 3814SOL     OW23077   3.129   0.831   1.023 -0.7712  0.7315  0.4374
 3814SOL    HW123078   3.165   0.800   0.940 -0.4473  1.6008  0.2541
 3814SOL    HW223079   3.080   0.758   1.059 -4.0153  3.3426  1.3620
 3815SOL     OW23080   4.217   3.286   5.516 -0.1840  0.0575  0.4989
 3815SOL    HW123081   4.310   3.263   5.524 -0.7173 -2.6171 -0.9434
 3815SOL    HW223082   4.219   3.375   5.550  0.5585  0.1553  0.2089
 3816SOL     OW23083   0.379   4.196   4.435 -1.1931 -0.0272 -0.3054
 3816SOL    HW123084   0.439   4.260   4.474 -0.7336 -2.2418  2.6437
 3816SOL    HW223085   0.359   4.140   4.510 -1.3634 -1.0866 -1.1523
 3817SOL     OW23086   0.774   0.750  12.609 -0.1702  0.0935  0.2502
 3817SOL    HW123087   0.683   0.751  12.638  0.0493 -1.3079  0.9695
 3817SOL    HW223088   0.803   0.670  12.653  2.1033  0.6676 -0.1785
 3818SOL     OW23089   0.338   1.888   5.761  0.2381 -0.6872 -0.2383
 3818SOL    HW123090   0.258   1.873   5.711 -1.3535  2.6466  1.2986
 3818SOL    HW223091   0.400   1.905   5.690  2.2014  0.6035  1.7957
 3819SOL     OW23092   3.951   3.029   2.812  0.0404  0.2422  0.0409
 3819SOL    HW123093   3.936   3.106   2.758 -2.4977  1.0556  1.9302
 3819SOL    HW223094   3.999   2.977   2.747 -0.1998 -0.3708  0.3499
 3820SOL     OW23095   1.983   0.271  10.370  0.5486 -0.5410  0.1394
 3820SOL    HW123096   2.024   0.206  10.427  1.8876 -1.2374 -1.5961
 3820SOL    HW223097   2.025   0.353  10.394 -1.9098  0.9718 -0.7545
 3821SOL     OW23098   4.008   0.653   6.347  0.4188 -0.0904 -0.3422
 3821SOL    HW123099   4.030   0.606   6.427 -1.2621  0.6269  0.5261
 3821SOL    HW223100   4.091   0.689   6.315 -1.0462 -0.3082 -4.3493
 3822SOL     OW23101   2.789   0.348  15.507  0.2964 -0.3530  0.2706
 3822SOL    HW123102   2.712   0.339  15.453 -0.3185  0.9117  0.9388
 3822SOL    HW223103   2.830   0.429  15.477  1.8676 -1.3006 -0.1343
 3823SOL     OW23104   4.259   1.532   4.994 -0.3853 -0.4293 -0.1026
 3823SOL    HW123105   4.232   1.522   5.085 -0.2258  0.7512  0.0745
 3823SOL    HW223106   4.353   1.521   5.005 -0.6381 -1.6710  0.7337
 3824SOL     OW23107   2.806   3.381   5.139 -0.5143 -0.7848  0.3453
 3824SOL    HW123108   2.745   3.437   5.091  0.1422  1.2156  1.8906
 3824SOL    HW223109   2.743   3.330   5.191  0.6814  0.9493  3.4922
 3825SOL     OW23110   3.094   2.067   5.912 -0.9048 -0.0570  0.0754
 3825SOL    HW123111   3.123   2.079   5.822 -0.6538  0.4240  0.2221
 3825SOL    HW223112   3.168   2.109   5.954 -2.0301  1.5656  0.4248
 3826SOL     OW23113   0.706   0.962   8.373  0.2856 -0.3198 -0.6796
 3826SOL    HW123114   0.660   0.946   8.291  2.3386 -1.4427 -1.6159
 3826SOL    HW223115   0.636   0.971   8.437  2.5076 -1.5816  1.9345
 3827SOL     OW23116   0.563   1.005   9.600 -0.2771  0.0140 -0.4111
 3827SOL    HW123117   0.509   0.991   9.523  1.9337  2.0553 -2.3590
 3827SOL    HW223118   0.512   1.068   9.651  0.3440  0.6192 -0.5376
 3828SOL     OW23119   3.265   1.602   5.347 -0.1225 -0.0149  0.0630
 3828SOL    HW123120   3.343   1.546   5.341  2.7112  3.8244  0.7342
 3828SOL    HW223121   3.303   1.687   5.370  1.9766 -1.1168  0.7405
 3829SOL     OW23122   0.408   2.035   5.075  0.4381 -0.3335  0.1681
 3829SOL    HW123123   0.338   2.086   5.115 -0.8648 -0.4836 -1.9292
 3829SOL    HW223124   0.426   1.973   5.146  0.3820  1.4066  1.6836
 3830SOL     OW23125   2.719   4.522  10.130 -0.1457  0.2506  0.1242
 3830SOL    HW123126   2.790   4.573  10.090  0.8876 -0.6556  0.8014
 3830SOL    HW223127   2.673   4.468  10.066 -1.8350 -0.1350  1.6585
 3831SOL     OW23128   4.716   4.012   2.761 -0.6262  0.2569  0.0699
 3831SOL    HW123129   0.060   3.966   2.783 -0.2794  0.2118 -1.2692
 3831SOL    HW223130   4.651   3.943   2.774 -1.7641  1.6150  1.5186
 3832SOL     OW23131   1.940   4.568  17.602 -0.0087  0.9406 -0.3200
 3832SOL    HW123132   1.889   4.644  17.629  0.9838  1.5998 -0.3160
 3832SOL    HW223133   2.012   4.568  17.665 -0.0089 -1.6774 -0.3083
 3833SOL     OW23134   1.528   2.963   6.281 -0.3159 -0.2857 -0.3171
 3833SOL    HW123135   1.489   3.046   6.306  2.3364  0.2404  2.0454
 3833SOL    HW223136   1.616   2.979   6.313 -0.0523  0.4373 -1.4128
 3834SOL     OW23137   1.405   2.949   8.977 -0.3923 -0.7176 -0.4153
 3834SOL    HW123138   1.381   3.041   8.975  0.0618 -0.6489 -2.1526
 3834SOL    HW223139   1.453   2.928   8.897  0.0111 -0.5098 -0.2284
 3835SOL     OW23140   2.947   1.206  14.708 -0.5261 -0.0021 -0.5533
 3835SOL    HW123141   2.896   1.282  14.735  1.3087  1.0650 -0.1028
 3835SOL    HW223142   2.885   1.133  14.714 -0.5514 -0.1611 -2.7146
 3836SOL     OW23143   2.819   2.701   2.634 -0.1604 -0.3261  0.3453
 3836SOL    HW123144   2.794   2.620   2.679 -0.2088 -0.3968  0.1925
 3836SOL    HW223145   2.737   2.750   2.631 -0.5683 -0.9833  0.6171
 3837SOL     OW23146   1.351   2.130   5.332  0.6368 -0.0072  0.0806
 3837SOL    HW123147   1.360   2.209   5.386 -0.5224 -0.2895  0.6761
 3837SOL    HW223148   1.403   2.155   5.255 -0.1165 -1.4339 -0.8975
 3838SOL     OW23149   3.740   2.317   4.659  0.0948  0.1689  0.1379
 3838SOL    HW123150   3.682   2.385   4.623 -0.7351 -1.3158 -1.3240
 3838SOL    HW223151   3.780   2.280   4.581 -0.9661  2.2730 -1.4288
 3839SOL     OW23152   3.033   3.084   2.110  0.5132  0.1901  0.0964
 3839SOL    HW123153   2.990   3.140   2.175  0.7122 -1.5711  1.7425
 3839SOL    HW223154   3.083   3.149   2.062  0.1957 -0.1677 -0.7061
 3840SOL     OW23155   2.460   0.341   9.439  0.1580  0.1958  0.0844
 3840SOL    HW123156   2.434   0.254   9.410 -0.8048  1.3311 -2.4275
 3840SOL    HW223157   2.553   0.345   9.416  0.2147  2.9341  0.6926
 3841SOL     OW23158   0.574   0.650   7.201 -0.3265 -0.4385 -0.2847
 3841SOL    HW123159   0.561   0.583   7.134 -0.0406 -0.5758 -0.2026
 3841SOL    HW223160   0.669   0.644   7.193 -0.1230  2.2172 -0.0320
 3842SOL     OW23161   1.974   0.942   1.007  0.5106  0.3285  0.0005
 3842SOL    HW123162   1.962   0.967   0.916 -2.3597  0.6539  0.4436
 3842SOL    HW223163   1.887   0.904   1.024  0.3387  0.7789  0.1363
 3843SOL     OW23164   2.840   0.116   2.810 -0.4409  0.4650 -0.1145
 3843SOL    HW123165   2.813   0.111   2.902 -1.6854 -0.0599 -0.5055
 3843SOL    HW223166   2.840   0.025   2.781 -1.7765  0.4338 -0.0014
 3844SOL     OW23167   3.833   3.651   6.266  0.6839 -0.0553 -0.0552
 3844SOL    HW123168   3.885   3.696   6.200  0.1391  2.5581  1.3069
 3844SOL    HW223169   3.824   3.563   6.229  0.7192  0.8184 -2.1321
 3845SOL     OW23170   0.428   4.426   4.005 -0.1470 -0.9443 -0.4843
 3845SOL    HW123171   0.369   4.355   4.030 -1.9519  0.2094 -1.4907
 3845SOL    HW223172   0.415   4.490   4.076 -1.2010  1.2899 -2.7121
 3846SOL     OW23173   4.297   1.959   7.394  0.5291  0.3302 -0.8976
 3846SOL    HW123174   4.284   2.007   7.313  1.4712  1.0953 -0.5916
 3846SOL    HW223175   4.296   1.868   7.365 -2.0700 -0.6296  2.2315
 3847SOL     OW23176   2.839   2.652  13.788  0.0493 -0.6828  0.3659
 3847SOL    HW123177   2.889   2.711  13.845  0.0467 -1.1766  0.8815
 3847SOL    HW223178   2.918   2.612  13.751  0.5849  0.0422  0.7054
 3848SOL     OW23179   2.669   1.796  15.635  0.1688 -0.4306 -0.8547
 3848SOL    HW123180   2.598   1.859  15.618 -0.3356 -0.5623  0.8417
 3848SOL    HW223181   2.726   1.854  15.685 -2.6856  0.7358  1.0628
 3849SOL     OW23182   3.619   2.864   1.886  0.3299 -0.0989  0.3068
 3849SOL    HW123183   3.552   2.878   1.954 -0.0072 -0.4713  0.0504
 3849SOL    HW223184   3.676   2.932   1.921 -3.0584  3.2492 -0.5619
 3850SOL     OW23185   2.072   1.875   8.576 -0.1758  0.4903 -0.2486
 3850SOL    HW123186   2.143   1.863   8.639 -0.7221  1.0547  0.4742
 3850SOL    HW223187   2.022   1.794   8.589 -0.9438  1.1368  0.8866
 3851SOL     OW23188   4.187   3.994   3.058  0.3346 -0.4072 -0.1081
 3851SOL    HW123189   4.224   4.050   2.990  0.4952 -1.3145 -0.7729
 3851SOL    HW223190   4.203   4.049   3.134 -2.5048  0.5578 -0.2142
 3852SOL     OW23191   3.086   2.376   6.060 -0.4604 -0.7128  0.6043
 3852SOL    HW123192   3.014   2.317   6.037 -1.3927  1.4017 -1.9155
 3852SOL    HW223193   3.075   2.453   6.003  0.5317 -1.6455 -0.8301
 3853SOL     OW23194   1.417   2.718   2.114  0.0239 -0.3603 -0.2263
 3853SOL    HW123195   1.369   2.664   2.177 -0.0690  1.0990  0.9362
 3853SOL    HW223196   1.364   2.706   2.035 -1.1799  1.0943  0.3584
 3854SOL     OW23197   0.750   0.745  13.005  0.0168  0.3024  0.2418
 3854SOL    HW123198   0.694   0.713  12.934  0.5979  1.3829 -0.6960
 3854SOL    HW223199   0.684   0.799  13.049 -0.6252 -0.1685 -0.1276
 3855SOL     OW23200   2.052   3.148   7.206 -0.3153 -0.0224  0.5020
 3855SOL    HW123201   2.059   3.064   7.161 -0.6477  1.1478 -1.7193
 3855SOL    HW223202   2.013   3.210   7.144 -0.5143  0.5995  1.2391
 3856SOL     OW23203   2.208   4.139   2.575 -0.5894  0.0553 -0.4477
 3856SOL    HW123204   2.172   4.222   2.606  2.7069  1.0339  0.7361
 3856SOL    HW223205   2.282   4.122   2.632 -1.5027  0.8630  0.9571
 3857SOL     OW23206   2.322   2.775   3.937  0.0277  0.7364  1.0340
 3857SOL    HW123207   2.347   2.683   3.931  0.1152  0.9072 -1.1037
 3857SOL    HW223208   2.248   2.784   3.998 -1.3622  0.3047 -0.6015
 3858SOL     OW23209   0.769   1.520  10.105  0.5306  0.5459 -0.6865
 3858SOL    HW123210   0.776   1.442  10.160  2.1482 -0.0163 -1.7135
 3858SOL    HW223211   0.855   1.521  10.063  0.3546 -2.6232 -1.1089
 3859SOL     OW23212   3.422   4.068  10.428 -0.2467 -0.4601 -0.2515
 3859SOL    HW123213   3.460   4.055  10.341  2.7492 -0.4418  1.0733
 3859SOL    HW223214   3.444   4.158  10.451  1.7163 -1.2728  1.0043
 3860SOL     OW23215   1.280   1.580  15.537  0.3527  0.0128 -0.6892
 3860SOL    HW123216   1.288   1.524  15.460  0.5041  1.6144 -1.8491
 3860SOL    HW223217   1.373   1.597  15.550 -0.0568  0.8030  1.2665
 3861SOL     OW23218   3.978   2.811  16.036 -0.5601 -0.2541  0.2423
 3861SOL    HW123219   3.924   2.842  16.109 -0.7127 -3.0007  1.3103
 3861SOL    HW223220   3.952   2.865  15.962 -0.4914  0.8096  0.9846
 3862SOL     OW23221   4.162   0.526   3.065 -0.1362  0.4306  0.5556
 3862SOL    HW123222   4.178   0.587   3.137  0.6348  1.1545 -0.2202
 3862SOL    HW223223   4.070   0.549   3.053 -0.5480 -2.1637 -1.2057
 3863SOL     OW23224   1.480   1.215   3.845 -0.1423  0.3193  0.3551
 3863SOL    HW123225   1.394   1.229   3.884  1.0960 -0.2131  3.2854
 3863SOL    HW223226   1.474   1.266   3.764 -2.8832 -0.3290  0.1497
 3864SOL     OW23227   2.415   3.380   5.581  0.1174  0.1440 -0.4813
 3864SOL    HW123228   2.336   3.326   5.593 -0.8643  1.5747 -0.5656
 3864SOL    HW223229   2.486   3.317   5.593 -1.0133 -1.4723 -2.1491
 3865SOL     OW23230   1.665   0.204  10.821  0.2124 -0.4022  0.0900
 3865SOL    HW123231   1.599   0.260  10.781  0.1129 -0.4546  0.1807
 3865SOL    HW223232   1.738   0.229  10.765  1.0271  0.3847  1.5043
 3866SOL     OW23233   4.668   4.545  15.255  0.3277 -0.1156 -0.5941
 3866SOL    HW123234   4.706   4.503  15.332 -1.5537 -0.5213  0.1148
 3866SOL    HW223235   0.014   4.573  15.215 -0.2503  1.2852 -0.8196
 3867SOL     OW23236   3.338   2.251   7.511 -0.4624  0.1780  0.3482
 3867SOL    HW123237   3.384   2.324   7.470 -0.5495 -0.9692 -1.8469
 3867SOL    HW223238   3.306   2.296   7.589 -2.1169  1.4870 -1.0914
 3868SOL     OW23239   3.129   3.715   1.596  0.0230 -0.4565 -0.2431
 3868SOL    HW123240   3.135   3.623   1.573  1.0027 -0.7849  1.2845
 3868SOL    HW223241   3.194   3.726   1.665 -1.7751 -1.3914  1.5954
 3869SOL     OW23242   0.852   1.377   2.283  0.4630 -0.6365 -0.1967
 3869SOL    HW123243   0.897   1.315   2.340 -1.1394 -0.3084  1.4141
 3869SOL    HW223244   0.891   1.343   2.203  2.8979 -1.4474  1.3585
 3870SOL     OW23245   2.223   1.964  13.880  0.7988 -0.3435  0.2350
 3870SOL    HW123246   2.303   1.915  13.859  1.0594 -0.3675  1.2867
 3870SOL    HW223247   2.166   1.945  13.805  0.9843 -1.3783  0.3554
 3871SOL     OW23248   4.017   1.211   6.436  0.5316 -0.2086  0.4770
 3871SOL    HW123249   3.952   1.213   6.507  0.8165  0.0809  0.7286
 3871SOL    HW223250   3.956   1.189   6.365 -0.4589  0.2971  1.1670
 3872SOL     OW23251   3.311   2.058   9.033  0.0436 -0.2994  0.4203
 3872SOL    HW123252   3.244   2.018   9.088  0.6785 -1.8318  0.0585
 3872SOL    HW223253   3.271   2.055   8.946 -1.2469  2.7994  0.8693
 3873SOL     OW23254   0.324   0.702   4.945  0.4036  0.1184  0.0054
 3873SOL    HW123255   0.243   0.654   4.932  0.4564  0.0986 -0.2614
 3873SOL    HW223256   0.305   0.773   4.883  0.7861  1.4499  1.4173
 3874SOL     OW23257   0.725   3.524  14.053 -0.2627 -0.0788  0.5247
 3874SOL    HW123258   0.768   3.507  14.137  1.8321 -1.6133 -0.8571
 3874SOL    HW223259   0.791   3.553  13.990 -1.9556 -0.7878 -1.5365
 3875SOL     OW23260   3.392   2.559   7.262  0.3732 -0.0740  0.0505
 3875SOL    HW123261   3.462   2.623   7.250 -0.9250  2.0949  3.9306
 3875SOL    HW223262   3.421   2.528   7.348  0.0311  2.4666  1.0694
 3876SOL     OW23263   3.280   2.541  13.349  0.4659  0.7235 -0.5409
 3876SOL    HW123264   3.279   2.630  13.313  0.4732  1.6571  1.8234
 3876SOL    HW223265   3.311   2.567  13.435  1.3164 -1.1388 -0.2857
 3877SOL     OW23266   3.225   2.709   8.911 -0.4061  0.4615  0.0241
 3877SOL    HW123267   3.274   2.677   8.835 -2.6865 -0.9262 -0.8771
 3877SOL    HW223268   3.133   2.695   8.888 -0.3129  0.6477 -0.4664
 3878SOL     OW23269   4.586   2.694  14.716  0.1021  0.3211  0.1227
 3878SOL    HW123270   4.622   2.608  14.737  0.4668  0.6291  0.7896
 3878SOL    HW223271   4.531   2.706  14.793 -0.9879  0.0229 -0.6128
 3879SOL     OW23272   3.913   1.837   3.709 -0.5252 -0.6468  0.0840
 3879SOL    HW123273   3.918   1.823   3.803 -0.0675 -1.2484 -0.0320
 3879SOL    HW223274   4.004   1.820   3.684 -0.4079  0.8608 -0.4686
 3880SOL     OW23275   3.549   0.671   7.398  0.4173 -0.5109 -0.7246
 3880SOL    HW123276   3.605   0.748   7.383 -0.8015 -0.2516 -3.7959
 3880SOL    HW223277   3.488   0.702   7.465 -0.9443 -2.3560 -1.1441
 3881SOL     OW23278   0.803   0.397   6.678  0.8236 -0.6518  0.5706
 3881SOL    HW123279   0.856   0.463   6.723  2.1474 -2.3507  1.5185
 3881SOL    HW223280   0.715   0.430   6.696  0.7520 -0.0494 -0.9443
 3882SOL     OW23281   2.149   0.065   4.567 -0.2744  0.8018 -0.2615
 3882SOL    HW123282   2.057   0.066   4.592 -0.6006 -2.8525 -1.3290
 3882SOL    HW223283   2.181   0.052   4.656 -1.2733 -1.2666 -0.2146
 3883SOL     OW23284   3.931   4.224   4.787  0.7561 -0.1345 -0.1401
 3883SOL    HW123285   3.996   4.155   4.776  2.1967  1.1390  0.5535
 3883SOL    HW223286   3.980   4.303   4.768  0.3617  0.2822  0.5797
 3884SOL     OW23287   4.480   3.614  15.481 -0.4518 -0.2949  0.0753
 3884SOL    HW123288   4.572   3.615  15.509 -0.5997 -0.7038  0.5794
 3884SOL    HW223289   4.450   3.531  15.519  2.4053 -1.8151 -0.9748
 3885SOL     OW23290   2.608   3.879   8.335  0.1521 -0.1392  0.4463
 3885SOL    HW123291   2.567   3.926   8.408 -0.4915 -0.5361  0.3414
 3885SOL    HW223292   2.572   3.928   8.261  0.5224 -2.4627 -1.2824
 3886SOL     OW23293   3.424   4.419   3.124 -0.9038  0.0225  0.0959
 3886SOL    HW123294   3.491   4.472   3.080 -2.2289 -0.0054 -1.9856
 3886SOL    HW223295   3.429   4.350   3.057 -0.5283  0.5445 -0.4197
 3887SOL     OW23296   2.947   4.474   3.247  0.1982  0.1217  0.6803
 3887SOL    HW123297   2.882   4.465   3.178  0.1696  2.3030  0.4182
 3887SOL    HW223298   3.033   4.487   3.205 -0.6035  0.1314 -0.9611
 3888SOL     OW23299   3.844   3.809  17.284  0.0045  0.7539 -0.1453
 3888SOL    HW123300   3.842   3.885  17.226 -0.0914 -1.2143 -2.7380
 3888SOL    HW223301   3.764   3.762  17.259 -0.6010  1.9750 -0.5136
 3889SOL     OW23302   1.844   4.249   9.894  0.5283 -0.0013 -0.1187
 3889SOL    HW123303   1.938   4.264   9.880  0.7706 -1.1586  0.3102
 3889SOL    HW223304   1.818   4.280   9.807 -0.2464 -0.1554  0.0595
 3890SOL     OW23305   0.981   3.686   8.370 -0.1657 -0.1076 -0.8631
 3890SOL    HW123306   1.049   3.620   8.359  0.9255  0.9308 -0.4054
 3890SOL    HW223307   0.984   3.726   8.283  1.6966  0.2783 -0.6326
 3891SOL     OW23308   3.489   0.269   3.162 -0.1049 -0.1905 -0.4862
 3891SOL    HW123309   3.459   0.214   3.235 -0.4706  0.4533 -0.1481
 3891SOL    HW223310   3.407   0.303   3.126  0.4711  0.2786 -1.3447
 3892SOL     OW23311   1.982   2.862   5.510  0.4997 -0.0324  0.2032
 3892SOL    HW123312   1.928   2.783   5.501  1.4082 -0.7063  0.7473
 3892SOL    HW223313   2.061   2.816   5.537  0.6774 -0.3760 -0.9000
 3893SOL     OW23314   3.672   1.307   9.358  0.2552 -0.1035 -0.4900
 3893SOL    HW123315   3.679   1.346   9.445 -0.1058  0.9537 -0.9404
 3893SOL    HW223316   3.719   1.224   9.365  0.7564  0.2503  0.3833
 3894SOL     OW23317   1.466   2.397   4.577  0.3133  0.2671  0.2322
 3894SOL    HW123318   1.424   2.327   4.527  2.0421 -1.1792  0.7875
 3894SOL    HW223319   1.540   2.349   4.612 -1.2861 -3.3728 -1.3948
 3895SOL     OW23320   0.531   1.859   0.137  1.0156  0.3523 -0.5616
 3895SOL    HW123321   0.453   1.886   0.185  0.5833 -0.4087 -0.8326
 3895SOL    HW223322   0.521   1.891   0.047 -0.4686 -0.9654 -0.8792
 3896SOL     OW23323   0.879   0.675   0.831  0.0913 -1.0470 -0.4549
 3896SOL    HW123324   0.904   0.749   0.775 -0.2674  0.4819  1.3909
 3896SOL    HW223325   0.802   0.635   0.792 -1.9042  2.8278 -0.5269
 3897SOL     OW23326   2.557   0.457   5.726  0.8303  0.2817 -0.5547
 3897SOL    HW123327   2.525   0.534   5.679  1.5835  1.2275  0.4574
 3897SOL    HW223328   2.490   0.391   5.712  2.3885 -1.5627  0.7119
 3898SOL     OW23329   3.271   2.789   2.920 -0.3764 -0.3138  0.0757
 3898SOL    HW123330   3.219   2.792   3.001  0.8419 -0.6845  0.8788
 3898SOL    HW223331   3.258   2.880   2.894 -0.9461 -0.3736  0.1411
 3899SOL     OW23332   2.348   1.102   3.265 -0.1905 -0.5765  0.0504
 3899SOL    HW123333   2.378   1.193   3.257 -3.4035  0.4799  0.0418
 3899SOL    HW223334   2.252   1.107   3.273 -0.4910 -3.1497 -1.7898
 3900SOL     OW23335   3.096   1.945   4.576 -0.2602  0.4608 -0.5647
 3900SOL    HW123336   3.054   2.022   4.614  1.2242  0.1599  1.7196
 3900SOL    HW223337   3.183   1.977   4.553 -0.9034  0.5168 -2.8553
 3901SOL     OW23338   4.061   2.032   1.892 -0.1538  0.1971 -0.2338
 3901SOL    HW123339   4.045   1.984   1.811 -0.3887 -0.0905 -0.0145
 3901SOL    HW223340   4.118   2.103   1.861  1.3086 -0.1032  1.7751
 3902SOL     OW23341   0.478   0.967   6.221 -0.2416  0.2487 -0.1770
 3902SOL    HW123342   0.429   1.025   6.163  0.5124  1.6297  0.5604
 3902SOL    HW223343   0.504   1.029   6.290 -0.6834 -0.8575  0.9620
 3903SOL     OW23344   3.660   0.916   8.428  0.1311 -0.3095  0.2207
 3903SOL    HW123345   3.751   0.933   8.452  0.0664  2.0099 -1.1246
 3903SOL    HW223346   3.618   0.956   8.505  1.3643 -2.0137  1.7780
 3904SOL     OW23347   2.952   2.587   2.423  0.3850  0.0329 -0.0800
 3904SOL    HW123348   3.037   2.566   2.463 -0.5591 -3.0396  0.2807
 3904SOL    HW223349   2.913   2.643   2.490 -1.1132  1.0003 -1.7801
 3905SOL     OW23350   2.722   2.446   3.927 -0.1656  0.2397  0.1886
 3905SOL    HW123351   2.775   2.381   3.881 -1.0340 -0.1369 -0.2730
 3905SOL    HW223352   2.780   2.469   4.000  0.9835  0.9963 -0.9650
 3906SOL     OW23353   3.266   3.796   4.768  0.2927  0.3028  0.2925
 3906SOL    HW123354   3.357   3.812   4.792  0.8333 -1.8936 -0.2852
 3906SOL    HW223355   3.261   3.714   4.818  1.3606 -0.6110 -1.0780
 3907SOL     OW23356   2.162   0.254   3.645  0.3577 -0.7914  0.5263
 3907SOL    HW123357   2.153   0.273   3.552  0.3118  0.0580  0.6981
 3907SOL    HW223358   2.158   0.343   3.683  0.3660  0.2765 -1.9958
 3908SOL     OW23359   2.356   0.993   6.427 -0.0748  0.0178  0.4303
 3908SOL    HW123360   2.308   1.029   6.352  0.7995 -2.0936 -1.1509
 3908SOL    HW223361   2.446   1.011   6.402 -1.0251  3.8902 -0.2524
 3909SOL     OW23362   1.957   0.176   5.439  0.4230  0.2674 -0.1610
 3909SOL    HW123363   2.038   0.227   5.442  1.4644 -1.4359  0.4799
 3909SOL    HW223364   1.901   0.238   5.392 -0.6748 -0.5736  0.0476
 3910SOL     OW23365   3.313   2.556   8.671  0.3070  0.1896  0.1081
 3910SOL    HW123366   3.400   2.518   8.659 -0.9885 -1.9785 -2.1273
 3910SOL    HW223367   3.265   2.475   8.687 -2.0775  2.1283  2.8437
 3911SOL     OW23368   2.793   4.584   9.527 -0.4848  0.6637 -0.0468
 3911SOL    HW123369   2.834   4.561   9.610 -3.0131  0.9567  1.2864
 3911SOL    HW223370   2.866   4.625   9.481  0.2650 -0.3940  0.1984
 3912SOL     OW23371   1.503   0.716  16.642 -0.2472 -0.0792  0.2940
 3912SOL    HW123372   1.451   0.649  16.686 -0.2455 -0.6184 -0.5256
 3912SOL    HW223373   1.453   0.796  16.658  0.7499  0.1143  2.4965
 3913SOL     OW23374   3.389   3.405   7.274 -0.3347 -0.3406  0.2627
 3913SOL    HW123375   3.294   3.400   7.265 -0.0153 -1.2818 -2.5754
 3913SOL    HW223376   3.391   3.486   7.325 -0.3033 -0.7565  0.9210
 3914SOL     OW23377   2.320   2.925  10.760  0.1680  0.3666  0.1826
 3914SOL    HW123378   2.261   2.997  10.778  0.5026  0.7841 -0.4060
 3914SOL    HW223379   2.267   2.850  10.788 -2.1867  1.8205 -0.4872
 3915SOL     OW23380   0.915   2.119   8.797  0.1333  0.3458  0.1177
 3915SOL    HW123381   0.891   2.180   8.867 -0.0509  2.2936 -1.6589
 3915SOL    HW223382   0.987   2.074   8.842 -0.7221  0.3295  1.4649
 3916SOL     OW23383   2.244   0.576   8.706 -0.2577 -0.6475 -0.9336
 3916SOL    HW123384   2.330   0.555   8.670  0.5243 -0.9947  1.1532
 3916SOL    HW223385   2.208   0.621   8.629  1.0553 -0.4230 -1.4202
 3917SOL     OW23386   0.920   0.836   9.391  0.4206  0.8362 -0.5348
 3917SOL    HW123387   0.999   0.881   9.360  0.2485  1.8604  0.4941
 3917SOL    HW223388   0.946   0.744   9.391 -1.0779  0.4060 -0.7824
 3918SOL     OW23389   2.565   1.015   5.210 -0.1221  0.7634 -0.0677
 3918SOL    HW123390   2.543   1.087   5.269  1.3792  0.6904  0.5599
 3918SOL    HW223391   2.526   1.053   5.131  2.3797 -0.3011 -1.8087
 3919SOL     OW23392   4.378   0.793   3.842  0.7604 -0.5276  0.8309
 3919SOL    HW123393   4.396   0.875   3.795  2.7945 -0.5010  1.6202
 3919SOL    HW223394   4.408   0.739   3.769 -3.4010 -0.1916 -1.1109
 3920SOL     OW23395   4.175   0.959   7.123  0.1466 -0.4074  0.2351
 3920SOL    HW123396   4.143   0.869   7.118  0.8254 -0.7649  2.1366
 3920SOL    HW223397   4.118   0.994   7.055  0.0530  0.4380  0.7456
 3921SOL     OW23398   4.249   2.795  12.071 -0.1525  0.0656  0.1064
 3921SOL    HW123399   4.234   2.888  12.085 -1.7462 -0.2936  0.8080
 3921SOL    HW223400   4.296   2.786  11.988  0.8916 -1.5853  0.8842
 3922SOL     OW23401   4.208   0.329   4.147 -0.2356  0.2926  0.3070
 3922SOL    HW123402   4.194   0.388   4.073 -1.2270  0.1600  0.3784
 3922SOL    HW223403   4.282   0.280   4.110  0.1695  1.2619 -0.1531
 3923SOL     OW23404   3.955   3.342   5.400  0.0493 -0.0804  0.6585
 3923SOL    HW123405   4.042   3.363   5.436 -0.4173  1.2981  0.9708
 3923SOL    HW223406   3.973   3.259   5.357 -0.0538 -0.0373  0.5339
 3924SOL     OW23407   3.787   2.113   9.968 -0.5055 -0.1077  0.7040
 3924SOL    HW123408   3.836   2.183  10.011 -1.3214 -0.0444  1.5217
 3924SOL    HW223409   3.822   2.109   9.879 -0.3418 -1.3024  0.8197
 3925SOL     OW23410   0.098   1.602   6.297  0.3716  0.3340  0.2303
 3925SOL    HW123411   0.072   1.639   6.381  1.4936  1.7234 -0.0333
 3925SOL    HW223412   0.182   1.648   6.298  1.9539 -2.5834 -0.9024
 3926SOL     OW23413   2.462   1.894  15.231 -0.0851  0.6050  0.2733
 3926SOL    HW123414   2.480   1.877  15.138  1.0159 -1.8194  0.9264
 3926SOL    HW223415   2.552   1.890  15.263 -0.1644 -0.6477  0.3337
 3927SOL     OW23416   0.235   1.038   4.416 -0.0159 -0.1765 -0.0847
 3927SOL    HW123417   0.185   1.110   4.454  1.8282  1.0786 -0.0119
 3927SOL    HW223418   0.255   1.065   4.327  0.2786 -0.5578 -0.1344
 3928SOL     OW23419   4.248   1.858  12.748  0.4898  0.1594  0.2175
 3928SOL    HW123420   4.284   1.770  12.761  0.7151  0.0317 -1.2600
 3928SOL    HW223421   4.316   1.893  12.690 -0.6498  0.2117 -1.0768
 3929SOL     OW23422   0.145   0.122   8.239  0.9138 -0.0874 -0.2482
 3929SOL    HW123423   0.082   0.152   8.173 -0.7608  1.1354  1.9143
 3929SOL    HW223424   0.217   0.179   8.210  1.4931 -1.3439 -1.3265
 3930SOL     OW23425   4.550   3.547  17.445 -0.1235  0.1650  0.0468
 3930SOL    HW123426   4.603   3.492  17.388 -2.1598  0.0316 -1.7122
 3930SOL    HW223427   4.488   3.483  17.481  0.4995 -0.3587  0.1851
 3931SOL     OW23428   1.585   1.646  16.875  0.2759  0.6151  0.0029
 3931SOL    HW123429   1.662   1.618  16.826  0.0546  1.2809 -0.7268
 3931SOL    HW223430   1.581   1.732  16.832 -1.5583  0.8562  0.6295
 3932SOL     OW23431   1.836   2.039   7.664  0.1600 -0.3250  0.2557
 3932SOL    HW123432   1.863   1.982   7.736  1.1292  1.1783  1.0651
 3932SOL    HW223433   1.766   2.091   7.704 -0.3775 -0.6837 -0.2176
 3933SOL     OW23434   3.734   1.557   7.165  0.4092 -0.3571 -0.5929
 3933SOL    HW123435   3.799   1.627   7.161  0.9711 -0.9487 -1.7583
 3933SOL    HW223436   3.652   1.595   7.195 -0.1146 -0.3632 -2.0279
 3934SOL     OW23437   4.055   2.900   5.325  0.4980 -0.3293 -0.2762
 3934SOL    HW123438   4.112   2.850   5.266 -0.6644 -0.8441 -0.9648
 3934SOL    HW223439   4.091   2.988   5.316 -1.7820  0.6565  0.2449
 3935SOL     OW23440   2.716   2.482   4.509 -0.2186 -0.2520 -0.2067
 3935SOL    HW123441   2.761   2.475   4.425  1.5751  0.6534  0.6817
 3935SOL    HW223442   2.782   2.507   4.573  1.5014 -2.0506 -1.2801
 3936SOL     OW23443   3.334   2.757   0.815  0.3105  0.1105  0.6912
 3936SOL    HW123444   3.393   2.682   0.815 -2.7639 -2.3158  2.2461
 3936SOL    HW223445   3.306   2.764   0.724  3.7507 -0.9047 -0.4159
 3937SOL     OW23446   4.061   1.795   1.208 -0.2166  0.1421 -0.6703
 3937SOL    HW123447   4.065   1.699   1.209  1.5359  0.2228  0.5925
 3937SOL    HW223448   4.056   1.806   1.303  0.8137 -1.2758 -0.4474
 3938SOL     OW23449   1.442   0.424  17.011  0.5841  0.2155  0.1200
 3938SOL    HW123450   1.494   0.387  17.082  0.6624  2.0547  1.0265
 3938SOL    HW223451   1.384   0.353  16.984  0.5428  1.4580 -3.0177
 3939SOL     OW23452   2.240   4.729   5.417 -0.3362 -0.2669 -0.3906
 3939SOL    HW123453   2.287   4.659   5.463 -0.2185 -0.2766 -0.5251
 3939SOL    HW223454   2.212   0.042   5.494  0.4317 -0.8841  0.2788
 3940SOL     OW23455   2.345   4.232  17.689 -0.4833  0.4472  0.0078
 3940SOL    HW123456   2.254   4.250  17.709 -1.0817  0.2704 -2.6358
 3940SOL    HW223457   2.339   4.137  17.695 -1.1151  0.4219 -1.1754
 3941SOL     OW23458   2.038   4.041   5.685  0.3323  0.4784 -0.5732
 3941SOL    HW123459   1.964   4.008   5.634  0.5313  2.0141 -1.8463
 3941SOL    HW223460   2.052   3.976   5.754 -0.6002  0.5945 -0.2838
 3942SOL     OW23461   2.191   4.655   2.014  0.0082  0.0276  0.4610
 3942SOL    HW123462   2.280   4.666   1.982  0.0799  0.2178  0.7274
 3942SOL    HW223463   2.171   4.574   1.967  5.5670  0.2904 -2.2971
 3943SOL     OW23464   3.841   3.145  16.653 -0.2380 -0.2212 -0.7831
 3943SOL    HW123465   3.790   3.110  16.726  1.7552  1.9065  1.6282
 3943SOL    HW223466   3.869   3.067  16.604  3.2074  1.0436 -0.8420
 3944SOL     OW23467   1.688   2.079  14.493 -0.0196 -0.1563  0.5389
 3944SOL    HW123468   1.615   2.031  14.531 -1.9462  1.9339 -0.5418
 3944SOL    HW223469   1.766   2.050  14.541  0.0357 -0.7280  0.1048
 3945SOL     OW23470   1.998   0.567   9.481 -0.1062 -0.3786 -0.3506
 3945SOL    HW123471   2.087   0.564   9.446  1.4229  0.1464  3.5280
 3945SOL    HW223472   1.938   0.567   9.406 -1.5178  2.3799  0.7853
 3946SOL     OW23473   3.589   4.269   9.350  0.1545 -0.5566  0.2888
 3946SOL    HW123474   3.671   4.312   9.330  0.2006 -0.1905  1.2475
 3946SOL    HW223475   3.617   4.239   9.437  1.3463  0.3156  0.2004
 3947SOL     OW23476   1.883   0.550   3.634  0.5242  0.7840 -0.3355
 3947SOL    HW123477   1.972   0.570   3.664  0.7105 -0.0950 -0.3192
 3947SOL    HW223478   1.884   0.569   3.541 -0.9103  0.7115 -0.3729
 3948SOL     OW23479   3.124   3.498  13.575 -0.1811 -0.2081 -0.3969
 3948SOL    HW123480   3.137   3.587  13.607  0.5155 -0.3567 -0.2497
 3948SOL    HW223481   3.214   3.479  13.545  1.2036  1.4595  2.7761
 3949SOL     OW23482   0.870   3.356   7.375 -0.2291 -0.5456  0.7981
 3949SOL    HW123483   0.798   3.361   7.438  0.1770  0.8779  1.1265
 3949SOL    HW223484   0.889   3.449   7.367 -1.1484 -0.4913 -0.8390
 3950SOL     OW23485   2.868   0.539   9.116 -0.1209  0.1887 -0.1079
 3950SOL    HW123486   2.850   0.549   9.022 -0.7677 -0.8801 -0.0849
 3950SOL    HW223487   2.959   0.509   9.119 -0.0470  0.3920 -0.2360
 3951SOL     OW23488   1.291   0.741   3.873  0.7220 -0.6625  0.1222
 3951SOL    HW123489   1.325   0.654   3.853 -1.3040 -1.3569 -0.3415
 3951SOL    HW223490   1.343   0.809   3.830  1.0037 -0.8955  0.0949
 3952SOL     OW23491   1.264   3.525   2.484  0.3239  0.2566 -0.1096
 3952SOL    HW123492   1.311   3.509   2.566 -2.0802 -1.4792  0.9550
 3952SOL    HW223493   1.171   3.510   2.499  0.2808  1.0021  0.3802
 3953SOL     OW23494   1.154   1.303   2.676  0.2698 -0.2812 -0.3833
 3953SOL    HW123495   1.093   1.250   2.727  0.2404  0.6981  0.6004
 3953SOL    HW223496   1.225   1.316   2.739 -0.1953  0.6864 -0.0588
 3954SOL     OW23497   4.450   3.284   4.906 -0.3436  0.5472  0.6841
 3954SOL    HW123498   4.447   3.344   4.832  2.5604 -1.8292 -1.3855
 3954SOL    HW223499   4.542   3.258   4.902 -0.8856 -1.3158  0.3744
 3955SOL     OW23500   3.116   4.297   3.413  0.1287 -0.0636  0.2163
 3955SOL    HW123501   3.073   4.371   3.369  1.2381 -0.2010 -1.0763
 3955SOL    HW223502   3.039   4.242   3.430  1.9999 -3.2117 -1.4741
 3956SOL     OW23503   4.584   2.066  11.380 -0.4421 -0.3672  0.1220
 3956SOL    HW123504   4.495   2.055  11.347 -0.7356 -1.2731  1.2059
 3956SOL    HW223505   4.636   2.067  11.299 -0.3603  0.9226  0.1959
 3957SOL     OW23506   1.031   2.565   8.143 -0.9415 -0.1234 -0.0708
 3957SOL    HW123507   1.027   2.626   8.069  1.6910  0.1907  0.0482
 3957SOL    HW223508   1.084   2.612   8.207 -0.4816  2.0616 -2.0272
 3958SOL     OW23509   3.539   3.417  12.944  0.1636  0.1209  0.3626
 3958SOL    HW123510   3.586   3.425  13.027  1.5731 -2.3976 -0.1912
 3958SOL    HW223511   3.616   3.445  12.894 -1.8712 -0.3565 -3.0073
 3959SOL     OW23512   1.086   0.232   7.832 -0.1244  0.3105 -0.3029
 3959SOL    HW123513   1.173   0.211   7.865  0.0481 -1.1492 -1.7490
 3959SOL    HW223514   1.095   0.193   7.746  0.5530  3.5114 -1.6877
 3960SOL     OW23515   0.705   3.030   7.465  0.1821 -0.0512 -0.4366
 3960SOL    HW123516   0.676   3.041   7.555 -0.0208  3.1159 -0.8802
 3960SOL    HW223517   0.663   3.104   7.420  0.1209  0.1231 -0.0867
 3961SOL     OW23518   3.537   2.146  10.075  0.3458 -0.4941  0.3128
 3961SOL    HW123519   3.553   2.210  10.143  0.4073  0.8588 -0.9804
 3961SOL    HW223520   3.625   2.144  10.038 -0.3903  0.8365 -1.5147
 3962SOL     OW23521   3.749   2.820  12.674  0.9813 -0.3139  0.0894
 3962SOL    HW123522   3.788   2.808  12.761 -0.2527 -1.0412  0.5365
 3962SOL    HW223523   3.748   2.914  12.656 -1.8963 -0.1740  0.9413
 3963SOL     OW23524   2.257   4.366   8.646 -0.2334 -0.4286  0.0867
 3963SOL    HW123525   2.325   4.298   8.637 -0.8343 -0.6856 -2.7407
 3963SOL    HW223526   2.210   4.332   8.722 -0.2401 -0.1841  0.1897
 3964SOL     OW23527   4.294   4.716   3.294 -0.3776 -0.0442  0.3999
 3964SOL    HW123528   4.260   4.682   3.211  2.3519  2.1200 -1.6225
 3964SOL    HW223529   4.218   4.706   3.351 -1.1435  2.0780 -0.2457
 3965SOL     OW23530   3.166   1.043   3.674 -0.0788 -0.1793 -0.0920
 3965SOL    HW123531   3.232   1.102   3.637 -0.1054  0.5765  1.0612
 3965SOL    HW223532   3.124   1.095   3.742  2.2575  0.7917  0.6335
 3966SOL     OW23533   2.895   1.891   6.780  0.4937  0.0819 -0.2202
 3966SOL    HW123534   2.983   1.906   6.815 -1.0102  3.1252  2.2457
 3966SOL    HW223535   2.876   1.802   6.811 -1.0090  1.3279  2.4044
 3967SOL     OW23536   4.179   0.169   1.813 -0.1011  1.0986  0.3076
 3967SOL    HW123537   4.233   0.176   1.734  0.7502  0.7106  0.8469
 3967SOL    HW223538   4.153   0.078   1.798 -0.8588  1.6016 -1.3830
 3968SOL     OW23539   3.826   4.353   6.411  0.1585  0.0787  0.5030
 3968SOL    HW123540   3.843   4.385   6.500 -0.5628 -0.8857  0.9901
 3968SOL    HW223541   3.883   4.277   6.411 -0.3478 -0.3034  0.7762
 3969SOL     OW23542   2.705   4.730   5.301  0.1470  0.4496  0.0915
 3969SOL    HW123543   2.654   4.730   5.382  1.0758  1.3413  0.6865
 3969SOL    HW223544   2.644   0.015   5.231 -1.7338  1.0338  1.8919
 3970SOL     OW23545   0.984   0.580   7.292  0.3299 -0.2096 -0.2606
 3970SOL    HW123546   0.929   0.655   7.270 -0.3830 -1.0002 -1.2003
 3970SOL    HW223547   0.939   0.509   7.245 -1.2125  1.7416 -1.7294
 3971SOL     OW23548   0.570   0.165  14.918 -0.0700  0.4457  0.4624
 3971SOL    HW123549   0.504   0.096  14.930 -0.1985  0.1182 -2.3052
 3971SOL    HW223550   0.645   0.106  14.918 -0.7262 -0.3980  1.1263
 3972SOL     OW23551   1.590   2.961   4.129  0.1541 -0.6118  0.2212
 3972SOL    HW123552   1.569   3.050   4.159  1.2248 -0.7097  1.2752
 3972SOL    HW223553   1.628   2.925   4.210 -2.6049 -0.1152  1.7483
 3973SOL     OW23554   0.543   1.070   1.727 -0.1249  0.3270  0.1252
 3973SOL    HW123555   0.539   1.078   1.822  0.6400  1.3536  0.0695
 3973SOL    HW223556   0.559   0.978   1.707 -0.2852  0.3461 -0.0879
 3974SOL     OW23557   4.628   0.002   8.920  0.2293 -0.3088  0.6337
 3974SOL    HW123558   4.645   4.685   8.998 -0.3958  1.1231  1.7205
 3974SOL    HW223559   4.660   4.672   8.858  0.7215  1.2227 -0.7439
 3975SOL     OW23560   1.895   3.572  17.340 -0.4884 -0.3887 -0.4112
 3975SOL    HW123561   1.849   3.629  17.278  0.4827 -0.1821 -0.9385
 3975SOL    HW223562   1.922   3.510  17.273  1.7534 -0.6459  0.7567
 3976SOL     OW23563   0.507   3.200   2.509 -0.2739 -0.0055  0.2307
 3976SOL    HW123564   0.597   3.213   2.537 -0.2857  1.2958 -0.3226
 3976SOL    HW223565   0.515   3.110   2.478  2.5474 -0.0720  1.1599
 3977SOL     OW23566   2.588   1.477   6.010 -0.4160 -0.3316  0.5004
 3977SOL    HW123567   2.618   1.544   5.949  0.3020 -2.4768 -1.4564
 3977SOL    HW223568   2.653   1.478   6.081 -0.2725  3.6688  0.2991
 3978SOL     OW23569   3.410   1.077   4.308 -0.7328 -0.3583  0.1143
 3978SOL    HW123570   3.328   1.055   4.353 -1.1208  0.5636 -0.1576
 3978SOL    HW223571   3.406   1.172   4.319 -4.0421 -0.5331  0.5502
 3979SOL     OW23572   2.312   3.430   2.419 -0.2129 -0.1046  0.4971
 3979SOL    HW123573   2.321   3.488   2.344  0.5205  1.3117  1.7025
 3979SOL    HW223574   2.216   3.433   2.428 -0.4089 -0.1210 -1.6759
 3980SOL     OW23575   3.739   4.267   5.829  0.2990 -0.8175  0.1801
 3980SOL    HW123576   3.823   4.257   5.785  0.8506  2.2334  0.5902
 3980SOL    HW223577   3.756   4.249   5.922  1.4452 -2.0352 -0.2700
 3981SOL     OW23578   3.863   3.984   6.879  0.0180 -0.0383 -0.6539
 3981SOL    HW123579   3.922   3.911   6.863  1.3534  0.7362  0.7525
 3981SOL    HW223580   3.847   4.013   6.789 -1.5239 -1.2091 -0.7613
 3982SOL     OW23581   0.604   3.316   3.812  0.7057 -0.1283  0.1936
 3982SOL    HW123582   0.608   3.347   3.722  0.1660 -0.1217  0.1691
 3982SOL    HW223583   0.543   3.242   3.805  0.5923  0.0526 -0.7350
 3983SOL     OW23584   0.391   3.901   5.309  0.1774  0.7197  0.0008
 3983SOL    HW123585   0.341   3.913   5.390 -1.9018  0.4693 -1.2589
 3983SOL    HW223586   0.327   3.862   5.250 -1.1089  2.9367 -0.0580
 3984SOL     OW23587   1.180   2.147   8.092  0.2482 -0.6035  0.0989
 3984SOL    HW123588   1.140   2.086   8.155 -0.9969  1.7864  1.6134
 3984SOL    HW223589   1.267   2.168   8.126  0.5819  0.6492 -1.5624
 3985SOL     OW23590   4.484   1.611  13.192 -0.2002 -0.3221 -0.1604
 3985SOL    HW123591   4.572   1.644  13.210  0.0075 -0.7083 -0.4668
 3985SOL    HW223592   4.484   1.605  13.096 -0.9512 -1.4324 -0.0953
 3986SOL     OW23593   2.479   4.658   6.869  0.0933  0.0596  0.0548
 3986SOL    HW123594   2.511   4.629   6.954  0.5994 -0.0090 -0.1583
 3986SOL    HW223595   2.395   4.613   6.861  1.3581 -2.4852  1.3558
 3987SOL     OW23596   3.537   1.375  10.140 -0.0724 -0.5879 -0.4567
 3987SOL    HW123597   3.498   1.441  10.196  2.5691  1.2859 -0.8266
 3987SOL    HW223598   3.587   1.324  10.204  0.0878  1.3512  0.9342
 3988SOL     OW23599   2.062   2.003   8.054  0.4114 -0.1965  0.3370
 3988SOL    HW123600   2.003   2.045   8.116  0.6378 -0.0553  0.4563
 3988SOL    HW223601   2.095   2.079   8.007 -2.3797  0.4286 -0.6028
 3989SOL     OW23602   4.453   0.270   5.455 -0.3172  0.2249  0.8312
 3989SOL    HW123603   4.523   0.303   5.398 -2.2342  1.6814 -0.7055
 3989SOL    HW223604   4.377   0.321   5.426 -1.9405 -0.2776  4.2874
 3990SOL     OW23605   0.060   4.131   1.164 -0.2736 -0.1455  0.2287
 3990SOL    HW123606   0.053   4.076   1.086 -1.4561  1.2398 -0.6575
 3990SOL    HW223607   4.715   4.179   1.145  0.2318  0.7591  0.3915
 3991SOL     OW23608   3.107   4.411   2.050  0.3991 -0.5120  0.3714
 3991SOL    HW123609   3.126   4.504   2.055 -0.1181 -0.3523 -0.6751
 3991SOL    HW223610   3.191   4.375   2.079  0.7869 -0.2531 -0.4268
 3992SOL     OW23611   0.616   3.284  14.656 -0.6277 -0.6074  0.0836
 3992SOL    HW123612   0.527   3.285  14.620 -0.1256 -1.1473 -1.1614
 3992SOL    HW223613   0.602   3.211  14.717  0.7538 -0.8380  0.1249
 3993SOL     OW23614   2.323   2.847   0.496  0.0623  0.1590 -0.3650
 3993SOL    HW123615   2.326   2.853   0.591  1.0347  0.7767 -0.4284
 3993SOL    HW223616   2.384   2.916   0.469 -0.7210  0.9226 -0.1875
 3994SOL     OW23617   0.733   1.057  14.156  0.3757  0.0942 -0.2854
 3994SOL    HW123618   0.748   1.139  14.109 -0.9379 -0.8670 -2.3955
 3994SOL    HW223619   0.686   1.082  14.235 -0.5173 -1.9000 -0.2037
 3995SOL     OW23620   0.726   3.802   0.554 -0.1096  0.0383  0.0880
 3995SOL    HW123621   0.662   3.841   0.495  0.4337 -0.2799 -0.7040
 3995SOL    HW223622   0.756   3.731   0.497 -0.2069 -0.8162  1.0989
 3996SOL     OW23623   0.522   0.437  13.068  0.3369 -0.5495 -0.2990
 3996SOL    HW123624   0.452   0.457  13.130 -0.8117 -0.3323 -1.6687
 3996SOL    HW223625   0.482   0.447  12.981 -1.9916 -3.4794  0.4397
 3997SOL     OW23626   2.813   0.515  12.570 -0.4347  0.1579 -0.0457
 3997SOL    HW123627   2.819   0.586  12.506 -0.3709  2.1493  2.1807
 3997SOL    HW223628   2.730   0.529  12.616 -0.2821 -1.3034  0.6795
 3998SOL     OW23629   2.205   0.121   6.960 -0.0679  0.2244 -0.5369
 3998SOL    HW123630   2.224   0.200   6.909  0.4246  0.5979  0.2141
 3998SOL    HW223631   2.111   0.114   6.947  0.0673 -1.5755 -0.5146
 3999SOL     OW23632   0.100   1.300  12.609 -0.7429  0.0595  0.1808
 3999SOL    HW123633   0.150   1.264  12.682 -1.7229 -0.4528  0.6079
 3999SOL    HW223634   0.128   1.239  12.541  0.0603  0.5908  0.0361
 4000SOL     OW23635   4.291   2.943   1.143  0.1758  0.2322 -0.4583
 4000SOL    HW123636   4.223   2.974   1.202  1.0628 -1.5416  1.5188
 4000SOL    HW223637   4.251   2.949   1.057  0.3989  1.1405 -0.4958
 4001SOL     OW23638   1.280   1.981   8.698 -0.0939  0.9151  0.6862
 4001SOL    HW123639   1.213   2.012   8.637  0.0266  2.4192  1.3024
 4001SOL    HW223640   1.346   1.944   8.639  0.0225 -0.9008  1.9561
 4002SOL     OW23641   1.293   1.202   8.150 -0.1128  0.9545  0.2552
 4002SOL    HW123642   1.319   1.110   8.153  2.1033  1.6132  0.7879
 4002SOL    HW223643   1.208   1.192   8.194 -0.3476  0.0655 -0.3722
 4003SOL     OW23644   2.348   1.485   7.360 -0.4322 -0.0159  0.0981
 4003SOL    HW123645   2.307   1.521   7.282 -0.3705  1.4424  0.7257
 4003SOL    HW223646   2.272   1.437   7.393  2.0005 -3.5084  0.5757
 4004SOL     OW23647   2.913   3.582  11.857  0.0914 -0.5172 -0.0240
 4004SOL    HW123648   2.981   3.583  11.790 -1.5631  0.4869 -1.6615
 4004SOL    HW223649   2.971   3.581  11.934 -0.8057 -1.2353  0.6377
 4005SOL     OW23650   1.681   3.376   3.180  0.3511  0.2017 -0.1463
 4005SOL    HW123651   1.652   3.364   3.090  2.4692 -3.2022 -0.3515
 4005SOL    HW223652   1.673   3.471   3.184 -0.6577  0.1114  0.1528
 4006SOL     OW23653   1.907   2.653   7.203  0.6716 -0.0486  0.0737
 4006SOL    HW123654   1.849   2.627   7.275 -1.0014  1.1610 -0.8381
 4006SOL    HW223655   1.900   2.589   7.132 -0.9840 -0.0518  0.2322
 4007SOL     OW23656   0.691   0.758   5.425 -0.2472 -0.0350 -0.2775
 4007SOL    HW123657   0.691   0.681   5.483 -0.0539 -0.3135 -0.6476
 4007SOL    HW223658   0.654   0.723   5.344 -0.3293  1.0170 -0.6812
 4008SOL     OW23659   0.230   0.507   8.255 -0.0438  0.7337 -0.0588
 4008SOL    HW123660   0.242   0.547   8.341 -1.0557  1.8999 -0.4523
 4008SOL    HW223661   0.255   0.416   8.270 -0.0152  0.6495 -0.6118
 4009SOL     OW23662   2.578   1.843   3.394  0.5561  0.0914  0.2610
 4009SOL    HW123663   2.600   1.808   3.308 -0.2129  1.2487 -0.4098
 4009SOL    HW223664   2.488   1.813   3.392  1.0860 -1.4066 -0.6459
 4010SOL     OW23665   1.464   4.612   1.776  0.5968  0.0793 -0.5703
 4010SOL    HW123666   1.432   4.701   1.767  1.6062  0.4522 -0.4726
 4010SOL    HW223667   1.524   4.602   1.702  2.3520  0.1425  0.8440
 4011SOL     OW23668   0.038   0.819   1.759  0.1159 -0.1288  0.1284
 4011SOL    HW123669   0.042   0.913   1.738 -1.7261  0.0944  0.8450
 4011SOL    HW223670   0.133   0.806   1.764  0.4095  2.3277  1.1943
 4012SOL     OW23671   3.495   1.625  15.722 -0.1769  0.2076 -0.1535
 4012SOL    HW123672   3.573   1.569  15.718 -0.4591 -0.2621  0.9357
 4012SOL    HW223673   3.428   1.575  15.769 -0.5323 -0.3501 -1.2712
 4013SOL     OW23674   0.394   2.596  13.259  0.0635  0.2050  0.0479
 4013SOL    HW123675   0.398   2.515  13.310  1.6227  0.2399 -0.0236
 4013SOL    HW223676   0.438   2.657  13.319 -0.6101 -0.9849  1.7669
 4014SOL     OW23677   3.572   0.617   2.107  0.5643 -0.2862  0.0219
 4014SOL    HW123678   3.537   0.592   2.021  0.0158  2.7206 -0.6096
 4014SOL    HW223679   3.665   0.619   2.085  0.7678  1.7318  1.0919
 4015SOL     OW23680   0.958   2.199  11.591 -0.0266  0.3807 -0.6351
 4015SOL    HW123681   0.977   2.122  11.645 -0.3102 -0.0746 -1.1924
 4015SOL    HW223682   0.864   2.184  11.581 -0.2980 -0.6136  3.3851
 4016SOL     OW23683   2.197   4.495   4.188  0.0337 -0.0092  0.2252
 4016SOL    HW123684   2.197   4.536   4.275 -0.8185 -1.6510  0.9888
 4016SOL    HW223685   2.132   4.553   4.147 -0.6955 -0.3416  0.9037
 4017SOL     OW23686   3.116   4.333  16.004  0.2084  0.3741 -0.0289
 4017SOL    HW123687   3.080   4.405  15.953  0.3834 -0.4414 -1.2963
 4017SOL    HW223688   3.208   4.332  15.977  0.1566 -0.2507 -0.1902
 4018SOL     OW23689   1.875   1.341  13.722  0.0151 -0.6591 -0.2993
 4018SOL    HW123690   1.914   1.256  13.745 -1.2197 -1.0947  0.1460
 4018SOL    HW223691   1.792   1.319  13.763 -0.9792  1.6995 -1.0412
 4019SOL     OW23692   3.007   3.200   9.517 -0.2582  0.2805  0.0146
 4019SOL    HW123693   3.068   3.244   9.575 -0.1662  0.5774 -0.3042
 4019SOL    HW223694   3.049   3.116   9.501 -3.5344 -1.2518 -0.5349
 4020SOL     OW23695   3.892   0.458   0.735  0.2093  0.0659  0.0176
 4020SOL    HW123696   3.893   0.379   0.788  2.5861  0.5830  0.7215
 4020SOL    HW223697   3.982   0.478   0.710  0.1932 -0.7552 -0.6781
 4021SOL     OW23698   0.253   1.833  16.696 -0.5265  0.8529  0.3665
 4021SOL    HW123699   0.319   1.898  16.671  0.8857  0.5783  3.3477
 4021SOL    HW223700   0.309   1.760  16.722 -2.0498 -1.2566 -2.3432
 4022SOL     OW23701   1.991   2.105  12.084  0.4231 -0.2593 -0.0784
 4022SOL    HW123702   2.047   2.084  12.159 -0.6688 -1.0229  0.5217
 4022SOL    HW223703   2.050   2.107  12.009 -1.5927  0.8515 -1.6262
 4023SOL     OW23704   1.291   3.592   8.767 -0.9894  0.1572 -0.0322
 4023SOL    HW123705   1.213   3.639   8.796 -1.1497  0.6908 -1.3385
 4023SOL    HW223706   1.312   3.545   8.848  1.3000 -1.0429 -1.3120
 4024SOL     OW23707   0.181   4.213   7.803  0.0394  0.1545 -0.2896
 4024SOL    HW123708   0.205   4.161   7.880  2.1500 -1.8755 -2.3004
 4024SOL    HW223709   0.263   4.235   7.759 -0.0078 -0.9069 -0.9088
 4025SOL     OW23710   1.706   3.864   3.372  0.2596  0.3461  0.1468
 4025SOL    HW123711   1.642   3.898   3.310  0.5269 -0.8016 -0.7504
 4025SOL    HW223712   1.782   3.854   3.314  0.8152  4.3751  0.1169
 4026SOL     OW23713   3.457   4.120   1.409  0.1536 -0.0298 -0.4226
 4026SOL    HW123714   3.534   4.175   1.426 -2.3300  2.6626  2.0384
 4026SOL    HW223715   3.433   4.160   1.326  0.8275  1.6278  0.1812
 4027SOL     OW23716   2.820   1.134   0.289 -0.3544 -0.2605 -0.0850
 4027SOL    HW123717   2.832   1.201   0.356  2.7491  0.7325 -1.6550
 4027SOL    HW223718   2.862   1.061   0.334 -0.2998 -0.3310 -0.2495
 4028SOL     OW23719   4.137   3.537   3.583 -0.3692  0.5020  0.0968
 4028SOL    HW123720   4.173   3.625   3.596  0.1248  0.0256  2.0314
 4028SOL    HW223721   4.050   3.543   3.622 -1.9198  0.9675 -3.4631
 4029SOL     OW23722   4.506   4.607   6.361  0.3249 -0.7130 -0.1729
 4029SOL    HW123723   4.494   4.689   6.314 -0.7841 -0.7689  0.0147
 4029SOL    HW223724   4.573   4.632   6.425 -0.1882 -2.9614  1.2741
 4030SOL     OW23725   0.506   0.768   8.655  0.2690 -0.0978  0.1390
 4030SOL    HW123726   0.508   0.848   8.602 -0.4152  0.4673  0.9740
 4030SOL    HW223727   0.525   0.798   8.744  1.1074 -0.1520 -0.0162
 4031SOL     OW23728   2.033   0.309   8.371 -0.0968 -0.4876  0.2710
 4031SOL    HW123729   2.021   0.404   8.374 -0.3905 -0.5850  1.7547
 4031SOL    HW223730   2.124   0.301   8.340  0.4673 -0.4967  1.9154
 4032SOL     OW23731   3.672   4.735   3.184  0.1018  0.2805 -0.1154
 4032SOL    HW123732   3.615   0.026   3.112 -0.2347 -0.7164 -0.2297
 4032SOL    HW223733   3.756   4.722   3.142 -0.0922 -0.8900 -0.1290
 4033SOL     OW23734   1.665   2.157   2.749  0.5906  0.4556  0.0396
 4033SOL    HW123735   1.604   2.085   2.765 -0.7371  2.0385  2.1512
 4033SOL    HW223736   1.648   2.171   2.655 -1.1945  0.9128  0.4336
 4034SOL     OW23737   4.172   0.822   6.793  0.2521 -0.2739 -0.4085
 4034SOL    HW123738   4.090   0.843   6.749 -0.8603 -0.7540  1.4044
 4034SOL    HW223739   4.148   0.783   6.877  0.6140 -1.5597 -0.9068
 4035SOL     OW23740   3.515   0.215  14.263 -0.8364 -0.6120  0.3633
 4035SOL    HW123741   3.513   0.278  14.190  0.7113  0.8437  1.5821
 4035SOL    HW223742   3.492   0.279  14.330 -1.0829  0.5347 -0.8088
 4036SOL     OW23743   4.217   4.281  13.286 -0.2251  0.0503 -0.0922
 4036SOL    HW123744   4.298   4.314  13.247 -0.7022  0.7507 -0.4983
 4036SOL    HW223745   4.182   4.367  13.307 -0.2071  0.9160 -3.4888
 4037SOL     OW23746   0.394   3.130  17.527 -0.0983  0.0910  0.2004
 4037SOL    HW123747   0.372   3.149  17.618  0.2055 -0.5979  0.4161
 4037SOL    HW223748   0.476   3.176  17.507 -0.4344  0.0587 -1.2690
 4038SOL     OW23749   1.784   2.567   0.309 -0.1436 -0.5133  0.1331
 4038SOL    HW123750   1.845   2.587   0.238 -0.7671  0.1778 -0.2146
 4038SOL    HW223751   1.811   2.482   0.342  1.6401  0.3766  0.9840
 4039SOL     OW23752   0.788   2.309   3.272  0.5271 -0.5861  0.0431
 4039SOL    HW123753   0.866   2.361   3.251  0.7003 -0.2887  1.4033
 4039SOL    HW223754   0.815   2.225   3.234 -1.9539 -1.3326 -0.0271
 4040SOL     OW23755   3.388   0.984   8.941 -0.4758  0.2358 -0.3470
 4040SOL    HW123756   3.407   1.028   8.858  4.4022 -1.0729  0.0516
 4040SOL    HW223757   3.475   0.995   8.980  1.2185 -0.4141 -3.9558
 4041SOL     OW23758   3.276   4.602   7.636 -0.1829 -0.6881 -1.4132
 4041SOL    HW123759   3.269   4.624   7.543  1.9486  0.9613 -1.1838
 4041SOL    HW223760   3.370   4.591   7.649 -0.0773  1.5762 -0.2782
 4042SOL     OW23761   4.523   4.387   7.187 -0.3594  0.0125 -0.3018
 4042SOL    HW123762   4.479   4.302   7.185 -1.8962  0.8732 -3.3303
 4042SOL    HW223763   4.505   4.430   7.103  0.0644  2.4351  0.8527
 4043SOL     OW23764   0.441   4.634   6.898 -0.0235  0.3177 -0.3539
 4043SOL    HW123765   0.527   4.637   6.854 -0.2005  2.4306 -0.5425
 4043SOL    HW223766   0.409   4.547   6.875 -1.8300  1.2101 -1.1837
 4044SOL     OW23767   1.055   0.597   6.574 -0.1626 -0.0058 -0.4891
 4044SOL    HW123768   1.070   0.543   6.496  0.9937  1.2849 -1.1588
 4044SOL    HW223769   1.135   0.574   6.621 -0.0241 -1.1609 -1.2801
 4045SOL     OW23770   4.454   0.096   9.200  0.1490 -0.3283  0.1411
 4045SOL    HW123771   4.387   0.114   9.266 -0.0067 -1.0862  0.1856
 4045SOL    HW223772   4.401   0.124   9.126  0.5148 -0.7238 -0.2709
 4046SOL     OW23773   3.422   4.480   8.628  0.1440  0.4431 -0.2617
 4046SOL    HW123774   3.401   4.507   8.538  1.9862 -0.2408 -0.8834
 4046SOL    HW223775   3.465   4.560   8.657 -1.5048  0.0169  3.3846
 4047SOL     OW23776   0.245   0.698   2.056  0.6068 -0.4857  0.0263
 4047SOL    HW123777   0.295   0.629   2.013  0.6780 -0.7752  0.5753
 4047SOL    HW223778   0.242   0.664   2.145  0.3998 -1.5753 -0.4071
 4048SOL     OW23779   2.107   3.905   9.169  0.0611  0.4781  0.1627
 4048SOL    HW123780   2.037   3.953   9.126  0.2598  0.0228 -0.6568
 4048SOL    HW223781   2.164   3.983   9.169 -1.0297  1.2783 -1.9119
 4049SOL     OW23782   3.918   1.757   3.059  0.1318  0.2183  0.3992
 4049SOL    HW123783   3.989   1.742   3.123  0.4477 -0.8726 -0.1969
 4049SOL    HW223784   3.955   1.828   3.008 -0.8498  0.0016 -0.6039
 4050SOL     OW23785   2.403   0.377   8.223 -0.6320 -0.6034 -0.4907
 4050SOL    HW123786   2.376   0.303   8.169  2.8106 -1.9282 -0.3545
 4050SOL    HW223787   2.401   0.336   8.309 -0.9760  0.5057  0.0331
 4051SOL     OW23788   3.347   3.098   4.078  0.6626 -0.0193  0.2907
 4051SOL    HW123789   3.258   3.079   4.048  0.4796  0.3397  0.5990
 4051SOL    HW223790   3.338   3.089   4.173 -0.5483 -0.9989  0.0778
 4052SOL     OW23791   0.239   3.825   7.068 -0.0114 -0.3448 -0.0392
 4052SOL    HW123792   0.263   3.892   7.131 -1.0849  1.5151 -1.5877
 4052SOL    HW223793   0.327   3.786   7.071 -1.0177 -2.4723  1.4868
 4053SOL     OW23794   1.546   3.118   5.339 -0.5057  0.6393 -0.3310
 4053SOL    HW123795   1.526   3.084   5.252  1.5834 -2.4901  0.3972
 4053SOL    HW223796   1.597   3.199   5.334  0.8022 -0.2014 -0.7224
 4054SOL     OW23797   4.359   4.618  10.217  0.7178 -0.1087 -0.4246
 4054SOL    HW123798   4.424   4.558  10.182  2.2810  0.5188  1.4431
 4054SOL    HW223799   4.410   4.696  10.237 -3.5453  3.3253 -2.9348
 4055SOL     OW23800   1.021   0.792   8.377  0.0099  0.0980 -0.1256
 4055SOL    HW123801   1.047   0.706   8.408  0.6575 -0.0674 -1.0966
 4055SOL    HW223802   0.930   0.780   8.350  0.2916  1.5043 -1.7890
 4056SOL     OW23803   0.216   1.164   3.186  0.2810 -0.5610  0.3328
 4056SOL    HW123804   0.219   1.118   3.270  0.5451 -0.6158  0.2917
 4056SOL    HW223805   0.257   1.099   3.129  1.0397  0.6050 -0.4574
 4057SOL     OW23806   1.600   2.778   3.349  0.2776  0.0340  0.8081
 4057SOL    HW123807   1.555   2.697   3.324  0.2409 -0.0214  1.0602
 4057SOL    HW223808   1.525   2.837   3.351  0.7998  0.7962 -1.5380
 4058SOL     OW23809   3.020   3.922   1.747 -0.1922 -0.0689 -0.5866
 4058SOL    HW123810   3.054   3.851   1.692 -0.1047  0.2422 -0.9400
 4058SOL    HW223811   3.086   3.990   1.735  0.0730 -0.2840 -0.3459
 4059SOL     OW23812   2.913   1.112   7.234  0.1311 -0.0470 -0.1917
 4059SOL    HW123813   2.824   1.114   7.267  1.4027  2.0997  3.0932
 4059SOL    HW223814   2.905   1.029   7.187 -0.9019  0.3228 -0.6763
 4060SOL     OW23815   4.146   0.286   4.437 -0.3321 -0.0045  0.2151
 4060SOL    HW123816   4.176   0.277   4.346 -0.5726 -0.4127  0.1750
 4060SOL    HW223817   4.190   0.211   4.477  1.3994  1.0009  0.1737
 4061SOL     OW23818   1.307   3.948  16.642 -0.0279 -0.5511  0.1905
 4061SOL    HW123819   1.365   3.945  16.566  0.5909  1.3476  0.6019
 4061SOL    HW223820   1.377   3.964  16.705  0.8801 -0.7040 -0.7831
 4062SOL     OW23821   3.842   4.128   2.977  1.0247 -0.3798 -0.2693
 4062SOL    HW123822   3.904   4.189   2.936 -2.3360  2.3581 -1.2634
 4062SOL    HW223823   3.897   4.099   3.050  0.5771  2.0297  1.0248
 4063SOL     OW23824   3.695   3.538   8.369 -0.2529 -0.4216  0.3302
 4063SOL    HW123825   3.601   3.527   8.383 -0.1093 -0.8293  0.9336
 4063SOL    HW223826   3.728   3.461   8.415  1.1100 -0.1324 -0.1638
 4064SOL     OW23827   0.799   2.595   3.755  0.1862  0.4895 -0.3389
 4064SOL    HW123828   0.721   2.578   3.808  0.6763  2.2081  0.9371
 4064SOL    HW223829   0.786   2.535   3.681  1.3726  1.5482 -1.4039
 4065SOL     OW23830   0.665   4.027   8.779  0.0271 -0.2750  0.5103
 4065SOL    HW123831   0.596   4.085   8.813 -0.4247  1.3974 -3.2899
 4065SOL    HW223832   0.666   4.044   8.685 -1.3267 -0.6391  0.4294
 4066SOL     OW23833   2.615   2.638  11.848  0.2741  0.0468  0.1251
 4066SOL    HW123834   2.635   2.546  11.867  0.7421 -0.0119 -0.6962
 4066SOL    HW223835   2.626   2.647  11.754  0.0645  0.5507  0.1510
 4067SOL     OW23836   3.627   3.347   2.617 -0.1851 -0.2216  0.8816
 4067SOL    HW123837   3.557   3.412   2.623  0.7030  0.8955 -1.0144
 4067SOL    HW223838   3.571   3.279   2.654 -0.0447  0.6408  2.6929
 4068SOL     OW23839   0.584   2.931   3.998  0.0925 -0.4896 -0.1913
 4068SOL    HW123840   0.613   3.022   3.989 -0.9723  0.1397  2.5993
 4068SOL    HW223841   0.489   2.938   3.996 -0.1080 -2.3073  3.7224
 4069SOL     OW23842   4.319   0.360   4.977 -0.5720 -0.3498 -0.2956
 4069SOL    HW123843   4.383   0.352   4.907 -0.0006  1.5677 -0.0063
 4069SOL    HW223844   4.351   0.428   5.037 -1.1769  0.0298 -0.4052
 4070SOL     OW23845   4.331   4.340   5.721  0.5308 -0.6893  0.0449
 4070SOL    HW123846   4.258   4.397   5.744  0.0976 -1.2554  0.0748
 4070SOL    HW223847   4.285   4.284   5.659 -0.0565  0.3558 -0.4529
 4071SOL     OW23848   3.444   4.122  14.149  0.1682 -0.5162 -0.0170
 4071SOL    HW123849   3.396   4.194  14.108  1.4952 -0.7065 -1.8684
 4071SOL    HW223850   3.409   4.052  14.093  1.4669  0.3315 -1.8633
 4072SOL     OW23851   1.273   0.999   3.605 -0.1022 -0.2099  0.0174
 4072SOL    HW123852   1.345   1.062   3.592  0.6372 -1.5526 -2.3730
 4072SOL    HW223853   1.210   1.054   3.650  2.0104 -0.2746  3.0741
 4073SOL     OW23854   2.073   1.613  16.112  1.1400 -0.0784  0.4945
 4073SOL    HW123855   2.045   1.649  16.028 -0.6591 -3.0051 -0.1526
 4073SOL    HW223856   2.037   1.525  16.120  1.2594 -0.1204  0.5775
 4074SOL     OW23857   1.584   4.661   3.064 -0.1557  0.0158  0.3069
 4074SOL    HW123858   1.559   0.009   3.026  0.5788 -0.6573 -1.6665
 4074SOL    HW223859   1.500   4.617   3.069 -0.8109  1.0953 -1.0625
 4075SOL     OW23860   3.207   0.855  11.901  0.0997  0.1772 -0.4633
 4075SOL    HW123861   3.146   0.924  11.927  0.1108  0.1115 -0.2626
 4075SOL    HW223862   3.182   0.785  11.961 -1.0497  0.9815 -0.0013
 4076SOL     OW23863   3.260   3.773  17.329  0.6512 -0.2242 -0.0209
 4076SOL    HW123864   3.214   3.829  17.392 -0.6119 -0.3221 -0.8406
 4076SOL    HW223865   3.273   3.690  17.375 -0.8182  0.3659  1.4813
 4077SOL     OW23866   2.152   1.033   6.900 -0.1242  0.0626  0.3520
 4077SOL    HW123867   2.229   1.076   6.936  0.6525  0.9967 -2.4146
 4077SOL    HW223868   2.086   1.098   6.877  0.2561  0.0353 -0.7894
 4078SOL     OW23869   2.863   4.314   1.959  0.0734  0.2947  0.2226
 4078SOL    HW123870   2.952   4.348   1.968  0.6362 -0.9599 -0.5431
 4078SOL    HW223871   2.838   4.328   2.050 -0.5703 -1.2981  0.2761
 4079SOL     OW23872   2.596   3.573  15.681 -0.2720 -0.4504 -0.2736
 4079SOL    HW123873   2.648   3.651  15.702 -0.4674  0.2697 -2.5023
 4079SOL    HW223874   2.517   3.608  15.640  0.0695  1.9638  1.1130
 4080SOL     OW23875   0.769   1.665   8.110 -0.3987  0.3277  0.0950
 4080SOL    HW123876   0.768   1.661   8.206 -0.2962 -1.1587  0.0254
 4080SOL    HW223877   0.756   1.573   8.088  0.3701  0.0178  0.9780
 4081SOL     OW23878   2.995   0.647   8.128 -0.5468  0.3639 -0.1279
 4081SOL    HW123879   3.051   0.722   8.108 -1.7794  0.7359 -2.2107
 4081SOL    HW223880   3.028   0.592   8.057 -0.9807  1.4486 -1.1802
 4082SOL     OW23881   4.235   1.691   2.890 -0.0220 -0.3488  0.3541
 4082SOL    HW123882   4.249   1.622   2.955 -1.3485 -0.0421  0.9616
 4082SOL    HW223883   4.200   1.756   2.952  1.7435 -1.0098  2.0709
 4083SOL     OW23884   1.911   2.244  14.733  0.0317  0.2319  0.1099
 4083SOL    HW123885   1.849   2.282  14.672  1.4338  1.8003 -0.3403
 4083SOL    HW223886   1.893   2.152  14.712  2.1292 -0.3956  1.0409
 4084SOL     OW23887   2.164   2.684   5.027  0.0780 -0.6599 -0.5437
 4084SOL    HW123888   2.147   2.776   5.046 -1.3718 -1.2226  0.8431
 4084SOL    HW223889   2.236   2.696   4.965 -0.8210  3.9557 -0.6488
 4085SOL     OW23890   3.732   1.532  15.091 -0.2650 -0.0309 -0.1054
 4085SOL    HW123891   3.773   1.446  15.078 -1.8326 -0.2417 -3.5988
 4085SOL    HW223892   3.809   1.575  15.129  0.8659 -1.8177 -0.3329
 4086SOL     OW23893   1.861   1.774   5.751 -0.2123  0.8039 -0.5599
 4086SOL    HW123894   1.895   1.852   5.710  0.7104  1.7725  2.0507
 4086SOL    HW223895   1.822   1.734   5.673 -3.0672  1.1640  0.6884
 4087SOL     OW23896   0.324   2.009  11.921  0.2295  0.6957  0.8520
 4087SOL    HW123897   0.377   1.976  11.848 -0.9587 -1.4665  0.9760
 4087SOL    HW223898   0.381   1.981  11.993  0.4526 -1.6960 -0.2641
 4088SOL     OW23899   1.283   3.472  10.600  0.1874 -0.1307 -0.4846
 4088SOL    HW123900   1.347   3.534  10.565 -0.0606  0.7510  0.6516
 4088SOL    HW223901   1.327   3.462  10.684 -1.0337  0.5451  0.2221
 4089SOL     OW23902   4.381   0.319  10.755 -0.1254  0.0356 -0.1473
 4089SOL    HW123903   4.334   0.401  10.770 -0.2064  0.2509 -1.5598
 4089SOL    HW223904   4.445   0.301  10.824 -1.6399 -1.0110  0.9821
 4090SOL     OW23905   2.434   1.392   8.006 -0.0180  0.1503 -0.0261
 4090SOL    HW123906   2.509   1.450   7.991  0.0777 -0.0141 -0.1849
 4090SOL    HW223907   2.374   1.443   7.951 -0.4631 -1.1656 -0.7535
 4091SOL     OW23908   4.558   1.425   3.915 -0.1799 -0.2266  0.5876
 4091SOL    HW123909   4.464   1.436   3.932  0.1505  1.2461  1.3997
 4091SOL    HW223910   4.596   1.478   3.984 -0.5017 -0.0685  0.6444
 4092SOL     OW23911   3.935   0.890  16.009  0.2802  0.4111  0.5577
 4092SOL    HW123912   3.852   0.860  15.972 -0.6573  2.1560  1.2710
 4092SOL    HW223913   3.914   0.972  16.053 -1.6684  0.1548  0.1001
 4093SOL     OW23914   0.283   4.607   6.402  0.6143  0.1924 -0.5214
 4093SOL    HW123915   0.320   4.542   6.461 -0.3790  0.3260  0.2469
 4093SOL    HW223916   0.190   4.584   6.397  1.1051 -2.0273  0.8351
 4094SOL     OW23917   2.078   0.271   2.220  0.2199 -0.4397  0.5182
 4094SOL    HW123918   2.121   0.192   2.254  2.1387 -0.4434 -1.8924
 4094SOL    HW223919   2.020   0.293   2.293 -0.5743 -0.9523  0.0384
 4095SOL     OW23920   0.833   4.004   5.572  0.5413  0.1901 -0.0040
 4095SOL    HW123921   0.848   3.953   5.492 -2.7970 -0.0270 -0.4897
 4095SOL    HW223922   0.808   3.930   5.628 -0.0947  0.1408 -0.3466
 4096SOL     OW23923   0.264   4.593   7.145  0.0344 -0.4223 -0.3941
 4096SOL    HW123924   0.221   4.657   7.202 -0.4919 -0.0811 -1.1648
 4096SOL    HW223925   0.279   4.641   7.064  1.0492 -0.5308 -0.2700
 4097SOL     OW23926   2.192   2.534   6.667 -0.7324 -0.1825 -0.1349
 4097SOL    HW123927   2.106   2.570   6.647  0.0522  2.3759  1.0614
 4097SOL    HW223928   2.247   2.612   6.653 -1.0053  0.0064 -0.1470
 4098SOL     OW23929   0.998   0.890   4.261 -0.0078 -0.2122 -0.2106
 4098SOL    HW123930   1.063   0.890   4.332  0.5471 -0.6379 -0.7202
 4098SOL    HW223931   0.984   0.796   4.250  2.7970 -0.3467 -2.5549
 4099SOL     OW23932   3.321   0.062   4.879 -0.0927 -0.4412 -0.2898
 4099SOL    HW123933   3.362   4.730   4.932  1.1588  0.0022 -0.6609
 4099SOL    HW223934   3.400   0.074   4.825  0.4890  0.0837  0.6823
 4100SOL     OW23935   4.279   0.653   2.210 -0.4935  0.4015  0.7825
 4100SOL    HW123936   4.303   0.621   2.123  0.2252 -0.4975  1.2991
 4100SOL    HW223937   4.337   0.728   2.225 -1.0585  0.5432  2.3238
 4101SOL     OW23938   0.966   1.930   3.858 -0.0436  0.0774  0.4551
 4101SOL    HW123939   1.014   1.853   3.887  0.7525  0.6998  0.7954
 4101SOL    HW223940   0.887   1.938   3.910 -0.9314 -1.3905 -0.6822
 4102SOL     OW23941   4.237   0.046   0.993 -0.0488 -0.1866 -0.2203
 4102SOL    HW123942   4.289   4.703   1.005 -1.0704 -0.8706 -0.2436
 4102SOL    HW223943   4.164   0.024   1.051 -1.8791  0.0014 -2.4481
 4103SOL     OW23944   0.284   0.600   8.894 -0.2815  0.5589 -0.5402
 4103SOL    HW123945   0.238   0.630   8.816  0.1135 -0.5820 -1.2024
 4103SOL    HW223946   0.281   0.681   8.944 -2.5229 -0.0555  0.3027
 4104SOL     OW23947   3.214   1.947   2.458  0.3184  0.3015  0.1270
 4104SOL    HW123948   3.174   1.998   2.529 -0.7286 -0.7485  0.2963
 4104SOL    HW223949   3.287   1.907   2.505 -0.4481  0.8709  1.8173
 4105SOL     OW23950   2.510   1.745  10.445  0.0551 -0.3249 -0.1781
 4105SOL    HW123951   2.460   1.823  10.471 -1.9938 -1.4826 -0.5898
 4105SOL    HW223952   2.600   1.776  10.443 -0.6776  1.9705  2.0303
 4106SOL     OW23953   4.648   2.628   3.364 -0.1636 -0.0200  0.1604
 4106SOL    HW123954   4.713   2.686   3.405 -0.3194 -0.0434  0.4452
 4106SOL    HW223955   4.614   2.676   3.289  0.5833  3.3940  2.0096
 4107SOL     OW23956   2.240   2.273   6.599 -0.2968 -0.0911  0.2086
 4107SOL    HW123957   2.310   2.279   6.535 -0.5281  0.3083 -0.0068
 4107SOL    HW223958   2.242   2.361   6.637  0.1422 -0.4842  1.0977
 4108SOL     OW23959   4.322   3.928   6.079  0.0036 -0.7666  0.4155
 4108SOL    HW123960   4.384   3.984   6.127 -3.0060  3.7433 -0.9288
 4108SOL    HW223961   4.330   3.964   5.991 -0.7446 -2.1436 -0.2094
 4109SOL     OW23962   1.089   0.995  14.884 -0.5762 -0.3006  0.1230
 4109SOL    HW123963   1.034   0.949  14.821 -1.2002  1.0758 -0.3400
 4109SOL    HW223964   1.127   1.058  14.823  0.4483 -2.6522 -1.6511
 4110SOL     OW23965   1.962   4.115  16.861 -0.4949 -0.5999  0.0312
 4110SOL    HW123966   1.919   4.182  16.808  0.1780  0.5295  0.9134
 4110SOL    HW223967   2.020   4.162  16.921 -1.6165 -1.7487  2.0368
 4111SOL     OW23968   4.566   2.249   2.278  0.5003  0.2424  0.6800
 4111SOL    HW123969   4.569   2.343   2.265 -0.3061  0.3522  1.2543
 4111SOL    HW223970   4.603   2.217   2.195  0.6089 -0.7570  1.1162
 4112SOL     OW23971   3.534   1.045  13.199  0.0104 -0.2200  0.5575
 4112SOL    HW123972   3.480   1.041  13.121 -1.9254 -2.7971  2.0333
 4112SOL    HW223973   3.614   1.075  13.155  0.5526 -1.2557  0.8390
 4113SOL     OW23974   1.589   3.989  12.764  0.4740 -0.2511 -0.0088
 4113SOL    HW123975   1.667   3.938  12.786  0.5743  0.5269  1.4100
 4113SOL    HW223976   1.514   3.940  12.797 -0.0775 -1.2408 -2.6986
 4114SOL     OW23977   0.185   2.304   6.989  0.1161  0.1431 -0.1872
 4114SOL    HW123978   0.150   2.320   6.901  0.6693 -1.3636 -0.6948
 4114SOL    HW223979   0.241   2.379   7.010  1.6971 -1.2304  0.5639
 4115SOL     OW23980   2.748   0.170   9.276  0.7671  0.0065 -0.1077
 4115SOL    HW123981   2.748   0.127   9.190  0.1255  1.7760 -1.0062
 4115SOL    HW223982   2.653   0.182   9.286  0.3329 -0.8804 -3.0423
 4116SOL     OW23983   1.091   2.911   9.051  0.5180  0.2198  0.5044
 4116SOL    HW123984   1.163   2.965   9.020 -0.2606  0.4598 -0.9131
 4116SOL    HW223985   1.133   2.834   9.089 -2.7335 -1.3321  0.9723
 4117SOL     OW23986   1.980   2.216   6.550  0.4024 -0.0543 -0.2253
 4117SOL    HW123987   2.067   2.234   6.587 -0.1456  0.4151  0.8346
 4117SOL    HW223988   1.982   2.284   6.483  0.5613 -1.7632 -1.9661
 4118SOL     OW23989   4.064   1.264   7.228 -0.5111  0.1908 -0.2531
 4118SOL    HW123990   4.019   1.190   7.270  0.6751  0.0973  0.8545
 4118SOL    HW223991   3.988   1.302   7.184 -2.2503 -1.0030  1.6980
 4119SOL     OW23992   3.237   2.082   7.126  0.4542 -0.4682 -0.2068
 4119SOL    HW123993   3.212   2.120   7.042 -0.9783 -1.0136 -0.0231
 4119SOL    HW223994   3.332   2.090   7.113  0.2561 -0.0156 -1.3246
 4120SOL     OW23995   3.613   4.270   7.658 -0.0240 -0.0531 -0.1082
 4120SOL    HW123996   3.553   4.285   7.586  0.0312 -0.9847 -0.3534
 4120SOL    HW223997   3.701   4.253   7.625  0.3256  0.1691  0.6956
 4121SOL     OW23998   2.776   1.845   8.498 -0.2962 -0.5817  0.6648
 4121SOL    HW123999   2.734   1.832   8.583 -1.3222  1.2159  0.4488
 4121SOL    HW224000   2.846   1.781   8.502  0.0731 -0.2921 -1.0247
 4122SOL     OW24001   2.444   0.312   2.811 -0.4027  0.4435 -0.2299
 4122SOL    HW124002   2.378   0.304   2.742  0.1559 -0.8731 -0.6062
 4122SOL    HW224003   2.518   0.310   2.751 -1.8923  1.3902 -2.0759
 4123SOL     OW24004   4.228   0.695   4.637  0.1934 -0.3181  0.1589
 4123SOL    HW124005   4.248   0.638   4.563  0.7022  0.5770 -0.4024
 4123SOL    HW224006   4.294   0.673   4.703  0.3601  1.3000  0.5380
 4124SOL     OW24007   0.720   2.317  17.071 -0.2134  0.0788 -0.2021
 4124SOL    HW124008   0.629   2.291  17.084  0.1722 -2.3075 -2.1023
 4124SOL    HW224009   0.726   2.400  17.117  0.1137  0.7842 -1.4981
 4125SOL     OW24010   3.456   1.854   8.148  0.0716 -0.1648  0.2628
 4125SOL    HW124011   3.366   1.887   8.152  0.0889 -0.2304  1.0380
 4125SOL    HW224012   3.482   1.892   8.064  1.6568 -2.7292 -0.3949
 4126SOL     OW24013   1.057   3.131   7.592  0.2763 -0.1608 -0.2337
 4126SOL    HW124014   1.120   3.128   7.664  1.0478 -0.8809 -0.9391
 4126SOL    HW224015   0.984   3.175   7.636  0.4505  0.5827 -0.7059
 4127SOL     OW24016   2.075   3.949   7.404  0.0329 -0.6740 -0.1294
 4127SOL    HW124017   2.158   3.904   7.421 -0.1355 -0.9895 -0.1281
 4127SOL    HW224018   2.105   4.037   7.424  0.3709 -0.8751  0.2376
 4128SOL     OW24019   3.899   2.864   3.716 -0.2799 -0.5336 -0.3397
 4128SOL    HW124020   3.914   2.773   3.741 -1.6119 -0.9873 -1.1829
 4128SOL    HW224021   3.986   2.895   3.740 -0.1613  0.1161 -1.6072
 4129SOL     OW24022   4.603   3.494   4.445 -0.4015  0.1616  0.1903
 4129SOL    HW124023   4.615   3.399   4.448 -0.1267  0.2064  0.4607
 4129SOL    HW224024   4.549   3.503   4.366 -0.8020  1.7772  0.6489
 4130SOL     OW24025   0.182   3.948   3.224 -0.3419  0.5769  0.0703
 4130SOL    HW124026   0.151   3.930   3.313 -0.2247 -0.8175 -0.1758
 4130SOL    HW224027   0.273   3.968   3.243 -0.0748 -0.6686  0.1111
 4131SOL     OW24028   2.041   0.670   7.862 -0.0649  0.6792 -0.1898
 4131SOL    HW124029   2.121   0.713   7.892  0.6122 -0.5064 -0.2848
 4131SOL    HW224030   1.991   0.749   7.843 -1.3528  0.0630  0.6054
 4132SOL     OW24031   0.943   3.897  13.040 -0.3073 -0.1930 -0.3460
 4132SOL    HW124032   0.850   3.882  13.054 -0.8737  1.8130 -2.1076
 4132SOL    HW224033   0.952   3.978  13.091 -0.4379  0.5383 -1.5004
 4133SOL     OW24034   4.697   1.637  15.415  0.1578  0.2518  0.5181
 4133SOL    HW124035   4.644   1.632  15.495 -0.3313 -1.5269  0.0807
 4133SOL    HW224036   4.654   1.704  15.362  0.5487 -0.9799 -1.3602
 4134SOL     OW24037   3.651   3.406   3.603 -0.1229 -0.4637  0.2568
 4134SOL    HW124038   3.730   3.455   3.582 -1.5400  2.1703  1.0323
 4134SOL    HW224039   3.603   3.454   3.672  2.1962 -0.6869  2.0231
 4135SOL     OW24040   0.899   3.734  11.317  0.2856 -0.0264  0.0104
 4135SOL    HW124041   0.879   3.820  11.355  2.6887  1.6617 -2.5672
 4135SOL    HW224042   0.986   3.713  11.350 -0.0922  0.8420  1.5705
 4136SOL     OW24043   0.132   0.626  14.474  0.4224  0.0356 -0.5018
 4136SOL    HW124044   0.097   0.714  14.463  1.0031  0.3675  0.3317
 4136SOL    HW224045   0.163   0.607  14.385  0.6581  0.1823 -0.4495
 4137SOL     OW24046   0.442   1.641   5.829  0.7704 -0.0215  0.1172
 4137SOL    HW124047   0.422   1.727   5.793  1.2248 -0.5976 -1.5205
 4137SOL    HW224048   0.520   1.611   5.782  1.5352  0.4625  1.0774
 4138SOL     OW24049   2.802   0.419   7.233  0.4676  0.0944 -0.4179
 4138SOL    HW124050   2.845   0.444   7.151  1.3832 -1.9505 -0.5616
 4138SOL    HW224051   2.860   0.464   7.294  0.4377 -0.1086 -0.2404
 4139SOL     OW24052   0.445   0.794   6.474 -0.2624 -0.0937  0.2528
 4139SOL    HW124053   0.422   0.761   6.387 -0.8289  1.2545 -0.1072
 4139SOL    HW224054   0.533   0.825   6.450  0.1795 -0.0420  1.9289
 4140SOL     OW24055   3.107   4.204  11.082  0.4550  0.0657 -0.1595
 4140SOL    HW124056   3.088   4.208  10.988 -0.3295 -0.6486 -0.0408
 4140SOL    HW224057   3.019   4.223  11.114  0.2638 -0.3379 -0.4404
 4141SOL     OW24058   0.380   1.798   6.595  0.3767 -0.0798  0.1009
 4141SOL    HW124059   0.450   1.732   6.595 -0.5460 -1.0478 -2.3656
 4141SOL    HW224060   0.373   1.828   6.686  1.8894 -0.1375  0.2412
 4142SOL     OW24061   2.887   1.388  12.596 -0.6273 -0.5585  0.4771
 4142SOL    HW124062   2.826   1.406  12.668 -3.9102  0.8306 -2.6783
 4142SOL    HW224063   2.899   1.476  12.561  0.0497 -0.0220  2.0546
 4143SOL     OW24064   3.262   4.037   6.256 -0.1463  0.2126  0.2038
 4143SOL    HW124065   3.185   4.094   6.262 -2.2541 -2.6780  0.8061
 4143SOL    HW224066   3.237   3.967   6.195  0.8810  2.0130 -2.2531
 4144SOL     OW24067   1.556   3.311  16.901  0.4350  0.4565  0.3785
 4144SOL    HW124068   1.637   3.271  16.935 -0.4326 -0.4709  1.3540
 4144SOL    HW224069   1.493   3.245  16.930 -0.5955  1.1913 -0.2366
 4145SOL     OW24070   1.603   1.187   6.174 -0.0014  0.1611  0.5974
 4145SOL    HW124071   1.697   1.200   6.165  0.4469 -3.0284  0.7535
 4145SOL    HW224072   1.580   1.228   6.257  0.3700  0.2736  0.6457
 4146SOL     OW24073   3.500   2.243   8.888  0.2890 -1.0374  0.1322
 4146SOL    HW124074   3.509   2.155   8.925 -0.1081 -0.2324  2.1558
 4146SOL    HW224075   3.409   2.268   8.904  1.0543  0.1044  2.7136
 4147SOL     OW24076   2.614   3.294  12.063  0.4162  0.6137 -0.5857
 4147SOL    HW124077   2.535   3.285  12.010  1.3745  0.4922 -1.9963
 4147SOL    HW224078   2.659   3.209  12.065 -1.9245 -0.5635  1.6600
 4148SOL     OW24079   0.426   2.842  10.077  0.3044 -0.3855  0.5142
 4148SOL    HW124080   0.440   2.747  10.079 -2.2487 -0.7920 -1.0319
 4148SOL    HW224081   0.483   2.874  10.007 -1.0026  2.0804  0.5648
 4149SOL     OW24082   1.425   0.239   1.961 -0.3938  0.3157 -0.3012
 4149SOL    HW124083   1.496   0.220   2.022 -1.0308 -1.8394 -0.2122
 4149SOL    HW224084   1.463   0.217   1.876  2.5468 -0.7243  1.2630
 4150SOL     OW24085   1.804   3.355   7.483  0.5218  0.1153 -0.3507
 4150SOL    HW124086   1.880   3.390   7.436  1.0581  1.4654  1.5436
 4150SOL    HW224087   1.765   3.431   7.526  2.3335 -0.0354  1.5423
 4151SOL     OW24088   3.934   0.896   3.195  0.2283  0.3036 -0.1022
 4151SOL    HW124089   3.849   0.938   3.184  0.4709  0.9611  0.5425
 4151SOL    HW224090   3.996   0.963   3.167 -0.5543  0.1258 -2.3009
 4152SOL     OW24091   0.769   1.384   8.703  0.1125 -0.7073  0.0020
 4152SOL    HW124092   0.842   1.444   8.688 -1.6852  1.3926 -0.2959
 4152SOL    HW224093   0.711   1.445   8.748 -0.2808 -1.1784  0.1305
 4153SOL     OW24094   3.872   4.238  12.991 -0.5204 -0.2248  0.7745
 4153SOL    HW124095   3.864   4.162  12.934  3.9909  0.4163 -0.7259
 4153SOL    HW224096   3.967   4.243  13.005 -0.4748  0.9642 -0.0521
 4154SOL     OW24097   0.612   2.149   5.416  0.0699 -0.1074  0.3097
 4154SOL    HW124098   0.678   2.124   5.351 -1.1760  0.0498 -1.0121
 4154SOL    HW224099   0.672   2.191   5.478  0.0253 -0.8690  0.8728
 4155SOL     OW24100   3.089   3.026   9.891  0.0974  0.5371 -0.8959
 4155SOL    HW124101   3.154   3.052   9.956  1.2795 -0.3587 -1.7301
 4155SOL    HW224102   3.104   2.932   9.896 -1.2855  0.4580  1.8262
 4156SOL     OW24103   1.162   1.678  12.252 -0.3120  0.1828 -0.2695
 4156SOL    HW124104   1.084   1.644  12.210  0.0022  0.1173 -0.8023
 4156SOL    HW224105   1.134   1.763  12.287 -0.1684  0.8978 -1.8712
 4157SOL     OW24106   0.791   2.021   6.449  0.3648  0.5415  0.5074
 4157SOL    HW124107   0.886   2.008   6.459  0.7194  2.0557 -0.8624
 4157SOL    HW224108   0.777   2.002   6.357  0.1186 -0.0959  0.6760
 4158SOL     OW24109   0.288   3.207   0.039 -0.1541  0.1000  0.3105
 4158SOL    HW124110   0.204   3.240   0.073 -1.5481 -3.0554 -0.0487
 4158SOL    HW224111   0.353   3.227   0.106 -0.8083 -0.7461  1.2052
 4159SOL     OW24112   0.142   0.930   7.597  0.2830 -0.2851  0.0544
 4159SOL    HW124113   0.227   0.931   7.553 -0.3102  0.7146 -1.0796
 4159SOL    HW224114   0.096   0.863   7.546  0.8505 -0.0684 -0.7376
 4160SOL     OW24115   1.812   3.508   5.766 -0.7691 -0.1598 -0.0766
 4160SOL    HW124116   1.889   3.451   5.769 -0.0386  0.8547  0.5437
 4160SOL    HW224117   1.849   3.582   5.717  0.2868 -0.2117  0.6327
 4161SOL     OW24118   0.759   0.986   6.113  0.5881 -0.8323  0.2431
 4161SOL    HW124119   0.667   0.962   6.115 -0.5225  3.4661 -0.4270
 4161SOL    HW224120   0.801   0.925   6.174  0.6467 -1.8792 -0.8469
 4162SOL     OW24121   1.317   2.515   8.262  0.2355  0.5840  0.0013
 4162SOL    HW124122   1.330   2.594   8.315 -0.7962  1.0905 -0.4944
 4162SOL    HW224123   1.267   2.461   8.323  0.0910 -0.3776 -0.9802
 4163SOL     OW24124   0.540   0.715   6.206 -0.4672 -0.6808 -0.5219
 4163SOL    HW124125   0.512   0.689   6.119 -1.3747 -2.1291  0.2081
 4163SOL    HW224126   0.522   0.809   6.206  2.5258 -0.0916  2.2743
 4164SOL     OW24127   4.038   2.518   2.533 -0.4610 -0.2039  0.4336
 4164SOL    HW124128   4.007   2.594   2.581 -1.1544 -1.5459  2.1370
 4164SOL    HW224129   4.041   2.547   2.442  3.2185 -2.9915 -0.3120
 4165SOL     OW24130   3.001   3.495   9.665 -0.4465  0.5808  0.1336
 4165SOL    HW124131   2.943   3.433   9.708  0.6845 -1.6297 -1.5444
 4165SOL    HW224132   3.082   3.444   9.672 -1.0539 -0.6908 -2.1556
 4166SOL     OW24133   0.983   3.769   4.831 -0.2106  0.3052 -0.1410
 4166SOL    HW124134   0.975   3.822   4.910  1.0597  0.2478  0.0221
 4166SOL    HW224135   0.918   3.812   4.775 -0.0807  0.0463 -0.4952
 4167SOL     OW24136   1.476   0.841   7.609  0.1521 -0.4327 -0.5172
 4167SOL    HW124137   1.462   0.749   7.587 -0.0723 -0.7867  1.1472
 4167SOL    HW224138   1.386   0.874   7.600  0.1826 -0.3649 -0.5750
 4168SOL     OW24139   0.630   0.981  15.057  0.0593 -0.5097  0.5276
 4168SOL    HW124140   0.717   1.019  15.054 -0.7857  1.3936  0.0032
 4168SOL    HW224141   0.590   0.990  14.970 -0.3016 -0.3654  0.7076
 4169SOL     OW24142   2.482   4.614  10.230  0.2135 -0.1376  0.0756
 4169SOL    HW124143   2.484   4.563  10.149 -0.7130  0.8851 -0.5930
 4169SOL    HW224144   2.575   4.610  10.251  1.0977  3.8576 -3.0429
 4170SOL     OW24145   0.848   1.732   6.500  0.3186 -0.6579 -0.2777
 4170SOL    HW124146   0.767   1.754   6.547  0.8656 -0.7841  0.7327
 4170SOL    HW224147   0.908   1.791   6.547 -0.5681  0.5699 -0.6800
 4171SOL     OW24148   3.469   1.606   2.629  0.0128  0.4234  0.0690
 4171SOL    HW124149   3.480   1.679   2.690 -1.0774  0.6031  0.0358
 4171SOL    HW224150   3.542   1.620   2.568 -1.2548  0.4365 -1.4361
 4172SOL     OW24151   2.420   2.230  12.610 -0.0399  0.4062  0.2252
 4172SOL    HW124152   2.359   2.158  12.631  1.2897 -0.8270 -0.1853
 4172SOL    HW224153   2.366   2.309  12.615 -1.1406 -0.1765 -2.5790
 4173SOL     OW24154   1.825   0.270   9.476 -0.2195  0.7015  0.3777
 4173SOL    HW124155   1.834   0.185   9.432 -1.8872  1.1418 -0.8380
 4173SOL    HW224156   1.735   0.290   9.448 -1.0619 -2.7465  0.6455
 4174SOL     OW24157   3.653   1.665   2.136  0.5441  0.8065  0.1487
 4174SOL    HW124158   3.711   1.711   2.076 -1.1582  0.7244 -1.5661
 4174SOL    HW224159   3.654   1.721   2.214 -0.2749  0.3044  0.5157
 4175SOL     OW24160   0.795   4.174   5.991  0.1948  0.1941 -0.3794
 4175SOL    HW124161   0.878   4.211   6.020 -0.5959  1.5854  0.1023
 4175SOL    HW224162   0.813   4.086   5.957  0.1986 -0.6777  1.8709
 4176SOL     OW24163   2.590   3.483   9.083  0.0662  0.3753 -0.4105
 4176SOL    HW124164   2.604   3.395   9.048 -1.0126  0.4084 -0.9094
 4176SOL    HW224165   2.577   3.463   9.176 -2.8106  0.9864 -0.7088
 4177SOL     OW24166   0.441   1.667   9.130 -0.1208  0.1346 -0.0040
 4177SOL    HW124167   0.391   1.735   9.084 -1.2450  0.3204  1.4920
 4177SOL    HW224168   0.519   1.715   9.157  0.2905 -1.7836  2.2118
 4178SOL     OW24169   0.833   3.000   4.836 -0.4110 -0.1678 -0.1197
 4178SOL    HW124170   0.767   2.958   4.781 -1.5147  0.6371  0.5842
 4178SOL    HW224171   0.885   2.929   4.872  1.1615  0.5765 -0.9086
 4179SOL     OW24172   1.531   4.072   4.509  0.1810  0.7708  0.0287
 4179SOL    HW124173   1.448   4.036   4.539  0.7621 -1.0467 -0.5109
 4179SOL    HW224174   1.592   4.005   4.541 -0.4248  0.2426  0.0738
 4180SOL     OW24175   3.471   1.318   5.169 -0.3487 -0.2331  0.1415
 4180SOL    HW124176   3.493   1.382   5.101  2.0968 -2.5861 -1.2964
 4180SOL    HW224177   3.498   1.372   5.242  1.7765  0.0652 -0.8663
 4181SOL     OW24178   2.717   4.429   6.565  0.0086 -0.3447 -0.1674
 4181SOL    HW124179   2.637   4.392   6.527 -0.0950  1.6200 -1.8381
 4181SOL    HW224180   2.763   4.354   6.604 -2.0198 -0.8568  1.2190
 4182SOL     OW24181   2.729   0.727  17.733 -0.4267  0.6122  0.0228
 4182SOL    HW124182   2.704   0.819  17.726  0.7117  0.9926  1.0323
 4182SOL    HW224183   2.817   0.730  17.694 -0.2295 -0.7323  0.3585
 4183SOL     OW24184   1.584   3.925   1.987  0.1698 -0.0046 -0.1444
 4183SOL    HW124185   1.524   3.968   1.926 -1.1050 -1.0578  0.3735
 4183SOL    HW224186   1.668   3.964   1.964 -0.7423  1.4979 -0.9649
 4184SOL     OW24187   1.823   0.355   1.138 -0.3405 -0.0219  0.8048
 4184SOL    HW124188   1.801   0.355   1.045 -0.7564 -1.6122  0.9033
 4184SOL    HW224189   1.735   0.355   1.175 -0.8406  1.1727 -0.3485
 4185SOL     OW24190   4.436   2.418   8.971 -0.2909  0.4027 -0.2541
 4185SOL    HW124191   4.506   2.410   9.035  0.4536  0.5854 -1.0433
 4185SOL    HW224192   4.363   2.451   9.024 -0.2345  1.0609 -0.5920
 4186SOL     OW24193   0.037   0.690  11.937 -0.1557 -0.5099  0.5638
 4186SOL    HW124194   0.083   0.648  12.010  1.1526  0.1979  0.1569
 4186SOL    HW224195   0.015   0.606  11.895 -0.2185  0.5681 -1.5807
 4187SOL     OW24196   3.052   1.618   1.610  0.4706  0.4984  0.4351
 4187SOL    HW124197   3.123   1.629   1.673  3.2872  1.7674 -3.0014
 4187SOL    HW224198   3.063   1.687   1.545  0.8132  1.0111  1.0328
 4188SOL     OW24199   3.723   4.388   3.217  0.2257 -0.2010  0.1381
 4188SOL    HW124200   3.661   4.439   3.269  0.5446 -0.4701  0.7737
 4188SOL    HW224201   3.761   4.328   3.280  1.2230 -0.4129 -0.6687
 4189SOL     OW24202   1.224   1.671   4.823 -0.1574 -0.1692 -0.4270
 4189SOL    HW124203   1.220   1.577   4.837 -0.2057 -0.1603 -0.3849
 4189SOL    HW224204   1.172   1.706   4.894  0.0428  1.5484 -1.1145
 4190SOL     OW24205   1.484   2.948   2.623  0.0213  0.2358  0.2555
 4190SOL    HW124206   1.442   3.016   2.571 -1.4184 -0.0461  1.0513
 4190SOL    HW224207   1.423   2.874   2.624 -0.2640  0.4700  0.6723
 4191SOL     OW24208   3.184   4.205  17.341 -0.2782 -0.6170  0.5518
 4191SOL    HW124209   3.092   4.216  17.319 -0.3096 -1.9286  0.0008
 4191SOL    HW224210   3.196   4.268  17.411 -1.1689  1.2940 -1.0188
 4192SOL     OW24211   2.745   3.996  14.205 -0.1477 -0.7013 -0.4539
 4192SOL    HW124212   2.776   3.954  14.286  0.1533 -1.1485 -0.8008
 4192SOL    HW224213   2.746   3.919  14.148  1.3991 -1.2263  0.2493
 4193SOL     OW24214   3.230   1.873   1.787  0.6183 -0.1527 -0.0523
 4193SOL    HW124215   3.250   1.958   1.827  0.8246 -0.7968  1.2177
 4193SOL    HW224216   3.256   1.807   1.851 -1.4100 -2.0170 -1.1663
 4194SOL     OW24217   2.359   4.554   6.382 -0.2436  0.3032  0.1086
 4194SOL    HW124218   2.441   4.589   6.347  0.4205 -0.3439  1.0484
 4194SOL    HW224219   2.387   4.468   6.412  1.8692  1.1535  0.5429
 4195SOL     OW24220   0.661   2.562   0.609 -0.1126 -0.1895 -0.0121
 4195SOL    HW124221   0.644   2.638   0.664 -1.0385 -0.7942  0.5460
 4195SOL    HW224222   0.668   2.601   0.521  1.6209 -0.4280  0.0209
 4196SOL     OW24223   4.626   3.780  12.367 -0.1708 -0.1655 -0.0049
 4196SOL    HW124224   4.676   3.743  12.439  1.0311  2.3700  0.4593
 4196SOL    HW224225   4.686   3.786  12.293  0.7500 -0.6925  0.7014
 4197SOL     OW24226   4.325   0.157   7.006 -0.1363 -0.1158 -0.1588
 4197SOL    HW124227   4.391   0.161   6.937  2.7578 -1.5740  2.5270
 4197SOL    HW224228   4.379   0.157   7.085 -0.4762  0.2018  0.0775
 4198SOL     OW24229   1.536   0.112   6.571  0.7546  0.3675 -0.8597
 4198SOL    HW124230   1.582   0.029   6.584  0.6562  0.3326 -0.7372
 4198SOL    HW224231   1.543   0.126   6.477  1.9385  1.3146 -0.6520
 4199SOL     OW24232   3.872   1.732   6.827 -0.2021  0.0602  0.3774
 4199SOL    HW124233   3.838   1.679   6.756  0.4024 -1.0967  0.9516
 4199SOL    HW224234   3.794   1.736   6.883 -2.3388 -0.7900 -2.6020
 4200SOL     OW24235   1.656   0.163   1.350 -0.0063  0.3466 -1.2355
 4200SOL    HW124236   1.624   0.253   1.349 -0.5534  0.1524 -0.5153
 4200SOL    HW224237   1.652   0.154   1.254 -1.6790 -1.2013 -1.0127
 4201SOL     OW24238   0.782   1.025   7.264  0.7744 -0.1355 -0.1652
 4201SOL    HW124239   0.759   1.118   7.271 -0.4122 -0.5621  1.7349
 4201SOL    HW224240   0.874   1.033   7.241  0.5999 -0.2655 -0.9001
 4202SOL     OW24241   2.864   1.938   6.009 -0.5572 -0.6687 -0.1673
 4202SOL    HW124242   2.787   1.995   6.004 -1.5936 -2.0915 -0.6651
 4202SOL    HW224243   2.929   1.999   5.975  1.6715 -2.2414  1.2496
 4203SOL     OW24244   0.288   3.802  15.478 -0.5831  0.4556 -0.0060
 4203SOL    HW124245   0.308   3.800  15.384 -0.2813  2.8505  0.0113
 4203SOL    HW224246   0.377   3.790  15.509 -0.3271  0.6865 -0.6575
 4204SOL     OW24247   3.827   4.433   2.693 -0.2233 -0.5317  0.4219
 4204SOL    HW124248   3.916   4.417   2.660 -1.3702 -1.6507 -2.0934
 4204SOL    HW224249   3.774   4.430   2.613 -0.3831 -2.2286  0.5856
 4205SOL     OW24250   3.775   2.806   3.282 -0.2913 -0.1218  0.3268
 4205SOL    HW124251   3.680   2.814   3.280 -0.1629  1.4682  0.5382
 4205SOL    HW224252   3.802   2.728   3.232  0.0867  0.9941 -1.2112
 4206SOL     OW24253   3.077   2.417   7.833  0.1209  0.1897  0.7320
 4206SOL    HW124254   2.993   2.455   7.859 -0.0151  1.2830 -1.2997
 4206SOL    HW224255   3.059   2.327   7.805  0.1489  0.1346  0.8883
 4207SOL     OW24256   2.451   0.863  15.974 -0.5867  0.1407 -0.1717
 4207SOL    HW124257   2.524   0.919  15.999 -1.3063  0.8659  0.2877
 4207SOL    HW224258   2.463   0.795  16.041  0.8954  0.9510  0.3886
 4208SOL     OW24259   0.367   4.124  11.605  0.1569 -0.2006 -0.0984
 4208SOL    HW124260   0.344   4.119  11.698 -0.1029  0.4087 -0.1311
 4208SOL    HW224261   0.299   4.185  11.574  1.4678  1.1057 -0.4236
 4209SOL     OW24262   3.207   0.233   2.008 -0.1011  0.1949 -0.3977
 4209SOL    HW124263   3.183   0.153   2.056  1.5453  0.9325  1.6778
 4209SOL    HW224264   3.188   0.299   2.075  0.3352 -0.0733 -0.0058
 4210SOL     OW24265   2.016   0.020   2.546 -0.6062  0.4089 -0.0147
 4210SOL    HW124266   1.985   4.686   2.603  0.5403 -0.3039 -0.2750
 4210SOL    HW224267   2.060   0.077   2.609 -0.4951 -0.8121  1.0089
 4211SOL     OW24268   3.813   2.903  16.227 -0.3694 -0.4945 -0.3174
 4211SOL    HW124269   3.747   2.846  16.188  0.9825 -0.8608 -2.0810
 4211SOL    HW224270   3.768   2.971  16.278  1.5551  0.2345  0.3881
 4212SOL     OW24271   4.346   0.610   0.079  0.0872 -0.4832 -0.7901
 4212SOL    HW124272   4.374   0.536   0.132 -0.7449 -1.4142 -1.6624
 4212SOL    HW224273   4.385   0.597  17.735  0.1785 -2.5717 -0.4206
 4213SOL     OW24274   3.295   0.663   5.086  0.0427  0.0706 -0.6685
 4213SOL    HW124275   3.277   0.664   5.180  1.4055 -1.5613 -0.3903
 4213SOL    HW224276   3.259   0.747   5.058 -0.4743  0.0525 -0.0499
 4214SOL     OW24277   3.285   0.740  12.851 -0.1590  0.3102 -0.4248
 4214SOL    HW124278   3.212   0.708  12.799  0.1727  0.2208 -0.8343
 4214SOL    HW224279   3.252   0.825  12.882  1.7186  0.4855  1.1277
 4215SOL     OW24280   1.300   2.595  13.637 -0.3825  0.0797  0.6948
 4215SOL    HW124281   1.346   2.654  13.696 -0.2860  3.0178 -2.3441
 4215SOL    HW224282   1.205   2.593  13.654 -0.3451 -2.5020  0.6072
 4216SOL     OW24283   3.748   0.279   5.137 -0.3293 -0.8376 -0.5156
 4216SOL    HW124284   3.686   0.261   5.209 -0.4216  0.7885 -0.1941
 4216SOL    HW224285   3.732   0.372   5.124  1.3183 -0.2881  1.3530
 4217SOL     OW24286   1.892   0.063   6.999 -0.4610 -0.1952  0.1129
 4217SOL    HW124287   1.861   4.721   6.955 -2.5189  0.5085  0.3146
 4217SOL    HW224288   1.915   0.022   7.083 -0.8716  0.8691  0.7556
 4218SOL     OW24289   2.499   0.214   8.783  0.5228 -0.2347  0.5201
 4218SOL    HW124290   2.567   0.147   8.797  0.2230 -0.8393 -0.9213
 4218SOL    HW224291   2.488   0.260   8.866  0.9230 -0.0928  0.4966
 4219SOL     OW24292   1.699   2.689   2.102 -0.0062  0.3635  0.1709
 4219SOL    HW124293   1.603   2.692   2.095 -0.1294 -0.1986  1.6109
 4219SOL    HW224294   1.730   2.713   2.015 -1.8444  1.8758 -0.0687
 4220SOL     OW24295   2.591   2.141   2.727  0.1360 -0.1474  0.5446
 4220SOL    HW124296   2.574   2.091   2.647  1.8342  2.0616 -1.1825
 4220SOL    HW224297   2.536   2.103   2.796  2.6452  0.5601  2.9595
 4221SOL     OW24298   2.629   1.275   4.407 -0.1059  0.2244 -0.8286
 4221SOL    HW124299   2.616   1.281   4.313 -1.8798  0.3906 -0.5672
 4221SOL    HW224300   2.719   1.307   4.413 -0.1057 -0.0136  0.4348
 4222SOL     OW24301   2.140   4.381   1.877  0.2805 -0.6021  0.3935
 4222SOL    HW124302   2.045   4.390   1.869  0.4617  0.1838 -0.8356
 4222SOL    HW224303   2.167   4.306   1.824 -0.3796 -1.1377  0.8000
 4223SOL     OW24304   3.175   1.853   6.378 -0.4877  0.6000 -0.1238
 4223SOL    HW124305   3.258   1.894   6.354  1.5567 -3.4115  0.0668
 4223SOL    HW224306   3.150   1.910   6.450 -2.3924  0.4302 -0.6367
 4224SOL     OW24307   1.570   1.220   7.931 -0.1740 -0.1710  0.4933
 4224SOL    HW124308   1.488   1.197   7.886  0.3343 -1.2725  0.1170
 4224SOL    HW224309   1.633   1.214   7.859 -1.8195 -1.9677 -0.8141
 4225SOL     OW24310   3.155   3.835  11.949  0.1094  0.2865 -0.6318
 4225SOL    HW124311   3.067   3.861  11.973  0.8961  1.1960  1.2288
 4225SOL    HW224312   3.156   3.853  11.855 -0.3142 -1.0658 -0.8912
 4226SOL     OW24313   0.690   3.584   2.510  0.9484  0.7286  0.4255
 4226SOL    HW124314   0.615   3.553   2.561  1.6062  0.2783  1.1285
 4226SOL    HW224315   0.647   3.655   2.463  0.2210 -0.1887 -0.2846
 4227SOL     OW24316   1.129   3.787   0.656  0.8954 -0.3829 -0.1199
 4227SOL    HW124317   1.131   3.811   0.564  2.0278  3.0778  0.8013
 4227SOL    HW224318   1.060   3.847   0.684 -0.6675 -1.6540 -1.2452
 4228SOL     OW24319   1.615   2.752   7.264 -0.1421 -0.1652 -0.4547
 4228SOL    HW124320   1.572   2.835   7.286  0.0369 -0.3417  0.5508
 4228SOL    HW224321   1.583   2.698   7.336  0.5240  1.1000  0.7881
 4229SOL     OW24322   3.481   0.413   8.696  0.4841  0.4028  0.2892
 4229SOL    HW124323   3.518   0.465   8.625 -1.0287  0.7237 -0.2411
 4229SOL    HW224324   3.524   0.442   8.777 -1.6082  1.3760  1.0494
 4230SOL     OW24325   0.427   1.981   5.531  0.0271  0.3790 -0.5009
 4230SOL    HW124326   0.486   2.022   5.467 -1.6944 -0.0702 -2.3824
 4230SOL    HW224327   0.375   2.057   5.556 -0.8886 -0.6544  0.6929
 4231SOL     OW24328   3.353   3.929  12.873  0.3433 -0.2799 -0.4984
 4231SOL    HW124329   3.364   3.839  12.905  3.3072  0.3399  0.2356
 4231SOL    HW224330   3.373   3.913  12.781 -0.7804  1.0143 -0.9696
 4232SOL     OW24331   1.389   0.222   9.994  0.2821  0.4977 -0.8180
 4232SOL    HW124332   1.444   0.169  10.051 -1.0590 -1.0214 -0.9477
 4232SOL    HW224333   1.359   0.292  10.052  0.4837  0.0640 -0.1896
 4233SOL     OW24334   2.636   1.072   7.235  0.1954 -0.3478  0.0934
 4233SOL    HW124335   2.582   1.100   7.310  0.9226  0.1168  0.4442
 4233SOL    HW224336   2.582   1.000   7.201  0.1631 -0.2920  0.0257
 4234SOL     OW24337   4.069   0.632   8.381 -0.3542 -0.5129 -0.3790
 4234SOL    HW124338   3.975   0.636   8.365 -0.0649  1.4169 -1.5631
 4234SOL    HW224339   4.106   0.564   8.324 -1.1879 -0.3372 -1.1148
 4235SOL     OW24340   3.669   2.487   5.692 -0.6315  0.6672  0.4229
 4235SOL    HW124341   3.658   2.421   5.760  0.0592  0.1743  0.0517
 4235SOL    HW224342   3.764   2.493   5.683 -0.8144  0.5851 -1.5563
 4236SOL     OW24343   1.175   2.834   7.777 -0.1906 -0.1482  0.4777
 4236SOL    HW124344   1.079   2.838   7.777 -0.1540  0.8323 -0.1533
 4236SOL    HW224345   1.194   2.764   7.840  0.1352  0.3084  0.8808
 4237SOL     OW24346   1.970   3.657   9.221  0.0656 -0.1360 -0.5010
 4237SOL    HW124347   2.022   3.714   9.164 -1.9947  0.9673 -1.2668
 4237SOL    HW224348   1.960   3.721   9.291 -0.3480 -0.4889 -0.2410
 4238SOL     OW24349   2.760   1.203   9.822  0.3442  0.2519  0.4456
 4238SOL    HW124350   2.763   1.187   9.728 -1.8691  0.2565  0.3836
 4238SOL    HW224351   2.855   1.213   9.829  0.5189 -0.6717 -0.6335
 4239SOL     OW24352   4.497   3.677   6.452 -0.4302  0.3245 -0.2107
 4239SOL    HW124353   4.517   3.585   6.434 -0.1198  0.7163 -1.9345
 4239SOL    HW224354   4.518   3.719   6.369  2.3594 -0.2282  0.2119
 4240SOL     OW24355   3.500   2.075   5.249 -0.2718  0.3538  0.6745
 4240SOL    HW124356   3.509   2.120   5.333  0.4429  0.8137  0.3504
 4240SOL    HW224357   3.433   2.124   5.201 -0.6050 -1.0426 -0.2758
 4241SOL     OW24358   0.479   0.374   5.351 -0.2739 -0.5716 -0.3193
 4241SOL    HW124359   0.414   0.359   5.419  0.0988  0.6192  0.2897
 4241SOL    HW224360   0.492   0.282   5.327  0.1419 -1.0478  1.7945
 4242SOL     OW24361   2.617   1.325   1.585 -0.0719 -0.2338 -0.0132
 4242SOL    HW124362   2.610   1.321   1.680 -0.9844  1.7198 -0.0025
 4242SOL    HW224363   2.678   1.252   1.571  0.8058  0.4530  0.2615
 4243SOL     OW24364   4.069   3.599   3.974  0.3756 -0.4555  0.3503
 4243SOL    HW124365   3.989   3.633   3.933  1.0736 -0.7256 -1.2203
 4243SOL    HW224366   4.112   3.683   3.985 -0.0530  0.1894 -2.8361
 4244SOL     OW24367   3.655   2.912   8.501 -0.0087  0.7638  0.2825
 4244SOL    HW124368   3.563   2.885   8.509 -0.6226  3.0894  1.0486
 4244SOL    HW224369   3.672   2.927   8.594  1.0995 -1.0627  0.3815
 4245SOL     OW24370   2.175   3.176   9.134  0.3594  0.7773  0.3247
 4245SOL    HW124371   2.153   3.186   9.227  1.0472  1.6744  0.3968
 4245SOL    HW224372   2.248   3.115   9.141 -0.0706  0.2085 -0.2096
 4246SOL     OW24373   4.341   2.784   6.789  0.1807  0.6410 -0.3559
 4246SOL    HW124374   4.381   2.700   6.768 -2.8072 -1.2971  1.7419
 4246SOL    HW224375   4.411   2.841   6.822 -0.3267  0.2986  1.2811
 4247SOL     OW24376   2.260   2.874   8.392  0.5980  0.7283 -0.1509
 4247SOL    HW124377   2.331   2.882   8.456  1.5243  3.6750 -1.5216
 4247SOL    HW224378   2.272   2.946   8.330  0.7690 -0.6781 -1.7682
 4248SOL     OW24379   0.672   1.880   3.729 -0.2171  0.1176 -0.2615
 4248SOL    HW124380   0.625   1.953   3.690 -2.0111 -1.6676 -1.4482
 4248SOL    HW224381   0.762   1.904   3.705 -0.0296 -0.4752 -0.1498
 4249SOL     OW24382   3.017   0.204   5.587  0.1638 -0.4853  0.5651
 4249SOL    HW124383   3.015   0.110   5.567 -0.8468  0.0672 -2.0022
 4249SOL    HW224384   2.925   0.224   5.604 -0.2612 -1.5599 -0.4612
 4250SOL     OW24385   3.342   1.240   3.584  0.1000 -0.5688 -0.5462
 4250SOL    HW124386   3.429   1.281   3.591  0.2218 -0.8672 -0.3351
 4250SOL    HW224387   3.283   1.315   3.582 -1.0760 -1.4275  1.9275
 4251SOL     OW24388   1.728   1.265   1.516 -0.0455  0.0165 -0.4595
 4251SOL    HW124389   1.714   1.348   1.562 -0.1173  0.2305 -0.8699
 4251SOL    HW224390   1.717   1.209   1.593 -0.2931 -0.4058 -0.8004
 4252SOL     OW24391   0.264   0.468   1.787 -0.6600 -0.4976  0.0361
 4252SOL    HW124392   0.348   0.490   1.747 -0.4727  0.6699  1.0850
 4252SOL    HW224393   0.286   0.388   1.835 -0.6135 -1.5322 -1.7207
 4253SOL     OW24394   1.599   1.136   8.341 -0.3093  0.2053  0.3740
 4253SOL    HW124395   1.587   1.221   8.382 -1.1696  0.4419 -0.3568
 4253SOL    HW224396   1.532   1.081   8.382 -0.7435  1.1411  0.8908
 4254SOL     OW24397   0.123   0.556  17.702  0.0222 -0.1900  0.0071
 4254SOL    HW124398   0.166   0.477  17.669  2.0212  0.5225  0.9449
 4254SOL    HW224399   0.180   0.589   0.028 -0.3555 -1.5135  0.9494
 4255SOL     OW24400   4.066   4.611   2.609 -0.3438 -0.2984 -0.2942
 4255SOL    HW124401   4.115   4.690   2.586  1.3311 -1.4269 -0.6707
 4255SOL    HW224402   4.139   4.564   2.649  0.6810  0.9231 -0.7262
 4256SOL     OW24403   3.526   0.270   5.571 -0.1882 -0.0422  0.1043
 4256SOL    HW124404   3.514   0.332   5.499  2.6012 -1.2268 -1.3746
 4256SOL    HW224405   3.517   0.332   5.643  0.6524  0.1912  0.0099
 4257SOL     OW24406   0.748   2.891   1.056  0.2359  0.3931  0.0619
 4257SOL    HW124407   0.761   2.807   1.012 -0.4130  1.4796 -2.1693
 4257SOL    HW224408   0.818   2.938   1.013 -1.5164  0.5745 -2.5739
 4258SOL     OW24409   3.768   1.242   4.010  0.1251 -0.1300 -0.5757
 4258SOL    HW124410   3.692   1.195   4.044 -0.4179 -0.4271 -2.1586
 4258SOL    HW224411   3.750   1.241   3.915 -1.5398  0.9111 -0.2725
 4259SOL     OW24412   4.123   4.031   0.359 -0.1789 -1.0702  0.0439
 4259SOL    HW124413   4.053   3.969   0.339 -1.0103  0.2243 -1.0946
 4259SOL    HW224414   4.078   4.116   0.359  0.5094 -0.6995 -2.2038
 4260SOL     OW24415   1.877   1.937   6.543  0.1079 -0.4821  0.2237
 4260SOL    HW124416   1.899   2.029   6.554  0.1385 -0.5515  0.7705
 4260SOL    HW224417   1.913   1.891   6.619 -0.4936 -1.0008  0.2020
 4261SOL     OW24418   3.107   3.938  14.855  0.1292 -0.3583  0.3466
 4261SOL    HW124419   3.111   3.845  14.835  0.5141  0.2068 -2.3369
 4261SOL    HW224420   3.119   3.961  14.762 -0.7848  0.5530  0.4521
 4262SOL     OW24421   2.344   0.664   2.906  0.1195 -0.4478 -0.0682
 4262SOL    HW124422   2.373   0.688   2.818 -0.0153 -2.2688 -0.6020
 4262SOL    HW224423   2.353   0.751   2.945  1.0294 -0.6796  0.2336
 4263SOL     OW24424   0.142   0.740   7.181 -1.2935  0.1400  0.1097
 4263SOL    HW124425   0.055   0.740   7.140 -1.5230 -4.0876  0.6661
 4263SOL    HW224426   0.203   0.711   7.113  0.5518  0.1308  1.7723
 4264SOL     OW24427   2.746   4.729  15.231 -0.0882 -0.0003  0.0793
 4264SOL    HW124428   2.829   4.688  15.204 -1.4374 -2.0850 -0.9311
 4264SOL    HW224429   2.690   4.708  15.157  0.6801  0.6497 -0.6786
 4265SOL     OW24430   3.671   4.173  12.739  0.1181  0.2588 -0.7455
 4265SOL    HW124431   3.647   4.147  12.650  2.9309 -2.6514 -0.6405
 4265SOL    HW224432   3.693   4.091  12.784 -0.4354 -0.3234 -1.5223
 4266SOL     OW24433   0.776   1.631   2.231 -0.5554  0.1888  0.0399
 4266SOL    HW124434   0.743   1.612   2.143  1.1980 -0.1307 -0.5359
 4266SOL    HW224435   0.800   1.548   2.272  0.7020  0.2031 -0.6869
 4267SOL     OW24436   0.015   2.527   9.576  0.4246 -0.2908 -0.2485
 4267SOL    HW124437   0.060   2.609   9.556 -1.5461  0.2400 -2.4767
 4267SOL    HW224438   0.041   2.510   9.667  0.3840 -0.6222 -0.2986
 4268SOL     OW24439   0.742   1.912   8.871  0.2130  0.0876 -0.0116
 4268SOL    HW124440   0.813   1.972   8.845  1.1783 -1.0178  0.1137
 4268SOL    HW224441   0.698   1.973   8.930  1.2089  0.7014  0.1137
 4269SOL     OW24442   1.842   0.404   2.348 -0.6161 -0.1933 -0.0029
 4269SOL    HW124443   1.837   0.493   2.383 -3.3553  0.0421 -0.9122
 4269SOL    HW224444   1.766   0.365   2.391 -0.1347 -2.5822 -1.3334
 4270SOL     OW24445   1.176   3.075   3.664 -0.5316 -0.8615  0.5758
 4270SOL    HW124446   1.236   3.135   3.621 -0.0584 -1.5030  0.3476
 4270SOL    HW224447   1.209   2.992   3.631  1.1775 -0.0509  0.2403
 4271SOL     OW24448   2.645   0.603   2.792 -0.1819  0.2125 -0.3600
 4271SOL    HW124449   2.692   0.520   2.800 -1.7802 -0.8811 -2.2446
 4271SOL    HW224450   2.552   0.579   2.784 -0.3763  0.5554  0.8798
 4272SOL     OW24451   1.516   1.363   2.688 -0.7071  0.0112 -0.1065
 4272SOL    HW124452   1.467   1.294   2.734 -3.6782  3.1649  1.4778
 4272SOL    HW224453   1.572   1.401   2.755  0.3231 -1.3464 -0.1953
 4273SOL     OW24454   1.911   4.732   1.953  0.1127  0.0676 -0.0027
 4273SOL    HW124455   2.007   4.735   1.951  0.1469 -1.4598 -0.5750
 4273SOL    HW224456   1.895   0.076   1.903 -0.3361 -0.2890 -0.4225
 4274SOL     OW24457   4.522   1.695   4.783 -0.2335 -0.3869 -0.0718
 4274SOL    HW124458   4.485   1.612   4.814 -3.0057  1.0044  0.3074
 4274SOL    HW224459   4.615   1.673   4.772  0.0260  1.8653 -2.2219
 4275SOL     OW24460   3.313   0.294  15.269  0.5683 -0.5669 -0.6518
 4275SOL    HW124461   3.246   0.230  15.246 -1.2857  0.5668  1.6170
 4275SOL    HW224462   3.289   0.324  15.356  0.8914 -1.3898 -0.2744
 4276SOL     OW24463   2.870   2.861  11.522  0.0811 -0.1912 -0.0245
 4276SOL    HW124464   2.905   2.871  11.610 -0.0368  1.6737 -0.1783
 4276SOL    HW224465   2.944   2.893  11.470 -0.1380 -0.7130 -0.6703
 4277SOL     OW24466   1.308   1.515   1.582 -0.2418  0.1158  0.2353
 4277SOL    HW124467   1.265   1.429   1.578  1.5400 -0.7164 -0.8214
 4277SOL    HW224468   1.394   1.500   1.543  0.4108 -0.6973  1.9899
 4278SOL     OW24469   3.007   2.113   1.958 -0.0295 -0.0009  0.3450
 4278SOL    HW124470   2.941   2.048   1.982 -0.7342 -0.1427 -1.9384
 4278SOL    HW224471   2.996   2.179   2.026  0.3047  0.5228 -0.1148
 4279SOL     OW24472   3.827   0.953   1.899  0.2638  0.0473 -0.0027
 4279SOL    HW124473   3.798   1.043   1.914  1.1079  0.4073 -0.5249
 4279SOL    HW224474   3.778   0.900   1.962 -1.3002  1.0362 -0.3605
 4280SOL     OW24475   0.692   0.380  13.736  0.8418 -0.1192 -0.0082
 4280SOL    HW124476   0.695   0.454  13.796 -0.7587 -0.1731  0.1383
 4280SOL    HW224477   0.705   0.303  13.792 -0.7432 -0.4786 -0.1219
 4281SOL     OW24478   0.520   3.536   6.178  0.2266  0.2180  0.2599
 4281SOL    HW124479   0.605   3.576   6.195  0.4643 -0.5858  1.0126
 4281SOL    HW224480   0.478   3.569   6.258 -2.3817 -0.1915 -0.9650
 4282SOL     OW24481   2.455   4.334   6.510  0.1137  0.3801  0.6148
 4282SOL    HW124482   2.429   4.350   6.601 -0.2166  0.0679  0.5787
 4282SOL    HW224483   2.392   4.267   6.484  1.4108 -1.6306  2.6281
 4283SOL     OW24484   4.509   0.449   6.306 -0.7213  0.0080 -0.2028
 4283SOL    HW124485   4.430   0.483   6.265  0.9659  2.4676 -1.4107
 4283SOL    HW224486   4.505   0.482   6.396 -4.0571 -1.2187  0.0758
 4284SOL     OW24487   1.338   1.107   1.827  0.2723  0.1181  0.2704
 4284SOL    HW124488   1.300   1.021   1.808  0.5695 -0.2916  1.4656
 4284SOL    HW224489   1.269   1.156   1.871  1.0520  0.0539  1.5999
 4285SOL     OW24490   0.528   0.519   9.049 -0.4284  0.1637  0.0257
 4285SOL    HW124491   0.588   0.552   8.982  1.0664  2.3678  2.4709
 4285SOL    HW224492   0.447   0.525   8.998 -1.1958  0.1609  1.2607
 4286SOL     OW24493   0.928   0.074  14.815  0.3147  0.0951 -0.2482
 4286SOL    HW124494   0.873   4.732  14.825  1.1151 -0.1013  2.5818
 4286SOL    HW224495   0.908   0.097  14.725  0.5648  0.1142 -0.2983
 4287SOL     OW24496   3.811   2.606   9.822 -0.2507 -0.0198 -0.1575
 4287SOL    HW124497   3.732   2.555   9.810 -0.5766  0.0566  1.6357
 4287SOL    HW224498   3.782   2.692   9.794 -0.4125  0.6064  1.8944
 4288SOL     OW24499   3.887   3.559   6.644 -0.0484 -0.0504  0.5158
 4288SOL    HW124500   3.903   3.520   6.730 -0.0665  1.8700  1.3732
 4288SOL    HW224501   3.796   3.541   6.621 -0.5214  1.4926  1.2556
 4289SOL     OW24502   4.016   2.567   7.268 -0.2639 -0.2206 -0.3339
 4289SOL    HW124503   3.987   2.583   7.358  1.0533 -0.6428  0.1649
 4289SOL    HW224504   3.934   2.530   7.236 -1.3032 -0.1061  2.1556
 4290SOL     OW24505   3.275   2.801   9.332 -0.1752  0.3682  0.3875
 4290SOL    HW124506   3.202   2.742   9.353 -0.1518  0.1649 -0.1073
 4290SOL    HW224507   3.314   2.823   9.417 -0.6585 -3.5026  1.6256
 4291SOL     OW24508   4.550   4.096   1.801  0.5347  0.8163 -0.0372
 4291SOL    HW124509   4.588   4.035   1.738  0.4922  0.8541 -0.1000
 4291SOL    HW224510   4.631   4.145   1.813  0.7921  0.2805  0.3835
 4292SOL     OW24511   2.349   2.389  13.857  0.8623  0.4999  0.4003
 4292SOL    HW124512   2.294   2.462  13.828  0.7949  0.1810 -0.2736
 4292SOL    HW224513   2.431   2.438  13.861  0.9975  0.3513 -0.6354
 4293SOL     OW24514   4.471   2.046   6.899  0.3282  0.1118 -0.0215
 4293SOL    HW124515   4.542   2.003   6.851 -1.4469 -0.5348 -2.0481
 4293SOL    HW224516   4.441   2.111   6.836  1.5428  1.6861  1.0370
 4294SOL     OW24517   3.357   0.238  10.369  0.4244  0.0953  0.2580
 4294SOL    HW124518   3.393   0.180  10.302 -1.7002  0.3590 -1.1057
 4294SOL    HW224519   3.440   0.272  10.401 -0.0152  0.3450  1.1336
 4295SOL     OW24520   2.827   4.504   5.175  0.4325 -0.1906 -0.1637
 4295SOL    HW124521   2.790   4.575   5.227 -0.9754 -1.1075  0.0687
 4295SOL    HW224522   2.853   4.554   5.097  1.9137  1.6772  1.5402
 4296SOL     OW24523   0.747   3.259   6.042  0.4286  0.1566 -0.2330
 4296SOL    HW124524   0.685   3.187   6.051  1.9295 -1.0774  0.1223
 4296SOL    HW224525   0.834   3.219   6.045 -0.4919 -1.7949 -0.0623
 4297SOL     OW24526   1.519   4.232  12.318  0.7008 -0.9189 -0.2542
 4297SOL    HW124527   1.489   4.171  12.385  1.7012 -1.1746 -0.0430
 4297SOL    HW224528   1.560   4.296  12.376  0.4424 -0.6641 -0.3515
 4298SOL     OW24529   3.752   2.971  10.830  0.7730 -0.1976 -0.7842
 4298SOL    HW124530   3.801   3.052  10.818  0.9641 -0.1790  0.1198
 4298SOL    HW224531   3.661   2.995  10.811  0.1489 -1.4392  0.6699
 4299SOL     OW24532   2.556   2.093   8.735  0.3192  0.2219 -0.4977
 4299SOL    HW124533   2.563   2.156   8.807 -0.5333 -0.7935  0.4710
 4299SOL    HW224534   2.463   2.101   8.713  0.3419 -0.0149 -0.6745
 4300SOL     OW24535   1.450   0.897   4.239  0.0767  0.1931  0.0290
 4300SOL    HW124536   1.429   0.804   4.236 -1.2087  0.4472  0.9848
 4300SOL    HW224537   1.541   0.885   4.211 -0.9063 -2.5486 -1.9811
 4301SOL     OW24538   0.517   2.246   8.237 -0.2423 -0.6526 -0.2018
 4301SOL    HW124539   0.550   2.217   8.152 -0.8562  0.6151 -0.8663
 4301SOL    HW224540   0.528   2.339   8.258  1.0650 -0.6144 -1.0528
 4302SOL     OW24541   0.445   2.256   6.696  0.3616 -0.0796  0.0246
 4302SOL    HW124542   0.446   2.349   6.718  0.3458 -0.2030  0.5526
 4302SOL    HW224543   0.509   2.257   6.625  1.8750 -1.0008  1.3820
 4303SOL     OW24544   4.206   3.000  11.842 -0.2894 -0.1031  0.0642
 4303SOL    HW124545   4.128   2.972  11.794 -1.0275 -0.1715  1.2825
 4303SOL    HW224546   4.171   3.039  11.923  0.9299  0.2452  0.4201
 4304SOL     OW24547   3.568   0.095   9.310 -0.1098  0.2432  0.0714
 4304SOL    HW124548   3.647   0.074   9.361  2.1573  3.8358 -1.9400
 4304SOL    HW224549   3.506   0.035   9.350 -1.5484  1.7689  0.1497
 4305SOL     OW24550   4.552   0.915  17.179  0.1000  0.1391  0.1853
 4305SOL    HW124551   4.540   0.917  17.273 -2.0772  0.3251 -0.0895
 4305SOL    HW224552   4.466   0.933  17.142 -1.0266 -2.1308  1.7747
 4306SOL     OW24553   4.531   3.321   1.575  0.1631 -0.2390 -0.0303
 4306SOL    HW124554   4.484   3.393   1.533  0.4558 -1.3439 -2.2190
 4306SOL    HW224555   4.600   3.362   1.628  0.3192  0.8907 -1.0935
 4307SOL     OW24556   2.800   0.978  14.974 -0.3539 -0.4228  0.4116
 4307SOL    HW124557   2.890   0.994  14.945 -0.8946 -1.0503 -1.5770
 4307SOL    HW224558   2.802   1.012  15.063  0.3236 -0.1774  0.3075
 4308SOL     OW24559   3.987   1.007   5.821  0.3207  0.0165  0.1349
 4308SOL    HW124560   4.070   1.015   5.869  0.3422  1.4956 -0.1357
 4308SOL    HW224561   3.941   0.944   5.877  2.5875 -0.7034  1.1990
 4309SOL     OW24562   4.512   0.173   2.934  0.1238 -0.2694 -0.5090
 4309SOL    HW124563   4.540   0.158   2.844  0.8625 -1.5459 -0.0554
 4309SOL    HW224564   4.485   0.265   2.929 -0.2322 -0.4370 -1.7028
 4310SOL     OW24565   0.881   1.972   3.512  0.1922 -0.2845  0.5396
 4310SOL    HW124566   0.943   1.949   3.443  0.4092  0.5878  0.4404
 4310SOL    HW224567   0.938   2.016   3.576  1.2100  1.1672 -1.3674
 4311SOL     OW24568   0.104   4.717   4.830 -0.2533  0.3744 -0.4302
 4311SOL    HW124569   0.045   4.687   4.761 -0.5770 -3.4383  1.5259
 4311SOL    HW224570   0.089   4.650   4.897 -0.0421  2.3854  1.6500
 4312SOL     OW24571   0.550   0.677  16.882  0.2051  0.4820  0.4099
 4312SOL    HW124572   0.599   0.754  16.854  0.6698 -0.4089 -1.2657
 4312SOL    HW224573   0.523   0.699  16.971 -2.9847 -0.7195 -0.2647
 4313SOL     OW24574   1.232   3.213   2.943 -0.2294 -0.2616 -0.2995
 4313SOL    HW124575   1.256   3.244   3.030 -0.9003  2.7624 -1.1938
 4313SOL    HW224576   1.154   3.164   2.969 -1.4253  2.0474  0.4649
 4314SOL     OW24577   3.721   3.615   8.810  0.4185 -0.2135 -0.1733
 4314SOL    HW124578   3.642   3.670   8.812  1.4268  1.3258 -2.6001
 4314SOL    HW224579   3.785   3.676   8.847 -1.2556  0.5576  1.4421
 4315SOL     OW24580   3.657   0.783   8.707 -0.7617 -0.7379  0.0691
 4315SOL    HW124581   3.707   0.805   8.785 -2.0812  2.0506  0.1561
 4315SOL    HW224582   3.605   0.863   8.693  1.7574  0.5560 -2.0814
 4316SOL     OW24583   0.284   3.847   7.899 -0.3809 -0.2192  0.7423
 4316SOL    HW124584   0.312   3.807   7.816  0.9728  2.6853 -0.2399
 4316SOL    HW224585   0.258   3.772   7.951 -1.5311 -0.4458 -0.1738
 4317SOL     OW24586   0.512   2.370   9.013 -0.2185 -0.5713  0.0773
 4317SOL    HW124587   0.526   2.464   9.011 -1.6226 -0.3161  1.8034
 4317SOL    HW224588   0.419   2.350   8.995  0.2826  0.6943 -3.9778
 4318SOL     OW24589   1.794   2.084   3.743 -0.8875  0.0163  0.1884
 4318SOL    HW124590   1.755   2.024   3.680  3.6142 -1.8998 -0.7858
 4318SOL    HW224591   1.876   2.110   3.701 -0.7614  1.4095  1.2843
 4319SOL     OW24592   2.388   1.612   6.490  0.4160  0.5050 -0.5949
 4319SOL    HW124593   2.375   1.608   6.395  1.2100 -3.0084 -0.5551
 4319SOL    HW224594   2.328   1.684   6.509  0.7498  0.3583  0.9614
 4320SOL     OW24595   1.494   1.970   6.705  0.1288 -0.2063 -0.1908
 4320SOL    HW124596   1.579   1.969   6.661 -0.8487  3.2823 -2.2077
 4320SOL    HW224597   1.504   1.917   6.784  2.2397 -1.9586 -1.6293
 4321SOL     OW24598   0.823   0.085  15.873  0.0746  0.8952 -0.1491
 4321SOL    HW124599   0.882   0.054  15.942  0.7070  0.0909 -1.0471
 4321SOL    HW224600   0.853   0.173  15.852 -0.7463  1.5087  1.2431
 4322SOL     OW24601   2.368   3.299   6.077  0.0071 -0.3280  0.1006
 4322SOL    HW124602   2.327   3.372   6.122  0.9411 -0.6746  1.4897
 4322SOL    HW224603   2.296   3.235   6.076  0.8835 -1.3032 -2.1211
 4323SOL     OW24604   2.883   1.987   7.553  0.1808 -0.9493  0.3167
 4323SOL    HW124605   2.933   1.991   7.471 -0.7654  4.1054 -0.0328
 4323SOL    HW224606   2.796   1.972   7.516  1.6472 -0.4611 -3.3301
 4324SOL     OW24607   0.726   2.781   4.671 -0.0011 -0.4460 -0.0650
 4324SOL    HW124608   0.657   2.719   4.648  0.2343 -0.6318 -0.2650
 4324SOL    HW224609   0.790   2.720   4.709  1.9834  0.4106 -2.0824
 4325SOL     OW24610   3.259   0.642   1.435  0.8367  0.1648 -0.2760
 4325SOL    HW124611   3.333   0.680   1.387  0.5414 -1.9647 -2.4038
 4325SOL    HW224612   3.185   0.688   1.394 -1.7842 -2.2960  1.7151
 4326SOL     OW24613   0.547   1.199   8.774 -0.1204 -0.0308  0.7077
 4326SOL    HW124614   0.478   1.231   8.832 -0.7513  0.7041 -0.4569
 4326SOL    HW224615   0.615   1.265   8.785  1.1467 -1.1462 -0.4495
 4327SOL     OW24616   3.162   3.882   6.807 -0.9880 -0.3011  0.1353
 4327SOL    HW124617   3.117   3.802   6.779  1.4042 -1.0796 -1.5750
 4327SOL    HW224618   3.129   3.940   6.739  0.6605  1.6145  0.9868
 4328SOL     OW24619   1.844   2.180   6.774  0.0852 -0.2430  0.4085
 4328SOL    HW124620   1.847   2.169   6.679  1.8185 -1.2638  0.5798
 4328SOL    HW224621   1.888   2.266   6.779  0.3177 -0.1233 -3.7160
 4329SOL     OW24622   4.301   3.446  16.936 -0.5768 -0.4788  0.4616
 4329SOL    HW124623   4.274   3.372  16.881 -1.3931  0.6835 -0.7125
 4329SOL    HW224624   4.330   3.512  16.873 -1.2064 -0.5983  0.0449
 4330SOL     OW24625   2.469   4.556   1.958 -0.5944  0.6163  0.4737
 4330SOL    HW124626   2.468   4.540   2.053  1.5379 -1.6397  0.1185
 4330SOL    HW224627   2.513   4.476   1.929  0.1997 -0.2701  4.1279
 4331SOL     OW24628   0.951   4.115   7.974  0.2536  0.5062 -0.0511
 4331SOL    HW124629   1.045   4.099   7.969 -0.1998 -1.7776 -1.3153
 4331SOL    HW224630   0.940   4.156   8.060  0.3462 -0.3376  0.3655
 4332SOL     OW24631   2.440   4.598   4.097 -0.2038  0.0152  0.5506
 4332SOL    HW124632   2.377   4.535   4.133  1.2288 -1.2036  0.9367
 4332SOL    HW224633   2.394   4.642   4.026  0.5658  1.2029  0.7882
 4333SOL     OW24634   0.209   3.355   7.786 -0.1383 -0.3371  0.4927
 4333SOL    HW124635   0.177   3.354   7.696 -2.3034  1.2885  1.2252
 4333SOL    HW224636   0.201   3.261   7.802  0.2405 -0.7172 -1.5746
 4334SOL     OW24637   3.147   3.129   9.149  0.2993 -0.4398 -0.1663
 4334SOL    HW124638   3.197   3.055   9.116  1.9526  1.1093 -1.1547
 4334SOL    HW224639   3.215   3.177   9.196 -0.0141  0.4953 -0.6760
 4335SOL     OW24640   3.788   4.290   3.919 -0.6373  0.0957  0.3666
 4335SOL    HW124641   3.786   4.344   3.840  0.1095  2.8084  2.1927
 4335SOL    HW224642   3.797   4.200   3.888 -2.1646  0.1737 -0.2887
 4336SOL     OW24643   2.808   2.389   2.335 -0.0304 -0.2418  0.3872
 4336SOL    HW124644   2.737   2.443   2.300  1.2063  0.8712 -0.4342
 4336SOL    HW224645   2.856   2.464   2.371 -0.6597 -1.0812  2.9706
 4337SOL     OW24646   3.389   4.661  12.811  0.0216  0.3364 -0.1041
 4337SOL    HW124647   3.315   4.695  12.761 -0.3985 -0.5034 -0.0562
 4337SOL    HW224648   3.393   4.569  12.786  0.6157  0.5859 -0.9102
 4338SOL     OW24649   3.175   2.048   3.707  0.3787  0.0414 -0.5085
 4338SOL    HW124650   3.271   2.049   3.711  0.3344  0.7119  0.5677
 4338SOL    HW224651   3.164   2.021   3.616 -1.1966 -0.9211 -0.0343
 4339SOL     OW24652   0.839   0.249   8.810  0.0386  0.0413  0.2079
 4339SOL    HW124653   0.885   0.174   8.847 -0.3734 -1.2405 -1.8590
 4339SOL    HW224654   0.748   0.223   8.819  0.0799 -0.2902 -0.3079
 4340SOL     OW24655   0.312   1.744   6.330  0.5207  0.0879  0.0518
 4340SOL    HW124656   0.397   1.784   6.310 -0.0586  1.5438  0.4482
 4340SOL    HW224657   0.315   1.756   6.425 -1.9891  1.7658 -0.0844
 4341SOL     OW24658   0.382   3.304   8.656  0.0654 -0.0001 -0.4920
 4341SOL    HW124659   0.466   3.343   8.633 -1.0455  2.0881 -1.0218
 4341SOL    HW224660   0.404   3.211   8.644  3.0564  0.7888 -1.2209
 4342SOL     OW24661   3.096   4.005   4.113 -0.2243 -0.3966 -0.2491
 4342SOL    HW124662   3.065   4.081   4.065 -1.9679 -0.3606  0.9005
 4342SOL    HW224663   3.012   3.958   4.106  0.4110 -1.0477 -3.3957
 4343SOL     OW24664   1.042   2.408  15.166  0.4290  0.6614  0.0479
 4343SOL    HW124665   1.091   2.385  15.087 -0.3521  1.9689 -0.8327
 4343SOL    HW224666   1.039   2.503  15.150  4.5128  0.5681 -1.1675
 4344SOL     OW24667   4.354   4.401   3.048 -0.0124 -0.0906  0.2965
 4344SOL    HW124668   4.366   4.313   3.014  2.3843  0.1972  0.3838
 4344SOL    HW224669   4.372   4.385   3.141 -0.9375  0.8461  0.6416
 4345SOL     OW24670   2.872   3.601   0.581  0.1299 -0.0429  0.1765
 4345SOL    HW124671   2.785   3.635   0.601  0.1189  0.4784 -0.7480
 4345SOL    HW224672   2.926   3.634   0.653 -0.0283 -1.7411  1.0823
 4346SOL     OW24673   0.273   4.444  16.229 -0.1067 -0.3916 -0.0389
 4346SOL    HW124674   0.211   4.483  16.291  0.9424  1.0011  0.1353
 4346SOL    HW224675   0.299   4.525  16.185 -1.9940 -1.9806 -4.0963
 4347SOL     OW24676   0.940   1.140   6.668  0.1770  0.3615 -0.0015
 4347SOL    HW124677   0.881   1.179   6.604 -1.2254 -3.2611 -0.9298
 4347SOL    HW224678   0.898   1.170   6.748  0.8392 -0.4641  0.6578
 4348SOL     OW24679   3.535   0.393   6.523  0.4994 -0.2927  0.0534
 4348SOL    HW124680   3.598   0.421   6.590 -0.2123  0.5598  0.3767
 4348SOL    HW224681   3.469   0.462   6.535  1.9877  1.4386 -1.6199
 4349SOL     OW24682   3.505   4.330  10.502 -0.5041 -0.0058 -0.1407
 4349SOL    HW124683   3.467   4.361  10.420 -0.0607  1.4472  0.2199
 4349SOL    HW224684   3.577   4.392  10.509 -0.6773  0.1938 -0.1495
 4350SOL     OW24685   4.212   2.250   1.832 -0.0408 -0.1271  0.3699
 4350SOL    HW124686   4.216   2.345   1.822  0.9272 -0.3761 -1.6250
 4350SOL    HW224687   4.244   2.254   1.923 -0.0633  0.5290  0.3484
 4351SOL     OW24688   1.238   0.955   7.492 -0.4022 -0.4701 -0.1088
 4351SOL    HW124689   1.210   0.900   7.419 -0.4033  0.5125 -0.8572
 4351SOL    HW224690   1.220   1.047   7.473 -0.8961 -0.5385  0.0399
 4352SOL     OW24691   0.992   2.117   5.671  0.0257 -0.2719 -0.5261
 4352SOL    HW124692   1.032   2.030   5.673 -1.8744 -1.1903 -2.1270
 4352SOL    HW224693   1.064   2.175   5.647 -1.9386  2.7329  0.8780
 4353SOL     OW24694   1.601   0.464  10.225 -0.1320  0.4305 -0.8909
 4353SOL    HW124695   1.520   0.436  10.181 -1.1198  0.5037  0.8678
 4353SOL    HW224696   1.664   0.453  10.154  0.9093 -1.6305  0.3306
 4354SOL     OW24697   2.465   2.882   5.376 -0.1252 -0.0464  0.7634
 4354SOL    HW124698   2.376   2.851   5.359 -0.5619  1.6183 -0.0052
 4354SOL    HW224699   2.447   2.975   5.362  3.0003  0.2197 -1.3521
 4355SOL     OW24700   2.103   4.298   5.286  0.1452 -0.1079 -0.2681
 4355SOL    HW124701   2.186   4.284   5.239  0.5594  1.7493 -0.1160
 4355SOL    HW224702   2.129   4.290   5.378  0.2181  0.6324 -0.2211
 4356SOL     OW24703   3.786   0.671   3.264 -0.0232  0.0053 -0.7399
 4356SOL    HW124704   3.825   0.749   3.226 -0.8049  0.2274 -1.0689
 4356SOL    HW224705   3.694   0.684   3.241  0.1944  0.4555 -1.3494
 4357SOL     OW24706   3.818   0.356   5.444  0.3254  0.0655 -0.3272
 4357SOL    HW124707   3.786   0.268   5.463 -1.6579  1.4055  2.5884
 4357SOL    HW224708   3.908   0.335   5.417 -0.1382 -2.8848  0.4140
 4358SOL     OW24709   3.319   2.805   0.545 -0.0122 -0.8721  0.1486
 4358SOL    HW124710   3.256   2.772   0.481 -2.1684 -0.9217  2.2685
 4358SOL    HW224711   3.386   2.739   0.559  0.1003 -0.9738 -0.8774
 4359SOL     OW24712   3.614   1.825   7.909 -0.8194  0.1325 -0.3157
 4359SOL    HW124713   3.699   1.821   7.865 -0.9092 -0.2065 -0.4519
 4359SOL    HW224714   3.573   1.898   7.863  1.8986  0.8788 -1.5703
 4360SOL     OW24715   1.066   1.427   8.009 -0.8155  0.2769 -0.1830
 4360SOL    HW124716   1.080   1.464   8.097  1.5126 -0.6635 -0.1579
 4360SOL    HW224717   0.987   1.374   8.012 -0.6921 -0.0010 -1.9186
 4361SOL     OW24718   3.718   1.228   8.203 -0.0562 -0.4061 -0.0575
 4361SOL    HW124719   3.736   1.271   8.287 -0.8947  0.5069 -0.3410
 4361SOL    HW224720   3.632   1.188   8.220  0.6890 -2.4528 -1.0754
 4362SOL     OW24721   4.110   4.601  10.175 -0.1628 -0.1557 -0.3432
 4362SOL    HW124722   4.204   4.614  10.185  0.2680 -1.6906 -2.3924
 4362SOL    HW224723   4.091   4.543  10.249 -3.7829  0.4141 -0.8459
 4363SOL     OW24724   1.278   2.586   2.335 -0.2278 -0.0288 -0.0883
 4363SOL    HW124725   1.186   2.605   2.317 -0.1288  1.2322  0.7485
 4363SOL    HW224726   1.285   2.492   2.322  1.9345 -0.2690  2.7014
 4364SOL     OW24727   0.654   3.420   7.123  0.1807 -0.1724  0.4641
 4364SOL    HW124728   0.618   3.439   7.036  3.2852 -2.7920 -1.3950
 4364SOL    HW224729   0.718   3.353   7.102  1.5985  1.3827 -0.1597
 4365SOL     OW24730   3.906   1.452  12.503 -0.1355 -0.0138  0.4441
 4365SOL    HW124731   3.877   1.462  12.412  0.6575  1.5730  0.3729
 4365SOL    HW224732   3.923   1.358  12.495  0.4564  0.0507  0.9932
 4366SOL     OW24733   1.627   3.705   0.244  0.0556  0.2773 -0.0817
 4366SOL    HW124734   1.579   3.626   0.268 -0.8459  1.1420  0.9452
 4366SOL    HW224735   1.554   3.752   0.205 -1.3804 -0.7787  1.3605
 4367SOL     OW24736   3.345   0.361   9.536  1.0051 -0.2809 -0.2747
 4367SOL    HW124737   3.391   0.334   9.616 -0.2328  0.3208  0.6367
 4367SOL    HW224738   3.281   0.419   9.577  0.3677 -0.4427 -1.0525
 4368SOL     OW24739   4.355   2.047  11.219 -0.1515  0.6170  0.0839
 4368SOL    HW124740   4.269   2.011  11.200 -0.8764  3.2287 -1.5106
 4368SOL    HW224741   4.401   2.017  11.140 -0.0631  0.4167  0.2092
 4369SOL     OW24742   2.741   1.697   5.873  0.5024 -0.6464  0.6652
 4369SOL    HW124743   2.815   1.674   5.817 -0.3436  1.8047 -1.4651
 4369SOL    HW224744   2.779   1.772   5.921  1.7946  0.1571 -1.6048
 4370SOL     OW24745   3.188   2.474   4.057 -0.0224 -0.1112  0.2048
 4370SOL    HW124746   3.218   2.554   4.012 -1.7072  0.1067 -0.5204
 4370SOL    HW224747   3.223   2.406   3.999  2.5253 -1.1627  3.0122
 4371SOL     OW24748   3.013   3.305   5.371 -0.4052  0.3812 -0.1806
 4371SOL    HW124749   3.063   3.266   5.299  1.7752  1.4093  0.8002
 4371SOL    HW224750   3.003   3.393   5.335  0.6909  1.6656  2.6481
 4372SOL     OW24751   2.718   3.256   7.946  0.2379  0.1282 -0.6125
 4372SOL    HW124752   2.715   3.223   8.036 -1.4112  1.7757 -0.0590
 4372SOL    HW224753   2.758   3.341   7.966 -1.0390  0.9169 -1.3844
 4373SOL     OW24754   2.154   1.551  13.146  0.6552 -0.1416 -0.1672
 4373SOL    HW124755   2.140   1.509  13.231 -0.9438  0.6155 -0.0617
 4373SOL    HW224756   2.113   1.633  13.171 -0.0728 -0.6161  0.1980
 4374SOL     OW24757   0.202   1.200  14.316 -0.2187 -0.3105  0.6039
 4374SOL    HW124758   0.237   1.111  14.307  0.7537 -0.0152  1.4547
 4374SOL    HW224759   0.280   1.251  14.297  0.2500 -0.3943  2.3002
 4375SOL     OW24760   2.384   4.590   3.289 -0.3309  0.0093  0.3195
 4375SOL    HW124761   2.341   4.589   3.204 -0.4242  1.9652  0.3367
 4375SOL    HW224762   2.416   4.500   3.288  2.2316  0.9791 -2.6202
 4376SOL     OW24763   1.676   0.908   5.716 -0.0622  0.1644  0.2424
 4376SOL    HW124764   1.706   0.818   5.732  2.1063  0.5229 -1.8518
 4376SOL    HW224765   1.674   0.915   5.621  1.8586 -2.0991  0.0267
 4377SOL     OW24766   3.186   1.165   7.294  0.2955  0.4436 -0.1315
 4377SOL    HW124767   3.182   1.256   7.322  0.9058  0.0678  1.1624
 4377SOL    HW224768   3.093   1.140   7.289  0.2166  0.5455  0.8694
 4378SOL     OW24769   3.699   2.217  13.049  0.0377  0.2144 -0.0303
 4378SOL    HW124770   3.722   2.142  12.993  1.1136 -0.5308  1.4264
 4378SOL    HW224771   3.762   2.200  13.118 -0.1753  0.7781  0.3010
 4379SOL     OW24772   1.043   0.912   5.688 -0.4150  0.2153 -0.0397
 4379SOL    HW124773   1.052   0.819   5.667 -0.6017  0.1824  0.0361
 4379SOL    HW224774   1.068   0.954   5.605 -0.0011  0.4803  0.2177
 4380SOL     OW24775   2.928   2.740   4.596 -0.0063  0.3354  0.0934
 4380SOL    HW124776   2.944   2.770   4.686  0.5258  2.7205 -0.7895
 4380SOL    HW224777   3.021   2.739   4.576 -0.3202  0.0836 -1.3511
 4381SOL     OW24778   3.987   0.142   4.798  0.5236 -0.6107  0.5090
 4381SOL    HW124779   3.924   0.102   4.737  2.1198  1.3107 -2.4220
 4381SOL    HW224780   4.042   0.188   4.734  1.2970 -3.0799 -0.6028
 4382SOL     OW24781   0.187   1.016   9.460 -0.0582 -0.4895 -0.4820
 4382SOL    HW124782   0.193   1.089   9.398  0.3803 -0.1543 -0.0465
 4382SOL    HW224783   0.259   0.958   9.436  1.1106  1.7734 -2.3772
 4383SOL     OW24784   2.528   2.010   2.468 -0.3908 -0.0782 -0.1866
 4383SOL    HW124785   2.508   2.091   2.420 -0.4979  0.5654  0.9248
 4383SOL    HW224786   2.447   1.961   2.479 -2.3883  3.7482  2.1768
 4384SOL     OW24787   4.352   0.060  14.520  0.1302 -0.2316 -0.0235
 4384SOL    HW124788   4.435   0.107  14.508 -1.0874  2.1150  0.9939
 4384SOL    HW224789   4.397   4.715  14.546  1.1389  0.9085  1.7665
 4385SOL     OW24790   2.335   4.218   5.770  0.2032  0.6089  0.1756
 4385SOL    HW124791   2.371   4.149   5.826 -3.0744 -0.7078  0.6591
 4385SOL    HW224792   2.331   4.290   5.832  0.7327 -0.5586  1.5519
 4386SOL     OW24793   2.518   4.477   0.795 -0.2056  0.1590  0.0012
 4386SOL    HW124794   2.545   4.484   0.704 -1.2014 -1.1514 -0.3792
 4386SOL    HW224795   2.523   4.572   0.807 -1.1319  0.3480 -1.1278
 4387SOL     OW24796   3.884   3.264   2.641 -0.1450  0.3598 -0.5452
 4387SOL    HW124797   3.791   3.288   2.640 -0.1187  0.4593 -0.5796
 4387SOL    HW224798   3.916   3.311   2.718 -2.0703 -1.6555  1.4917
 4388SOL     OW24799   3.490   3.133   3.841 -0.5347  0.0409 -0.1061
 4388SOL    HW124800   3.562   3.186   3.876  0.7073 -0.9996 -1.1139
 4388SOL    HW224801   3.432   3.133   3.917 -0.2279  1.6938  0.1291
 4389SOL     OW24802   4.363   2.174   4.853 -0.0230 -0.0233  0.4451
 4389SOL    HW124803   4.324   2.253   4.815  0.0978 -0.7656 -1.2285
 4389SOL    HW224804   4.325   2.173   4.940 -0.6484  1.1277  0.1915
 4390SOL     OW24805   1.510   1.807   2.420 -0.2360  0.4370  0.3584
 4390SOL    HW124806   1.474   1.753   2.350 -0.1178 -1.2625  1.6096
 4390SOL    HW224807   1.430   1.850   2.452 -1.6159  0.1533 -2.6800
 4391SOL     OW24808   3.391   4.174   2.705  0.0046 -0.3314  0.1004
 4391SOL    HW124809   3.392   4.093   2.756 -0.4904 -0.6516 -0.3996
 4391SOL    HW224810   3.472   4.166   2.654 -0.6106  1.7335 -1.2119
 4392SOL     OW24811   0.774   3.469  10.494  0.3505  0.1212 -0.2113
 4392SOL    HW124812   0.846   3.405  10.493  0.9153  0.7511  0.4554
 4392SOL    HW224813   0.764   3.469  10.589  0.4988 -0.8791 -0.1976
 4393SOL     OW24814   1.222   3.018   6.728  0.2279  0.0955 -0.2400
 4393SOL    HW124815   1.302   2.998   6.680  0.6296  1.3551 -0.0762
 4393SOL    HW224816   1.233   2.949   6.794  0.0835 -0.3282 -0.6570
 4394SOL     OW24817   3.779   3.564   4.205  0.0950 -0.1158 -0.4811
 4394SOL    HW124818   3.771   3.544   4.298  0.1351  1.0709 -0.2317
 4394SOL    HW224819   3.792   3.658   4.198  1.9662 -0.2226  1.5457
 4395SOL     OW24820   2.189   2.964   1.158  0.6712 -0.3819 -1.1310
 4395SOL    HW124821   2.206   3.054   1.130  0.2703  0.0562  0.0229
 4395SOL    HW224822   2.259   2.958   1.223  0.0933 -4.0584 -0.8269
 4396SOL     OW24823   1.770   0.043   5.884 -0.1807  0.3975  0.0352
 4396SOL    HW124824   1.710   0.034   5.957 -1.7292 -1.1849 -1.4493
 4396SOL    HW224825   1.854   0.008   5.912 -0.5902 -2.2581 -2.0034
 4397SOL     OW24826   4.192   0.761  16.008 -0.4946 -0.2477 -0.5005
 4397SOL    HW124827   4.177   0.749  15.914  1.6442  0.9880 -1.0116
 4397SOL    HW224828   4.110   0.809  16.022 -1.8016 -3.5720  3.1418
 4398SOL     OW24829   2.170   3.586  12.375  0.3015  0.0586  0.0047
 4398SOL    HW124830   2.087   3.633  12.377  1.1151  1.5316 -1.2624
 4398SOL    HW224831   2.163   3.534  12.294 -0.6556 -1.8945  1.3464
 4399SOL     OW24832   1.837   1.757   8.124 -0.0104  0.0542 -0.6230
 4399SOL    HW124833   1.920   1.724   8.159  0.3345 -0.2627 -1.7483
 4399SOL    HW224834   1.812   1.803   8.205 -0.3013  0.4893 -0.9597
 4400SOL     OW24835   3.337   4.117   7.497  0.1230  0.0712 -0.5730
 4400SOL    HW124836   3.371   4.207   7.498  1.7651 -0.5537 -0.0717
 4400SOL    HW224837   3.415   4.065   7.476  2.2207  2.2679  1.6358
 4401SOL     OW24838   0.539   2.616   6.251 -0.6558 -0.1627  0.2456
 4401SOL    HW124839   0.496   2.550   6.305 -2.2354 -0.6843 -1.6331
 4401SOL    HW224840   0.574   2.663   6.326 -0.3295 -1.3258  0.8101
 4402SOL     OW24841   1.290   4.078   4.877 -0.1738  0.0781  0.6071
 4402SOL    HW124842   1.293   4.117   4.790  2.4667  0.1044  0.6938
 4402SOL    HW224843   1.234   4.147   4.913  1.2670  1.8616 -0.5910
 4403SOL     OW24844   3.185   3.749  13.664 -0.4206  0.3443  0.5384
 4403SOL    HW124845   3.253   3.737  13.729 -1.1339 -0.8937  1.0643
 4403SOL    HW224846   3.196   3.843  13.650  1.1980  0.1149  0.2965
 4404SOL     OW24847   3.132   4.330  15.176  0.2917  0.6734 -0.3401
 4404SOL    HW124848   3.218   4.300  15.146  0.1091 -1.5765  1.3998
 4404SOL    HW224849   3.093   4.244  15.165  1.7808 -0.0101 -0.3411
 4405SOL     OW24850   4.650   3.003  11.088 -0.1901 -0.2378 -0.1894
 4405SOL    HW124851   4.636   2.911  11.067 -1.5045 -0.2141  0.5756
 4405SOL    HW224852   4.713   2.988  11.158 -0.8678 -2.3519 -0.0209
 4406SOL     OW24853   1.809   0.746   7.506  0.0514  0.5765 -0.2678
 4406SOL    HW124854   1.855   0.672   7.468 -0.7006  0.1369 -0.3151
 4406SOL    HW224855   1.783   0.701   7.586  3.2506 -0.5780  0.1152
 4407SOL     OW24856   2.689   1.318  14.836 -0.3400  0.1322 -1.0463
 4407SOL    HW124857   2.679   1.362  14.752 -0.7224  0.1402 -0.9974
 4407SOL    HW224858   2.661   1.229  14.814 -2.6869  0.8421 -1.0000
 4408SOL     OW24859   0.497   3.150   7.828 -0.0958 -0.6214  0.6508
 4408SOL    HW124860   0.479   3.067   7.782 -0.2798 -1.6920  2.6804
 4408SOL    HW224861   0.468   3.219   7.768  1.5669 -0.2894  0.2304
 4409SOL     OW24862   1.498   1.121   7.506  0.2813  0.1783 -0.1928
 4409SOL    HW124863   1.582   1.078   7.491 -0.9705 -2.1993 -0.3256
 4409SOL    HW224864   1.441   1.048   7.527  0.4744  0.5534  1.6319
 4410SOL     OW24865   0.313   0.948  17.492 -0.1755  0.2783 -0.6333
 4410SOL    HW124866   0.350   0.965  17.405 -0.1771  0.8757 -0.5155
 4410SOL    HW224867   0.287   0.856  17.485  0.4294  0.0295  0.4278
 4411SOL     OW24868   3.486   2.337  13.226  0.3669 -0.1258 -0.4175
 4411SOL    HW124869   3.513   2.290  13.305  0.0253  0.0410 -0.2052
 4411SOL    HW224870   3.557   2.301  13.172  0.1446 -1.6354  0.2986
 4412SOL     OW24871   3.981   3.345   2.908 -0.2492 -0.0368  0.0504
 4412SOL    HW124872   4.072   3.322   2.928 -0.5680 -1.5999 -0.3359
 4412SOL    HW224873   3.964   3.413   2.973  1.7318 -0.1527  0.6818
 4413SOL     OW24874   1.204   3.532   1.739  0.3624 -0.2999  0.6801
 4413SOL    HW124875   1.183   3.441   1.761  0.9243 -0.2501  1.4289
 4413SOL    HW224876   1.278   3.512   1.682 -2.0205 -2.9011 -1.4309
 4414SOL     OW24877   4.266   0.956   2.856 -0.1074  0.2546 -0.4303
 4414SOL    HW124878   4.310   0.975   2.939 -1.5747 -3.0396  1.0931
 4414SOL    HW224879   4.335   0.975   2.792 -1.1354 -0.0953 -1.6493
 4415SOL     OW24880   1.165   3.948  14.814  0.3195 -0.2021  0.2117
 4415SOL    HW124881   1.229   3.932  14.883  0.0097  0.3339  0.6224
 4415SOL    HW224882   1.202   3.909  14.735  1.0616  0.1107  0.4128
 4416SOL     OW24883   3.765   1.997  11.082 -0.4719  0.1298 -0.1556
 4416SOL    HW124884   3.694   1.980  11.020 -0.6218 -0.2734  0.1296
 4416SOL    HW224885   3.766   2.092  11.075  2.0353  0.1622  0.4698
 4417SOL     OW24886   4.068   1.700   4.909  0.3479 -0.2331 -0.2137
 4417SOL    HW124887   4.122   1.621   4.914 -0.5878 -0.9090 -0.7940
 4417SOL    HW224888   4.035   1.703   4.999  1.3428 -3.0407  0.2471
 4418SOL     OW24889   2.766   1.372   8.722 -0.2532  0.0136 -0.1563
 4418SOL    HW124890   2.750   1.466   8.730 -1.6436 -0.1137 -1.2762
 4418SOL    HW224891   2.680   1.348   8.687  0.4520 -0.2442 -1.6952
 4419SOL     OW24892   0.567   3.228  10.143 -0.6079 -0.6581  0.5236
 4419SOL    HW124893   0.611   3.207  10.061 -2.3673 -0.9019 -0.3646
 4419SOL    HW224894   0.626   3.289  10.187 -1.4818  0.5415  0.0412
 4420SOL     OW24895   2.130   2.160   4.974 -0.0023  0.7075  0.2587
 4420SOL    HW124896   2.123   2.124   4.886 -1.9330  1.6716  0.0198
 4420SOL    HW224897   2.215   2.125   4.998  0.1795 -0.1765 -1.6635
 4421SOL     OW24898   0.635   1.137  12.988  0.2029  0.5189 -0.1789
 4421SOL    HW124899   0.652   1.081  12.913 -0.5995 -3.2769  2.4696
 4421SOL    HW224900   0.723   1.131  13.026  0.8262  2.5899 -1.2865
 4422SOL     OW24901   3.401   0.202   7.043 -0.1899 -0.2855  0.2424
 4422SOL    HW124902   3.467   0.133   7.044  0.1637  0.0793  1.3775
 4422SOL    HW224903   3.333   0.156   6.994 -1.4125  1.7739 -0.0117
 4423SOL     OW24904   1.167   0.280   7.304 -0.0010 -0.1225 -1.0856
 4423SOL    HW124905   1.081   0.273   7.261 -0.0665  1.3287 -1.1939
 4423SOL    HW224906   1.225   0.229   7.247 -0.5477 -0.0223 -1.7402
 4424SOL     OW24907   3.105   4.234   6.755 -0.3117 -0.5532 -0.2466
 4424SOL    HW124908   3.123   4.220   6.849 -2.5091  0.4182  0.3057
 4424SOL    HW224909   3.186   4.195   6.722  0.4151 -1.3915  2.4386
 4425SOL     OW24910   1.309   3.780   5.159  0.5893 -0.2637  0.0904
 4425SOL    HW124911   1.338   3.696   5.195  1.9125 -0.1478 -0.7010
 4425SOL    HW224912   1.292   3.757   5.067 -4.3567 -0.8842  1.1480
 4426SOL     OW24913   4.632   3.935   4.923  0.0800  0.6129  0.1674
 4426SOL    HW124914   4.658   3.849   4.888  2.4039  1.9723 -1.4720
 4426SOL    HW224915   4.710   3.982   4.951  0.7030  0.2704 -0.9822
 4427SOL     OW24916   2.146   4.332   4.536 -0.2665 -0.0727 -0.3382
 4427SOL    HW124917   2.160   4.416   4.493  0.8456  0.8010  1.7401
 4427SOL    HW224918   2.069   4.362   4.585 -0.4805 -3.4216  1.4124
 4428SOL     OW24919   1.666   0.830   3.592 -0.3515  0.0761 -0.5217
 4428SOL    HW124920   1.595   0.765   3.590  0.3889 -0.7538  0.1920
 4428SOL    HW224921   1.706   0.822   3.506  0.7724 -0.1275  0.0302
 4429SOL     OW24922   3.903   0.932   8.276  0.1082 -0.2177  0.0499
 4429SOL    HW124923   3.946   0.996   8.332 -0.0631  1.5175 -1.8068
 4429SOL    HW224924   3.927   0.971   8.192 -0.6689  0.7100  0.2529
 4430SOL     OW24925   2.498   2.860   8.871  0.5526 -0.4365  0.4357
 4430SOL    HW124926   2.547   2.928   8.917 -1.6977  1.7745 -0.4405
 4430SOL    HW224927   2.417   2.853   8.921  0.9254 -0.6875  0.9977
 4431SOL     OW24928   3.690   0.899  11.794 -0.6405 -0.3715 -0.6562
 4431SOL    HW124929   3.643   0.946  11.863 -0.2151 -2.2306  0.9159
 4431SOL    HW224930   3.621   0.873  11.734  0.3356  0.9904 -2.3617
 4432SOL     OW24931   2.770   3.863   9.347 -0.1192 -0.0245  0.9040
 4432SOL    HW124932   2.782   3.933   9.412 -2.5397  2.1772 -1.0354
 4432SOL    HW224933   2.839   3.803   9.375  0.7404  0.9423  0.8536
 4433SOL     OW24934   3.367   0.644   2.940  0.1859 -0.0833 -0.3799
 4433SOL    HW124935   3.327   0.728   2.918  0.3839 -0.0653 -0.6711
 4433SOL    HW224936   3.410   0.624   2.857  0.2085 -1.9698  0.0695
 4434SOL     OW24937   2.849   0.885   3.848  0.3276  0.1659 -0.2867
 4434SOL    HW124938   2.939   0.901   3.877  0.6847 -2.4756  0.0560
 4434SOL    HW224939   2.808   0.969   3.869 -0.5747 -0.2401 -0.4272
 4435SOL     OW24940   0.778   2.921   7.039  0.1450 -0.2082 -0.3881
 4435SOL    HW124941   0.748   3.005   7.074 -1.5971 -1.0150  0.0794
 4435SOL    HW224942   0.865   2.909   7.075  0.1814  0.6377 -0.1846
 4436SOL     OW24943   0.945   2.233   4.399 -0.4661 -0.1509 -0.0471
 4436SOL    HW124944   1.030   2.217   4.358 -1.2380  0.7495 -2.0381
 4436SOL    HW224945   0.924   2.147   4.434  0.3615 -0.4832 -0.3703
 4437SOL     OW24946   2.043   2.452   9.393  0.3637 -1.0110  0.2448
 4437SOL    HW124947   1.982   2.486   9.459  0.2495  0.4760 -0.6410
 4437SOL    HW224948   2.007   2.497   9.317  1.5755 -0.5993 -0.0875
 4438SOL     OW24949   2.604   4.637   3.470  0.0504  0.1546 -0.3476
 4438SOL    HW124950   2.565   4.567   3.522 -0.1693 -0.0300 -0.7609
 4438SOL    HW224951   2.541   4.648   3.399  0.1238 -0.5061 -0.5147
 4439SOL     OW24952   1.040   1.753   1.137 -0.0519  0.3477 -1.0189
 4439SOL    HW124953   1.013   1.732   1.048 -1.1199 -0.8720 -0.4045
 4439SOL    HW224954   1.006   1.676   1.181 -0.2124  1.1861  0.3455
 4440SOL     OW24955   0.985   3.167   3.323 -0.1637 -0.0896 -0.1452
 4440SOL    HW124956   0.987   3.210   3.408  1.2687  0.3397 -0.3898
 4440SOL    HW224957   0.940   3.086   3.346  1.7072 -0.6377  1.5393
 4441SOL     OW24958   0.689   4.592   2.683 -0.2639  0.1886 -0.0457
 4441SOL    HW124959   0.621   4.526   2.668 -0.2019  0.3723 -1.1506
 4441SOL    HW224960   0.705   4.565   2.773  0.4492  0.6735 -0.0348
 4442SOL     OW24961   2.982   2.364   4.901  0.0120 -0.5513 -0.2092
 4442SOL    HW124962   2.954   2.407   4.982  1.0649  0.9164 -0.6252
 4442SOL    HW224963   2.982   2.434   4.836  2.8996  0.7942  1.2243
 4443SOL     OW24964   3.222   4.610  14.033  0.5809  0.2693 -0.5009
 4443SOL    HW124965   3.295   4.584  14.089  0.1170  1.8532  0.8536
 4443SOL    HW224966   3.160   4.542  14.059 -0.7518  1.0715 -1.5468
 4444SOL     OW24967   0.415   3.520   4.544  0.1770  0.2295  0.5529
 4444SOL    HW124968   0.465   3.598   4.522  1.8099 -0.5098  1.6671
 4444SOL    HW224969   0.477   3.489   4.609  0.6484 -0.8576 -0.4035
 4445SOL     OW24970   3.224   3.435   6.331  0.1266 -0.5722 -0.6292
 4445SOL    HW124971   3.155   3.408   6.271 -0.1034  0.0376 -0.6403
 4445SOL    HW224972   3.204   3.528   6.339 -1.0566 -0.7728 -1.2780
 4446SOL     OW24973   3.900   0.474   8.155  0.2601 -0.0815  0.3767
 4446SOL    HW124974   3.874   0.517   8.073  1.0374  1.3518  0.8914
 4446SOL    HW224975   3.853   0.526   8.220  1.2565 -0.3307  1.3008
 4447SOL     OW24976   2.861   0.455   9.564 -0.0828  0.4755 -0.6600
 4447SOL    HW124977   2.920   0.425   9.495 -0.4233 -0.4633 -0.5374
 4447SOL    HW224978   2.879   0.549   9.562 -0.2738  0.4898 -1.8280
 4448SOL     OW24979   3.901   3.536   3.667  0.6961 -0.0575 -0.4541
 4448SOL    HW124980   3.911   3.451   3.711 -0.4940 -0.3932 -0.8378
 4448SOL    HW224981   3.877   3.599   3.735  1.4076 -0.4970  0.2060
 4449SOL     OW24982   2.826   0.576  12.955 -0.1142  0.2707 -0.4179
 4449SOL    HW124983   2.790   0.622  12.879  0.3884 -1.6070 -1.8024
 4449SOL    HW224984   2.861   0.494  12.920 -1.6756 -0.0305 -1.3009
 4450SOL     OW24985   0.430   2.870   4.799  0.0345 -0.2684 -0.0367
 4450SOL    HW124986   0.436   2.963   4.777 -1.3027  0.0853  1.1280
 4450SOL    HW224987   0.456   2.875   4.891 -1.0996 -3.2870  0.4479
 4451SOL     OW24988   1.443   0.407   7.999 -0.0550 -0.2623 -0.1909
 4451SOL    HW124989   1.351   0.414   8.022  0.4984 -0.6323  2.1599
 4451SOL    HW224990   1.446   0.495   7.962 -1.2412 -0.3821 -0.5689
 4452SOL     OW24991   2.703   1.332  10.157 -0.0957  0.5164  0.1196
 4452SOL    HW124992   2.651   1.394  10.208  0.0367 -1.1156  2.2322
 4452SOL    HW224993   2.638   1.287  10.103  0.7092 -1.4763  0.7937
 4453SOL     OW24994   2.836   4.545  11.187  0.0600 -0.1906  0.7508
 4453SOL    HW124995   2.829   4.486  11.262  3.2382  1.2302  2.1376
 4453SOL    HW224996   2.846   4.471  11.127 -1.3973 -0.1808  0.4802
 4454SOL     OW24997   2.066   1.909   9.940  0.6375 -0.5083 -0.0218
 4454SOL    HW124998   2.125   1.869   9.875  0.6022  0.4989 -0.6710
 4454SOL    HW224999   2.005   1.836   9.941 -1.8616  1.5941 -0.1407
 4455SOL     OW25000   1.945   0.916  10.234  0.0196  0.0880  0.0646
 4455SOL    HW125001   2.022   0.870  10.200  2.0057  2.5021  1.3090
 4455SOL    HW225002   1.900   0.838  10.267  1.1951  0.4920  2.5681
 4456SOL     OW25003   0.340   1.368   8.653  0.4867  0.4306 -0.2200
 4456SOL    HW125004   0.252   1.354   8.689  1.2890 -0.9895  1.2143
 4456SOL    HW225005   0.389   1.400   8.729 -0.2015 -0.0394  0.4240
 4457SOL     OW25006   4.439   4.033   8.308 -0.3826  0.4517  0.2706
 4457SOL    HW125007   4.429   4.057   8.216  0.9567  1.4784  0.3976
 4457SOL    HW225008   4.358   4.069   8.345  0.6189  1.9136  1.0586
 4458SOL     OW25009   3.412   3.328  16.538 -0.1182 -0.0451 -0.0391
 4458SOL    HW125010   3.403   3.244  16.492 -0.3993  0.0349 -0.1325
 4458SOL    HW225011   3.472   3.361  16.471  2.7382 -0.8514  2.1675
 4459SOL     OW25012   0.121   3.673  12.204 -0.0919  0.1349 -0.4231
 4459SOL    HW125013   0.172   3.739  12.251 -1.9652  0.4542  1.1433
 4459SOL    HW225014   0.068   3.734  12.153  0.8264 -0.8433 -2.5662
 4460SOL     OW25015   0.941   1.497   6.347 -0.4750 -0.1626 -0.0232
 4460SOL    HW125016   0.958   1.533   6.261  0.7041  1.0341  0.7213
 4460SOL    HW225017   0.906   1.573   6.394 -0.2759 -0.4142  0.5402
 4461SOL     OW25018   3.389   4.348   7.006  0.6399 -0.0078  0.5189
 4461SOL    HW125019   3.474   4.305   7.009 -0.2494 -1.8709 -0.5883
 4461SOL    HW225020   3.332   4.272   6.994  0.0118  0.5912 -0.2738
 4462SOL     OW25021   2.124   2.076   4.672  0.1879  0.5789 -1.1145
 4462SOL    HW125022   2.177   2.057   4.594  3.2498  0.4169  1.0262
 4462SOL    HW225023   2.071   1.997   4.678  1.7853 -0.1007  3.4930
 4463SOL     OW25024   0.998   4.076   1.903 -0.3470 -0.8815 -0.0446
 4463SOL    HW125025   1.000   4.061   1.997  2.1299  1.2207  0.2491
 4463SOL    HW225026   0.906   4.082   1.878 -1.1614 -0.4170  3.1255
 4464SOL     OW25027   4.096   0.417   4.696  0.6863  0.4357 -0.3151
 4464SOL    HW125028   4.125   0.506   4.676 -1.1778  1.6510  2.3313
 4464SOL    HW225029   4.122   0.382   4.611 -0.0396 -0.0593 -0.3378
 4465SOL     OW25030   1.641   1.159   0.848 -0.5474 -0.0896  0.1698
 4465SOL    HW125031   1.694   1.204   0.915 -0.8497  0.0532  0.3119
 4465SOL    HW225032   1.552   1.186   0.869 -0.8733  0.2678 -1.7541
 4466SOL     OW25033   3.804   2.035   7.190 -0.4395 -0.3521  0.0876
 4466SOL    HW125034   3.756   1.985   7.255  2.2715  0.5414  2.7864
 4466SOL    HW225035   3.847   1.969   7.136 -2.9838 -1.3360 -0.6919
 4467SOL     OW25036   0.726   1.376   8.271 -0.7984  0.1538 -0.2009
 4467SOL    HW125037   0.652   1.413   8.320  0.5164  0.0105  1.8932
 4467SOL    HW225038   0.758   1.305   8.326 -0.9450 -0.2734 -0.6718
 4468SOL     OW25039   2.659   2.790   9.426  0.9688 -0.2308 -0.1091
 4468SOL    HW125040   2.604   2.755   9.496 -0.2710  1.0241 -0.4639
 4468SOL    HW225041   2.642   2.717   9.367 -0.8478 -0.4808  0.7259
 4469SOL     OW25042   3.208   3.553   6.060  0.1087  0.2303 -0.2008
 4469SOL    HW125043   3.270   3.556   5.988 -2.3516 -1.5515 -2.3884
 4469SOL    HW225044   3.203   3.642   6.094 -0.6298 -0.3077  1.1095
 4470SOL     OW25045   3.981   2.603   3.746 -0.0959 -0.0282 -0.1531
 4470SOL    HW125046   4.054   2.599   3.684 -0.5531 -1.2058 -0.6143
 4470SOL    HW225047   3.959   2.514   3.774 -0.0157  0.5509  1.7547
 4471SOL     OW25048   2.831   1.396   1.894 -0.0243 -0.0957 -0.0127
 4471SOL    HW125049   2.799   1.307   1.911  0.6427 -0.0385  1.5751
 4471SOL    HW225050   2.915   1.372   1.855  0.4207  0.6543  0.4832
 4472SOL     OW25051   3.691   3.555   3.250 -0.9463 -0.2737  0.5640
 4472SOL    HW125052   3.677   3.563   3.156 -0.1485  1.3736  0.5909
 4472SOL    HW225053   3.779   3.518   3.252 -1.4000 -1.3487  0.6111
 4473SOL     OW25054   1.245   2.279   8.718  0.7031  0.4967 -0.1713
 4473SOL    HW125055   1.340   2.268   8.723  0.7848  0.0211 -3.0588
 4473SOL    HW225056   1.219   2.189   8.740  1.0536  0.2616 -0.6994
 4474SOL     OW25057   2.765   3.122   9.632  0.3420  0.7253 -1.0517
 4474SOL    HW125058   2.817   3.155   9.559  3.2002  1.9346  1.5292
 4474SOL    HW225059   2.815   3.151   9.708 -2.4355  1.2937  0.5637
 4475SOL     OW25060   2.648   4.106  16.336  0.4812  0.3025 -0.9048
 4475SOL    HW125061   2.585   4.039  16.362  2.1052 -0.7224  0.4093
 4475SOL    HW225062   2.674   4.064  16.254 -1.0803 -1.7058 -0.3761
 4476SOL     OW25063   1.218   0.187   2.690 -0.1857 -0.5853 -0.0044
 4476SOL    HW125064   1.202   0.155   2.778  2.3209  0.1716  0.7236
 4476SOL    HW225065   1.188   0.109   2.643  0.0857 -1.3766  1.1536
 4477SOL     OW25066   1.435   1.528   1.197  0.2388  0.4209 -0.2247
 4477SOL    HW125067   1.490   1.581   1.255  0.6200 -0.4139  0.1743
 4477SOL    HW225068   1.404   1.587   1.128 -2.5174 -0.7730 -0.0031
 4478SOL     OW25069   1.593   3.430   5.904  0.9319 -0.2512  0.2550
 4478SOL    HW125070   1.653   3.410   5.976  0.6727  2.2985  1.1700
 4478SOL    HW225071   1.651   3.458   5.833 -0.2303  0.7852 -0.2817
 4479SOL     OW25072   0.574   0.500   8.157 -0.2997 -0.0914  0.2575
 4479SOL    HW125073   0.587   0.525   8.249 -1.3398  0.8991  0.1399
 4479SOL    HW225074   0.653   0.451   8.134 -0.2967 -0.6599  1.4509
 4480SOL     OW25075   3.630   2.363   7.858  0.0031 -0.2850  0.5979
 4480SOL    HW125076   3.662   2.385   7.770  1.5172 -1.2246  0.9187
 4480SOL    HW225077   3.675   2.428   7.912  1.0494  0.4101 -1.0867
 4481SOL     OW25078   3.615   0.083   4.357  0.1576 -0.3378  0.2348
 4481SOL    HW125079   3.571   0.162   4.389 -0.5217 -1.2490  1.5611
 4481SOL    HW225080   3.595   0.087   4.263 -3.9983  2.2119  1.2381
 4482SOL     OW25081   4.594   4.692   2.555  0.7503 -0.6588 -0.6475
 4482SOL    HW125082   4.556   0.026   2.503  2.4959  0.5814 -0.2242
 4482SOL    HW225083   4.584   4.731   2.642  0.8748 -0.1937 -0.8439
 4483SOL     OW25084   0.197   1.575  15.247  0.1371  0.3044  0.5064
 4483SOL    HW125085   0.139   1.542  15.178  1.5675 -0.0345 -0.5344
 4483SOL    HW225086   0.138   1.593  15.321 -0.4400  1.3366 -0.2084
 4484SOL     OW25087   2.829   1.535   6.179  0.0398  0.2059 -0.0498
 4484SOL    HW125088   2.869   1.470   6.122 -3.5408  0.6559 -3.0810
 4484SOL    HW225089   2.911   1.554   6.224  1.1619 -2.0793 -1.0990
 4485SOL     OW25090   2.421   3.751   6.064 -0.1693 -0.0913  0.5955
 4485SOL    HW125091   2.350   3.688   6.052  0.6738 -1.1989  1.4934
 4485SOL    HW225092   2.418   3.780   6.155  0.8896 -0.5187  0.7654
 4486SOL     OW25093   3.411   0.131  11.329  0.5401 -0.8712 -0.5727
 4486SOL    HW125094   3.370   0.179  11.257  0.6389 -0.3848 -0.2986
 4486SOL    HW225095   3.344   0.063  11.338 -0.5615  0.5746  1.9388
 4487SOL     OW25096   3.525   1.536  14.924  0.6521  0.3156  0.4704
 4487SOL    HW125097   3.604   1.548  14.978 -0.4275  1.1016  1.8704
 4487SOL    HW225098   3.459   1.595  14.961  1.5198  1.2807  0.4864
 4488SOL     OW25099   1.544   3.971  16.515  0.4220 -0.5412  0.1657
 4488SOL    HW125100   1.525   3.928  16.432  2.7329 -1.6096  0.1835
 4488SOL    HW225101   1.631   4.008  16.502 -0.3405  1.2676  0.2933
 4489SOL     OW25102   0.404   0.004   0.883 -0.6044  0.5452  0.4312
 4489SOL    HW125103   0.352   0.074   0.842  0.9515  1.5144  0.1360
 4489SOL    HW225104   0.421   0.046   0.967  0.9678 -0.0371  0.3993
 4490SOL     OW25105   2.205   2.024   4.201 -0.1698 -0.1260  0.3522
 4490SOL    HW125106   2.223   2.049   4.110 -0.4704  3.5394  1.3164
 4490SOL    HW225107   2.147   1.952   4.175 -0.9551  0.1567  1.3436
 4491SOL     OW25108   1.493   4.387  13.335  0.4269  0.3061  0.2317
 4491SOL    HW125109   1.517   4.370  13.244  1.4195  1.3323  0.3066
 4491SOL    HW225110   1.400   4.408  13.321 -0.0152 -2.2771 -0.8551
 4492SOL     OW25111   1.791   4.519   8.796  0.2739 -0.3496 -1.0727
 4492SOL    HW125112   1.767   4.466   8.720 -1.3409 -0.1764 -0.6872
 4492SOL    HW225113   1.843   4.585   8.751 -1.6694  0.5719 -1.9710
 4493SOL     OW25114   0.094   1.585   3.338 -0.1434  0.0804 -0.1127
 4493SOL    HW125115   0.075   1.511   3.395  0.0601  1.0945  1.2936
 4493SOL    HW225116   0.174   1.606   3.387 -0.5619  0.0772  0.5761
 4494SOL     OW25117   2.943   4.091   7.451  0.4692 -0.0419 -0.4123
 4494SOL    HW125118   2.865   4.044   7.480  1.2323 -0.0385  1.6796
 4494SOL    HW225119   2.901   4.176   7.437  0.9391 -0.0880 -2.0596
 4495SOL     OW25120   4.487   0.163   8.567 -0.2693  0.3990  0.2660
 4495SOL    HW125121   4.581   0.173   8.556 -0.3006  0.7617  0.3276
 4495SOL    HW225122   4.452   0.189   8.482 -0.2735 -1.0526 -0.1707
 4496SOL     OW25123   0.855   2.003  14.379 -0.6465 -0.2210  0.6563
 4496SOL    HW125124   0.856   1.945  14.455  0.7850  0.8244  1.4222
 4496SOL    HW225125   0.875   2.089  14.417  1.2223 -0.9163  1.2517
 4497SOL     OW25126   1.269   3.606   3.895 -0.2686  0.5174 -0.1455
 4497SOL    HW125127   1.309   3.692   3.902  0.6830  0.1260 -0.7866
 4497SOL    HW225128   1.321   3.565   3.826 -2.7596  0.9457 -2.3027
 4498SOL     OW25129   1.272   2.342  11.250  0.0285 -0.0626  0.0919
 4498SOL    HW125130   1.319   2.415  11.290 -1.6541  1.5049 -0.7777
 4498SOL    HW225131   1.288   2.276  11.318 -0.1307 -0.3992 -0.1998
 4499SOL     OW25132   3.977   0.003  13.360 -0.0992 -0.1787 -0.2822
 4499SOL    HW125133   3.900   4.684  13.376  1.0021 -1.5070  0.4972
 4499SOL    HW225134   3.943   0.086  13.325  1.9802  0.6851 -0.2494
 4500SOL     OW25135   0.847   2.966  14.741  0.2448  0.2248 -0.1406
 4500SOL    HW125136   0.766   3.015  14.757  0.0872  0.1142 -0.6156
 4500SOL    HW225137   0.821   2.904  14.673 -0.5149  1.3784 -0.9150
 4501SOL     OW25138   1.782   3.699  17.129 -0.1163  0.3194  0.1290
 4501SOL    HW125139   1.700   3.687  17.081  0.9574  0.6560 -1.7977
 4501SOL    HW225140   1.827   3.761  17.072  0.2386 -0.1330 -0.0803
 4502SOL     OW25141   3.652   3.083  11.505 -0.0682 -0.0559  0.5562
 4502SOL    HW125142   3.669   2.993  11.531 -0.7848 -0.1271  0.7730
 4502SOL    HW225143   3.699   3.102  11.424 -1.2805  1.0292  0.0966
 4503SOL     OW25144   2.083   4.400  15.923  0.0926  0.5635 -0.1088
 4503SOL    HW125145   2.129   4.442  15.995 -0.4992 -1.2251  1.2998
 4503SOL    HW225146   2.079   4.308  15.950  1.4292  0.6148  0.2581
 4504SOL     OW25147   3.400   3.588   5.864 -0.4599  0.8694  0.1847
 4504SOL    HW125148   3.466   3.519   5.856 -2.0801 -0.6634 -0.0383
 4504SOL    HW225149   3.460   3.659   5.886  0.2577  0.0505  0.8481
 4505SOL     OW25150   2.899   1.463   0.973 -0.5349 -0.2438 -0.2332
 4505SOL    HW125151   2.820   1.479   0.922 -0.5231  1.6652  0.3438
 4505SOL    HW225152   2.871   1.396   1.035 -1.2740  0.4395  0.1596
 4506SOL     OW25153   3.841   0.201  14.210 -0.1505 -0.0604  0.3529
 4506SOL    HW125154   3.838   0.278  14.267  1.5411  1.1124 -1.1637
 4506SOL    HW225155   3.879   0.235  14.129 -0.3594 -0.4361  0.0986
 4507SOL     OW25156   2.656   1.498   0.793 -0.3046 -0.3310 -0.0957
 4507SOL    HW125157   2.653   1.486   0.698 -0.4559  1.0820 -0.2624
 4507SOL    HW225158   2.564   1.520   0.804  0.2027  0.6979  2.1080
 4508SOL     OW25159   1.746   1.107   3.415  0.1382  0.3689  0.3410
 4508SOL    HW125160   1.787   1.092   3.500 -1.8161  1.5736  1.4789
 4508SOL    HW225161   1.766   1.027   3.365  3.0274  1.7432 -0.6906
 4509SOL     OW25162   0.219   0.121   2.386 -0.2386  0.2149  0.2103
 4509SOL    HW125163   0.162   0.183   2.430  0.6908  1.1369  0.1244
 4509SOL    HW225164   0.211   0.142   2.293  1.3136 -0.3887 -0.0621
 4510SOL     OW25165   0.030   0.822  16.460  0.0930  0.1680 -0.4146
 4510SOL    HW125166   4.734   0.906  16.429 -1.0948 -0.4514 -0.8598
 4510SOL    HW225167   0.026   0.845  16.553  2.9986 -1.3375  0.0704
 4511SOL     OW25168   3.754   1.911   5.306 -0.3874 -0.2422  0.2676
 4511SOL    HW125169   3.729   1.985   5.360 -0.6095  0.8809 -1.3661
 4511SOL    HW225170   3.846   1.912   5.334 -1.0486  0.2654  2.4029
 4512SOL     OW25171   4.076   2.988  11.468 -1.1649 -0.0067  0.1961
 4512SOL    HW125172   4.027   2.923  11.418  1.1062 -1.1897 -0.5356
 4512SOL    HW225173   4.045   2.960  11.554 -0.3137  2.6038  1.3509
 4513SOL     OW25174   4.186   3.130  10.903 -0.6837 -0.3171 -0.5391
 4513SOL    HW125175   4.113   3.161  10.850 -1.2498  1.6688  1.3939
 4513SOL    HW225176   4.141   3.136  10.988  2.5805 -0.1194  1.1723
 4514SOL     OW25177   1.622   4.624   6.413 -0.5312  0.9343  0.0148
 4514SOL    HW125178   1.682   4.630   6.339 -0.7887 -0.4126 -0.3086
 4514SOL    HW225179   1.544   4.664   6.375 -0.3822  0.0713 -1.1974
 4515SOL     OW25180   1.177   1.505   0.852 -0.0628 -0.3061 -0.0155
 4515SOL    HW125181   1.199   1.445   0.923  2.8087 -1.2527 -1.6809
 4515SOL    HW225182   1.148   1.581   0.901 -0.5749 -0.7086  0.3025
 4516SOL     OW25183   1.979   3.682   5.622  0.4997  0.2473  0.0384
 4516SOL    HW125184   2.000   3.769   5.657  0.2642  0.0627  0.6403
 4516SOL    HW225185   2.066   3.646   5.607  0.6939  1.4783 -1.8023
 4517SOL     OW25186   3.597   3.691   7.703 -1.1894  0.2787 -0.3017
 4517SOL    HW125187   3.584   3.776   7.745 -2.1164 -1.9250  3.8502
 4517SOL    HW225188   3.670   3.718   7.648 -1.1315 -0.3905 -0.5583
 4518SOL     OW25189   2.578   3.641   8.153  0.5303  0.3472  0.1215
 4518SOL    HW125190   2.567   3.717   8.210 -1.5241 -1.0174  1.5563
 4518SOL    HW225191   2.665   3.608   8.177  1.1360  3.0375  1.6323
 4519SOL     OW25192   0.708   0.532   4.583  0.1010  0.6761 -0.1523
 4519SOL    HW125193   0.718   0.604   4.646 -0.7142 -0.0025  0.7396
 4519SOL    HW225194   0.673   0.573   4.504 -2.4905  1.4722  1.4424
 4520SOL     OW25195   4.671   0.132   8.075  0.2706  0.3002 -0.1710
 4520SOL    HW125196   4.671   0.204   8.011  2.4443 -1.0847 -1.7174
 4520SOL    HW225197   4.594   0.144   8.131 -0.1273 -1.4233 -0.3420
 4521SOL     OW25198   2.559   1.021  10.300 -0.0449  0.7081 -0.3715
 4521SOL    HW125199   2.522   1.110  10.296 -0.3276  0.6451  0.8365
 4521SOL    HW225200   2.565   1.020  10.396 -0.6602 -1.4721 -0.3662
 4522SOL     OW25201   2.081   4.204  10.307 -0.4206 -0.1970  0.5559
 4522SOL    HW125202   2.092   4.147  10.383 -1.0801  0.8565  1.4250
 4522SOL    HW225203   2.083   4.286  10.355 -0.6648  1.1103 -1.6713
 4523SOL     OW25204   3.671   1.821   9.373  0.7161  0.7233  0.2340
 4523SOL    HW125205   3.711   1.771   9.444 -2.4497 -0.2887  1.2836
 4523SOL    HW225206   3.752   1.856   9.336  1.1625  0.3945  0.9024
 4524SOL     OW25207   2.848   2.598   8.627  0.6169 -0.2515 -0.1192
 4524SOL    HW125208   2.768   2.604   8.679  0.3591  2.0321 -0.7703
 4524SOL    HW225209   2.820   2.641   8.545  0.8151  1.2275  0.5977
 4525SOL     OW25210   3.621   0.632  14.308 -0.1006  0.3493  0.5673
 4525SOL    HW125211   3.558   0.635  14.236  1.0866 -0.4451 -0.4921
 4525SOL    HW225212   3.600   0.713  14.355  1.0400  1.0334 -0.1141
 4526SOL     OW25213   0.204   2.069   8.567 -0.3322  0.3397  0.1197
 4526SOL    HW125214   0.251   2.145   8.602  1.7783 -0.2807 -1.3605
 4526SOL    HW225215   0.205   2.080   8.472  0.3939  0.2199  0.1123
 4527SOL     OW25216   3.734   0.483  13.299  0.8017  0.3402 -0.0798
 4527SOL    HW125217   3.703   0.573  13.294 -0.4989  0.0226  2.5751
 4527SOL    HW225218   3.765   0.478  13.389 -1.5290  1.9192  0.7975
 4528SOL     OW25219   3.354   2.720   7.879 -0.0795 -0.1923 -0.8503
 4528SOL    HW125220   3.307   2.800   7.901 -0.2328 -1.1422  2.3284
 4528SOL    HW225221   3.343   2.666   7.957  0.1058  2.2190  0.8444
 4529SOL     OW25222   2.687   4.020   7.586 -0.1315 -0.2740  0.3903
 4529SOL    HW125223   2.591   4.012   7.579 -0.3283  1.9407  0.7394
 4529SOL    HW225224   2.688   4.099   7.640  0.0576 -0.5832  0.8401
 4530SOL     OW25225   4.386   3.805   5.495 -0.0437  0.6705  0.5330
 4530SOL    HW125226   4.344   3.889   5.515  0.8629  1.7909 -2.3639
 4530SOL    HW225227   4.444   3.833   5.424  1.6835  0.5287  1.8763
 4531SOL     OW25228   3.682   3.096   8.080  0.0109  0.2643 -0.6246
 4531SOL    HW125229   3.692   3.126   8.171 -0.0929 -0.0942 -0.4927
 4531SOL    HW225230   3.592   3.118   8.057 -0.8955  0.1974  2.7268
 4532SOL     OW25231   1.962   4.306   9.582 -0.3049  0.3710  0.2233
 4532SOL    HW125232   2.049   4.333   9.553 -0.5089  0.2162 -0.5282
 4532SOL    HW225233   1.909   4.376   9.545 -0.9812 -0.1205  0.2624
 4533SOL     OW25234   1.563   1.317   9.436  0.3999  0.0899 -0.4260
 4533SOL    HW125235   1.511   1.333   9.358 -0.0906 -0.3674 -0.1887
 4533SOL    HW225236   1.511   1.258   9.491 -0.7650  0.4306 -1.1550
 4534SOL     OW25237   4.211   4.580  10.957  0.5268 -0.0216 -0.5946
 4534SOL    HW125238   4.229   4.489  10.937 -0.6377 -0.5495  0.7912
 4534SOL    HW225239   4.152   4.607  10.886  0.3822  2.2870  0.3832
 4535SOL     OW25240   1.311   2.342   7.740  0.1380 -0.1831  0.3916
 4535SOL    HW125241   1.317   2.247   7.747  0.8561 -0.2468 -1.1209
 4535SOL    HW225242   1.268   2.364   7.823 -2.6099  1.0195 -1.3258
 4536SOL     OW25243   2.712   1.300   8.268 -0.1176 -0.2550  0.2652
 4536SOL    HW125244   2.665   1.383   8.272 -0.9524 -0.6820 -0.5434
 4536SOL    HW225245   2.803   1.325   8.254 -0.7045  0.5738 -2.1181
 4537SOL     OW25246   3.650   3.274   6.046 -0.0095 -0.1711  0.3220
 4537SOL    HW125247   3.627   3.319   5.964 -0.5860 -6.1234 -2.7297
 4537SOL    HW225248   3.729   3.231   6.015  0.2285 -0.5534  1.4599
 4538SOL     OW25249   0.243   3.177  11.694 -0.2080 -0.3853  0.4575
 4538SOL    HW125250   0.152   3.166  11.721 -0.6379  2.1682 -0.0082
 4538SOL    HW225251   0.260   3.111  11.627  0.3005  0.8270 -0.5918
 4539SOL     OW25252   1.985   1.136   8.381 -0.3870 -0.0310 -0.2042
 4539SOL    HW125253   2.052   1.102   8.321  0.2143 -0.3720  0.6588
 4539SOL    HW225254   1.973   1.220   8.337 -0.3830  0.0772  0.0035
 4540SOL     OW25255   0.380   3.911  13.830  0.0526 -0.2482  0.2858
 4540SOL    HW125256   0.422   3.978  13.885  0.3299 -1.2563  1.3050
 4540SOL    HW225257   0.398   3.837  13.888  0.8778 -0.7525 -0.6321
 4541SOL     OW25258   3.736   4.555   4.836 -0.0657  0.1728  0.0432
 4541SOL    HW125259   3.754   4.632   4.890  0.1627 -0.6949  1.2028
 4541SOL    HW225260   3.820   4.535   4.795 -0.2166 -0.5264  0.0870
 4542SOL     OW25261   3.276   3.664   5.625  0.1472  0.0912  0.4168
 4542SOL    HW125262   3.303   3.640   5.714 -0.0421 -1.5461  0.0353
 4542SOL    HW225263   3.279   3.578   5.582  2.9325  0.7058 -0.6189
 4543SOL     OW25264   0.514   2.592  10.820  0.3771  0.0412 -0.0236
 4543SOL    HW125265   0.453   2.518  10.827 -0.8059  1.2084  1.9290
 4543SOL    HW225266   0.461   2.665  10.789 -0.5730 -1.1598 -1.2319
 4544SOL     OW25267   0.055   4.427   3.504 -0.0719 -0.1056 -0.2443
 4544SOL    HW125268   0.025   4.514   3.528 -1.3567 -0.5095 -0.3971
 4544SOL    HW225269   0.106   4.405   3.582  0.4179  0.9806 -0.2596
 4545SOL     OW25270   0.342   3.674   6.619  0.5113  0.3469 -0.6098
 4545SOL    HW125271   0.406   3.606   6.597  0.0516 -0.9470  2.0923
 4545SOL    HW225272   0.382   3.684   6.705 -2.4342 -1.6879  0.9779
 4546SOL     OW25273   2.344   3.150   0.476 -0.5131  0.2493  0.2321
 4546SOL    HW125274   2.369   3.159   0.384 -2.2764  3.0418  0.0133
 4546SOL    HW225275   2.249   3.152   0.465 -0.2593  1.9829 -1.6042
 4547SOL     OW25276   0.808   3.546   0.695 -0.4661  0.1253  0.2512
 4547SOL    HW125277   0.805   3.632   0.737  0.2575  1.3030 -2.1229
 4547SOL    HW225278   0.749   3.501   0.756 -2.3231  0.9279 -0.9317
 4548SOL     OW25279   1.500   3.711  16.990  0.7492 -0.7890 -0.1368
 4548SOL    HW125280   1.410   3.700  17.019  0.1245  0.5423 -1.5959
 4548SOL    HW225281   1.526   3.785  17.045 -2.0070 -0.9469  1.3621
 4549SOL     OW25282   4.304   1.616   6.334 -0.9522 -0.3265 -0.1891
 4549SOL    HW125283   4.382   1.562   6.324 -0.0433  1.1306 -0.8578
 4549SOL    HW225284   4.299   1.624   6.429 -0.4239  1.6038 -0.3269
 4550SOL     OW25285   1.877   3.932   8.059 -0.4185 -0.5249  0.1662
 4550SOL    HW125286   1.854   3.920   8.151  0.0405 -1.9045  0.1067
 4550SOL    HW225287   1.797   3.972   8.024  0.6890  0.3307 -1.4255
 4551SOL     OW25288   1.702   4.520   8.518  0.6104 -0.0903 -0.1167
 4551SOL    HW125289   1.688   4.611   8.491 -1.9724 -0.5726 -0.4221
 4551SOL    HW225290   1.616   4.482   8.503  1.5272 -2.4593  0.6659
 4552SOL     OW25291   4.405   2.525   4.355 -0.0254  0.5079 -0.2893
 4552SOL    HW125292   4.478   2.463   4.357 -1.4647 -1.2644 -1.6889
 4552SOL    HW225293   4.399   2.533   4.260 -0.5382  0.3116 -0.2713
 4553SOL     OW25294   4.060   0.487   6.575  0.3547 -0.0451  0.1367
 4553SOL    HW125295   3.986   0.533   6.616 -0.7047 -1.2016 -0.5243
 4553SOL    HW225296   4.106   0.466   6.657  0.4981 -0.2690 -0.0026
 4554SOL     OW25297   2.332   2.841   6.648  0.1170 -0.0281 -0.4944
 4554SOL    HW125298   2.417   2.883   6.663  0.8337 -1.5298 -0.3402
 4554SOL    HW225299   2.291   2.880   6.725 -1.9643  0.2208 -1.7466
 4555SOL     OW25300   2.767   1.189   3.363  0.1429 -0.3551  0.3514
 4555SOL    HW125301   2.826   1.261   3.342 -0.0244 -0.3939 -0.2432
 4555SOL    HW225302   2.823   1.122   3.402 -0.1210 -1.2106 -0.7292
 4556SOL     OW25303   3.410   1.470   6.279 -0.0594 -0.4581 -0.4625
 4556SOL    HW125304   3.447   1.558   6.274 -1.0592 -0.1042 -1.5337
 4556SOL    HW225305   3.434   1.430   6.195 -0.0393 -1.6796  0.1113
 4557SOL     OW25306   1.187   3.860   3.072  0.6737 -0.8151 -0.1253
 4557SOL    HW125307   1.202   3.791   3.007  2.4248  1.1145 -1.7405
 4557SOL    HW225308   1.146   3.801   3.136 -0.7375  0.3187  0.0047
 4558SOL     OW25309   1.929   1.544   5.117  0.7247 -0.0050  0.0710
 4558SOL    HW125310   2.021   1.521   5.122  0.9291  0.5075 -1.4502
 4558SOL    HW225311   1.933   1.630   5.075 -0.4062 -1.1888 -2.4380
 4559SOL     OW25312   2.747   0.640   1.956 -0.1758  0.0572  0.2133
 4559SOL    HW125313   2.784   0.571   2.011  0.0278  0.7295  0.9196
 4559SOL    HW225314   2.776   0.608   1.870 -0.1438 -0.5581  0.4603
 4560SOL     OW25315   0.439   4.094   4.181  0.1504  0.8420 -0.4084
 4560SOL    HW125316   0.355   4.050   4.166  0.9531 -0.3593 -1.3585
 4560SOL    HW225317   0.412   4.139   4.261 -0.1145  1.5375 -0.8870
 4561SOL     OW25318   4.539   1.804   8.059 -0.3713  0.2009 -0.8978
 4561SOL    HW125319   4.545   1.739   7.988 -0.0935  1.3020 -1.8837
 4561SOL    HW225320   4.496   1.874   8.011  1.8627  1.6046 -0.8527
 4562SOL     OW25321   0.691   1.450   9.368  0.3094 -0.2070 -0.5135
 4562SOL    HW125322   0.761   1.501   9.327  1.9191 -0.6113  1.7400
 4562SOL    HW225323   0.740   1.368   9.375 -0.6999 -0.5275  2.7790
 4563SOL     OW25324   4.391   3.387  16.411  0.9940 -0.3583  0.0464
 4563SOL    HW125325   4.415   3.363  16.501 -0.6949  0.8334  0.8026
 4563SOL    HW225326   4.408   3.481  16.416  0.2809 -0.1404 -1.5265
 4564SOL     OW25327   4.094   2.731   6.688 -0.3064 -0.5578  0.1809
 4564SOL    HW125328   4.180   2.737   6.728 -0.4923 -1.2849  0.6988
 4564SOL    HW225329   4.059   2.795   6.750 -0.5090 -1.0340  0.5604
 4565SOL     OW25330   1.132   3.296   1.803 -0.0441 -0.1497 -0.4867
 4565SOL    HW125331   1.042   3.263   1.800  0.3292 -1.1734 -0.2632
 4565SOL    HW225332   1.190   3.224   1.778  0.0041  0.3115 -1.7030
 4566SOL     OW25333   2.195   4.000  17.689  0.1498  0.2299 -0.2130
 4566SOL    HW125334   2.195   3.961  17.602  0.9495 -2.6354  1.0846
 4566SOL    HW225335   2.108   4.039  17.683 -0.5259 -0.8664  2.4213
 4567SOL     OW25336   4.594   2.462   5.443  0.0395  0.0364 -0.3847
 4567SOL    HW125337   4.537   2.449   5.367  0.3918 -1.0398 -0.4678
 4567SOL    HW225338   4.552   2.539   5.481 -2.5713 -3.1757  3.1342
 4568SOL     OW25339   2.993   1.212   6.117  0.0806  0.9374  0.0830
 4568SOL    HW125340   3.067   1.242   6.170 -0.7058  1.2457  0.9998
 4568SOL    HW225341   2.919   1.184   6.171  0.1029 -1.6612 -1.1906
 4569SOL     OW25342   0.649   1.579   5.470  0.4379 -1.0661 -0.2599
 4569SOL    HW125343   0.632   1.659   5.521  0.8981 -1.3654  0.3636
 4569SOL    HW225344   0.580   1.520   5.500  0.5347 -0.8162  0.4658
 4570SOL     OW25345   0.398   2.414   7.860 -0.5810  0.6778 -0.5460
 4570SOL    HW125346   0.483   2.376   7.834  0.0847  1.8245 -0.0198
 4570SOL    HW225347   0.325   2.359   7.832 -1.7758  1.0729  1.8648
 4571SOL     OW25348   1.338   1.783   1.884 -0.1750 -0.1303  0.2234
 4571SOL    HW125349   1.261   1.787   1.940  0.2604 -1.1376  0.8933
 4571SOL    HW225350   1.291   1.767   1.802  0.3948  2.5102 -0.6090
 4572SOL     OW25351   0.835   4.304   7.115 -0.2758  0.3597  0.8694
 4572SOL    HW125352   0.779   4.229   7.134  1.7095 -0.6966  2.4829
 4572SOL    HW225353   0.829   4.309   7.019  2.3134  1.0842  0.7319
 4573SOL     OW25354   0.568   3.056  15.211  0.4534 -0.1120  0.2055
 4573SOL    HW125355   0.510   3.084  15.140 -1.9073 -2.2175  1.2980
 4573SOL    HW225356   0.650   3.095  15.181 -0.3649  2.3632  1.2172
 4574SOL     OW25357   2.001   1.018   4.406 -0.1803 -0.8708  0.7142
 4574SOL    HW125358   1.912   1.018   4.370  0.7882 -1.5580 -1.6896
 4574SOL    HW225359   1.994   1.075   4.482  1.5010  1.4017 -0.8236
 4575SOL     OW25360   3.625   4.278   6.808  0.4718 -0.7882 -0.5616
 4575SOL    HW125361   3.596   4.188   6.820 -1.8926  0.0555  0.2123
 4575SOL    HW225362   3.719   4.266   6.794  0.5248 -2.2020  1.0320
 4576SOL     OW25363   3.415   0.376   9.257  0.3350  0.3292 -0.8429
 4576SOL    HW125364   3.450   0.287   9.256 -1.6204 -0.4055 -3.8842
 4576SOL    HW225365   3.406   0.390   9.351  2.5931  0.2014 -0.6147
 4577SOL     OW25366   3.063   3.977   0.907 -0.1938 -0.0768 -0.4287
 4577SOL    HW125367   2.974   4.006   0.923 -0.8981 -1.9368 -0.9468
 4577SOL    HW225368   3.072   3.913   0.977  2.1687  0.9830  0.2397
 4578SOL     OW25369   2.211   1.191  17.413  0.0886  0.4037 -0.4898
 4578SOL    HW125370   2.194   1.160  17.324  1.6025 -0.1412 -0.5877
 4578SOL    HW225371   2.287   1.248  17.403 -0.8315  1.8856  0.7409
 4579SOL     OW25372   1.085   1.692   3.965  0.5779  0.3053  0.0853
 4579SOL    HW125373   1.178   1.697   3.943  0.2732  0.4547 -1.1677
 4579SOL    HW225374   1.078   1.620   4.027  1.8012  0.0069 -0.1272
 4580SOL     OW25375   0.576   4.293  16.754 -0.0310  0.0919  0.3249
 4580SOL    HW125376   0.551   4.291  16.846  0.0600  0.5286  0.3610
 4580SOL    HW225377   0.530   4.212  16.731 -0.3581  0.2925  0.2713
 4581SOL     OW25378   4.400   3.596   7.175 -0.3216 -0.3425 -0.0172
 4581SOL    HW125379   4.403   3.601   7.270  2.7441 -2.6220  0.0025
 4581SOL    HW225380   4.320   3.642   7.151 -1.0355 -0.6588  1.8220
 4582SOL     OW25381   2.922   3.764   4.463 -0.0844  0.1879  0.3970
 4582SOL    HW125382   3.006   3.758   4.418 -1.4705 -1.3803 -2.0333
 4582SOL    HW225383   2.924   3.695   4.528 -1.0559 -0.3380 -0.1303
 4583SOL     OW25384   0.612   2.620   9.178  0.2349 -0.5810 -0.4232
 4583SOL    HW125385   0.652   2.696   9.135  0.3509 -0.9333 -0.9413
 4583SOL    HW225386   0.686   2.560   9.160  0.6527 -0.3153  0.4034
 4584SOL     OW25387   0.990   3.490   2.759  0.1514 -0.3717 -0.0850
 4584SOL    HW125388   0.955   3.475   2.847 -1.2266  0.6830 -0.4428
 4584SOL    HW225389   1.030   3.576   2.772  0.1912 -0.1596 -1.6228
 4585SOL     OW25390   4.294   3.081   7.757 -0.2259 -0.4796  0.4746
 4585SOL    HW125391   4.217   3.025   7.746 -0.6211 -0.2826  2.3332
 4585SOL    HW225392   4.315   3.069   7.849 -0.6690 -0.0548  0.6330
 4586SOL     OW25393   4.040   2.141   6.288  0.0509 -0.5805 -0.1033
 4586SOL    HW125394   4.025   2.163   6.380 -0.5553 -1.2889 -0.0306
 4586SOL    HW225395   3.969   2.191   6.247  2.1314  1.3935 -1.2891
 4587SOL     OW25396   4.280   4.597   7.170 -0.1875  0.0983  0.2128
 4587SOL    HW125397   4.337   4.534   7.126  3.4602  3.0448  0.7007
 4587SOL    HW225398   4.341   4.671   7.178  0.4911 -0.7451  2.8439
 4588SOL     OW25399   2.181   3.519   4.705 -0.1885 -0.2119 -0.0210
 4588SOL    HW125400   2.178   3.580   4.631  0.3395 -0.4279 -0.2189
 4588SOL    HW225401   2.274   3.501   4.690  0.7546  4.1761  0.3422
 4589SOL     OW25402   3.644   2.981   2.447 -0.1013  0.5315 -0.1532
 4589SOL    HW125403   3.642   2.979   2.543  0.1555 -1.7584 -0.1813
 4589SOL    HW225404   3.553   2.969   2.419 -0.7724  2.2677  1.3095
 4590SOL     OW25405   0.506   3.144   6.285 -0.2260  0.1096  0.4758
 4590SOL    HW125406   0.422   3.106   6.311  0.8352 -2.9825 -0.5730
 4590SOL    HW225407   0.571   3.097   6.337 -0.1768 -0.6957 -0.3116
 4591SOL     OW25408   1.049   1.348  14.418  0.3193 -0.0846  0.0462
 4591SOL    HW125409   1.066   1.398  14.338  0.9378  0.3735  0.4698
 4591SOL    HW225410   0.954   1.353  14.410  0.1607 -1.4215  0.9897
 4592SOL     OW25411   2.297   3.092   5.077 -0.2767 -0.1955  0.0544
 4592SOL    HW125412   2.236   3.164   5.063  0.0072  0.0391  0.0218
 4592SOL    HW225413   2.251   3.043   5.145 -1.5497 -0.2958 -0.8582
 4593SOL     OW25414   4.386   3.166   3.400  0.7710 -0.0130  0.0410
 4593SOL    HW125415   4.296   3.196   3.413  0.6115 -0.9454  1.1633
 4593SOL    HW225416   4.412   3.239   3.345 -0.3857 -0.1078 -0.6268
 4594SOL     OW25417   4.423   0.918   8.681  0.1188  0.5019 -0.2303
 4594SOL    HW125418   4.378   0.911   8.765  0.4001  1.7836  0.0371
 4594SOL    HW225419   4.357   0.930   8.613  0.3753 -1.9796 -0.9146
 4595SOL     OW25420   0.186   2.610  10.801 -0.0597  0.3643 -0.1851
 4595SOL    HW125421   0.220   2.537  10.853 -2.4788  1.3426  2.7554
 4595SOL    HW225422   0.134   2.653  10.869 -0.6517  0.4127 -0.6715
 4596SOL     OW25423   4.461   3.898   5.193  0.0842  0.4340 -0.5395
 4596SOL    HW125424   4.365   3.889   5.188 -0.1114  2.1535  0.1717
 4596SOL    HW225425   4.489   3.835   5.126 -1.5305 -0.5071 -0.3514
 4597SOL     OW25426   0.876   1.333   1.630 -0.3098  0.1036  0.3376
 4597SOL    HW125427   0.863   1.426   1.648 -1.1808 -0.1647  1.0382
 4597SOL    HW225428   0.789   1.296   1.620 -0.5629  0.9004 -0.4056
 4598SOL     OW25429   3.325   1.302  14.809 -0.0364 -0.1905 -0.2898
 4598SOL    HW125430   3.406   1.324  14.854 -0.4344 -1.3611  1.0348
 4598SOL    HW225431   3.272   1.268  14.881 -1.3021  3.1249  0.3567
 4599SOL     OW25432   2.688   2.614   9.238  0.1140 -0.0134 -0.1467
 4599SOL    HW125433   2.662   2.601   9.147  0.0319 -0.3153 -0.0813
 4599SOL    HW225434   2.778   2.636   9.214 -0.1744  1.1345 -0.1671
 4600SOL     OW25435   1.628   3.645   3.166  0.3366  0.2126 -0.2515
 4600SOL    HW125436   1.640   3.653   3.071  2.7269  0.2225  0.0414
 4600SOL    HW225437   1.573   3.721   3.186  2.4809  1.1809  1.8931
 4601SOL     OW25438   4.642   3.586  16.810 -0.0913 -0.0523  0.4896
 4601SOL    HW125439   4.664   3.672  16.845 -0.4376  0.7919 -1.3691
 4601SOL    HW225440   4.555   3.606  16.775  0.4811  1.5937  0.0326
 4602SOL     OW25441   1.484   4.660   8.243  0.1141 -0.0319 -0.2281
 4602SOL    HW125442   1.397   4.676   8.279  0.7064 -0.8300  1.5258
 4602SOL    HW225443   1.530   0.008   8.248  0.1915 -0.0313 -0.9299
 4603SOL     OW25444   2.379   0.895   3.044 -0.0493  0.2732  0.5620
 4603SOL    HW125445   2.445   0.919   2.979  0.5518 -1.9515  0.3609
 4603SOL    HW225446   2.384   0.964   3.110  0.0396 -0.3085  1.1638
 4604SOL     OW25447   2.111   2.913   5.244 -0.0617  0.0775  0.3551
 4604SOL    HW125448   2.090   2.928   5.336  0.8450  0.4615  0.4990
 4604SOL    HW225449   2.050   2.974   5.202 -0.6599 -0.2120  0.7898
 4605SOL     OW25450   2.965   2.669   6.291  0.1899  0.1768  0.4004
 4605SOL    HW125451   3.035   2.609   6.318  1.7982  1.4319 -1.0127
 4605SOL    HW225452   3.002   2.702   6.209  0.1175  1.5123  0.9121
 4606SOL     OW25453   2.267   4.411  11.177  0.0375  0.1481 -0.4361
 4606SOL    HW125454   2.280   4.316  11.175  3.4425  0.6068  0.1499
 4606SOL    HW225455   2.245   4.441  11.265  1.2438  2.2296 -0.8397
 4607SOL     OW25456   2.220   1.960   9.220 -0.7375 -0.0090  0.6159
 4607SOL    HW125457   2.206   1.884   9.277 -1.6513  0.2694  0.7546
 4607SOL    HW225458   2.164   2.026   9.261  2.3078  1.5243  2.2835
 4608SOL     OW25459   1.211   3.726   7.383  0.1072  0.2172 -0.2254
 4608SOL    HW125460   1.265   3.730   7.304 -0.3019  2.2898 -0.4056
 4608SOL    HW225461   1.273   3.684   7.442 -1.8271 -0.6886  1.1641
 4609SOL     OW25462   2.597   0.885   2.887  0.0633 -0.4137  0.5265
 4609SOL    HW125463   2.675   0.869   2.940  0.8549  1.5805 -0.0351
 4609SOL    HW225464   2.605   0.820   2.818  1.4967  0.9754 -0.6159
 4610SOL     OW25465   1.032   4.429   8.684 -0.2716 -0.4851  0.1564
 4610SOL    HW125466   1.106   4.402   8.739 -2.2698 -0.3257  2.8909
 4610SOL    HW225467   0.984   4.347   8.674 -1.4323  0.2969 -0.6773
 4611SOL     OW25468   0.317   3.216   3.081 -1.0494  0.7288  0.4491
 4611SOL    HW125469   0.298   3.254   2.995 -0.8919 -0.3186 -0.0516
 4611SOL    HW225470   0.383   3.275   3.118  0.3873  0.2719 -1.3907
 4612SOL     OW25471   2.389   0.941   4.567 -0.2655 -0.0401 -0.0285
 4612SOL    HW125472   2.359   0.976   4.484  0.3255  1.4841  0.4098
 4612SOL    HW225473   2.480   0.968   4.583 -0.6692  1.1844  0.1299
 4613SOL     OW25474   4.658   0.747   6.478 -0.2036  0.2111 -0.1871
 4613SOL    HW125475   4.621   0.834   6.492 -1.1923 -0.2873  0.2260
 4613SOL    HW225476   4.583   0.689   6.485 -0.6008  0.9244  1.5071
 4614SOL     OW25477   3.459   0.951   2.350 -0.1525  0.2971 -0.2148
 4614SOL    HW125478   3.438   0.865   2.387  0.6017  0.9766  1.7672
 4614SOL    HW225479   3.435   1.010   2.421 -1.9857 -0.5058 -0.1794
 4615SOL     OW25480   0.185   3.194   0.447 -0.6450 -0.4932 -0.4711
 4615SOL    HW125481   0.185   3.244   0.365 -1.0535 -0.3629 -0.3916
 4615SOL    HW225482   0.279   3.194   0.465 -0.6608 -0.1298 -0.3735
 4616SOL     OW25483   3.021   0.972  16.474  0.0522 -0.0673 -0.3246
 4616SOL    HW125484   3.052   1.059  16.499  1.1780 -0.9722  1.4170
 4616SOL    HW225485   3.061   0.919  16.543  1.1864  0.3157 -0.6935
 4617SOL     OW25486   1.892   3.533  12.155 -0.0438  0.0601  0.0039
 4617SOL    HW125487   1.890   3.456  12.212  1.4546 -0.6540 -0.9121
 4617SOL    HW225488   1.895   3.498  12.066 -0.2732 -1.1348  0.4771
 4618SOL     OW25489   1.644   3.285  14.036  0.6253 -0.0036 -0.0045
 4618SOL    HW125490   1.736   3.266  14.052  1.0874  1.2362 -1.1572
 4618SOL    HW225491   1.642   3.314  13.945  2.1790 -1.6585 -0.5535
 4619SOL     OW25492   4.032   3.555   4.425 -0.0511 -0.3881 -0.3485
 4619SOL    HW125493   4.053   3.508   4.345  1.1506 -1.5399  0.6291
 4619SOL    HW225494   3.938   3.540   4.433  0.0545 -0.1223  1.3647
 4620SOL     OW25495   0.389   3.981  14.316 -0.6253  0.6288 -0.0841
 4620SOL    HW125496   0.324   4.049  14.296 -0.1386  0.3448 -2.6893
 4620SOL    HW225497   0.350   3.920  14.252  0.0619  2.0128 -1.8097
 4621SOL     OW25498   4.535   0.662   2.938  0.1017 -0.6341  0.2141
 4621SOL    HW125499   4.631   0.657   2.935  0.2977  4.5073 -1.9284
 4621SOL    HW225500   4.516   0.689   3.028 -1.3797 -1.4457  0.1405
 4622SOL     OW25501   3.885   1.336   8.587 -0.0877 -0.2623 -0.1129
 4622SOL    HW125502   3.978   1.342   8.608 -0.0940  0.4254 -0.3045
 4622SOL    HW225503   3.878   1.331   8.491  1.5256  2.2064 -0.3475
 4623SOL     OW25504   2.000   3.297   5.379 -0.0621  0.4772  0.2315
 4623SOL    HW125505   1.962   3.238   5.314 -1.8524  2.4038 -0.4522
 4623SOL    HW225506   1.998   3.236   5.453 -0.4777 -0.3447 -0.4575
 4624SOL     OW25507   4.389   3.248   2.237 -0.6625  0.1367  0.8410
 4624SOL    HW125508   4.481   3.267   2.253  0.1051  1.0507 -4.4923
 4624SOL    HW225509   4.342   3.281   2.313 -2.0218  0.3460 -0.0817
 4625SOL     OW25510   3.280   4.490   6.185  0.1598  0.0608 -0.4340
 4625SOL    HW125511   3.190   4.517   6.204  0.4874 -0.9740  2.6330
 4625SOL    HW225512   3.287   4.427   6.257  0.0797  0.7593  0.1861
 4626SOL     OW25513   4.154   0.575   7.300  0.1718 -0.3031 -0.2699
 4626SOL    HW125514   4.163   0.594   7.207  1.7068  1.7830  0.3019
 4626SOL    HW225515   4.070   0.616   7.319 -0.5465 -1.6241 -0.5985
 4627SOL     OW25516   4.734   1.076   1.685  0.5062 -0.1918  0.3125
 4627SOL    HW125517   0.074   1.106   1.734  2.0480 -1.1658 -1.5008
 4627SOL    HW225518   4.711   1.143   1.621  0.0785 -0.0134  0.6516
 4628SOL     OW25519   1.374   4.574   5.691 -0.3141 -0.0955  0.1075
 4628SOL    HW125520   1.384   4.559   5.785 -1.0279  0.7952  0.3320
 4628SOL    HW225521   1.358   4.485   5.661  0.7684 -0.2708  0.0659
 4629SOL     OW25522   1.011   0.365   9.862 -0.1927 -0.0685  0.0263
 4629SOL    HW125523   0.926   0.404   9.883 -0.0374 -0.2957  1.0911
 4629SOL    HW225524   1.063   0.430   9.909 -0.2474 -0.6652  0.9142
 4630SOL     OW25525   0.333   1.505   1.928 -0.6130  0.2034  0.4072
 4630SOL    HW125526   0.411   1.455   1.951 -0.1381  1.5445  1.8092
 4630SOL    HW225527   0.335   1.565   2.004  0.3691  0.5320  0.1215
 4631SOL     OW25528   4.347   1.181   7.856 -0.1361  0.2387  0.2275
 4631SOL    HW125529   4.338   1.193   7.951 -0.5364 -0.9240  0.3388
 4631SOL    HW225530   4.345   1.085   7.851 -3.0808  0.3147 -0.3694
 4632SOL     OW25531   1.543   1.360  10.034 -0.5363 -0.4394 -0.2235
 4632SOL    HW125532   1.577   1.287  10.086  1.3274 -0.6273 -1.6910
 4632SOL    HW225533   1.475   1.401  10.087  0.4875 -0.9635  1.4933
 4633SOL     OW25534   3.109   1.961   7.825  0.2283 -0.5647  0.0898
 4633SOL    HW125535   3.155   1.935   7.905 -2.0513  0.3527  1.6999
 4633SOL    HW225536   3.029   1.998   7.864 -0.1440 -1.3014  0.0281
 4634SOL     OW25537   3.003   3.662   6.716 -0.3546  0.3044 -0.4165
 4634SOL    HW125538   3.049   3.590   6.759 -1.5877 -0.9901 -1.2739
 4634SOL    HW225539   2.951   3.613   6.652 -0.0592  0.3975 -0.7228
 4635SOL     OW25540   2.916   4.574   4.478 -1.1824 -0.5570 -0.1269
 4635SOL    HW125541   2.966   4.655   4.467 -2.9743  0.6736  0.8390
 4635SOL    HW225542   2.861   4.607   4.549  0.7868  1.0739  0.6401
 4636SOL     OW25543   2.295   1.341   8.519 -0.0807 -0.0233 -0.8724
 4636SOL    HW125544   2.280   1.324   8.425  1.1755 -0.8679 -0.9180
 4636SOL    HW225545   2.273   1.259   8.563  1.0832 -0.2159 -0.6583
 4637SOL     OW25546   1.421   4.507  12.143  0.1431  0.6841 -0.0233
 4637SOL    HW125547   1.396   4.461  12.063  1.3711 -1.1204  0.6183
 4637SOL    HW225548   1.353   4.574  12.151 -0.7682 -0.3417  0.7359
 4638SOL     OW25549   4.529   0.098  11.804 -0.4666  0.2658 -0.2245
 4638SOL    HW125550   4.604   0.041  11.791 -0.8563 -0.5896  1.2481
 4638SOL    HW225551   4.560   0.188  11.814 -0.2821  0.0778  0.8683
 4639SOL     OW25552   3.522   3.891   3.548  0.1891  0.6666 -0.0563
 4639SOL    HW125553   3.516   3.812   3.493  0.5268  0.7075 -0.1544
 4639SOL    HW225554   3.432   3.886   3.579  0.5698 -1.7162  0.7250
 4640SOL     OW25555   3.710   4.209   9.583 -0.4963 -0.1111 -0.5730
 4640SOL    HW125556   3.797   4.170   9.575  0.0510  1.0734 -0.4124
 4640SOL    HW225557   3.658   4.142   9.628  2.8564 -1.7179  0.8543
 4641SOL     OW25558   1.287   4.191   3.911 -0.5031 -0.5175 -0.0986
 4641SOL    HW125559   1.241   4.130   3.853 -0.0146 -2.0706  1.1216
 4641SOL    HW225560   1.233   4.269   3.920 -0.6075 -0.4967 -0.9239
 4642SOL     OW25561   1.562   2.678   6.435  0.1388 -0.6508 -0.3618
 4642SOL    HW125562   1.614   2.707   6.510 -1.4220  1.9800 -0.2917
 4642SOL    HW225563   1.633   2.664   6.371  0.5739 -0.8212  0.1547
 4643SOL     OW25564   2.628   2.096  14.934 -0.5155 -0.0863 -0.0422
 4643SOL    HW125565   2.674   2.013  14.923 -0.0785  0.2132 -0.4905
 4643SOL    HW225566   2.647   2.130  14.846 -0.0241 -1.3322 -0.4162
 4644SOL     OW25567   3.396   2.288   3.424 -0.2432 -0.1355  0.0271
 4644SOL    HW125568   3.471   2.342   3.399 -0.9161 -0.5708 -2.9044
 4644SOL    HW225569   3.364   2.347   3.493  1.0696  2.9641 -1.9908
 4645SOL     OW25570   3.729   1.924  17.226  0.3556 -0.2657 -0.2486
 4645SOL    HW125571   3.706   2.017  17.226 -1.6701 -0.7647 -3.2917
 4645SOL    HW225572   3.787   1.926  17.302  0.0943  0.7344 -0.0664
 4646SOL     OW25573   2.092   1.735   4.475 -0.0341  0.1643 -0.0589
 4646SOL    HW125574   2.062   1.644   4.479  0.8598 -0.0699  1.2275
 4646SOL    HW225575   2.082   1.769   4.563 -1.8053 -0.7663  0.1060
 4647SOL     OW25576   2.557   4.279   2.214  0.1078  0.8793  0.1497
 4647SOL    HW125577   2.577   4.370   2.235  4.0805  0.2764 -1.0737
 4647SOL    HW225578   2.484   4.270   2.276  0.7775 -1.1933  0.6355
 4648SOL     OW25579   3.904   1.177   6.167  0.3398 -0.1019 -0.4984
 4648SOL    HW125580   3.911   1.097   6.115  0.1175 -0.7259  0.4329
 4648SOL    HW225581   3.897   1.248   6.103 -0.2745 -0.3518 -0.7130
 4649SOL     OW25582   3.864   1.804  16.443  0.1872 -0.1942  0.3511
 4649SOL    HW125583   3.876   1.717  16.482  2.9135 -0.7869 -1.7893
 4649SOL    HW225584   3.796   1.831  16.505  1.8969  1.7204  1.3853
 4650SOL     OW25585   2.552   1.689   7.380 -0.3301 -0.4840 -0.1040
 4650SOL    HW125586   2.488   1.636   7.428 -1.3360  2.3425  1.6716
 4650SOL    HW225587   2.606   1.626   7.333  0.5654  1.5805 -1.8572
 4651SOL     OW25588   2.216   1.767   5.862  0.3797 -0.0163  0.1888
 4651SOL    HW125589   2.175   1.850   5.884  0.1756 -0.4547  1.4782
 4651SOL    HW225590   2.308   1.774   5.890  0.6317  1.4043 -1.0130
 4652SOL     OW25591   2.408   1.137   7.964 -0.1874 -0.4820 -0.6090
 4652SOL    HW125592   2.428   1.225   7.995  1.4051 -0.6255 -1.1884
 4652SOL    HW225593   2.469   1.080   8.012 -1.8750 -1.0336  0.8676
 4653SOL     OW25594   1.990   4.668   0.990 -0.2022  0.3385 -0.1095
 4653SOL    HW125595   2.084   4.661   1.007 -0.1289  1.3072 -0.1342
 4653SOL    HW225596   1.954   4.676   1.079  0.0630 -2.9374  0.2816
 4654SOL     OW25597   0.100   0.014   1.009  0.0106  0.2844 -0.4008
 4654SOL    HW125598   0.145   0.098   1.008  0.0355  0.2790  0.4338
 4654SOL    HW225599   0.020   0.042   0.962 -0.4711 -2.6288 -1.3428
 4655SOL     OW25600   1.254   2.067   7.103  0.2065  0.0189  0.6038
 4655SOL    HW125601   1.177   2.118   7.129  0.5017  1.2493 -0.9543
 4655SOL    HW225602   1.312   2.130   7.061  1.1992 -0.6821  0.9319
 4656SOL     OW25603   3.070   0.480   0.649  0.4668  0.1953  0.0950
 4656SOL    HW125604   3.076   0.413   0.717 -0.0744  0.0321 -0.0184
 4656SOL    HW225605   3.139   0.448   0.592  1.3578 -0.5947  1.6390
 4657SOL     OW25606   0.516   2.268   7.002  0.3513  0.3941  0.0100
 4657SOL    HW125607   0.463   2.240   6.928  0.3923  0.2612  0.0306
 4657SOL    HW225608   0.523   2.182   7.043 -1.6680  1.0024  1.5856
 4658SOL     OW25609   3.112   3.445   8.032 -0.3920 -0.8918  0.1554
 4658SOL    HW125610   3.191   3.496   8.013 -0.9177 -0.8444 -1.9616
 4658SOL    HW225611   3.101   3.395   7.951 -0.6010  1.1452 -1.0921
 4659SOL     OW25612   2.026   0.533   6.515 -0.6423 -0.2966  0.0213
 4659SOL    HW125613   1.951   0.576   6.475  0.2772  2.1555  0.9045
 4659SOL    HW225614   2.094   0.598   6.496  2.0231 -2.8040  0.9122
 4660SOL     OW25615   0.401   0.563   5.692 -0.8620  0.3634 -0.0159
 4660SOL    HW125616   0.375   0.613   5.615 -0.8035 -0.7029 -0.7354
 4660SOL    HW225617   0.352   0.482   5.679 -0.8878  0.6325 -1.5902
 4661SOL     OW25618   1.424   2.029   8.305  1.0433  0.3776 -0.5844
 4661SOL    HW125619   1.500   1.970   8.306 -0.3543 -1.4210  0.2812
 4661SOL    HW225620   1.461   2.104   8.259  1.2011  1.7574  1.8228
 4662SOL     OW25621   4.478   0.668   5.424 -0.0286 -0.2428 -0.1861
 4662SOL    HW125622   4.389   0.697   5.404  0.2411 -0.9685 -2.3629
 4662SOL    HW225623   4.468   0.621   5.507  1.3713 -1.2331 -0.5759
 4663SOL     OW25624   1.932   2.690   9.228 -0.2162  0.3029 -0.1872
 4663SOL    HW125625   1.982   2.761   9.267  1.5355 -0.7393 -0.5364
 4663SOL    HW225626   1.849   2.736   9.212 -0.5172 -0.8314 -1.9145
 4664SOL     OW25627   0.233   2.739  14.166 -0.4600 -0.2905  0.1599
 4664SOL    HW125628   0.194   2.720  14.251  0.1381 -0.7856  0.3245
 4664SOL    HW225629   0.208   2.659  14.119 -0.8592 -0.3050  0.4010
 4665SOL     OW25630   0.501   1.995   7.634  0.4334  0.0963  0.0765
 4665SOL    HW125631   0.546   1.978   7.552  1.3965  0.9328  0.4287
 4665SOL    HW225632   0.468   2.082   7.612  0.5904  0.1086 -0.1078
 4666SOL     OW25633   2.666   3.438   8.679  0.4611 -0.1385 -0.1263
 4666SOL    HW125634   2.659   3.497   8.754 -0.5517 -3.9242  2.7053
 4666SOL    HW225635   2.574   3.438   8.655  0.6898 -0.0051 -1.0185
 4667SOL     OW25636   3.542   1.411   7.449  0.5193  0.2831 -0.0052
 4667SOL    HW125637   3.594   1.443   7.522  0.6999  3.2519 -1.4296
 4667SOL    HW225638   3.458   1.443   7.480  0.2289 -1.3151  0.8965
 4668SOL     OW25639   4.159   4.360   4.642 -0.3992 -0.0832 -0.4698
 4668SOL    HW125640   4.201   4.274   4.642 -0.5707 -0.1671 -0.5637
 4668SOL    HW225641   4.169   4.390   4.551  0.1313  0.7710 -0.1236
 4669SOL     OW25642   0.845   3.457   1.908  0.1128  0.3825 -0.2086
 4669SOL    HW125643   0.910   3.526   1.894 -0.5695  0.7868 -1.3931
 4669SOL    HW225644   0.871   3.380   1.858  0.3769 -0.0084  0.5332
 4670SOL     OW25645   4.384   2.105  14.904  0.0517 -0.1218  0.1481
 4670SOL    HW125646   4.475   2.087  14.927  0.3882 -0.8008 -1.7526
 4670SOL    HW225647   4.352   2.169  14.968  2.0041  2.1482 -1.1436
 4671SOL     OW25648   2.670   1.617  15.151  0.1766  0.3578  0.1550
 4671SOL    HW125649   2.582   1.635  15.119  1.5350  3.0307 -2.0177
 4671SOL    HW225650   2.689   1.700  15.195 -1.4945  0.3705  0.8519
 4672SOL     OW25651   1.697   1.014   6.924  0.5945  0.4428  0.4005
 4672SOL    HW125652   1.701   1.103   6.888 -3.5213  1.3979  2.2630
 4672SOL    HW225653   1.611   1.014   6.967  0.1101  3.5984 -0.5289
 4673SOL     OW25654   2.170   4.502   9.436  0.6212  0.1346 -0.0784
 4673SOL    HW125655   2.247   4.472   9.387 -1.7811 -1.1456 -3.0935
 4673SOL    HW225656   2.199   4.503   9.527 -2.3499  1.3036  0.8692
 4674SOL     OW25657   2.560   1.995   8.223 -0.0163 -0.5349 -0.0188
 4674SOL    HW125658   2.465   1.989   8.231 -0.1436  2.0506  0.2329
 4674SOL    HW225659   2.576   2.074   8.274 -0.5324 -1.7600  2.0833
 4675SOL     OW25660   3.443   3.938  11.842  0.5272 -0.8055  0.4482
 4675SOL    HW125661   3.350   3.933  11.861  0.6487  3.1692  2.0876
 4675SOL    HW225662   3.479   3.955  11.929 -1.1642  0.4847  0.8879
 4676SOL     OW25663   2.268   2.013  15.395 -0.2485  0.5579  0.1302
 4676SOL    HW125664   2.350   1.965  15.382 -1.8254 -1.4181 -2.6161
 4676SOL    HW225665   2.233   2.006  15.306  0.1634 -0.6964  0.0699
 4677SOL     OW25666   2.257   0.846  11.520  0.0617 -0.0086  0.2898
 4677SOL    HW125667   2.347   0.832  11.548 -0.9749 -0.4664  3.4141
 4677SOL    HW225668   2.251   0.941  11.510  0.5790  0.1672  1.6400
 4678SOL     OW25669   2.904   1.057  10.097 -0.3221  0.4632 -0.3512
 4678SOL    HW125670   2.966   1.126  10.075  0.5449  0.2895  1.5738
 4678SOL    HW225671   2.919   1.034  10.188 -1.2774  1.2880  0.0253
 4679SOL     OW25672   3.537   0.414   6.811 -0.3842  0.3519 -0.1822
 4679SOL    HW125673   3.584   0.431   6.893 -0.4252  0.6877 -0.2304
 4679SOL    HW225674   3.524   0.320   6.826 -1.7769  0.6637  0.5059
 4680SOL     OW25675   3.757   4.138   4.154 -0.1039 -0.1147 -0.1972
 4680SOL    HW125676   3.683   4.160   4.211  0.3535 -0.9871  0.7126
 4680SOL    HW225677   3.751   4.211   4.091 -2.5506  2.0437  2.4937
 4681SOL     OW25678   2.924   1.666   1.269 -0.1320  0.2527  0.6079
 4681SOL    HW125679   2.858   1.610   1.311  1.2174  0.2297  2.6978
 4681SOL    HW225680   2.971   1.610   1.208  0.9844 -0.3474  2.0053
 4682SOL     OW25681   2.575   2.562   1.427 -0.1431 -0.4673  0.5483
 4682SOL    HW125682   2.593   2.504   1.352  1.1270 -0.2787  0.7002
 4682SOL    HW225683   2.590   2.503   1.502  2.5369  0.4314  0.7389
 4683SOL     OW25684   1.773   0.336   6.380  0.3509 -0.1808  0.6851
 4683SOL    HW125685   1.843   0.273   6.398  0.9745  0.1070 -0.7204
 4683SOL    HW225686   1.737   0.352   6.467  2.0277 -0.6033  1.4506
 4684SOL     OW25687   2.234   4.578   4.443  0.0635 -0.5367  0.1662
 4684SOL    HW125688   2.306   4.569   4.506 -1.1782  0.2274  1.6860
 4684SOL    HW225689   2.188   4.652   4.483  0.0253 -0.7974  0.6005
 4685SOL     OW25690   1.488   1.160   3.546 -0.6408 -0.7271 -0.3621
 4685SOL    HW125691   1.544   1.235   3.528 -0.7743 -0.0621  2.0641
 4685SOL    HW225692   1.540   1.089   3.508 -1.0801  0.4393 -3.1177
 4686SOL     OW25693   2.835   3.972   9.594  0.8889  0.1755  0.5066
 4686SOL    HW125694   2.892   3.898   9.611 -2.5428 -2.5604  0.0631
 4686SOL    HW225695   2.889   4.032   9.645 -0.5308  0.6510  1.4541
 4687SOL     OW25696   0.449   3.559   7.430  0.0808  0.7296  0.1652
 4687SOL    HW125697   0.520   3.575   7.491  3.2113 -0.8731 -3.0558
 4687SOL    HW225698   0.478   3.474   7.396 -1.4020  0.2592  0.0814
 4688SOL     OW25699   4.045   2.838   4.412 -0.0368  0.4416  0.2820
 4688SOL    HW125700   4.043   2.834   4.316  0.9411  1.4827  0.2112
 4688SOL    HW225701   4.131   2.799   4.431  0.1817 -0.7911 -3.1304
 4689SOL     OW25702   2.991   2.967   2.692  1.0978 -0.2134 -0.3225
 4689SOL    HW125703   2.967   2.875   2.699 -1.8058  0.5611 -0.0782
 4689SOL    HW225704   2.982   2.991   2.600 -0.1190  3.6246  0.8093
 4690SOL     OW25705   3.452   0.629   6.686  0.1942 -0.1791  0.4299
 4690SOL    HW125706   3.398   0.676   6.749 -0.4992  0.9468 -1.0209
 4690SOL    HW225707   3.490   0.557   6.738 -0.4798 -0.9917 -0.2030
 4691SOL     OW25708   1.787   4.114   8.749  0.5703 -0.0608  1.0094
 4691SOL    HW125709   1.712   4.161   8.786  0.1249 -1.0708  1.3936
 4691SOL    HW225710   1.802   4.177   8.678 -2.0552 -0.1428  0.3798
 4692SOL     OW25711   2.915   1.957   8.256  0.4152  0.0167 -0.3619
 4692SOL    HW125712   2.827   1.952   8.219  0.3191 -1.4172  0.0794
 4692SOL    HW225713   2.903   1.896   8.329  2.3315  0.8602  0.6568
 4693SOL     OW25714   1.262   3.954  12.376  0.0352  0.6071  0.1331
 4693SOL    HW125715   1.342   3.978  12.422 -0.2524  0.8960  0.4928
 4693SOL    HW225716   1.206   3.921  12.447  0.0893  0.6471  0.1947
 4694SOL     OW25717   4.021   2.211  10.779 -0.2112  0.5992  1.0962
 4694SOL    HW125718   3.958   2.281  10.796 -1.9876 -0.5447 -0.8101
 4694SOL    HW225719   4.076   2.214  10.857  0.2642 -0.5662  0.8027
 4695SOL     OW25720   2.606   3.306   4.863  0.0915  0.1424 -0.5064
 4695SOL    HW125721   2.591   3.223   4.909  1.4105 -0.4273 -1.0951
 4695SOL    HW225722   2.681   3.281   4.809 -0.7122 -1.4342 -0.8882
 4696SOL     OW25723   2.395   1.732   6.200  0.1564 -0.0259 -0.0952
 4696SOL    HW125724   2.447   1.769   6.128  0.2050  2.3854  1.2123
 4696SOL    HW225725   2.397   1.638   6.184 -0.3658  0.0550 -0.6309
 4697SOL     OW25726   3.937   2.643  10.262  0.4311 -0.2714  0.3081
 4697SOL    HW125727   3.887   2.561  10.263  0.8429 -0.5266  0.2960
 4697SOL    HW225728   3.865   2.699  10.288  0.8083  0.3156  0.0973
 4698SOL     OW25729   0.464   2.195   4.119  0.1424 -0.0366 -0.1282
 4698SOL    HW125730   0.543   2.182   4.066  1.1005  1.3527  0.9851
 4698SOL    HW225731   0.417   2.119   4.085 -0.0858  0.0960 -0.1046
 4699SOL     OW25732   4.068   3.189  14.114  0.4074 -0.0015  0.0184
 4699SOL    HW125733   4.135   3.150  14.058  0.6202  0.6793 -0.2081
 4699SOL    HW225734   4.065   3.279  14.082 -0.4483 -0.4007 -1.0318
 4700SOL     OW25735   3.021   2.602  14.941  0.0509  0.3217  0.4592
 4700SOL    HW125736   3.083   2.669  14.972 -1.8075  2.1399  0.2582
 4700SOL    HW225737   3.052   2.522  14.983 -1.7087 -0.6472 -0.0961
 4701SOL     OW25738   4.417   2.550   2.563 -0.0394 -0.2519 -0.8773
 4701SOL    HW125739   4.348   2.587   2.617  1.0135  0.2264  0.1191
 4701SOL    HW225740   4.476   2.502   2.622  0.2168  1.4545  0.2346
 4702SOL     OW25741   0.003   1.952   8.722 -0.1814  0.0185 -0.1193
 4702SOL    HW125742   0.066   1.961   8.651  0.2403 -0.2195  0.2291
 4702SOL    HW225743   4.664   1.982   8.669 -0.7044  1.6075  1.5181
 4703SOL     OW25744   1.242   2.318   2.290 -0.0431 -0.2305  0.2803
 4703SOL    HW125745   1.259   2.274   2.373  1.2200  0.4894  0.4071
 4703SOL    HW225746   1.245   2.244   2.229  1.2158 -0.7648  0.9770
 4704SOL     OW25747   1.414   2.746   8.725 -0.0652  0.4613 -0.2668
 4704SOL    HW125748   1.397   2.820   8.667 -1.8294 -0.4175 -0.8599
 4704SOL    HW225749   1.454   2.684   8.663 -0.0742  1.0598 -0.8782
 4705SOL     OW25750   2.275   0.977  10.245 -0.1228 -0.0095  0.2367
 4705SOL    HW125751   2.274   1.072  10.249 -0.0427 -0.0319  0.7406
 4705SOL    HW225752   2.360   0.956  10.284  0.2204  0.5228 -0.2247
 4706SOL     OW25753   1.224   0.135   3.314 -0.7727 -0.3669 -0.2879
 4706SOL    HW125754   1.157   0.156   3.379  0.8588 -0.2256  1.3593
 4706SOL    HW225755   1.283   0.082   3.367 -0.3318 -0.6743 -1.0807
 4707SOL     OW25756   0.249   1.417  13.629  0.0453 -0.0665 -0.1577
 4707SOL    HW125757   0.158   1.446  13.629 -0.5864 -1.9981 -0.2669
 4707SOL    HW225758   0.273   1.434  13.538 -0.0068 -1.0222 -0.3542
 4708SOL     OW25759   1.033   0.455   4.742 -0.0256  0.3131  0.0022
 4708SOL    HW125760   0.991   0.377   4.777 -0.8381  1.2466  1.1088
 4708SOL    HW225761   1.126   0.441   4.759 -0.4928  1.4237  3.4591
 4709SOL     OW25762   2.618   3.710  11.358  0.2601 -0.7392  0.3587
 4709SOL    HW125763   2.647   3.801  11.359  2.1752 -1.3802  1.9956
 4709SOL    HW225764   2.668   3.675  11.284 -0.3701 -0.2877 -0.2762
 4710SOL     OW25765   3.658   3.441  10.659 -0.0923  0.0726 -0.0825
 4710SOL    HW125766   3.697   3.528  10.651  3.8970 -1.7295 -0.6348
 4710SOL    HW225767   3.676   3.410  10.570 -1.8155 -1.1285 -0.0143
 4711SOL     OW25768   2.636   2.231   4.620 -0.1516 -0.3391 -0.9023
 4711SOL    HW125769   2.589   2.306   4.657  0.4684  1.9946 -4.8894
 4711SOL    HW225770   2.702   2.283   4.574  0.8980 -2.0826 -1.3814
 4712SOL     OW25771   2.705   4.386   2.654 -0.0396  0.1858  0.3025
 4712SOL    HW125772   2.623   4.434   2.653 -1.1217 -1.6296  1.7999
 4712SOL    HW225773   2.669   4.306   2.614 -0.6903  1.9093 -2.5326
 4713SOL     OW25774   0.998   0.646  15.906  0.0813 -0.2955  0.0388
 4713SOL    HW125775   0.975   0.722  15.853  2.7246  0.4387 -0.0462
 4713SOL    HW225776   0.918   0.596  15.887  0.3030  0.4665 -2.9471
 4714SOL     OW25777   3.299   3.036   0.148  0.1485 -0.4395  0.2107
 4714SOL    HW125778   3.251   2.957   0.171 -0.1778 -0.7532 -1.5511
 4714SOL    HW225779   3.287   3.099   0.219 -1.6073 -1.7489  1.0430
 4715SOL     OW25780   1.183   2.599   4.684 -0.4622  0.3762  0.2225
 4715SOL    HW125781   1.244   2.598   4.610 -0.6998  0.1102  0.0314
 4715SOL    HW225782   1.097   2.587   4.645 -1.5356 -0.8396  2.9888
 4716SOL     OW25783   4.147   3.460   4.206  0.5487 -0.4831 -0.0079
 4716SOL    HW125784   4.106   3.515   4.139 -1.6616  0.8736  2.4511
 4716SOL    HW225785   4.237   3.458   4.175  0.7976 -0.8764  0.7506
 4717SOL     OW25786   0.983   0.535   8.994 -0.1466 -0.7887 -0.1006
 4717SOL    HW125787   0.900   0.493   8.973 -0.6419  0.4068 -0.5029
 4717SOL    HW225788   1.040   0.459   8.981 -0.7912 -1.1608 -0.6922
 4718SOL     OW25789   4.549   3.077   7.383  0.6601  0.0219 -0.2297
 4718SOL    HW125790   4.584   3.108   7.467  1.3566 -0.2451 -0.4182
 4718SOL    HW225791   4.510   3.157   7.348  0.2002 -0.5648 -1.0408
 4719SOL     OW25792   3.133   0.102   2.820 -0.0839  0.6000  0.2344
 4719SOL    HW125793   3.151   0.115   2.913 -1.4457 -1.8670  0.8423
 4719SOL    HW225794   3.039   0.085   2.820 -0.2402  1.5779 -1.8380
 4720SOL     OW25795   2.832   3.229   8.935  0.1172 -0.1797  0.2189
 4720SOL    HW125796   2.880   3.271   8.864  0.3518 -1.3000 -0.2942
 4720SOL    HW225797   2.841   3.293   9.006  0.1705 -1.1313  1.0736
 4721SOL     OW25798   0.162   0.722   5.942  0.3775 -0.2625 -0.0048
 4721SOL    HW125799   0.221   0.777   5.994  2.5858 -2.7986  0.1381
 4721SOL    HW225800   0.208   0.721   5.859 -0.1437  0.8693 -0.3148
 4722SOL     OW25801   0.925   4.184   0.701  0.3257  0.4735 -0.0534
 4722SOL    HW125802   0.907   4.091   0.687  2.7511 -0.1692  1.1901
 4722SOL    HW225803   0.839   4.225   0.695 -0.5270 -1.3905 -0.9444
 4723SOL     OW25804   3.920   4.517   6.208 -0.5200 -0.0416 -0.4439
 4723SOL    HW125805   3.965   4.440   6.174  1.4393 -0.2868  2.6718
 4723SOL    HW225806   3.866   4.476   6.275 -1.3159  2.1333  0.2402
 4724SOL     OW25807   1.308   1.212   5.629  0.3281 -0.5831 -0.6317
 4724SOL    HW125808   1.286   1.121   5.609 -0.8922 -0.5614  0.5306
 4724SOL    HW225809   1.389   1.200   5.678  0.8498  0.3758 -1.2664
 4725SOL     OW25810   0.918   3.362   4.276 -0.3350  0.0945  0.0358
 4725SOL    HW125811   0.994   3.304   4.272 -2.3441 -2.4933 -0.4469
 4725SOL    HW225812   0.916   3.391   4.185 -0.8107  1.3177  0.4348
 4726SOL     OW25813   4.207   2.726   4.817  0.8062  0.2357 -0.4861
 4726SOL    HW125814   4.142   2.796   4.807  1.1216  0.1879 -2.8633
 4726SOL    HW225815   4.144   2.655   4.823  1.5950 -0.1122  3.6715
 4727SOL     OW25816   0.520   3.929   7.630  0.2239 -0.6186 -0.1815
 4727SOL    HW125817   0.562   3.879   7.699  2.0359 -1.2916 -1.7711
 4727SOL    HW225818   0.597   3.959   7.583  0.3241 -0.0096  0.3697
 4728SOL     OW25819   2.364   3.640   4.937  0.0626  0.0117 -0.2444
 4728SOL    HW125820   2.275   3.637   4.900 -0.3086 -1.4163  0.7706
 4728SOL    HW225821   2.395   3.722   4.900 -2.7482  1.0099 -0.4288
 4729SOL     OW25822   3.513   1.699   6.178 -0.5570 -0.3544 -0.0336
 4729SOL    HW125823   3.454   1.766   6.144 -1.6398 -0.9344  0.6755
 4729SOL    HW225824   3.563   1.685   6.098 -0.8498  0.1060 -0.2935
 4730SOL     OW25825   3.343   4.294   2.140  0.0917  0.4621  0.3134
 4730SOL    HW125826   3.421   4.250   2.173  1.2488  1.3526 -1.2440
 4730SOL    HW225827   3.360   4.374   2.191 -0.8161  2.4630 -2.5573
 4731SOL     OW25828   1.410   0.830   6.537  0.3001  0.3843 -0.0277
 4731SOL    HW125829   1.441   0.912   6.577 -0.8109  0.7631  0.0599
 4731SOL    HW225830   1.392   0.876   6.455  0.2351  0.6375  0.1251
 4732SOL     OW25831   0.013   0.587   2.614 -0.3779 -0.1320 -0.0177
 4732SOL    HW125832   4.654   0.586   2.623 -0.3985  4.3520  0.1771
 4732SOL    HW225833   0.021   0.637   2.532  0.0816  1.0999  0.7914
 4733SOL     OW25834   4.590   2.733  17.060 -0.3037  0.0585 -0.2123
 4733SOL    HW125835   4.593   2.638  17.052 -3.3517 -0.2369  2.1804
 4733SOL    HW225836   4.647   2.741  17.137 -0.0105 -0.4692 -0.3732
 4734SOL     OW25837   4.562   3.034   2.510 -0.1265 -0.4176  0.0035
 4734SOL    HW125838   4.595   3.084   2.585 -1.1162  0.0229  0.1384
 4734SOL    HW225839   4.605   3.076   2.434  0.8930  0.0038  0.8037
 4735SOL     OW25840   1.740   0.516  14.426 -0.2678 -0.3179 -0.2202
 4735SOL    HW125841   1.755   0.467  14.507 -0.2348  1.1162  0.6295
 4735SOL    HW225842   1.788   0.465  14.360 -0.7963  0.3113 -1.0974
 4736SOL     OW25843   3.842   4.304  16.705  0.3493 -0.1018  0.7400
 4736SOL    HW125844   3.925   4.268  16.735  0.6824 -0.5301 -0.6910
 4736SOL    HW225845   3.781   4.279  16.774 -0.0602  1.7217  1.0335
 4737SOL     OW25846   1.071   1.403  12.948 -0.0343 -0.2457 -0.2421
 4737SOL    HW125847   1.111   1.370  12.867 -1.3851  0.8399 -1.3696
 4737SOL    HW225848   1.044   1.492  12.927 -2.6065 -0.3355  2.7461
 4738SOL     OW25849   0.542   3.545   8.049  0.1535  0.1393  0.6542
 4738SOL    HW125850   0.512   3.560   7.959  0.8614 -2.4182 -0.0198
 4738SOL    HW225851   0.593   3.466   8.028 -1.1288 -0.8676  1.3014
 4739SOL     OW25852   0.392   2.040  15.372 -0.2606  0.4580 -0.3958
 4739SOL    HW125853   0.466   2.019  15.430 -1.3243 -0.3586  0.6752
 4739SOL    HW225854   0.339   1.961  15.384  0.5327 -0.4210 -2.7745
 4740SOL     OW25855   4.470   2.049   3.327 -0.0120  0.8455  0.3875
 4740SOL    HW125856   4.462   1.959   3.295  2.1086  1.0822 -0.8003
 4740SOL    HW225857   4.393   2.052   3.384  1.8160  0.5885  2.8735
 4741SOL     OW25858   0.542   2.919  14.229  0.0164 -0.4395 -0.6706
 4741SOL    HW125859   0.542   2.824  14.237 -0.0190 -0.4805 -1.1330
 4741SOL    HW225860   0.565   2.951  14.317 -0.1999 -1.5496 -0.2169
 4742SOL     OW25861   1.886   4.193   6.281  0.2724  0.9287  0.4691
 4742SOL    HW125862   1.819   4.160   6.342  1.5685 -0.0493  1.3634
 4742SOL    HW225863   1.964   4.193   6.336  0.3393 -0.6276  0.3868
 4743SOL     OW25864   0.845   3.199   2.818  0.3292  0.6209  0.1008
 4743SOL    HW125865   0.788   3.169   2.889 -0.9783  0.4490 -1.0141
 4743SOL    HW225866   0.924   3.152   2.841  1.4874  0.7773 -3.5896
 4744SOL     OW25867   2.689   3.896   1.590  0.0187 -0.6369 -0.7483
 4744SOL    HW125868   2.654   3.905   1.679 -0.9048 -1.7914 -0.9987
 4744SOL    HW225869   2.605   3.907   1.546  0.3068  1.8511 -0.7039
 4745SOL     OW25870   1.138   0.253   8.141  0.7586 -0.5444 -0.0661
 4745SOL    HW125871   1.114   0.236   8.232  0.6660 -2.6014 -0.4788
 4745SOL    HW225872   1.071   0.314   8.109  0.5523  0.2035  1.7869
 4746SOL     OW25873   1.162   4.020   5.525 -0.5070 -0.1070 -0.4085
 4746SOL    HW125874   1.158   4.079   5.450  2.6498 -0.2837 -0.7384
 4746SOL    HW225875   1.129   4.079   5.592 -0.1223  2.3904 -2.4186
 4747SOL     OW25876   2.986   1.936   4.138  0.3867  0.8104  0.5591
 4747SOL    HW125877   2.938   1.996   4.081 -1.0398 -1.1566 -0.3139
 4747SOL    HW225878   3.054   1.994   4.173  0.5187 -0.3343  2.2275
 4748SOL     OW25879   0.328   1.635   3.914 -0.1449  0.3511 -0.0672
 4748SOL    HW125880   0.346   1.541   3.916  1.1937  0.6562  1.7878
 4748SOL    HW225881   0.409   1.681   3.935  0.2048  1.6457 -4.1471
 4749SOL     OW25882   1.650   2.461   7.148 -0.1821  0.4496  0.0775
 4749SOL    HW125883   1.588   2.517   7.193 -2.9281 -2.1074 -0.5419
 4749SOL    HW225884   1.705   2.419   7.215 -3.9400 -2.3635  1.3927
 4750SOL     OW25885   4.119   0.782   9.199  0.0731  0.4578 -0.3974
 4750SOL    HW125886   4.117   0.876   9.178 -0.2907  0.1960 -1.5684
 4750SOL    HW225887   4.191   0.777   9.262 -1.3887  0.1169  1.2351
 4751SOL     OW25888   1.989   2.935   3.837 -0.5255  0.1671  0.3366
 4751SOL    HW125889   2.035   2.858   3.805 -0.0613  1.8845 -3.1317
 4751SOL    HW225890   2.029   2.938   3.925  3.3657  0.6096 -1.4428
 4752SOL     OW25891   0.465   3.391   1.325 -0.1365  0.1609  0.4272
 4752SOL    HW125892   0.553   3.402   1.290  0.2337  1.7019  1.8512
 4752SOL    HW225893   0.477   3.363   1.415 -0.5147 -0.2689  0.3446
 4753SOL     OW25894   3.809   0.601   5.960 -0.4159 -0.5628 -0.1118
 4753SOL    HW125895   3.902   0.595   5.941 -0.9706 -1.0751 -2.5501
 4753SOL    HW225896   3.798   0.567   6.049 -0.2024 -0.1798  0.0612
 4754SOL     OW25897   4.612   0.827   7.062  0.2618 -0.2762  0.4418
 4754SOL    HW125898   4.655   0.912   7.050 -0.4685 -0.0238 -0.3421
 4754SOL    HW225899   4.535   0.825   7.005 -0.1317  1.0914  0.9142
 4755SOL     OW25900   3.137   4.725  17.029  0.3726 -0.2885  0.0437
 4755SOL    HW125901   3.116   0.078  16.999 -0.5542 -1.2275 -2.0996
 4755SOL    HW225902   3.232   4.732  17.038  0.0783  0.6828  2.3689
 4756SOL     OW25903   3.724   1.540   0.711  0.4035  0.0190 -0.2091
 4756SOL    HW125904   3.783   1.590   0.654  0.2568  1.0484  0.5558
 4756SOL    HW225905   3.683   1.492   0.639 -2.0998 -0.1401  1.3447
 4757SOL     OW25906   3.351   3.918   6.982  0.4129 -0.0055 -0.2661
 4757SOL    HW125907   3.285   3.915   6.914  3.1127  1.4084 -2.9611
 4757SOL    HW225908   3.340   3.841   7.038 -0.3427  1.0149  0.9838
 4758SOL     OW25909   2.947   3.157  12.273 -0.2837 -0.1039  0.2299
 4758SOL    HW125910   2.956   3.235  12.328  0.3502  0.0602 -0.1035
 4758SOL    HW225911   2.860   3.120  12.289 -0.7241  2.5498  4.0586
 4759SOL     OW25912   2.338   4.164  11.422 -0.6911 -0.0741 -0.0596
 4759SOL    HW125913   2.254   4.169  11.377 -0.3493 -1.9751 -0.8695
 4759SOL    HW225914   2.308   4.142  11.511  1.3787  2.1156  1.1947
 4760SOL     OW25915   0.696   0.825   3.544 -0.2604 -0.1402  0.5046
 4760SOL    HW125916   0.773   0.881   3.530  0.3586 -0.0860  4.0000
 4760SOL    HW225917   0.687   0.837   3.638  0.1579 -3.3890  0.9544
 4761SOL     OW25918   2.140   1.941   7.771  1.1339 -0.3247  0.2083
 4761SOL    HW125919   2.156   1.968   7.681 -1.6074 -0.2292 -0.2644
 4761SOL    HW225920   2.191   2.010   7.815  0.7405 -1.0405  1.8001
 4762SOL     OW25921   0.407   2.911   7.716  0.6549 -0.6281  0.0776
 4762SOL    HW125922   0.371   2.825   7.739 -0.8393 -0.0142  0.0772
 4762SOL    HW225923   0.384   2.927   7.625 -1.0456  2.1162  0.9730
 4763SOL     OW25924   2.487   4.076   3.021 -0.1240  0.5485  0.0318
 4763SOL    HW125925   2.569   4.123   3.036  0.7247 -0.7451 -0.5762
 4763SOL    HW225926   2.449   4.084   3.109  1.2682  1.0516  0.5926
 4764SOL     OW25927   3.438   3.459   7.595  0.1698 -0.2195  0.2915
 4764SOL    HW125928   3.491   3.538   7.603 -0.1989 -0.0559  1.0144
 4764SOL    HW225929   3.350   3.485   7.620  0.6814  3.4892 -1.7952
 4765SOL     OW25930   0.573   2.456  16.598  0.3193 -0.0567  0.4409
 4765SOL    HW125931   0.589   2.364  16.575  1.6262  0.0234  1.0343
 4765SOL    HW225932   0.638   2.499  16.543 -0.7472  0.5428 -0.3648
 4766SOL     OW25933   4.154   2.891   9.135  0.4985 -0.1753 -0.0103
 4766SOL    HW125934   4.201   2.870   9.216 -0.5562  0.5791  0.8118
 4766SOL    HW225935   4.098   2.815   9.124  1.5455 -1.1968  1.7488
 4767SOL     OW25936   0.654   3.461   4.686 -0.4942 -0.2782 -0.1890
 4767SOL    HW125937   0.674   3.419   4.770 -1.5731 -1.1181 -0.3493
 4767SOL    HW225938   0.688   3.389   4.633 -0.5859  0.1133 -0.7838
 4768SOL     OW25939   1.067   3.779   5.433 -0.0829  0.3598  0.6438
 4768SOL    HW125940   1.132   3.805   5.367 -0.2444  1.0322  0.7472
 4768SOL    HW225941   1.111   3.826   5.504  3.3060 -1.5877 -0.1378
 4769SOL     OW25942   2.210   1.014   8.229  0.8032 -0.6598  0.4797
 4769SOL    HW125943   2.245   1.102   8.212 -0.8781  0.0769  0.8246
 4769SOL    HW225944   2.182   0.994   8.139  0.1074  0.8686  0.3617
 4770SOL     OW25945   2.832   4.700   2.252  0.5436  0.4560  0.1818
 4770SOL    HW125946   2.846   4.690   2.157 -2.8641 -0.1466 -0.2444
 4770SOL    HW225947   2.828   4.607   2.274  3.3033  0.0090 -1.2073
 4771SOL     OW25948   4.047   2.043   3.973 -0.6015  0.4187  0.0950
 4771SOL    HW125949   4.011   1.954   3.970  0.5089 -0.0708  0.9145
 4771SOL    HW225950   3.969   2.091   4.001  0.0609  0.7813  1.3311
 4772SOL     OW25951   2.616   3.072   8.584  0.5546 -0.2759 -0.1493
 4772SOL    HW125952   2.554   3.118   8.528  0.1811  0.9357  1.2672
 4772SOL    HW225953   2.689   3.113   8.538 -0.0558 -0.1334 -0.9884
 4773SOL     OW25954   0.896   0.232   4.821 -1.3108  0.8846 -0.1237
 4773SOL    HW125955   0.899   0.212   4.915 -0.1212 -3.0074 -1.0117
 4773SOL    HW225956   0.806   0.208   4.799 -1.3927 -0.6048  1.8618
 4774SOL     OW25957   4.522   0.182   6.362 -0.0112  0.2315 -0.3446
 4774SOL    HW125958   4.523   0.269   6.322  3.5814 -0.6350 -2.1083
 4774SOL    HW225959   4.557   0.193   6.450  0.0191  0.5691 -0.4012
 4775SOL     OW25960   3.978   2.744  10.002  0.1115  0.7817 -0.1757
 4775SOL    HW125961   3.955   2.703  10.086 -2.3196  4.5438  1.0094
 4775SOL    HW225962   3.946   2.678   9.941 -1.1235 -1.3665  2.8261
 4776SOL     OW25963   0.321   0.858   3.680 -0.2714 -0.3499  0.1779
 4776SOL    HW125964   0.238   0.864   3.727 -0.4121 -1.5048  0.0770
 4776SOL    HW225965   0.328   0.763   3.691 -1.1683 -0.1852  2.2089
 4777SOL     OW25966   1.060   2.056   8.548 -0.1583 -0.5663 -0.1119
 4777SOL    HW125967   1.013   2.059   8.465  0.1676 -0.6603 -0.2978
 4777SOL    HW225968   0.986   2.080   8.603  1.2541 -1.3748  2.1274
 4778SOL     OW25969   3.358   4.703   9.417 -0.2991  0.1240  0.3446
 4778SOL    HW125970   3.276   0.005   9.387 -0.6263 -0.2311  0.7830
 4778SOL    HW225971   3.342   4.613   9.389  1.5175  0.4450 -1.7329
 4779SOL     OW25972   1.095   3.844  17.055  0.4534  0.3245  0.3812
 4779SOL    HW125973   1.006   3.873  17.076  0.7397  1.1976  0.3735
 4779SOL    HW225974   1.100   3.853  16.960  0.4584 -1.8411  0.1592
 4780SOL     OW25975   2.755   0.519   6.352  0.6134 -0.2761 -0.0996
 4780SOL    HW125976   2.701   0.566   6.416  4.1059  3.4117  0.1497
 4780SOL    HW225977   2.739   0.431   6.387 -1.3038 -0.1370 -0.6004
 4781SOL     OW25978   2.845   0.756  16.394  0.3957  0.3675  0.0518
 4781SOL    HW125979   2.819   0.788  16.307 -2.3236 -1.4399  0.2005
 4781SOL    HW225980   2.904   0.827  16.419 -1.6411  1.7256  1.0191
 4782SOL     OW25981   3.970   3.801   0.332 -0.1540 -1.5489 -0.0271
 4782SOL    HW125982   3.879   3.774   0.345 -0.0108 -1.1474  1.7772
 4782SOL    HW225983   3.968   3.809   0.237  1.7975  0.0561  0.0749
 4783SOL     OW25984   0.343   2.418  10.188  0.2612  0.5776  0.3481
 4783SOL    HW125985   0.330   2.328  10.219 -1.3137  1.7547  3.0353
 4783SOL    HW225986   0.299   2.463  10.260 -0.1061 -0.0854  0.5397
 4784SOL     OW25987   4.598   3.597  17.152  0.6200  0.3256  0.2038
 4784SOL    HW125988   4.659   3.533  17.115 -1.5598  0.3765 -3.4303
 4784SOL    HW225989   4.543   3.550  17.214 -0.3472 -0.5265 -1.2924
 4785SOL     OW25990   3.566   2.741   5.695 -0.3139 -0.5754 -0.3365
 4785SOL    HW125991   3.572   2.776   5.784  2.4060 -1.3158 -0.2207
 4785SOL    HW225992   3.599   2.652   5.706  0.3887  0.1187  3.4693
 4786SOL     OW25993   0.410   3.683  17.256 -0.3290 -0.3174 -0.3359
 4786SOL    HW125994   0.317   3.704  17.263 -0.6385 -1.0276 -2.3047
 4786SOL    HW225995   0.407   3.587  17.252 -0.8438 -0.3097 -0.0801
 4787SOL     OW25996   4.662   2.376   6.007  0.1477 -0.1350 -0.5811
 4787SOL    HW125997   4.733   2.402   6.067  0.1848 -1.3864 -0.0690
 4787SOL    HW225998   4.705   2.370   5.922  2.3572  0.6974  0.4693
 4788SOL     OW25999   0.366   2.677  16.880  0.1915 -0.0215  0.2271
 4788SOL    HW126000   0.353   2.767  16.850 -0.0604 -0.9764 -2.5261
 4788SOL    HW226001   0.326   2.691  16.966 -1.6192  1.8181 -0.9227
 4789SOL     OW26002   2.294   2.173   7.881 -0.3892  0.4433  0.6434
 4789SOL    HW126003   2.366   2.200   7.939  0.5345  2.5881 -1.5314
 4789SOL    HW226004   2.292   2.243   7.816 -1.5824  0.1891  0.4043
 4790SOL     OW26005   0.668   3.099   5.247 -0.4485  0.2729 -0.2687
 4790SOL    HW126006   0.698   3.190   5.245 -1.9132  0.7646  0.1634
 4790SOL    HW226007   0.753   3.058   5.262  0.9778  3.7935  1.1865
 4791SOL     OW26008   1.461   2.709   3.069  0.4183 -0.1777 -0.5175
 4791SOL    HW126009   1.535   2.755   3.028  1.8929 -2.0927  0.0556
 4791SOL    HW226010   1.436   2.756   3.149  2.4634  1.4988 -0.8345
 4792SOL     OW26011   0.101   4.294  17.385 -0.5262 -0.0996  0.1200
 4792SOL    HW126012   0.159   4.245  17.327 -0.1913 -0.7978  1.0517
 4792SOL    HW226013   0.094   4.381  17.345 -1.0754 -0.3185 -0.2639
 4793SOL     OW26014   3.239   3.037   5.374  0.3167  0.4797 -0.1198
 4793SOL    HW126015   3.221   3.104   5.307 -0.1282  0.2215 -0.2644
 4793SOL    HW226016   3.334   3.039   5.370  0.2970 -2.1372 -1.9788
 4794SOL     OW26017   2.467   3.785   9.221  0.2209 -0.6018  0.1553
 4794SOL    HW126018   2.412   3.800   9.144 -0.2499  2.0704  0.9900
 4794SOL    HW226019   2.552   3.799   9.179  0.3929  0.1755  0.7524
 4795SOL     OW26020   3.158   2.695   3.856 -0.0227  0.5464  0.0537
 4795SOL    HW126021   3.145   2.668   3.765  0.7784 -0.1024  0.1364
 4795SOL    HW226022   3.100   2.770   3.841 -0.4801 -0.1263 -1.5540
 4796SOL     OW26023   2.396   1.938   9.642 -0.1040 -0.0047  0.0086
 4796SOL    HW126024   2.431   1.868   9.586 -0.2376  0.2573 -0.4018
 4796SOL    HW226025   2.354   1.888   9.712 -1.0460 -0.6703 -1.0338
 4797SOL     OW26026   2.451   4.160  17.387 -0.0965  0.2822 -0.4071
 4797SOL    HW126027   2.470   4.078  17.432 -2.4574 -0.1631 -0.2219
 4797SOL    HW226028   2.506   4.223  17.433 -0.3620 -0.4170  0.8412
 4798SOL     OW26029   2.234   1.818   8.115  0.6612 -0.4226  0.0588
 4798SOL    HW126030   2.153   1.870   8.109 -0.1693 -1.6294  0.6365
 4798SOL    HW226031   2.302   1.884   8.129 -1.5462  1.8547  0.0998
 4799SOL     OW26032   3.502   2.980   5.319 -0.1985 -0.1769  0.3728
 4799SOL    HW126033   3.558   2.945   5.388 -1.1750  0.5760  1.5317
 4799SOL    HW226034   3.543   3.066   5.305  0.3634 -0.7292 -1.4215
 4800SOL     OW26035   0.270   1.950   3.346  0.0512  0.2229  0.1561
 4800SOL    HW126036   0.181   1.978   3.323 -0.1943  1.0001  2.1108
 4800SOL    HW226037   0.310   2.032   3.316 -0.0924  0.6124  1.0563
 4801SOL     OW26038   0.972   2.324   6.232 -0.5867  0.3658  0.1298
 4801SOL    HW126039   1.014   2.242   6.261 -0.9065  0.2821  0.3601
 4801SOL    HW226040   0.896   2.296   6.181 -1.3244  1.7074  0.5063
 4802SOL     OW26041   4.172   0.489   0.305  0.1934 -0.2452  0.1944
 4802SOL    HW126042   4.113   0.510   0.233  0.2299 -0.9068 -0.0228
 4802SOL    HW226043   4.127   0.410   0.337 -0.6207  0.3765  0.5997
 4803SOL     OW26044   3.578   1.357   3.317 -0.5661 -0.1128 -0.3857
 4803SOL    HW126045   3.494   1.386   3.283 -0.5509  0.8381  0.4149
 4803SOL    HW226046   3.578   1.405   3.399 -0.7029 -1.2897  0.2969
 4804SOL     OW26047   4.249   1.267   6.727 -0.0457  0.0575 -0.4809
 4804SOL    HW126048   4.305   1.254   6.804  0.2539  0.5420 -0.6233
 4804SOL    HW226049   4.179   1.309   6.776 -3.2144 -1.9360 -3.3122
 4805SOL     OW26050   4.611   1.053   8.285 -0.5242 -0.0882 -0.2232
 4805SOL    HW126051   4.701   1.026   8.265 -0.6174 -0.0058 -0.7337
 4805SOL    HW226052   4.574   0.989   8.346  0.7137  0.5277  1.1950
 4806SOL     OW26053   4.181   0.168  14.724 -0.0082  0.4165 -0.1560
 4806SOL    HW126054   4.232   0.123  14.657 -1.8494 -2.0851  0.1408
 4806SOL    HW226055   4.150   0.103  14.787  1.1492  0.5432  0.5532
 4807SOL     OW26056   1.352   2.708   4.121 -0.9022  0.6628  0.0126
 4807SOL    HW126057   1.292   2.782   4.113  0.5004  1.5272 -2.6433
 4807SOL    HW226058   1.345   2.654   4.043 -0.4081  1.2832 -0.4674
 4808SOL     OW26059   3.141   2.814  17.263 -0.3251 -0.3220 -0.5713
 4808SOL    HW126060   3.188   2.731  17.271  2.5483  1.1369 -2.4090
 4808SOL    HW226061   3.078   2.824  17.334 -1.7283  1.0535 -2.0217
 4809SOL     OW26062   2.189   3.822   8.473 -0.1419  0.3007  0.1506
 4809SOL    HW126063   2.172   3.847   8.564  0.5341 -0.5260  0.5033
 4809SOL    HW226064   2.226   3.734   8.482 -0.6858 -0.2946 -3.2603
 4810SOL     OW26065   2.234   0.140  14.849 -0.0692  0.0934  0.6148
 4810SOL    HW126066   2.152   0.156  14.802  0.4607  0.6061 -0.1417
 4810SOL    HW226067   2.280   0.219  14.821  0.6090  0.0567  1.6074
 4811SOL     OW26068   4.196   0.194  12.221  0.2561 -0.2485  0.0157
 4811SOL    HW126069   4.128   0.128  12.233 -0.1921  0.3819  0.9519
 4811SOL    HW226070   4.243   0.174  12.140  0.6705 -0.8058  0.3912
 4812SOL     OW26071   3.496   2.888   7.538  0.3680 -0.0957 -0.2131
 4812SOL    HW126072   3.456   2.877   7.452  1.2098 -2.2556 -0.3382
 4812SOL    HW226073   3.458   2.972   7.562  0.3083 -0.5207  1.1682
 4813SOL     OW26074   2.050   4.150  15.966  0.1022  0.2027  0.4880
 4813SOL    HW126075   2.125   4.093  15.979  1.2930  1.5068 -0.7651
 4813SOL    HW226076   1.980   4.094  15.932 -1.0699 -1.4075  5.4375
 4814SOL     OW26077   0.246   0.237   0.268  0.1876 -0.0795 -0.5541
 4814SOL    HW126078   0.176   0.194   0.220 -0.5504 -0.3898  0.8099
 4814SOL    HW226079   0.317   0.219   0.206  1.3205  0.0783  0.6900
 4815SOL     OW26080   2.597   1.854   1.556  0.0504 -0.3105  0.2415
 4815SOL    HW126081   2.516   1.848   1.607  0.0338 -0.6594  0.1718
 4815SOL    HW226082   2.587   1.773   1.505  0.8017  0.2439 -0.7814
 4816SOL     OW26083   2.601   3.026   3.137 -0.1510  0.1127  0.1198
 4816SOL    HW126084   2.554   3.070   3.065 -0.4607  1.2806  1.0363
 4816SOL    HW226085   2.524   2.998   3.187 -0.4740  2.6658  1.0433
 4817SOL     OW26086   1.589   1.000   1.221  0.3647  0.0264  0.0827
 4817SOL    HW126087   1.572   1.091   1.249 -0.3170  0.1481 -0.7265
 4817SOL    HW226088   1.498   0.973   1.210 -0.1013  2.7886 -2.8498
 4818SOL     OW26089   2.559   1.242   6.537 -0.1686 -0.4012 -0.1179
 4818SOL    HW126090   2.640   1.218   6.583 -0.8889 -2.1406  0.2335
 4818SOL    HW226091   2.495   1.272   6.601  0.7734  0.5148  0.3994
 4819SOL     OW26092   1.933   1.648   1.346 -0.2117  0.9983  0.3531
 4819SOL    HW126093   1.886   1.679   1.423  0.3934  1.1286  0.6661
 4819SOL    HW226094   1.972   1.728   1.311  1.3065 -0.0862 -0.4381
 4820SOL     OW26095   4.022   1.437  11.420 -0.3427 -0.6013  0.0011
 4820SOL    HW126096   3.930   1.410  11.417 -0.8091  0.8745  0.9413
 4820SOL    HW226097   4.060   1.382  11.488  2.3608 -1.0744 -1.8904
 4821SOL     OW26098   0.130   3.716   8.979 -0.4427  0.2704  1.0355
 4821SOL    HW126099   0.062   3.668   8.931  0.6015  1.1098 -1.2796
 4821SOL    HW226100   0.213   3.676   8.952 -1.1765  1.4164 -2.9417
 4822SOL     OW26101   1.573   3.725   7.472  0.9425  0.1158  0.5044
 4822SOL    HW126102   1.637   3.694   7.536  0.4241 -0.5675  0.6946
 4822SOL    HW226103   1.490   3.686   7.498 -0.5123  2.7865 -0.1457
 4823SOL     OW26104   1.854   1.588  16.857 -0.7657  0.1352  0.6202
 4823SOL    HW126105   1.928   1.636  16.820  0.3571 -1.2315  1.1121
 4823SOL    HW226106   1.831   1.654  16.922 -0.4417  0.7084  0.1497
 4824SOL     OW26107   0.036   1.662   6.542 -0.5866 -0.2447 -0.9516
 4824SOL    HW126108   0.060   1.616   6.622 -0.5895 -0.4071 -1.0453
 4824SOL    HW226109   4.712   1.730   6.576 -0.8617 -0.5521 -0.8231
 4825SOL     OW26110   1.778   1.024   2.333  0.2282 -0.2872 -0.8023
 4825SOL    HW126111   1.822   1.109   2.334 -0.7414  0.1912  0.7369
 4825SOL    HW226112   1.712   1.039   2.400 -0.8038  0.4296 -1.9767
 4826SOL     OW26113   1.057   4.183  17.364  0.7315 -0.1497 -0.1237
 4826SOL    HW126114   0.981   4.180  17.422  1.6653 -1.8800  1.0131
 4826SOL    HW226115   1.049   4.262  17.311 -3.1139 -0.7602 -0.4367
 4827SOL     OW26116   2.139   0.169  12.780  0.2479  0.1309 -0.2100
 4827SOL    HW126117   2.046   0.155  12.800  0.3002 -0.1044 -0.1260
 4827SOL    HW226118   2.175   0.182  12.868 -1.1003 -1.4440  0.5821
 4828SOL     OW26119   1.668   4.308   3.453 -0.2715  0.1515  0.7308
 4828SOL    HW126120   1.737   4.346   3.397 -0.9685 -2.0683 -1.6353
 4828SOL    HW226121   1.657   4.234   3.393 -1.2839  0.3202  0.7048
 4829SOL     OW26122   0.551   0.953   4.825 -0.4906 -0.1376 -0.2054
 4829SOL    HW126123   0.589   1.032   4.863  0.1606  0.7749 -2.7656
 4829SOL    HW226124   0.467   0.952   4.870 -1.1004  0.7192 -1.3219
 4830SOL     OW26125   1.762   2.820  15.688  0.1015  0.4000  0.2929
 4830SOL    HW126126   1.767   2.757  15.760 -1.1411 -0.6850 -0.5532
 4830SOL    HW226127   1.776   2.905  15.729  2.1241  0.6056 -0.8295
 4831SOL     OW26128   2.928   2.935   9.251  0.0912 -0.7237 -0.2163
 4831SOL    HW126129   2.965   3.010   9.204 -0.8724 -1.4331 -2.1150
 4831SOL    HW226130   2.845   2.978   9.273  0.5663  0.1123 -0.0540
 4832SOL     OW26131   1.950   1.882   4.672  0.2282 -0.0421  0.0179
 4832SOL    HW126132   1.883   1.950   4.681  1.4344  1.1681 -0.1375
 4832SOL    HW226133   1.905   1.800   4.691  1.5463 -1.0308 -1.1923
 4833SOL     OW26134   1.213   3.679   8.061  0.1604  0.5457  0.4652
 4833SOL    HW126135   1.247   3.657   8.148  1.3651 -0.5501 -0.2759
 4833SOL    HW226136   1.254   3.765   8.051 -1.5390  1.0275 -2.2706
 4834SOL     OW26137   3.862   0.866   7.205 -0.4728  0.0138 -0.3425
 4834SOL    HW126138   3.814   0.838   7.126  1.8469  1.8108 -2.3924
 4834SOL    HW226139   3.805   0.934   7.241  0.5680  1.3335 -1.1805
 4835SOL     OW26140   1.407   0.787   9.860 -0.0210  0.2100 -0.6682
 4835SOL    HW126141   1.493   0.810   9.825  0.5445  0.6082  0.9866
 4835SOL    HW226142   1.395   0.702   9.817 -2.1726  1.1902 -1.9943
 4836SOL     OW26143   2.420   0.648   5.588 -0.0319 -0.6704 -0.0812
 4836SOL    HW126144   2.397   0.741   5.594  1.1713 -0.5120  2.1229
 4836SOL    HW226145   2.373   0.624   5.509  1.6607 -1.3607 -0.8618
 4837SOL     OW26146   3.277   2.674  15.942 -0.0170  0.4205  0.9555
 4837SOL    HW126147   3.246   2.685  16.032 -0.2934  1.2000  0.7664
 4837SOL    HW226148   3.200   2.708  15.896 -0.5574 -0.3796  1.2728
 4838SOL     OW26149   2.358   3.636  15.529 -0.1624  0.3088 -0.1178
 4838SOL    HW126150   2.342   3.557  15.477  0.4662  0.8438 -1.1105
 4838SOL    HW226151   2.299   3.689  15.475  0.0075 -0.4921 -1.0861
 4839SOL     OW26152   2.359   0.940   9.379  0.6668 -0.6583 -0.2120
 4839SOL    HW126153   2.433   0.935   9.318 -0.2518 -4.1406 -1.0108
 4839SOL    HW226154   2.320   1.024   9.355 -0.5274 -1.3200 -0.5680
 4840SOL     OW26155   2.886   2.432  12.885  0.4787 -0.8183 -0.7545
 4840SOL    HW126156   2.853   2.342  12.888  0.1523 -0.6984 -0.7439
 4840SOL    HW226157   2.868   2.474  12.800  0.1742  0.8292  0.1311
 4841SOL     OW26158   1.513   1.792   5.022 -0.6933  0.6384 -0.1678
 4841SOL    HW126159   1.595   1.799   4.972 -0.8604 -0.6292 -0.6400
 4841SOL    HW226160   1.536   1.775   5.113 -1.8951 -1.5671 -0.2663
 4842SOL     OW26161   0.937   0.011   8.913 -0.0684  0.0794 -0.1608
 4842SOL    HW126162   1.017   4.733   8.863  0.3559  1.0961  0.2336
 4842SOL    HW226163   0.879   4.692   8.860 -0.8504 -0.8386  1.6199
 4843SOL     OW26164   3.800   3.081   2.143  0.0554 -0.5119 -0.6950
 4843SOL    HW126165   3.870   3.129   2.099 -0.1282 -0.2800 -0.7339
 4843SOL    HW226166   3.750   3.159   2.167  0.1076 -0.9927  0.9892
 4844SOL     OW26167   1.884   3.917   3.161  0.0652 -0.3685 -0.0672
 4844SOL    HW126168   1.923   3.844   3.210  1.9797  0.6254 -0.1114
 4844SOL    HW226169   1.894   3.882   3.072 -1.2488  0.6635 -0.6055
 4845SOL     OW26170   0.022   1.912  15.216  0.0889 -0.4730  0.4833
 4845SOL    HW126171   0.083   1.856  15.169  0.7562  1.0755 -0.4693
 4845SOL    HW226172   0.076   1.937  15.291 -0.6647 -0.8244  1.1466
 4846SOL     OW26173   3.791   0.140   4.607  0.2763  0.4885 -0.4158
 4846SOL    HW126174   3.815   0.220   4.562  1.1889 -0.2837 -1.3028
 4846SOL    HW226175   3.766   0.083   4.534 -0.7849  0.9942 -0.4467
 4847SOL     OW26176   0.637   3.993   8.482  0.0799  0.2898  0.3641
 4847SOL    HW126177   0.577   3.920   8.497  1.4185 -0.9446 -0.3670
 4847SOL    HW226178   0.587   4.041   8.417  0.0572  2.0893  1.6904
 4848SOL     OW26179   2.806   3.570   6.285 -0.6149  0.6458  0.1982
 4848SOL    HW126180   2.801   3.478   6.259  1.9396  0.3449  0.8600
 4848SOL    HW226181   2.793   3.608   6.198 -0.1920  1.2124  0.3815
 4849SOL     OW26182   2.851   0.396   7.526 -0.2024 -0.1059  0.1515
 4849SOL    HW126183   2.757   0.411   7.518 -0.1495 -0.0093 -0.3104
 4849SOL    HW226184   2.855   0.301   7.532  1.0343  0.0317  1.4793
 4850SOL     OW26185   1.042   1.682   5.102 -0.0470 -0.5795  0.3876
 4850SOL    HW126186   1.137   1.689   5.109  0.0288 -1.7864  0.7061
 4850SOL    HW226187   1.033   1.625   5.179 -2.0412  0.1307  0.6750
 4851SOL     OW26188   2.882   4.539   8.068 -0.7288  0.1375  0.4458
 4851SOL    HW126189   2.867   4.505   8.156  1.3151  0.0529  0.7584
 4851SOL    HW226190   2.828   4.617   8.078 -0.8517 -0.1613  2.1245
 4852SOL     OW26191   4.459   3.300   8.144 -0.2000  0.1721 -0.3341
 4852SOL    HW126192   4.447   3.337   8.232  3.8421 -1.4699  0.9013
 4852SOL    HW226193   4.548   3.265   8.145  0.0920  0.9268 -0.0042
 4853SOL     OW26194   4.516   1.959   9.881 -0.3622 -0.2939 -0.2376
 4853SOL    HW126195   4.538   1.907   9.804  1.2327  1.8818 -1.2584
 4853SOL    HW226196   4.577   2.032   9.870  0.5041 -0.7357  1.6912
 4854SOL     OW26197   0.614   3.758   8.795  0.3079  0.0550 -0.1939
 4854SOL    HW126198   0.629   3.852   8.791  1.3848 -0.0255  1.5686
 4854SOL    HW226199   0.520   3.756   8.813 -0.0720  0.1412 -2.2566
 4855SOL     OW26200   0.554   3.065   3.348  0.3233 -0.5365  0.5867
 4855SOL    HW126201   0.537   2.983   3.302 -0.4203 -0.2589  0.3676
 4855SOL    HW226202   0.582   3.023   3.430 -0.5535 -2.2179  0.0259
 4856SOL     OW26203   2.291   2.137   8.726 -0.8218 -0.0846  0.1078
 4856SOL    HW126204   2.307   2.223   8.686  2.1063 -0.9093 -0.4623
 4856SOL    HW226205   2.210   2.160   8.772 -2.2622 -1.4068 -1.7674
 4857SOL     OW26206   2.051   2.976  13.330  0.0259  0.0075  0.1058
 4857SOL    HW126207   2.027   3.049  13.387 -2.1642 -1.1201  0.6167
 4857SOL    HW226208   2.147   2.976  13.330  0.0141  2.2089 -0.8850
 4858SOL     OW26209   0.401   4.605   2.096 -0.1232 -0.3087 -0.7192
 4858SOL    HW126210   0.492   4.584   2.078  0.1589  1.7360 -1.6726
 4858SOL    HW226211   0.414   4.682   2.151 -2.6923 -1.4105  1.4433
 4859SOL     OW26212   1.635   0.060   2.734  0.1942  0.7321  0.1420
 4859SOL    HW126213   1.571   4.726   2.740 -1.6675  2.4869  0.6406
 4859SOL    HW226214   1.617   0.104   2.817  0.3269  0.3922  0.3490
 4860SOL     OW26215   1.273   0.512   3.368 -0.1642 -0.5086 -0.2536
 4860SOL    HW126216   1.198   0.452   3.362 -0.5449  0.1911 -2.2294
 4860SOL    HW226217   1.247   0.591   3.322 -1.4677 -0.1956  1.0250
 4861SOL     OW26218   1.905   1.301   2.372 -0.1552  0.0156 -0.3580
 4861SOL    HW126219   1.945   1.251   2.444  1.3820  1.5693 -0.1523
 4861SOL    HW226220   1.858   1.371   2.416 -1.7655 -0.5744 -1.1261
 4862SOL     OW26221   3.206   0.414   8.220 -0.3537  0.8083  0.4118
 4862SOL    HW126222   3.230   0.360   8.296 -1.0129  0.5604  0.4417
 4862SOL    HW226223   3.225   0.501   8.254 -0.0511  1.8209 -2.3729
 4863SOL     OW26224   1.129   4.722   2.480 -0.3366 -0.3167  0.2543
 4863SOL    HW126225   1.123   4.667   2.402  1.4527 -1.1566  0.7162
 4863SOL    HW226226   1.050   0.038   2.467 -0.2059 -0.0206  0.6322
 4864SOL     OW26227   1.513   1.487   3.009  0.3183 -0.2936 -0.1362
 4864SOL    HW126228   1.556   1.483   3.094  0.4236 -1.3162 -0.2337
 4864SOL    HW226229   1.556   1.564   2.972 -2.0324  0.5483 -1.1353
 4865SOL     OW26230   3.995   1.535   7.705  0.3218  0.4450  0.3138
 4865SOL    HW126231   4.006   1.472   7.634  0.9259 -0.4541  1.2007
 4865SOL    HW226232   4.061   1.603   7.693  1.2267 -0.5057 -0.0378
 4866SOL     OW26233   1.434   2.646  12.265  0.4766 -0.1464  0.2098
 4866SOL    HW126234   1.348   2.672  12.300  0.9315  1.0484  0.4242
 4866SOL    HW226235   1.460   2.564  12.307 -0.8943 -1.6049 -1.7832
 4867SOL     OW26236   0.189   2.668  11.231 -0.3928 -0.1505 -0.0741
 4867SOL    HW126237   0.164   2.760  11.226  0.6704  0.2541  1.9994
 4867SOL    HW226238   0.283   2.674  11.212 -0.6832 -2.3005 -2.1117
 4868SOL     OW26239   2.362   4.395   6.772 -0.1023  0.3574  0.1551
 4868SOL    HW126240   2.298   4.442   6.826 -0.9252 -1.5823  0.8751
 4868SOL    HW226241   2.416   4.355   6.840 -1.1815  0.1666  0.9072
 4869SOL     OW26242   3.565   1.779   5.646 -0.2718  0.0420  0.1497
 4869SOL    HW126243   3.510   1.810   5.574  1.1688 -0.6736 -1.2396
 4869SOL    HW226244   3.495   1.746   5.703  0.3193 -0.9422  0.2867
 4870SOL     OW26245   1.665   4.527   0.693 -0.5004  0.0233  0.4299
 4870SOL    HW126246   1.736   4.591   0.702 -2.2845  1.8472  1.5847
 4870SOL    HW226247   1.699   4.464   0.755  1.8532 -0.3489 -1.2478
 4871SOL     OW26248   2.789   0.195   2.071  0.2852  0.1964  0.4544
 4871SOL    HW126249   2.787   0.169   2.163 -0.4626  0.3706  0.4854
 4871SOL    HW226250   2.831   0.281   2.081 -0.8265  0.6560  1.2034
 4872SOL     OW26251   2.156   3.475   7.708 -0.0880  0.2416  0.4414
 4872SOL    HW126252   2.167   3.528   7.629  0.7064  1.0288  1.0892
 4872SOL    HW226253   2.190   3.390   7.681  1.1863  1.4644 -1.7410
 4873SOL     OW26254   1.831   4.676   7.860  0.6985  0.2286 -0.1078
 4873SOL    HW126255   1.836   4.606   7.795  1.8654 -0.0119  0.2393
 4873SOL    HW226256   1.901   4.732   7.827 -0.0021  0.6580 -0.8433
 4874SOL     OW26257   3.790   1.455   3.118 -0.1553 -0.6216  0.0131
 4874SOL    HW126258   3.739   1.427   3.194 -0.9804 -1.9314 -1.0032
 4874SOL    HW226259   3.880   1.434   3.143 -1.0644 -1.1172  2.8596
 4875SOL     OW26260   4.203   4.260   7.279 -0.0950  0.0726  0.0478
 4875SOL    HW126261   4.151   4.221   7.350 -2.9305  2.9646 -0.3927
 4875SOL    HW226262   4.271   4.198   7.254  0.2730 -0.9384  3.5593
 4876SOL     OW26263   4.101   3.065  12.063  0.1351 -0.0057 -0.0149
 4876SOL    HW126264   4.143   3.125  12.124 -0.0933 -1.5766  1.6779
 4876SOL    HW226265   4.012   3.057  12.097 -0.0410  1.5773 -0.0981
 4877SOL     OW26266   4.340   1.038  14.491 -0.3087 -0.2996  0.5699
 4877SOL    HW126267   4.375   1.119  14.454 -0.4613 -0.3706  0.2622
 4877SOL    HW226268   4.341   0.985  14.411  2.2199  1.0319 -0.2514
 4878SOL     OW26269   0.850   0.819   6.307 -0.1775 -0.6716 -0.1838
 4878SOL    HW126270   0.944   0.824   6.325 -0.8763  1.3803  2.8292
 4878SOL    HW226271   0.802   0.875   6.368  2.1863 -0.8498  1.8191
 4879SOL     OW26272   0.876   0.785   6.631 -0.3666  0.8180 -0.3197
 4879SOL    HW126273   0.860   0.754   6.720 -3.0098  1.5219 -0.5427
 4879SOL    HW226274   0.964   0.752   6.612 -1.4208 -2.0251 -0.2625
 4880SOL     OW26275   4.712   0.963   4.000 -0.0633 -0.1890  0.3714
 4880SOL    HW126276   4.682   0.933   3.914 -1.6445  2.8898 -0.1659
 4880SOL    HW226277   0.041   1.028   3.974 -0.0809 -1.1110 -1.9022
 4881SOL     OW26278   2.254   3.954   7.099  0.5493  0.1626  0.0475
 4881SOL    HW126279   2.163   3.945   7.072 -0.0439  0.1683  2.0671
 4881SOL    HW226280   2.259   4.049   7.111  1.6818  0.3669 -1.9776
 4882SOL     OW26281   0.439   0.499  10.798  0.2392 -0.1792 -0.3142
 4882SOL    HW126282   0.413   0.591  10.797 -0.1377 -0.2818  0.5511
 4882SOL    HW226283   0.527   0.516  10.831 -0.7828  0.7374  1.9489
 4883SOL     OW26284   4.452   2.326   6.149 -0.2296 -0.1852  0.3033
 4883SOL    HW126285   4.541   2.332   6.114 -1.1381  2.1295 -1.6401
 4883SOL    HW226286   4.404   2.364   6.075 -1.2330  0.0404  1.0619
 4884SOL     OW26287   3.750   3.320   7.060  0.0566  0.1429 -0.1338
 4884SOL    HW126288   3.683   3.381   7.092  1.4861  0.1537  2.8225
 4884SOL    HW226289   3.710   3.257   7.000 -0.8929 -0.9575  1.6637
 4885SOL     OW26290   0.242   2.920  10.937  0.1182  0.0008  0.3226
 4885SOL    HW126291   0.177   2.850  10.933  0.1706  0.1928 -3.4823
 4885SOL    HW226292   0.310   2.878  10.989  0.2397  1.5959  1.4573
 4886SOL     OW26293   0.043   4.671   4.114  0.0979 -0.3397 -0.2060
 4886SOL    HW126294   4.689   4.703   4.123 -0.1257 -0.9694 -0.1969
 4886SOL    HW226295   0.085   0.011   4.074 -1.4810 -0.7290 -2.5643
 4887SOL     OW26296   0.757   3.203   2.548 -0.2173  0.4122 -0.0523
 4887SOL    HW126297   0.785   3.224   2.638 -0.0360  1.4849 -0.3619
 4887SOL    HW226298   0.772   3.108   2.550  0.5105  0.5531  1.1822
 4888SOL     OW26299   3.108   2.120   2.668 -0.6662  0.5012  0.0083
 4888SOL    HW126300   3.024   2.164   2.655 -0.7665 -0.6806 -3.1612
 4888SOL    HW226301   3.085   2.053   2.733 -1.4823  1.1440  0.3834
 4889SOL     OW26302   2.661   3.225   2.818 -0.3104  0.0775 -0.1117
 4889SOL    HW126303   2.713   3.236   2.739 -1.3354  0.8602 -0.6798
 4889SOL    HW226304   2.718   3.244   2.892  1.0670 -1.9997 -0.6525
 4890SOL     OW26305   2.286   3.085   1.968 -0.4504 -0.7606  0.5084
 4890SOL    HW126306   2.226   3.145   1.924 -0.4962 -1.6673 -0.6696
 4890SOL    HW226307   2.302   3.013   1.907  0.1260 -0.6061  0.4736
 4891SOL     OW26308   3.636   4.376  12.969 -0.0121  0.3241 -0.1881
 4891SOL    HW126309   3.726   4.345  12.979  0.6362  1.0102 -3.6138
 4891SOL    HW226310   3.605   4.321  12.897  3.5348 -0.4296 -1.1191
 4892SOL     OW26311   3.559   4.028   6.809  0.1281 -0.1223  0.5242
 4892SOL    HW126312   3.509   3.954   6.774 -0.0902  0.3156 -0.0935
 4892SOL    HW226313   3.596   4.002   6.893  0.2880  2.2345  1.1826
 4893SOL     OW26314   0.887   2.148   2.675  0.3093 -0.0173 -0.6325
 4893SOL    HW126315   0.949   2.090   2.630 -2.0906 -0.2130 -3.6740
 4893SOL    HW226316   0.811   2.104   2.638 -0.2176 -0.0500  0.4856
 4894SOL     OW26317   2.145   2.066  12.326  0.0195 -0.5015 -0.1336
 4894SOL    HW126318   2.189   2.032  12.404  0.1527  0.2525  0.1191
 4894SOL    HW226319   2.179   2.155  12.333  2.4532 -1.2260 -2.9397
 4895SOL     OW26320   2.112   1.103   0.107 -0.0169 -0.3965  0.9396
 4895SOL    HW126321   2.162   1.036   0.060 -0.2336 -0.1137  0.2999
 4895SOL    HW226322   2.076   1.151   0.032  0.3115  0.5866  1.4181
 4896SOL     OW26323   0.978   2.459   5.366  0.4367 -0.0403 -0.9513
 4896SOL    HW126324   0.888   2.471   5.336  0.4529  0.6695 -0.7066
 4896SOL    HW226325   0.994   2.367   5.344 -0.6388  0.2631 -3.0660
 4897SOL     OW26326   2.910   1.411   6.711  0.7528 -0.1250 -0.3346
 4897SOL    HW126327   2.971   1.470   6.667 -0.0690 -0.4221 -1.8798
 4897SOL    HW226328   2.960   1.376   6.784  1.6693 -0.6034 -1.1929
 4898SOL     OW26329   4.064   0.550   0.040  0.1672  0.0165  0.5609
 4898SOL    HW126330   4.149   0.589   0.059  0.6723 -1.4494  1.2639
 4898SOL    HW226331   4.075   0.543  17.688 -0.2621 -0.0107  0.5120
 4899SOL     OW26332   0.004   0.038  14.726  0.4106  0.3736  0.5853
 4899SOL    HW126333   4.688   0.108  14.685 -0.8702  0.1371  1.7890
 4899SOL    HW226334   0.094   0.048  14.696 -0.0890  1.3748 -0.6133
 4900SOL     OW26335   0.006   3.653   2.348 -0.2396 -0.3799  0.1583
 4900SOL    HW126336   4.674   3.644   2.281 -1.9506 -1.0811  2.0163
 4900SOL    HW226337   4.717   3.578   2.401 -2.5372  0.9719  0.9526
 4901SOL     OW26338   3.603   2.356  15.683 -0.1956  0.1371 -0.1838
 4901SOL    HW126339   3.540   2.299  15.726 -0.8049  0.0162 -1.2329
 4901SOL    HW226340   3.546   2.433  15.678 -0.7039 -0.2051  0.3918
 4902SOL     OW26341   1.463   1.765   8.618  0.4304 -0.2371  0.6271
 4902SOL    HW126342   1.545   1.815   8.627 -0.1545  0.9627 -0.6594
 4902SOL    HW226343   1.456   1.740   8.526  0.6696  3.0092 -0.2891
 4903SOL     OW26344   0.200   4.108   6.659  0.1681  0.1137 -0.4938
 4903SOL    HW126345   0.124   4.092   6.602 -1.5365 -0.8262  2.0495
 4903SOL    HW226346   0.166   4.129   6.746  0.6086  0.0129 -0.2978
 4904SOL     OW26347   2.277   4.725   9.101  0.2054  0.0316  0.7252
 4904SOL    HW126348   2.357   4.674   9.096  1.4126  2.1354 -1.5010
 4904SOL    HW226349   2.234   4.683   9.027 -0.8479 -3.6699  3.4503
 4905SOL     OW26350   3.629   0.595   8.127 -0.5706  0.3158 -0.1814
 4905SOL    HW126351   3.647   0.544   8.048  2.6933 -0.2835  0.9232
 4905SOL    HW226352   3.540   0.570   8.152 -1.1727  3.3385  0.6904
 4906SOL     OW26353   3.854   0.263   7.654  0.4491 -0.1451  0.0245
 4906SOL    HW126354   3.926   0.252   7.716 -0.2194 -1.3526  0.5771
 4906SOL    HW226355   3.882   0.337   7.600  1.6990 -1.0079 -0.5191
 4907SOL     OW26356   2.713   4.341  16.162  0.5473 -0.1417  0.3858
 4907SOL    HW126357   2.638   4.299  16.204  0.5313 -0.2325  0.2683
 4907SOL    HW226358   2.709   4.433  16.186 -1.9733 -0.4355  1.1506
 4908SOL     OW26359   2.088   4.608   0.105 -0.5863  0.2415  0.3158
 4908SOL    HW126360   1.997   4.600   0.135 -0.3798  0.5510  1.0168
 4908SOL    HW226361   2.129   4.628   0.189  1.0029  1.2481 -0.7240
 4909SOL     OW26362   1.802   0.735  14.825 -0.0398 -0.2311  0.4957
 4909SOL    HW126363   1.775   0.823  14.853  0.7677  0.1206  0.1832
 4909SOL    HW226364   1.761   0.740  14.739 -1.5579 -1.7676  1.1431
 4910SOL     OW26365   3.165   1.047   5.718  0.0039 -0.0689 -0.1187
 4910SOL    HW126366   3.222   1.045   5.641 -1.5958 -1.5372 -1.2685
 4910SOL    HW226367   3.101   0.979   5.698 -0.3863  0.2989 -0.1059
 4911SOL     OW26368   0.138   0.679   8.681 -0.5518 -0.2652  0.0987
 4911SOL    HW126369   0.093   0.763   8.670  2.1001  1.1535 -0.0029
 4911SOL    HW226370   0.093   0.631   8.611 -0.3471  0.3624 -0.4684
 4912SOL     OW26371   1.016   3.041   2.973  0.1673  0.4451  0.1970
 4912SOL    HW126372   1.002   2.963   2.919  1.2348 -0.3599  1.0856
 4912SOL    HW226373   1.015   3.005   3.061 -2.1360 -0.3886 -0.1705
 4913SOL     OW26374   3.189   0.438  10.857  0.1448 -0.1967  0.8680
 4913SOL    HW126375   3.211   0.345  10.865  2.6608  0.5367  2.3432
 4913SOL    HW226376   3.262   0.470  10.804 -0.5879  0.3801  0.2190
 4914SOL     OW26377   4.324   0.185   2.209  0.0184  0.5925 -0.2901
 4914SOL    HW126378   4.325   0.201   2.115 -2.0817 -1.1027 -0.5961
 4914SOL    HW226379   4.301   0.272   2.242 -0.3105  0.6215 -0.6105
 4915SOL     OW26380   2.538   3.855   4.277  0.4766  0.1155  0.1432
 4915SOL    HW126381   2.499   3.903   4.350  1.8300 -1.5052  1.9481
 4915SOL    HW226382   2.627   3.856   4.311  0.3995  0.2247  0.3420
 4916SOL     OW26383   3.245   1.972   7.588  0.6597 -0.3458 -0.1643
 4916SOL    HW126384   3.255   2.060   7.551  0.4662 -0.6451 -0.9150
 4916SOL    HW226385   3.186   1.990   7.661  0.0024 -0.3939 -0.6783
 4917SOL     OW26386   1.797   0.311   7.032 -0.0067 -0.4150 -0.0704
 4917SOL    HW126387   1.819   0.223   7.000  0.3673 -0.2432 -0.2837
 4917SOL    HW226388   1.829   0.366   6.960  0.4792  0.5821  0.9108
 4918SOL     OW26389   4.167   2.294   7.212  0.1455 -0.0181 -0.4133
 4918SOL    HW126390   4.146   2.346   7.289 -0.7833 -0.4602 -0.3761
 4918SOL    HW226391   4.083   2.292   7.166  0.0720 -0.9818 -0.2404
 4919SOL     OW26392   4.684   2.712   0.022  0.3222  0.4734  0.2928
 4919SOL    HW126393   4.724   2.749  17.686 -0.5746 -2.4804 -1.5829
 4919SOL    HW226394   4.723   2.625   0.030  0.0355  0.3185  0.0103
 4920SOL     OW26395   3.164   0.818   7.815 -0.2768  0.3873 -0.5545
 4920SOL    HW126396   3.116   0.742   7.783  1.9650  0.5467 -4.3489
 4920SOL    HW226397   3.175   0.809   7.910 -0.4774  0.5070 -0.5200
 4921SOL     OW26398   3.206   2.526   0.669  0.3414 -0.2601  0.2100
 4921SOL    HW126399   3.133   2.557   0.723 -0.4994 -4.6069  1.6097
 4921SOL    HW226400   3.250   2.487   0.745 -1.0455 -0.7992  0.7508
 4922SOL     OW26401   4.644   3.336   7.470  0.1262  0.4344 -0.3251
 4922SOL    HW126402   4.622   3.410   7.527  2.5930  0.8856  0.0424
 4922SOL    HW226403   4.678   3.381   7.393  0.3582 -0.3249 -0.6603
 4923SOL     OW26404   1.225   3.795   9.191  0.0484  0.0562  0.5398
 4923SOL    HW126405   1.185   3.874   9.155 -1.3884 -0.8646  0.0716
 4923SOL    HW226406   1.157   3.727   9.185 -1.2566  1.5985 -2.0865
 4924SOL     OW26407   3.167   0.589   9.640 -0.3168  0.1931 -0.3234
 4924SOL    HW126408   3.133   0.668   9.683  0.7181  0.3905  0.1392
 4924SOL    HW226409   3.124   0.519   9.689 -1.0298  1.1942  0.4807
 4925SOL     OW26410   3.636   3.224   1.039  0.1624 -0.5222  0.0167
 4925SOL    HW126411   3.556   3.182   1.070  2.1015 -2.5270  2.2763
 4925SOL    HW226412   3.635   3.289   1.109  1.0704 -1.8734  1.2847
 4926SOL     OW26413   3.081   0.066   4.503  0.0363  0.2223 -0.1103
 4926SOL    HW126414   3.131   0.121   4.441  1.2848 -0.3566  0.3855
 4926SOL    HW226415   3.004   0.121   4.515 -0.6158 -0.7280  0.0201
 4927SOL     OW26416   1.296   4.266   7.455  0.1171 -0.0692  0.8033
 4927SOL    HW126417   1.207   4.294   7.432  0.2071 -0.6420 -0.2287
 4927SOL    HW226418   1.295   4.171   7.445  1.8150 -0.1471  1.4892
 4928SOL     OW26419   0.589   4.035  14.526  0.4226 -0.2148 -0.5734
 4928SOL    HW126420   0.525   4.039  14.455 -1.6745 -0.9669  1.2678
 4928SOL    HW226421   0.661   4.088  14.492  0.4960 -0.0948 -0.2333
 4929SOL     OW26422   0.035   2.123   8.922 -0.6967 -0.0080 -0.4441
 4929SOL    HW126423   4.724   2.072   8.987  1.2594 -1.3503 -0.0877
 4929SOL    HW226424   0.034   2.057   8.852 -0.6604  2.9154 -3.2298
 4930SOL     OW26425   1.032   0.745   7.876  0.3101 -0.5054 -0.1341
 4930SOL    HW126426   0.998   0.831   7.904 -0.9506 -1.0011 -0.1090
 4930SOL    HW226427   1.000   0.736   7.787 -1.4381  0.1182  0.4141
 4931SOL     OW26428   3.888   0.446   2.429 -0.2789 -0.2327 -0.7063
 4931SOL    HW126429   3.887   0.541   2.415  0.3812 -0.4166 -1.9361
 4931SOL    HW226430   3.935   0.414   2.352  0.7020 -4.9869  1.8778
 4932SOL     OW26431   1.564   3.784   5.916 -0.0806 -0.3774  0.2390
 4932SOL    HW126432   1.592   3.817   5.831  0.1515  0.0273  0.4692
 4932SOL    HW226433   1.649   3.768   5.957  0.4643  1.4747 -0.1916
 4933SOL     OW26434   4.133   1.421  13.378  0.2213  0.0861 -0.3961
 4933SOL    HW126435   4.109   1.463  13.296 -2.4989  2.1082  1.4434
 4933SOL    HW226436   4.135   1.331  13.344  0.6349 -0.1410  0.2310
 4934SOL     OW26437   1.618   0.285   3.661  0.3004  0.2231  0.3755
 4934SOL    HW126438   1.624   0.249   3.573  1.2797 -2.5820  1.5657
 4934SOL    HW226439   1.547   0.231   3.696 -0.4101  0.0293 -1.4034
 4935SOL     OW26440   1.726   3.530  17.581 -0.0246  0.3574 -0.6483
 4935SOL    HW126441   1.745   3.620  17.608 -0.1959 -0.3140  1.7120
 4935SOL    HW226442   1.705   3.539  17.488  0.8253 -1.1250 -0.9937
 4936SOL     OW26443   1.013   2.768   2.700  0.2331 -0.6688 -0.0414
 4936SOL    HW126444   1.106   2.744   2.695  0.0478 -0.9511 -2.0637
 4936SOL    HW226445   0.980   2.707   2.633  0.2273 -1.2060  0.4455
 4937SOL     OW26446   0.277   2.913   0.678  0.1998 -0.7666  0.1771
 4937SOL    HW126447   0.210   2.969   0.717 -0.2010 -0.8468 -0.3912
 4937SOL    HW226448   0.239   2.896   0.592  2.9563  1.2614 -1.4490
 4938SOL     OW26449   4.330   2.396   3.237  0.2125  0.1611  0.2731
 4938SOL    HW126450   4.346   2.483   3.200  0.6043  0.5291  1.3166
 4938SOL    HW226451   4.364   2.407   3.325 -0.2915  2.9060  0.1235
 4939SOL     OW26452   1.999   1.545   2.633  0.5675 -0.5952 -0.5224
 4939SOL    HW126453   2.070   1.503   2.585 -2.1307 -2.5184 -2.8349
 4939SOL    HW226454   1.917   1.528   2.586 -0.8350  1.0603  1.3139
 4940SOL     OW26455   3.144   0.768  12.304 -0.2339  0.0383  0.3058
 4940SOL    HW126456   3.144   0.695  12.365 -2.9306  0.1926  0.5059
 4940SOL    HW226457   3.118   0.721  12.224  1.7586  0.5350 -0.6424
 4941SOL     OW26458   2.904   4.423   0.438  0.1294  0.0862 -0.6902
 4941SOL    HW126459   2.876   4.348   0.386 -1.7738  0.7976 -0.6737
 4941SOL    HW226460   2.869   4.399   0.524 -0.3108  2.6247 -0.1713
 4942SOL     OW26461   2.864   2.993   3.961 -0.4832 -0.2483  0.1163
 4942SOL    HW126462   2.898   2.938   3.889  2.6072 -0.8574  2.0522
 4942SOL    HW226463   2.773   2.973   3.941 -0.0171 -1.8252 -0.4518
 4943SOL     OW26464   2.960   3.062  13.945 -0.5680 -0.4187 -0.0220
 4943SOL    HW126465   2.872   3.080  13.975  0.2092 -1.8497  3.1333
 4943SOL    HW226466   2.969   2.967  13.954 -2.2465 -0.6681 -1.0839
 4944SOL     OW26467   0.649   4.188   7.247  0.1515  0.1504 -0.0663
 4944SOL    HW126468   0.593   4.158   7.318  1.3785 -0.3031  0.7055
 4944SOL    HW226469   0.586   4.254   7.217  0.7869  1.0568  0.6096
 4945SOL     OW26470   1.587   1.654   8.920  0.3734  0.5091  0.2620
 4945SOL    HW126471   1.667   1.685   8.961  1.4279 -1.3624 -0.3849
 4945SOL    HW226472   1.621   1.590   8.857 -2.3224 -0.5933 -0.1034
 4946SOL     OW26473   1.885   0.515  10.755 -0.6482  0.4238  0.2937
 4946SOL    HW126474   1.858   0.433  10.712  2.0321  0.5885 -1.7535
 4946SOL    HW226475   1.939   0.486  10.828 -0.6493  0.0399  0.1414
 4947SOL     OW26476   3.733   0.374   9.364  0.3246  0.5956  0.0432
 4947SOL    HW126477   3.693   0.383   9.451  2.5414 -0.1886  1.1570
 4947SOL    HW226478   3.696   0.447   9.316  0.7826  0.9422  0.2237
 4948SOL     OW26479   0.096   2.292   4.951 -0.6822 -0.0530 -0.9112
 4948SOL    HW126480   0.143   2.373   4.973 -3.0251  1.3068 -0.9810
 4948SOL    HW226481   0.131   2.227   5.013 -2.4265 -1.0706 -1.0041
 4949SOL     OW26482   1.314   1.940  11.080 -0.2110 -0.0426 -0.4560
 4949SOL    HW126483   1.374   2.013  11.061  0.4660 -0.8618 -1.4567
 4949SOL    HW226484   1.237   1.988  11.111  0.2643  0.5492 -0.1766
 4950SOL     OW26485   0.943   3.268   8.042 -0.2745 -0.1299 -0.4126
 4950SOL    HW126486   0.905   3.309   8.119  1.6630  0.4324  0.2354
 4950SOL    HW226487   0.954   3.342   7.983 -0.7142 -0.6712 -1.1807
 4951SOL     OW26488   2.697   4.011   2.175 -0.1279  0.0863 -0.1830
 4951SOL    HW126489   2.728   3.979   2.090 -0.1620  1.0012 -0.5423
 4951SOL    HW226490   2.634   4.071   2.134 -1.0210 -0.5222  0.3155
 4952SOL     OW26491   1.622   1.359  16.247 -0.2978 -0.1472 -0.1148
 4952SOL    HW126492   1.537   1.358  16.203 -0.8485  0.0819  0.9380
 4952SOL    HW226493   1.601   1.342  16.339 -5.4415  2.5057 -0.8277
 4953SOL     OW26494   1.369   1.188   2.370  0.3186 -0.1088  0.1342
 4953SOL    HW126495   1.397   1.145   2.289 -0.2939  1.7603 -1.0704
 4953SOL    HW226496   1.449   1.170   2.420  0.4497  0.4895  0.1382
 4954SOL     OW26497   2.901   4.094   1.178 -0.4808  0.4668 -0.1047
 4954SOL    HW126498   2.953   4.174   1.169  1.2908 -0.6597  0.2873
 4954SOL    HW226499   2.894   4.098   1.274 -0.2157  2.9870 -0.1875
 4955SOL     OW26500   3.600   3.098  12.109 -0.1916 -0.4394 -0.1717
 4955SOL    HW126501   3.542   3.027  12.137  0.1766  0.1663  2.1163
 4955SOL    HW226502   3.555   3.128  12.030 -0.1377  1.1303  0.3840
 4956SOL     OW26503   0.236   4.251  15.063 -0.5793  0.1613  0.3682
 4956SOL    HW126504   0.319   4.210  15.038  0.5689  2.1283  0.9143
 4956SOL    HW226505   0.224   4.214  15.151  1.2208  0.7291  0.8557
 4957SOL     OW26506   2.834   0.994   5.527  0.3162  0.0548 -0.0274
 4957SOL    HW126507   2.852   1.087   5.537  2.1497 -0.1447 -1.2993
 4957SOL    HW226508   2.764   0.981   5.590  0.1601 -3.1846 -0.8864
 4958SOL     OW26509   2.651   1.739  16.617 -0.5318  0.1056 -0.5809
 4958SOL    HW126510   2.640   1.813  16.677  1.6817  0.7538 -0.9731
 4958SOL    HW226511   2.559   1.728  16.594 -1.1343  0.3435  1.6417
 4959SOL     OW26512   0.434   3.365  11.590  0.1484  0.0910  0.0401
 4959SOL    HW126513   0.523   3.350  11.621  0.7763  2.0708 -0.7664
 4959SOL    HW226514   0.385   3.299  11.638 -0.2367  0.5154  0.2342
 4960SOL     OW26515   0.378   3.908   8.904 -0.1068  0.0323 -0.1837
 4960SOL    HW126516   0.287   3.896   8.932  0.1069  0.5536  0.7487
 4960SOL    HW226517   0.416   3.935   8.988  1.7796  0.1099 -1.0706
 4961SOL     OW26518   3.928   2.403   1.805  0.2245 -0.0568  0.4461
 4961SOL    HW126519   4.023   2.405   1.800  0.2816  0.9965  1.8737
 4961SOL    HW226520   3.904   2.491   1.775 -0.2043 -0.2692  0.1610
 4962SOL     OW26521   0.098   0.545   4.884 -0.3493 -0.9451 -0.2398
 4962SOL    HW126522   0.018   0.584   4.920 -0.1696 -0.0848 -0.7835
 4962SOL    HW226523   0.078   0.517   4.795 -0.5712  0.4448 -0.6334
 4963SOL     OW26524   4.384   3.584   1.735  0.3077  0.3337 -0.2564
 4963SOL    HW126525   4.344   3.639   1.802 -0.3683 -2.2589  1.4699
 4963SOL    HW226526   4.367   3.493   1.761  1.6226  0.3694  0.7064
 4964SOL     OW26527   3.736   2.294  11.968 -0.1182 -0.0263 -0.0814
 4964SOL    HW126528   3.767   2.370  12.018  0.9618  0.0783 -0.9069
 4964SOL    HW226529   3.674   2.254  12.029  1.3370 -0.8146  0.8904
 4965SOL     OW26530   3.841   1.470  14.631  0.2640 -0.9002  0.7092
 4965SOL    HW126531   3.911   1.474  14.696  0.0858 -0.9016  0.9004
 4965SOL    HW226532   3.885   1.410  14.572 -0.0647  0.0128 -0.4587
 4966SOL     OW26533   0.226   2.963  17.367  0.6077  0.5959 -1.0946
 4966SOL    HW126534   0.287   3.009  17.424  1.9494 -0.6891 -1.5008
 4966SOL    HW226535   0.198   3.033  17.307 -1.1186  1.0563  0.2654
 4967SOL     OW26536   2.855   3.516   6.556 -0.2508  0.1978 -0.2609
 4967SOL    HW126537   2.833   3.527   6.464  0.4718  0.1067 -0.4400
 4967SOL    HW226538   2.770   3.492   6.595  0.6888  1.6473  2.7359
 4968SOL     OW26539   3.347   0.994   4.830 -0.5514  0.2015  0.4863
 4968SOL    HW126540   3.332   1.083   4.798 -1.5301 -0.3427 -0.5856
 4968SOL    HW226541   3.274   0.972   4.887  0.0397 -1.9079  0.4422
 4969SOL     OW26542   1.318   0.957  11.161 -0.5109  0.2674 -0.0703
 4969SOL    HW126543   1.288   0.870  11.185 -0.0361  0.1828  0.2191
 4969SOL    HW226544   1.402   0.950  11.117 -0.4177  0.4652  0.0750
 4970SOL     OW26545   0.433   1.434   9.266  0.1488 -0.3790 -0.0650
 4970SOL    HW126546   0.519   1.412   9.301 -0.5832 -1.8512  0.8031
 4970SOL    HW226547   0.440   1.526   9.240  0.7651  0.0719  1.7254
 4971SOL     OW26548   0.214   2.237   2.410  0.0841  0.2533  0.3198
 4971SOL    HW126549   0.187   2.312   2.462 -2.7041  0.1160 -0.9085
 4971SOL    HW226550   0.308   2.228   2.428  0.8216  4.5640 -1.3099
 4972SOL     OW26551   3.064   4.454   8.596 -0.3847 -0.6913 -0.0683
 4972SOL    HW126552   3.117   4.517   8.547  1.6600 -0.8070  1.9616
 4972SOL    HW226553   3.055   4.502   8.678  0.2796  0.6040 -0.7607
 4973SOL     OW26554   3.419   1.334   7.175 -0.2187  0.1664 -0.1349
 4973SOL    HW126555   3.464   1.326   7.260 -0.5194 -1.6297 -0.1607
 4973SOL    HW226556   3.392   1.248   7.145 -1.1828  0.0134  1.1384
 4974SOL     OW26557   0.651   2.747   3.475 -0.1141  0.0313 -0.5034
 4974SOL    HW126558   0.620   2.785   3.557 -2.3039 -2.7954 -0.0443
 4974SOL    HW226559   0.660   2.657   3.507  1.9216 -0.0983 -1.4189
 4975SOL     OW26560   0.545   4.646   7.982 -0.0747 -0.2453 -0.2780
 4975SOL    HW126561   0.470   4.589   7.997 -1.4546  1.5121 -0.5220
 4975SOL    HW226562   0.616   4.587   7.957  0.2799  0.0815 -0.0546
 4976SOL     OW26563   4.434   0.430   7.913  0.3755  0.3955 -0.0708
 4976SOL    HW126564   4.388   0.458   7.992 -0.3395  2.1645 -1.1131
 4976SOL    HW226565   4.426   0.503   7.851  0.5813 -0.7694 -1.4692
 4977SOL     OW26566   0.834   3.898   6.759 -0.0963  0.1482 -0.4944
 4977SOL    HW126567   0.776   3.968   6.792 -0.3255 -0.1254 -0.3180
 4977SOL    HW226568   0.922   3.928   6.780  0.3649 -0.7171 -1.1816
 4978SOL     OW26569   0.133   1.379  16.305 -0.1757 -0.2216  0.6244
 4978SOL    HW126570   0.206   1.339  16.352  2.6008  2.0803 -1.7145
 4978SOL    HW226571   0.176   1.417  16.228 -2.2559  0.9125  0.0207
 4979SOL     OW26572   1.286   3.584   9.530 -0.1058  0.1321 -0.5553
 4979SOL    HW126573   1.308   3.492   9.514 -0.3263 -0.6370  3.5766
 4979SOL    HW226574   1.209   3.569   9.585 -0.4805  2.5819 -0.4140
 4980SOL     OW26575   3.747   2.867   9.999  0.0764  0.2664  0.2410
 4980SOL    HW126576   3.711   2.803  10.061 -0.7524  0.0446 -0.4659
 4980SOL    HW226577   3.834   2.828   9.990  0.1659  0.2434  1.1725
 4981SOL     OW26578   3.247   3.731   1.866  1.2377 -0.3146  0.0374
 4981SOL    HW126579   3.253   3.820   1.901  1.2847 -1.1494  2.1710
 4981SOL    HW226580   3.271   3.680   1.943 -0.0200 -3.7230 -1.8254
 4982SOL     OW26581   2.170   3.157   7.953 -0.1669  0.5723 -0.4571
 4982SOL    HW126582   2.132   3.074   7.981  1.0662  0.3915  0.6301
 4982SOL    HW226583   2.096   3.216   7.969 -0.4672  0.3524 -1.0203
 4983SOL     OW26584   1.184   3.830   0.378 -0.1887  0.2794 -0.0095
 4983SOL    HW126585   1.106   3.858   0.330 -0.3972  0.4291  0.4169
 4983SOL    HW226586   1.255   3.850   0.318 -0.5645 -1.8861 -1.1651
 4984SOL     OW26587   0.804   4.655   2.209  0.1388 -0.5233 -0.6028
 4984SOL    HW126588   0.760   4.667   2.293 -0.2442  0.8854 -0.9964
 4984SOL    HW226589   0.792   4.562   2.190  2.4975 -0.5976 -1.7326
 4985SOL     OW26590   3.960   2.008   4.679  0.5006  0.4133 -0.2389
 4985SOL    HW126591   3.875   1.992   4.720  0.5854  0.3195 -0.1002
 4985SOL    HW226592   4.002   2.067   4.741 -0.2517  2.4289 -1.6452
 4986SOL     OW26593   1.265   0.400   4.931  0.5027  0.1938  0.3988
 4986SOL    HW126594   1.312   0.427   5.010  1.2605  0.8176 -0.2638
 4986SOL    HW226595   1.247   0.309   4.956  0.1550  0.7201  2.0307
 4987SOL     OW26596   1.738   3.167   1.819  0.5984 -0.0704 -0.6048
 4987SOL    HW126597   1.812   3.187   1.762  1.3399 -0.3720  0.2443
 4987SOL    HW226598   1.698   3.250   1.845  3.0501  1.2923 -1.1619
 4988SOL     OW26599   3.091   2.968   8.352  0.0119  0.0330  0.3652
 4988SOL    HW126600   3.123   3.035   8.412  0.0589 -2.0124  2.5999
 4988SOL    HW226601   3.176   2.942   8.316  0.1700 -1.1253  1.6079
 4989SOL     OW26602   4.376   1.032  16.556 -0.2705  0.0962  0.1084
 4989SOL    HW126603   4.390   0.961  16.619  0.5560  0.1281 -0.0323
 4989SOL    HW226604   4.284   1.012  16.538  0.3845 -1.6333 -1.3564
 4990SOL     OW26605   0.771   3.175   2.059 -0.3793  0.3440 -0.0540
 4990SOL    HW126606   0.809   3.252   2.100 -2.4703  1.2148  0.2375
 4990SOL    HW226607   0.697   3.150   2.115 -1.6953 -0.7489 -2.2572
 4991SOL     OW26608   4.258   2.720   0.359 -0.0061 -0.0981  0.3096
 4991SOL    HW126609   4.249   2.789   0.293  2.0716 -1.4790 -1.4262
 4991SOL    HW226610   4.239   2.643   0.305  1.5944 -0.5439  0.3862
 4992SOL     OW26611   0.599   0.594   6.681  0.4918 -0.1431 -0.1918
 4992SOL    HW126612   0.575   0.658   6.613 -0.0676 -0.5372 -0.3672
 4992SOL    HW226613   0.628   0.650   6.752 -0.4273  0.3776 -0.2168
 4993SOL     OW26614   0.338   0.308   3.003  0.4745  0.1596 -0.1633
 4993SOL    HW126615   0.322   0.214   2.992 -0.2125  0.0966  1.3322
 4993SOL    HW226616   0.254   0.349   3.024  0.0266  0.1922 -2.0408
 4994SOL     OW26617   2.418   0.305   9.074 -0.1410  0.4084 -0.6727
 4994SOL    HW126618   2.462   0.380   9.035 -0.7952  2.4541  2.5625
 4994SOL    HW226619   2.349   0.345   9.127 -1.7189 -2.3726 -0.6050
 4995SOL     OW26620   0.038   2.827  17.480  0.2942 -0.6298 -0.4877
 4995SOL    HW126621   0.024   2.888  17.552  2.5821 -1.3055  0.5284
 4995SOL    HW226622   0.100   2.880  17.431  1.4333  1.2667  3.0211
 4996SOL     OW26623   0.534   0.174  14.409 -0.1340 -0.1494 -0.3213
 4996SOL    HW126624   0.570   0.092  14.443 -3.9596 -2.4128 -1.6505
 4996SOL    HW226625   0.610   0.217  14.369  0.4565 -1.3697 -0.5272
 4997SOL     OW26626   4.502   2.091  17.094 -0.1834  0.3100 -0.4298
 4997SOL    HW126627   4.541   2.178  17.083 -0.9265  0.3937 -2.5456
 4997SOL    HW226628   4.462   2.074  17.009  0.6406  2.0883 -1.1870
 4998SOL     OW26629   3.779   1.764   7.511 -0.6273 -0.1867 -0.2424
 4998SOL    HW126630   3.783   1.832   7.579 -0.3924  0.3502 -0.7915
 4998SOL    HW226631   3.717   1.797   7.446 -0.0682  1.0313 -0.1540
 4999SOL     OW26632   2.813   3.944  15.968  0.7758  0.1152 -0.7360
 4999SOL    HW126633   2.771   3.913  15.888  1.7681  0.5062 -1.4140
 4999SOL    HW226634   2.807   4.038  15.954 -4.3947  0.1345  1.4431
 5000SOL     OW26635   0.019   3.228   6.907  0.1157  0.5833 -0.2573
 5000SOL    HW126636   0.093   3.281   6.878  0.7553 -1.3767 -2.2503
 5000SOL    HW226637   4.675   3.251   6.861 -0.9751  2.5722  2.6542
 5001SOL     OW26638   2.805   0.882   6.051 -0.3022 -0.3210 -0.1545
 5001SOL    HW126639   2.709   0.877   6.046 -0.3992  0.3771  1.0331
 5001SOL    HW226640   2.816   0.913   6.140  1.9865  0.5849 -0.7509
 5002SOL     OW26641   1.987   2.948   2.544  0.2095 -0.4089 -0.5745
 5002SOL    HW126642   2.072   2.913   2.516  0.9616  0.7994  0.2251
 5002SOL    HW226643   1.979   3.012   2.474 -1.1701  1.3402  1.2006
 5003SOL     OW26644   4.512   1.506   5.061  0.1143  0.4943 -0.8510
 5003SOL    HW126645   4.506   1.412   5.079 -0.8357  0.9719  1.3992
 5003SOL    HW226646   4.605   1.522   5.075  0.1617  0.5931 -1.2831
 5004SOL     OW26647   2.694   1.544  16.149  0.3160 -0.4722  0.3347
 5004SOL    HW126648   2.628   1.488  16.189  1.6854 -2.7521 -0.6069
 5004SOL    HW226649   2.726   1.602  16.219  2.4877 -2.0763  0.6658
 5005SOL     OW26650   4.187   3.398   1.593  0.4434 -0.5282  0.4040
 5005SOL    HW126651   4.176   3.469   1.530 -1.7019 -1.2998 -0.0736
 5005SOL    HW226652   4.182   3.314   1.548 -1.3292 -0.6035  0.7653
 5006SOL     OW26653   0.776   3.881   5.022 -0.4319  0.2379  0.2369
 5006SOL    HW126654   0.740   3.863   5.109  0.0453  0.4946  0.4894
 5006SOL    HW226655   0.697   3.907   4.975 -0.7510 -1.1800 -0.0192
 5007SOL     OW26656   1.644   1.014   5.118  0.0379 -0.2747 -0.3442
 5007SOL    HW126657   1.595   0.935   5.094  1.7612 -1.0862 -1.1894
 5007SOL    HW226658   1.666   1.050   5.032  2.0830 -0.9012 -0.0769
 5008SOL     OW26659   1.745   1.897   2.533  0.5696  0.7279 -0.0884
 5008SOL    HW126660   1.725   1.960   2.464 -0.6600  2.4038  1.7674
 5008SOL    HW226661   1.656   1.864   2.550  0.9965 -1.1181 -1.4964
 5009SOL     OW26662   4.592   1.901  11.096  0.0498  0.3058  0.4098
 5009SOL    HW126663   4.674   1.865  11.063 -0.2472  0.6868 -0.7543
 5009SOL    HW226664   4.575   1.850  11.175 -3.8452  0.0803 -0.5919
 5010SOL     OW26665   4.091   3.930  11.479 -0.2529 -0.7368  0.3365
 5010SOL    HW126666   4.098   3.836  11.495  1.2049 -0.8272 -0.7928
 5010SOL    HW226667   4.033   3.965  11.547 -0.0749 -0.1458  0.1865
 5011SOL     OW26668   1.657   0.905   4.793  0.2710  0.7900  0.0676
 5011SOL    HW126669   1.662   0.812   4.772 -0.6930  0.5564  0.8536
 5011SOL    HW226670   1.564   0.900   4.814  0.3579  1.0888  0.5431
 5012SOL     OW26671   4.017   2.021   6.049  0.0834 -0.0748  0.5567
 5012SOL    HW126672   3.930   1.980   6.045  0.6127 -0.8197 -4.2963
 5012SOL    HW226673   4.027   2.045   6.141 -0.2849  1.0966  0.2922
 5013SOL     OW26674   1.923   3.717   7.353 -0.1096 -0.0649 -0.4811
 5013SOL    HW126675   1.967   3.801   7.337 -1.3905  0.6411 -0.2942
 5013SOL    HW226676   1.943   3.702   7.445 -0.1014 -0.2052 -0.5054
 5014SOL     OW26677   0.490   0.064  16.684 -0.2037 -0.8104 -0.3502
 5014SOL    HW126678   0.420   0.111  16.728  1.7604  1.5762  0.2322
 5014SOL    HW226679   0.451   4.717  16.654 -1.8268  0.0387 -0.5563
 5015SOL     OW26680   3.165   4.452   7.392 -0.0875 -0.5511  0.2522
 5015SOL    HW126681   3.102   4.482   7.458  0.4031  0.4030  0.2988
 5015SOL    HW226682   3.149   4.360   7.414 -1.7700 -0.3300 -0.0566
 5016SOL     OW26683   3.699   2.483  12.980 -0.1023 -0.1523  0.0853
 5016SOL    HW126684   3.721   2.514  13.068 -0.8116  0.6301 -0.0207
 5016SOL    HW226685   3.727   2.393  12.994  0.7057  0.1806  0.5953
 5017SOL     OW26686   2.056   2.690   7.809  0.0729  0.1848  0.1304
 5017SOL    HW126687   2.026   2.755   7.745  1.2489 -1.1860 -1.8347
 5017SOL    HW226688   2.140   2.670   7.769  0.8516  2.9108  0.3775
 5018SOL     OW26689   0.215   2.653   4.420  0.3657  0.6372  1.2611
 5018SOL    HW126690   0.217   2.668   4.515 -0.3288  1.8750  1.0759
 5018SOL    HW226691   0.295   2.700   4.398 -0.6108  0.5971 -2.4391
 5019SOL     OW26692   0.271   4.274   1.129 -0.8200  0.0852 -1.0388
 5019SOL    HW126693   0.311   4.252   1.213  0.3765  2.1614 -1.0744
 5019SOL    HW226694   0.196   4.215   1.140  1.2399 -2.4585 -0.4209
 5020SOL     OW26695   1.578   3.800   2.682 -0.3997  0.3041 -0.5641
 5020SOL    HW126696   1.513   3.829   2.617  2.1361  1.7423 -2.4436
 5020SOL    HW226697   1.643   3.868   2.666  0.6029 -0.3330  0.8615
 5021SOL     OW26698   1.198   2.195   1.057  0.0088  0.4577 -0.4065
 5021SOL    HW126699   1.234   2.281   1.035 -0.7056  0.5911 -1.0266
 5021SOL    HW226700   1.133   2.215   1.124  0.3216  1.7521 -0.5050
 5022SOL     OW26701   3.131   4.416  11.397  0.1593 -0.1234 -0.2081
 5022SOL    HW126702   3.193   4.434  11.467  1.1387 -1.3250 -0.7640
 5022SOL    HW226703   3.139   4.492  11.340  3.2911  0.2643  0.7498
 5023SOL     OW26704   2.088   3.839   6.201  0.3110  0.1701 -0.0192
 5023SOL    HW126705   2.008   3.801   6.165  0.4298 -0.0639 -0.0417
 5023SOL    HW226706   2.102   3.916   6.147 -0.8504  1.6853  1.8561
 5024SOL     OW26707   2.349   0.732   6.976  0.2729 -0.5865  0.2200
 5024SOL    HW126708   2.305   0.648   6.983  1.1736 -1.2379 -1.8778
 5024SOL    HW226709   2.273   0.788   6.992  1.2390  1.4614 -2.2110
 5025SOL     OW26710   3.908   1.754   7.130  0.1017  0.1845 -0.3655
 5025SOL    HW126711   3.945   1.767   7.218 -0.1049 -2.2064  0.0780
 5025SOL    HW226712   3.980   1.783   7.075  0.7049  3.8442  2.3281
 5026SOL     OW26713   2.709   0.317  10.774 -0.4928 -0.1559  0.4416
 5026SOL    HW126714   2.687   0.362  10.856  0.6980  0.0165  0.6678
 5026SOL    HW226715   2.804   0.317  10.786 -0.2242 -0.3141 -1.8430
 5027SOL     OW26716   2.741   3.683   2.154 -0.0863  0.2913 -0.0607
 5027SOL    HW126717   2.754   3.671   2.060 -3.1533  0.7421 -0.5358
 5027SOL    HW226718   2.813   3.741   2.181  0.0463 -0.1592  0.5502
 5028SOL     OW26719   2.027   3.264   6.278  0.5339  0.1687  0.2713
 5028SOL    HW126720   2.005   3.201   6.346 -1.8232  2.0373  1.2526
 5028SOL    HW226721   2.067   3.333   6.331 -1.4832 -1.0980  3.4465
 5029SOL     OW26722   2.668   0.814   0.950 -0.3353  0.6434 -0.2644
 5029SOL    HW126723   2.713   0.817   0.866  0.4297  0.4867  0.1437
 5029SOL    HW226724   2.593   0.758   0.930  0.6070 -1.3798  1.8723
 5030SOL     OW26725   4.224   3.896  14.904  0.5551 -0.6892 -0.4293
 5030SOL    HW126726   4.244   3.981  14.863  0.9511 -0.4639  0.2178
 5030SOL    HW226727   4.215   3.837  14.829 -2.3585 -0.3956 -0.2849
 5031SOL     OW26728   4.559   3.416   7.738  0.2071 -0.2858  0.3307
 5031SOL    HW126729   4.511   3.429   7.820  0.1872 -1.0204  0.4370
 5031SOL    HW226730   4.523   3.484   7.680 -0.3096 -0.8419  0.0005
 5032SOL     OW26731   0.821   4.420  16.709 -0.3904 -0.2086  0.6186
 5032SOL    HW126732   0.740   4.375  16.733  0.9215 -2.6662  0.5282
 5032SOL    HW226733   0.804   4.446  16.619 -0.4113 -0.3542  0.5796
 5033SOL     OW26734   2.368   1.520  15.196  0.1102 -0.0992  0.6106
 5033SOL    HW126735   2.413   1.553  15.274 -0.8505  0.3174  0.9861
 5033SOL    HW226736   2.400   1.430  15.205  2.3281  0.5304 -0.9604
 5034SOL     OW26737   1.754   0.774   3.352  0.2362  0.0598  0.6150
 5034SOL    HW126738   1.840   0.735   3.365  0.0477 -0.7824 -0.7031
 5034SOL    HW226739   1.736   0.718   3.276 -0.2315  3.6755 -1.9378
 5035SOL     OW26740   0.530   3.667  15.536 -0.3923  0.0361  0.8371
 5035SOL    HW126741   0.571   3.619  15.608 -0.8172 -0.9012  0.4589
 5035SOL    HW226742   0.605   3.693  15.483 -1.3515 -1.4127 -1.2126
 5036SOL     OW26743   2.521   1.350  15.560 -0.3610  0.2856  0.0557
 5036SOL    HW126744   2.432   1.316  15.555 -0.4549  0.5081  0.2551
 5036SOL    HW226745   2.516   1.435  15.603 -1.0846 -0.0995  0.7274
 5037SOL     OW26746   4.358   4.668   4.729 -0.4474 -0.0426 -0.0771
 5037SOL    HW126747   4.380   4.706   4.815  1.9705 -1.5026 -0.0403
 5037SOL    HW226748   4.267   4.661   4.756 -0.1484 -0.0117  0.9468
 5038SOL     OW26749   0.219   2.247   6.466 -0.4092 -0.6749 -0.2228
 5038SOL    HW126750   0.149   2.191   6.434 -2.6428  1.9725  0.0861
 5038SOL    HW226751   0.288   2.181   6.478  0.9755  0.6212 -1.0639
 5039SOL     OW26752   0.128   4.533   5.671  0.0313 -0.0831 -0.1522
 5039SOL    HW126753   0.069   4.474   5.717 -0.0621  0.7031  0.7439
 5039SOL    HW226754   0.200   4.536   5.734 -1.5773 -0.6185  1.6969
 5040SOL     OW26755   3.924   0.329   5.755 -0.2767  0.3621  0.6801
 5040SOL    HW126756   3.956   0.387   5.686  1.2974 -1.1849  0.1059
 5040SOL    HW226757   3.833   0.312   5.729 -0.6279  0.1422  2.0706
 5041SOL     OW26758   3.521   2.048   9.201  0.1394 -0.0611 -0.3371
 5041SOL    HW126759   3.452   2.060   9.135 -0.1240 -0.7123 -0.1780
 5041SOL    HW226760   3.582   1.998   9.148  0.3544 -0.1742  0.0168
 5042SOL     OW26761   1.425   0.410   2.539 -0.1687  0.4046  0.3431
 5042SOL    HW126762   1.462   0.470   2.474  0.7434 -2.5317 -1.8905
 5042SOL    HW226763   1.391   0.348   2.475 -1.1174  2.0864 -0.7825
 5043SOL     OW26764   1.717   0.621   3.097 -0.7532 -0.7610 -0.3243
 5043SOL    HW126765   1.636   0.622   3.046 -1.6172  1.5058  1.0920
 5043SOL    HW226766   1.775   0.655   3.029 -0.0101 -1.3054  0.0396
 5044SOL     OW26767   1.189   0.893   2.675 -0.0646  0.1444  0.6264
 5044SOL    HW126768   1.100   0.857   2.683  0.6441 -1.7202  0.2803
 5044SOL    HW226769   1.203   0.905   2.768  2.0456 -1.7059  0.5451
 5045SOL     OW26770   0.036   2.819   3.472  0.4931  0.4782  0.2764
 5045SOL    HW126771   0.092   2.824   3.550  1.8494 -1.2405 -0.5891
 5045SOL    HW226772   4.699   2.873   3.503 -0.4860  0.3065 -1.7114
 5046SOL     OW26773   3.276   3.089   7.098  0.3838  0.7785  0.2585
 5046SOL    HW126774   3.192   3.048   7.079  0.8948 -0.4315  0.6260
 5046SOL    HW226775   3.303   3.040   7.175  0.3633  1.1822  0.5184
 5047SOL     OW26776   2.737   0.156   7.925 -0.0558 -0.7935 -0.4218
 5047SOL    HW126777   2.722   0.250   7.915 -1.9735 -0.9524  1.1341
 5047SOL    HW226778   2.801   0.140   7.856 -0.3252  1.3863 -1.1857
 5048SOL     OW26779   3.308   1.168   9.302  0.0051 -0.3423  0.1325
 5048SOL    HW126780   3.386   1.223   9.300  0.8787 -1.5865 -0.6959
 5048SOL    HW226781   3.352   1.086   9.278 -1.8614 -0.4610 -2.9977
 5049SOL     OW26782   0.170   0.922   6.259 -0.4021  0.3488  0.8036
 5049SOL    HW126783   0.241   0.962   6.308  1.9134 -0.2530 -2.0921
 5049SOL    HW226784   0.182   0.964   6.174  0.5649  0.5011  1.0231
 5050SOL     OW26785   0.026   1.056   2.201  0.3761 -0.3838  0.0214
 5050SOL    HW126786   4.673   1.039   2.172  0.8266 -0.2160 -1.4964
 5050SOL    HW226787   0.067   1.106   2.130 -1.8069  0.4944 -0.6090
 5051SOL     OW26788   0.444   0.869   0.592  0.2723 -0.9716  0.7476
 5051SOL    HW126789   0.386   0.820   0.534  2.3649 -0.7546 -1.5419
 5051SOL    HW226790   0.498   0.803   0.635 -1.1566 -1.4933  1.7294
 5052SOL     OW26791   3.248   3.777   1.304 -0.6908  0.1393 -0.2950
 5052SOL    HW126792   3.276   3.863   1.336  0.2892 -0.9225  1.6948
 5052SOL    HW226793   3.281   3.718   1.371 -0.4033  1.8933  1.1270
 5053SOL     OW26794   1.481   2.016   3.992 -0.1231 -0.3488  0.0223
 5053SOL    HW126795   1.525   2.100   3.985  0.7402 -0.8467 -0.5848
 5053SOL    HW226796   1.515   1.989   4.077 -0.7673 -0.8735  0.1135
 5054SOL     OW26797   0.862   2.834  10.828  0.3843 -0.1837  0.0532
 5054SOL    HW126798   0.804   2.773  10.876  0.6611 -1.9842 -1.9126
 5054SOL    HW226799   0.811   2.839  10.748  1.8819  1.5628 -0.7836
 5055SOL     OW26800   4.332   2.112   2.247  0.5747 -0.1884  0.0318
 5055SOL    HW126801   4.372   2.082   2.165 -1.2221  2.0780 -1.6480
 5055SOL    HW226802   4.409   2.141   2.297 -0.3558  0.5946  0.9980
 5056SOL     OW26803   0.552   2.589  12.598  0.1598  0.1722  0.3557
 5056SOL    HW126804   0.642   2.594  12.568 -0.8583  1.3568 -2.4498
 5056SOL    HW226805   0.493   2.617  12.529 -1.0925  0.3568  1.4918
 5057SOL     OW26806   0.529   2.191  12.207 -0.3939 -0.1559  0.0141
 5057SOL    HW126807   0.597   2.175  12.140 -2.6177  1.5964 -2.6884
 5057SOL    HW226808   0.591   2.186  12.280  1.3332  0.0712 -1.4152
 5058SOL     OW26809   1.991   3.559   5.369  0.6944 -0.1289 -0.0523
 5058SOL    HW126810   1.981   3.464   5.361  0.7217 -0.0940 -0.5191
 5058SOL    HW226811   1.930   3.592   5.434 -0.1913 -0.7850 -0.5441
 5059SOL     OW26812   4.331   4.560   6.595 -0.0019  0.4426 -0.0994
 5059SOL    HW126813   4.296   4.588   6.510  1.0960  0.8429 -0.4131
 5059SOL    HW226814   4.421   4.554   6.564  0.4295  0.3799  1.1996
 5060SOL     OW26815   2.759   1.980   5.182  0.6184  0.1185  0.0779
 5060SOL    HW126816   2.818   2.049   5.212  0.1737  0.6258 -0.2112
 5060SOL    HW226817   2.819   1.927   5.129  1.4058 -0.0206  1.0951
 5061SOL     OW26818   0.019   1.065   7.034 -0.1554 -0.1964  0.6674
 5061SOL    HW126819   4.687   1.127   7.008  0.5802  0.0581 -0.6685
 5061SOL    HW226820   0.092   1.091   6.977 -0.0204 -0.1092  0.8830
 5062SOL     OW26821   3.345   2.058   3.314  0.2307  0.4253 -0.5404
 5062SOL    HW126822   3.368   2.139   3.361  0.0454 -0.1488  0.5384
 5062SOL    HW226823   3.294   2.026   3.388  1.0114 -2.7399 -1.4085
 5063SOL     OW26824   4.432   3.219   9.078  0.4586 -0.0669  0.5407
 5063SOL    HW126825   4.417   3.307   9.113  1.8187  0.0949  0.6979
 5063SOL    HW226826   4.525   3.236   9.063  0.2681  1.6640  1.3276
 5064SOL     OW26827   1.870   4.198   5.343  0.0998 -0.0674  0.4035
 5064SOL    HW126828   1.827   4.152   5.272 -2.1998  1.8115  0.5886
 5064SOL    HW226829   1.956   4.208   5.302 -0.7284 -1.0099 -1.5530
 5065SOL     OW26830   2.589   3.038   4.207 -0.0197 -0.4496 -0.0962
 5065SOL    HW126831   2.587   3.128   4.241  1.5814 -0.2678 -0.4459
 5065SOL    HW226832   2.498   3.011   4.209 -0.1926  0.2794  1.4715
 5066SOL     OW26833   3.243   2.185  11.000  0.1281  0.0559  0.2073
 5066SOL    HW126834   3.303   2.211  11.070 -1.3970  0.7787  1.2509
 5066SOL    HW226835   3.282   2.236  10.930 -0.1932  0.6176  0.4418
 5067SOL     OW26836   1.407   0.976   6.303 -0.1162 -0.2459 -0.0241
 5067SOL    HW126837   1.427   1.069   6.308  0.0002 -0.3267  1.0185
 5067SOL    HW226838   1.485   0.941   6.260 -0.2957  0.2134 -0.7172
 5068SOL     OW26839   1.340   0.439  10.155 -0.1398  0.5120 -0.3603
 5068SOL    HW126840   1.317   0.493  10.079  0.0499  0.6578 -0.3160
 5068SOL    HW226841   1.321   0.496  10.230 -0.0052  0.0576  0.0212
 5069SOL     OW26842   4.568   0.232  17.264 -0.1817  0.5644  0.3711
 5069SOL    HW126843   4.522   0.194  17.189 -3.2168  0.8450  2.0732
 5069SOL    HW226844   4.536   0.165  17.323  0.0052  1.0998  1.0821
 5070SOL     OW26845   3.136   3.985   6.553  0.3842 -0.2379  0.0300
 5070SOL    HW126846   3.230   3.987   6.538  0.6859 -0.9225  1.7831
 5070SOL    HW226847   3.098   4.052   6.497  0.6471  0.4969  0.7391
 5071SOL     OW26848   3.903   4.732   6.035 -0.3258 -0.6932  0.0387
 5071SOL    HW126849   3.893   4.675   6.111  0.1411 -0.0581  0.5857
 5071SOL    HW226850   3.810   0.018   6.033 -0.1105  0.1206 -1.1995
 5072SOL     OW26851   0.795   1.053   3.460  0.4041  0.4026 -0.4582
 5072SOL    HW126852   0.808   1.147   3.452  3.3044  0.1843  1.7428
 5072SOL    HW226853   0.705   1.056   3.426 -0.7525 -0.2085  2.4790
 5073SOL     OW26854   3.117   2.303   3.209 -0.5855 -0.3761  0.1090
 5073SOL    HW126855   3.171   2.338   3.281 -0.5144 -1.0703  0.3945
 5073SOL    HW226856   3.032   2.304   3.252 -1.3353  0.8768 -1.4111
 5074SOL     OW26857   0.060   4.162  16.842 -0.2352  0.2651 -0.2967
 5074SOL    HW126858   0.099   4.249  16.845  3.2231 -1.3193  1.1046
 5074SOL    HW226859   0.044   4.162  16.747 -0.8670  1.9223 -0.1924
 5075SOL     OW26860   3.288   3.187  15.548  0.2133 -0.3689 -0.4140
 5075SOL    HW126861   3.308   3.201  15.456 -0.4478 -0.4492 -0.5664
 5075SOL    HW226862   3.202   3.225  15.566  1.4659  2.0467  0.4513
 5076SOL     OW26863   4.602   1.532  16.372  0.0450  0.0570  0.0400
 5076SOL    HW126864   4.596   1.453  16.426 -1.3015  1.3540  1.7676
 5076SOL    HW226865   4.641   1.502  16.289 -0.2615 -2.3698  0.7742
 5077SOL     OW26866   1.821   0.676  13.107 -0.0763 -0.3573  0.2110
 5077SOL    HW126867   1.853   0.764  13.130  3.5391 -1.0478 -2.1583
 5077SOL    HW226868   1.792   0.639  13.190  1.8507  1.1086  1.5543
 5078SOL     OW26869   2.365   2.603   7.691  0.7918 -0.5863 -0.1490
 5078SOL    HW126870   2.421   2.677   7.716 -1.1029  0.3372  1.3374
 5078SOL    HW226871   2.415   2.526   7.719  1.2746 -0.4786 -0.7251
 5079SOL     OW26872   0.221   1.004   3.440  0.0010  0.6780 -0.0786
 5079SOL    HW126873   0.234   1.080   3.497 -1.5633  0.1991  0.9285
 5079SOL    HW226874   0.293   0.946   3.465 -0.7866  0.6910  2.2620
 5080SOL     OW26875   1.275   3.657  17.125  0.5878  0.8404 -0.1384
 5080SOL    HW126876   1.199   3.715  17.117  0.8582  1.1216 -0.6820
 5080SOL    HW226877   1.239   3.574  17.092  1.3977  0.4619 -0.0565
 5081SOL     OW26878   4.555   1.673  10.370 -0.3716 -0.0995  0.5575
 5081SOL    HW126879   4.616   1.599  10.372 -0.4987 -0.1772  1.9849
 5081SOL    HW226880   4.541   1.697  10.279 -1.4844  0.3570  0.8478
 5082SOL     OW26881   1.461   3.975   7.130 -0.3279  0.1148 -0.6448
 5082SOL    HW126882   1.380   4.019   7.152  1.1598  2.3811  0.3215
 5082SOL    HW226883   1.523   3.988   7.202 -0.0795 -0.4564 -0.7550
 5083SOL     OW26884   2.277   2.496   7.451  0.1834  0.5597 -0.0704
 5083SOL    HW126885   2.220   2.569   7.426  0.4510  1.4358  1.8434
 5083SOL    HW226886   2.326   2.537   7.523  0.9797  0.1410 -0.3744
 5084SOL     OW26887   4.487   2.079   7.539  0.5193 -0.2909  0.6343
 5084SOL    HW126888   4.420   2.038   7.485  0.6290 -1.4257  1.3645
 5084SOL    HW226889   4.435   2.126   7.605 -1.5704 -0.8590 -0.5962
 5085SOL     OW26890   2.888   4.642   7.395 -0.0671 -0.0521 -0.3652
 5085SOL    HW126891   2.940   4.722   7.380 -3.0466  2.5274  3.0248
 5085SOL    HW226892   2.904   4.600   7.311  1.3297 -0.6583  0.1999
 5086SOL     OW26893   1.626   4.604   3.937 -0.1459  0.1648 -0.7136
 5086SOL    HW126894   1.602   4.512   3.950  1.3913 -0.2604 -0.9089
 5086SOL    HW226895   1.661   4.611   4.026  0.7214 -1.0191 -0.9645
 5087SOL     OW26896   2.768   0.708   3.026 -0.6423 -0.0231 -0.3417
 5087SOL    HW126897   2.701   0.704   2.958 -0.9965  0.0856  0.0051
 5087SOL    HW226898   2.717   0.683   3.103 -0.8919  1.8741  0.1042
 5088SOL     OW26899   0.109   0.567   5.562 -0.2540 -0.3032  0.2038
 5088SOL    HW126900   0.052   0.644   5.561  0.0898 -0.0374  1.7309
 5088SOL    HW226901   0.168   0.578   5.487 -0.7703  0.1786 -0.1332
 5089SOL     OW26902   0.546   0.512   4.138 -0.1909 -0.1242  0.1618
 5089SOL    HW126903   0.502   0.567   4.202  1.5074  0.1928  1.0550
 5089SOL    HW226904   0.518   0.557   4.058  0.7497  1.5645  0.7879
 5090SOL     OW26905   0.532   3.145   1.118  0.0261 -0.4131 -0.4443
 5090SOL    HW126906   0.453   3.198   1.104 -1.4362 -1.9929  1.6479
 5090SOL    HW226907   0.594   3.218   1.115 -2.3366  1.5700 -1.4488
 5091SOL     OW26908   2.470   3.648   2.171  0.4802  0.0265 -0.0877
 5091SOL    HW126909   2.468   3.592   2.093  0.7586  0.9324 -0.7367
 5091SOL    HW226910   2.562   3.669   2.155  0.3717 -0.5092 -1.4003
 5092SOL     OW26911   2.781   0.364  16.921  0.2086  0.3312 -0.0593
 5092SOL    HW126912   2.817   0.331  16.839  0.6936 -1.5957  0.9158
 5092SOL    HW226913   2.834   0.326  16.991 -1.6820  1.0349  1.7418
 5093SOL     OW26914   2.872   0.590   1.709 -0.3299 -0.7754 -0.0599
 5093SOL    HW126915   2.960   0.622   1.691  0.6595 -1.7329  2.9599
 5093SOL    HW226916   2.835   0.600   1.622  0.0492 -2.1872 -0.3788
 5094SOL     OW26917   3.928   1.891   0.444 -0.0895  0.1512  0.3703
 5094SOL    HW126918   4.018   1.868   0.469 -0.8456 -1.1306  1.8574
 5094SOL    HW226919   3.928   1.974   0.396 -0.8473 -0.5155 -0.7921
 5095SOL     OW26920   4.021   2.576  11.097  0.5215 -0.2658 -0.6030
 5095SOL    HW126921   4.043   2.647  11.036  1.9729  1.3725  1.8244
 5095SOL    HW226922   4.055   2.606  11.181 -0.8419 -1.1869  0.2605
 5096SOL     OW26923   2.649   3.562   2.761 -0.2278  0.0868 -0.0063
 5096SOL    HW126924   2.578   3.573   2.824 -0.0965 -0.9178  0.3087
 5096SOL    HW226925   2.616   3.487   2.713  0.9990 -0.9125  0.7275
 5097SOL     OW26926   1.064   1.017   8.981 -0.3282  0.1415  0.3115
 5097SOL    HW126927   1.055   1.111   8.964 -3.0491 -0.3437 -0.9393
 5097SOL    HW226928   1.051   1.025   9.076 -1.7538 -1.5127  0.2413
 5098SOL     OW26929   1.333   4.695   6.338 -0.3852  0.1619  0.1442
 5098SOL    HW126930   1.270   4.680   6.268 -1.3968 -0.5695  1.2127
 5098SOL    HW226931   1.336   0.053   6.353 -0.9292  0.1663  0.2235
 5099SOL     OW26932   0.834   0.715   8.164 -0.3768 -0.0574  0.1425
 5099SOL    HW126933   0.750   0.757   8.181 -0.3248  0.7963 -1.7872
 5099SOL    HW226934   0.877   0.787   8.118  0.7146 -1.4091 -0.9594
 5100SOL     OW26935   2.770   1.601   6.906 -0.8944  0.0149  0.1444
 5100SOL    HW126936   2.771   1.506   6.894  0.7975 -0.1446  1.6297
 5100SOL    HW226937   2.731   1.634   6.825  0.3924  0.1007 -0.4461
 5101SOL     OW26938   2.171   4.241  16.684  0.4737  0.8681  0.3426
 5101SOL    HW126939   2.220   4.225  16.765  1.8623  0.1892 -0.6243
 5101SOL    HW226940   2.237   4.275  16.625  1.6360  0.7063  1.5397
 5102SOL     OW26941   1.900   1.371   3.495 -0.5907  0.3146 -0.8132
 5102SOL    HW126942   1.917   1.417   3.413  0.2384 -0.7285 -1.2175
 5102SOL    HW226943   1.947   1.287   3.491 -1.6607 -0.3398  0.1374
 5103SOL     OW26944   0.192   3.501   5.853 -0.2361 -0.1934 -0.2608
 5103SOL    HW126945   0.162   3.551   5.929 -1.6112  0.0045 -0.9310
 5103SOL    HW226946   0.267   3.450   5.885 -0.7103 -0.7102  0.0461
 5104SOL     OW26947   2.922   1.494  11.705 -1.0279 -0.3526 -0.0702
 5104SOL    HW126948   2.900   1.538  11.787 -3.1505 -1.6778  0.0606
 5104SOL    HW226949   2.907   1.562  11.639  2.8934  0.6144  0.0116
 5105SOL     OW26950   3.525   2.522   5.469 -0.0645  0.2244 -0.1881
 5105SOL    HW126951   3.588   2.569   5.414  1.0015  1.0804  1.7843
 5105SOL    HW226952   3.567   2.522   5.554  0.0135  1.3368 -0.2290
 5106SOL     OW26953   1.242   2.366  12.307 -0.6315  0.2025 -0.2453
 5106SOL    HW126954   1.269   2.275  12.294  0.7499  0.3373  1.8136
 5106SOL    HW226955   1.308   2.387  12.373  0.1047 -0.4616 -0.7756
 5107SOL     OW26956   3.978   3.562   5.065  0.0506  0.3031  0.2266
 5107SOL    HW126957   3.907   3.612   5.025  1.0076  2.3873  1.1370
 5107SOL    HW226958   4.020   3.628   5.120 -3.3004  2.4233  0.2812
 5108SOL     OW26959   1.155   4.425   3.944  0.3953  0.4671  0.6025
 5108SOL    HW126960   1.115   4.454   3.862 -4.2535 -2.4264  1.8169
 5108SOL    HW226961   1.077   4.445   3.996  0.6677  0.5464  0.9775
 5109SOL     OW26962   2.053   3.928   7.837 -0.1480  0.1947 -1.1560
 5109SOL    HW126963   1.983   3.926   7.903 -1.1454  4.4949 -2.1059
 5109SOL    HW226964   2.034   4.013   7.799  2.0298  1.7150  1.2143
 5110SOL     OW26965   2.818   2.328   9.031  0.0039 -0.1770  0.1169
 5110SOL    HW126966   2.828   2.306   8.938 -1.9267  0.3971 -0.2241
 5110SOL    HW226967   2.731   2.289   9.043  0.0955  0.1130  1.6928
 5111SOL     OW26968   0.535   2.785   7.188 -0.0880  0.6346 -0.1566
 5111SOL    HW126969   0.545   2.690   7.179 -0.2956  0.5241  0.7370
 5111SOL    HW226970   0.619   2.829   7.174  0.2658  0.8308  2.4272
 5112SOL     OW26971   3.871   4.339   8.297  0.4179 -0.2950  0.0590
 5112SOL    HW126972   3.806   4.275   8.269  0.0785 -0.7305  1.8148
 5112SOL    HW226973   3.926   4.336   8.219 -0.6332 -0.7298 -0.6558
 5113SOL     OW26974   0.379   0.256   8.220 -0.0068  0.7731  0.3669
 5113SOL    HW126975   0.366   0.253   8.125 -1.0560 -0.4450  0.5406
 5113SOL    HW226976   0.427   0.338   8.232  2.8771 -0.6437 -1.5270
 5114SOL     OW26977   3.937   0.740   4.149  0.2134  0.4183  0.3682
 5114SOL    HW126978   3.890   0.762   4.229 -0.2440 -0.9730  0.4849
 5114SOL    HW226979   3.982   0.823   4.132  0.3742  0.1002 -0.7393
 5115SOL     OW26980   4.126   0.500   2.553  0.5159  0.1500  0.3459
 5115SOL    HW126981   4.033   0.476   2.545  0.7561 -0.1972 -1.5448
 5115SOL    HW226982   4.134   0.526   2.644  1.4876  4.2813 -0.9327
 5116SOL     OW26983   0.413   0.057   8.698 -0.5173 -0.7607  0.0524
 5116SOL    HW126984   0.441   0.106   8.621 -1.0844  0.3718  0.5692
 5116SOL    HW226985   0.369   4.720   8.655 -2.0599  0.1987 -0.0084
 5117SOL     OW26986   1.589   0.340   7.651  0.1285  0.6471 -0.1968
 5117SOL    HW126987   1.578   0.252   7.687  1.2452  0.2092 -0.9254
 5117SOL    HW226988   1.508   0.390   7.642 -1.0388 -1.2775 -0.4882
 5118SOL     OW26989   3.401   2.277   2.673 -0.8258 -0.4298 -0.3216
 5118SOL    HW126990   3.337   2.244   2.737  1.1041  0.1002  1.9000
 5118SOL    HW226991   3.416   2.194   2.627  1.2127 -0.1612 -0.1654
 5119SOL     OW26992   4.619   3.211   4.462 -0.0152 -0.0294  0.1800
 5119SOL    HW126993   4.671   3.199   4.383 -0.1281  2.3255 -0.2707
 5119SOL    HW226994   4.624   3.121   4.492  1.2748  0.0177  0.1022
 5120SOL     OW26995   1.131   1.006   1.637  0.2267 -0.2187 -0.2886
 5120SOL    HW126996   1.064   1.005   1.568  0.8535  1.1744 -0.9142
 5120SOL    HW226997   1.082   1.053   1.705  0.6743  0.8036 -0.6702
 5121SOL     OW26998   4.642   1.828   5.164  0.4537  0.2276 -0.1362
 5121SOL    HW126999   4.596   1.864   5.088 -2.5666  1.2569  2.1325
 5121SOL    HW227000   4.652   1.735   5.147  2.9108  0.9018 -2.2508
 5122SOL     OW27001   1.048   3.330   3.832  0.0166 -0.1576  0.2182
 5122SOL    HW127002   1.072   3.397   3.768  2.2251 -1.3577 -0.2247
 5122SOL    HW227003   0.976   3.290   3.784  0.8312  0.0182 -1.1401
 5123SOL     OW27004   0.163   2.052   7.281 -0.3287  0.2557 -0.1230
 5123SOL    HW127005   0.085   2.032   7.228  0.6398 -3.0669 -0.2945
 5123SOL    HW227006   0.137   2.082   7.368  0.9183  0.7969  0.0554
 5124SOL     OW27007   0.260   4.674   4.465  0.1640 -0.1478 -0.7384
 5124SOL    HW127008   0.279   4.595   4.516  0.7983 -0.6216 -1.7106
 5124SOL    HW227009   0.168   4.654   4.445  0.3870 -0.2258 -1.6724
 5125SOL     OW27010   3.163   3.899   0.407  0.0492 -0.7070 -0.3298
 5125SOL    HW127011   3.226   3.871   0.473  1.1625  2.5154 -0.0187
 5125SOL    HW227012   3.098   3.927   0.471  2.3057  2.7609  0.4571
 5126SOL     OW27013   2.807   0.532   2.474 -0.1183  0.0888  0.3733
 5126SOL    HW127014   2.826   0.617   2.432  1.5597  0.6969  2.4016
 5126SOL    HW227015   2.897   0.502   2.485  0.1787  0.7725 -0.1730
 5127SOL     OW27016   4.162   0.759   5.002  0.1332  0.2567  0.0395
 5127SOL    HW127017   4.091   0.806   4.959  0.1355 -0.9302 -1.2917
 5127SOL    HW227018   4.134   0.668   4.987  1.2125  0.0127 -0.4783
 5128SOL     OW27019   2.422   1.909  15.628 -0.4955  0.2717 -0.3064
 5128SOL    HW127020   2.411   1.944  15.717  1.7907 -3.6923  1.5527
 5128SOL    HW227021   2.445   1.983  15.572 -0.8094  1.3117  0.9245
 5129SOL     OW27022   0.285   3.457  13.037  0.1245 -0.0857 -0.1638
 5129SOL    HW127023   0.343   3.473  13.111  0.3198  0.7707 -0.4993
 5129SOL    HW227024   0.355   3.428  12.978  0.3109  0.6764 -0.3181
 5130SOL     OW27025   3.215   3.899  11.039 -0.1669  0.6870 -0.3837
 5130SOL    HW127026   3.236   3.849  10.961  1.2300 -1.4450  1.3611
 5130SOL    HW227027   3.245   3.985  11.007  1.6218  0.0825 -0.3340
 5131SOL     OW27028   3.850   1.631   6.568  0.3620  0.2481  0.3123
 5131SOL    HW127029   3.930   1.581   6.552  0.1041  0.4707 -1.7105
 5131SOL    HW227030   3.842   1.647   6.474 -0.3737  2.0129  0.6782
 5132SOL     OW27031   2.048   2.883   1.430  0.0725 -0.2630  0.0214
 5132SOL    HW127032   1.995   2.963   1.437 -0.2366 -0.5828  1.3652
 5132SOL    HW227033   2.026   2.854   1.342  1.3703  0.6885 -0.6066
 5133SOL     OW27034   0.399   3.276  14.522 -0.3735 -0.0253  0.2442
 5133SOL    HW127035   0.349   3.230  14.454  0.8588 -2.0266  0.7099
 5133SOL    HW227036   0.448   3.324  14.455 -0.1396 -0.3955  0.1498
 5134SOL     OW27037   4.480   2.235   8.268 -0.2469  0.2274 -0.4057
 5134SOL    HW127038   4.556   2.258   8.321 -3.1127  0.4435  3.6086
 5134SOL    HW227039   4.520   2.174   8.207 -2.7220 -3.4418  1.6410
 5135SOL     OW27040   0.887   4.734  10.447 -0.3376  0.5706 -0.3882
 5135SOL    HW127041   0.859   4.670  10.512 -0.4612 -1.0773 -2.0558
 5135SOL    HW227042   0.932   4.676  10.386  1.4056  0.1157  1.3213
 5136SOL     OW27043   0.465   3.922   5.708 -0.1047  0.2095  0.8637
 5136SOL    HW127044   0.535   3.860   5.688 -0.3022 -0.5187  2.4412
 5136SOL    HW227045   0.398   3.859   5.736 -1.0627  1.1410  0.6825
 5137SOL     OW27046   4.165   2.469   4.508 -0.3087 -0.1825 -0.5379
 5137SOL    HW127047   4.154   2.464   4.413 -0.9260  3.2526 -0.6257
 5137SOL    HW227048   4.259   2.455   4.508 -0.1936  0.7065  1.5895
 5138SOL     OW27049   1.255   2.527   3.017  0.1979  0.1690 -0.7313
 5138SOL    HW127050   1.295   2.458   3.071  0.7306  1.3159  0.3524
 5138SOL    HW227051   1.321   2.595   3.030 -0.5797  1.0148 -1.1771
 5139SOL     OW27052   1.671   2.796   6.670 -0.1796 -0.4392  0.6126
 5139SOL    HW127053   1.746   2.825   6.721  0.6981 -0.7145 -0.5168
 5139SOL    HW227054   1.622   2.776   6.749 -1.5685 -0.7012 -0.3021
 5140SOL     OW27055   1.363   1.467   3.354  0.4906 -0.6963  0.5965
 5140SOL    HW127056   1.438   1.427   3.397 -0.2578 -2.4802  0.2141
 5140SOL    HW227057   1.340   1.401   3.289  0.2035  1.0248 -1.0528
 5141SOL     OW27058   3.396   1.105   3.003  0.1437  0.2450 -0.2728
 5141SOL    HW127059   3.449   1.027   2.986 -0.4657  0.0617 -1.3190
 5141SOL    HW227060   3.325   1.066   3.053 -1.1570  1.5006 -1.1537
 5142SOL     OW27061   4.279   3.111   8.044 -0.4839 -0.1009  0.3579
 5142SOL    HW127062   4.199   3.161   8.058 -1.1364 -1.1120  0.2388
 5142SOL    HW227063   4.348   3.173   8.066 -1.0327  0.8720 -0.7262
 5143SOL     OW27064   4.468   2.464  11.311 -0.2133 -0.2355  0.3418
 5143SOL    HW127065   4.540   2.404  11.291  1.5002  2.1085 -0.5219
 5143SOL    HW227066   4.460   2.449  11.405 -2.1442 -1.1477  0.0525
 5144SOL     OW27067   2.277   0.494   4.628 -0.0351 -0.0239  0.5055
 5144SOL    HW127068   2.244   0.582   4.646  1.5419  0.7433 -0.2976
 5144SOL    HW227069   2.291   0.500   4.533  0.0097  0.8669  0.5664
 5145SOL     OW27070   1.594   2.415  14.132 -0.1142 -0.2295 -0.3850
 5145SOL    HW127071   1.645   2.344  14.172  0.0778 -0.0313 -0.2734
 5145SOL    HW227072   1.652   2.485  14.163 -1.1041  1.5636 -2.6323
 5146SOL     OW27073   2.579   0.169  14.195  0.0369 -0.1198 -0.7112
 5146SOL    HW127074   2.616   0.180  14.107  0.0094 -2.0103 -0.9556
 5146SOL    HW227075   2.664   0.159  14.239  0.2197  3.0273 -0.3179
 5147SOL     OW27076   2.139   2.284   4.263 -0.3599 -0.5392 -0.0856
 5147SOL    HW127077   2.141   2.315   4.172 -1.5491 -1.2868 -0.3566
 5147SOL    HW227078   2.175   2.196   4.257  0.3314 -0.1993 -1.0334
 5148SOL     OW27079   3.142   1.694  16.638 -0.3594  0.2644 -0.3631
 5148SOL    HW127080   3.053   1.673  16.663 -1.2348  0.7280 -3.0388
 5148SOL    HW227081   3.178   1.717  16.723 -2.8558 -0.2890  0.8134
 5149SOL     OW27082   3.387   3.126   1.124 -1.3681  0.2940 -0.1192
 5149SOL    HW127083   3.376   3.049   1.180 -1.9014  0.5324  0.1006
 5149SOL    HW227084   3.325   3.184   1.169 -0.9470  0.1872  0.6164
 5150SOL     OW27085   3.989   0.907   2.214  0.4258 -0.3631  0.8472
 5150SOL    HW127086   4.073   0.939   2.248 -0.2125 -0.6647  2.6713
 5150SOL    HW227087   3.991   0.943   2.125 -0.4982  0.4533  1.1613
 5151SOL     OW27088   4.208   1.516  17.293  0.1597 -0.0514 -0.5752
 5151SOL    HW127089   4.135   1.576  17.302 -0.3815 -0.8588  0.4026
 5151SOL    HW227090   4.239   1.523  17.203 -0.7793  0.2289 -0.8734
 5152SOL     OW27091   4.624   2.071   2.951 -0.1896  0.3980  0.4899
 5152SOL    HW127092   4.574   1.992   2.933  1.0677 -0.1939 -0.4331
 5152SOL    HW227093   4.643   2.093   2.859 -0.5934  1.5236  0.6770
 5153SOL     OW27094   3.531   3.963   7.780 -0.0316  0.7919  0.5956
 5153SOL    HW127095   3.509   4.052   7.807  2.9078  2.0786 -1.3113
 5153SOL    HW227096   3.446   3.936   7.746  0.3562 -0.6007  0.7271
 5154SOL     OW27097   3.862   3.261   7.634 -0.2064  0.2228  0.0847
 5154SOL    HW127098   3.903   3.336   7.677  0.0743  0.3179 -0.3528
 5154SOL    HW227099   3.818   3.298   7.558 -0.4762  1.7318  0.9804
 5155SOL     OW27100   2.499   3.978   1.253 -0.1375 -0.2445 -0.2204
 5155SOL    HW127101   2.405   3.972   1.272 -0.2190  1.9128  0.0602
 5155SOL    HW227102   2.526   4.053   1.305 -0.1309 -0.3879 -0.0148
 5156SOL     OW27103   0.495   4.053   6.398  0.3065  0.0153 -0.1690
 5156SOL    HW127104   0.429   3.999   6.442  0.4140  0.3382  0.3866
 5156SOL    HW227105   0.515   3.990   6.329  0.7412 -0.3296  0.2667
 5157SOL     OW27106   1.548   2.954   4.790  0.0409 -0.3120 -0.4620
 5157SOL    HW127107   1.469   2.906   4.813 -0.1269  0.3519  0.3733
 5157SOL    HW227108   1.532   2.959   4.696  2.7353  2.1124 -0.7897
 5158SOL     OW27109   1.036   3.036   0.565 -0.2409 -0.2986  0.3762
 5158SOL    HW127110   1.070   3.088   0.493 -0.1800 -2.3207 -1.0751
 5158SOL    HW227111   0.943   3.057   0.563 -0.7198 -2.4267 -0.6414
 5159SOL     OW27112   3.734   1.125   7.757  0.0166 -0.1465  0.4271
 5159SOL    HW127113   3.712   1.167   7.674 -0.5555 -0.1434  0.5797
 5159SOL    HW227114   3.702   1.191   7.818  0.5195  1.3656 -0.9661
 5160SOL     OW27115   2.121   1.901   3.510  0.7160  0.4850  0.1485
 5160SOL    HW127116   2.059   1.836   3.476 -1.6855  2.2787  1.1086
 5160SOL    HW227117   2.192   1.900   3.446  0.2953 -1.2174 -0.2837
 5161SOL     OW27118   4.316   3.792   1.510 -0.1052 -0.0007  0.1624
 5161SOL    HW127119   4.358   3.737   1.576 -2.1549 -0.1682  1.3337
 5161SOL    HW227120   4.232   3.813   1.550  0.2341 -1.0912  1.4190
 5162SOL     OW27121   0.934   4.018  13.734 -0.3391  0.0294  0.1506
 5162SOL    HW127122   0.887   3.943  13.771 -0.9499  0.8964  1.1557
 5162SOL    HW227123   0.992   3.979  13.669  0.0936 -1.1700  1.2711
 5163SOL     OW27124   3.802   0.781   5.496  0.0390 -0.5332 -0.3704
 5163SOL    HW127125   3.742   0.710   5.520  1.5232 -1.1541  1.5124
 5163SOL    HW227126   3.743   0.856   5.483  2.0259  1.4864  2.2851
 5164SOL     OW27127   1.606   0.285   7.222 -0.4219 -0.5211 -0.2481
 5164SOL    HW127128   1.638   0.207   7.269 -0.5127 -1.2897 -1.4477
 5164SOL    HW227129   1.681   0.312   7.168 -1.0242 -0.4294 -1.0307
 5165SOL     OW27130   4.051   0.486   5.002  0.4840  0.1054 -0.7503
 5165SOL    HW127131   3.985   0.462   4.937 -1.9573  2.1428  0.9760
 5165SOL    HW227132   4.120   0.421   4.985  1.0599  1.0475 -1.9577
 5166SOL     OW27133   1.906   3.845   2.870  0.4157  0.3154 -0.3873
 5166SOL    HW127134   1.858   3.910   2.819  1.3450  2.2923  1.2563
 5166SOL    HW227135   1.993   3.843   2.830  0.5131 -0.9508 -0.1213
 5167SOL     OW27136   0.441   2.031  10.611 -0.0491  0.2617 -0.7004
 5167SOL    HW127137   0.490   1.964  10.659 -1.6256 -0.2277  0.2199
 5167SOL    HW227138   0.365   1.982  10.581 -0.0286 -0.3168  0.1996
 5168SOL     OW27139   3.483   1.249  15.042  0.0035 -0.1362 -0.0940
 5168SOL    HW127140   3.571   1.242  15.078  0.6857 -0.0036 -1.7361
 5168SOL    HW227141   3.447   1.310  15.106 -2.4519 -0.0215 -1.5779
 5169SOL     OW27142   0.677   2.896   9.621 -0.3468 -0.1543 -0.0352
 5169SOL    HW127143   0.704   2.902   9.529  0.1092 -0.0852  0.1040
 5169SOL    HW227144   0.625   2.975   9.633  1.1160  0.4997  1.9641
 5170SOL     OW27145   3.206   2.808   4.941  0.4295  0.1223 -0.1891
 5170SOL    HW127146   3.270   2.797   5.011  1.3380 -3.4564 -1.5995
 5170SOL    HW227147   3.249   2.885   4.902 -0.0181 -0.2268 -1.3740
 5171SOL     OW27148   3.542   3.088   8.987 -0.2427 -0.2738  0.0640
 5171SOL    HW127149   3.482   3.028   9.030  0.6283 -0.9007  0.4054
 5171SOL    HW227150   3.483   3.157   8.957 -0.2811  0.0443  0.8743
 5172SOL     OW27151   2.035   2.199  17.239  0.3082  0.1409  0.0284
 5172SOL    HW127152   2.107   2.209  17.301  0.3660  0.7217 -0.1336
 5172SOL    HW227153   1.993   2.285  17.234  1.5974  0.9684  3.8102
 5173SOL     OW27154   4.365   3.395  17.205 -0.0500  0.2182  0.3853
 5173SOL    HW127155   4.287   3.406  17.261  0.5201  1.9872  0.8291
 5173SOL    HW227156   4.328   3.419  17.120  1.0778  0.2015 -0.1016
 5174SOL     OW27157   2.539   4.093   8.482  0.2819 -0.0487 -0.2443
 5174SOL    HW127158   2.468   4.077   8.543 -1.4473 -0.7604 -2.4370
 5174SOL    HW227159   2.622   4.069   8.524 -0.8522  2.8299  3.5729
 5175SOL     OW27160   3.325   4.345   3.587  0.1476 -0.4921 -0.2432
 5175SOL    HW127161   3.297   4.271   3.640 -0.5007 -1.2741 -1.6650
 5175SOL    HW227162   3.254   4.345   3.522 -1.0948  2.1903  1.1261
 5176SOL     OW27163   1.691   2.753  12.372 -0.2889 -0.2567  0.8906
 5176SOL    HW127164   1.681   2.789  12.461 -2.0034 -2.7691  1.7295
 5176SOL    HW227165   1.599   2.741  12.350 -0.1296  1.8826 -0.8993
 5177SOL     OW27166   0.634   4.706   7.550  0.3781  0.5131 -0.1190
 5177SOL    HW127167   0.562   0.032   7.558 -1.2939 -1.2223 -1.7922
 5177SOL    HW227168   0.645   4.701   7.455  1.0061 -1.0915  0.0391
 5178SOL     OW27169   1.032   1.298   8.936 -0.3015 -0.0195 -0.2993
 5178SOL    HW127170   0.943   1.333   8.926 -0.5368 -0.7574 -0.8159
 5178SOL    HW227171   1.080   1.373   8.969 -2.6515  0.7958  1.2332
 5179SOL     OW27172   4.193   2.561   6.265 -0.7515  0.0029  0.2562
 5179SOL    HW127173   4.182   2.573   6.170 -1.1313 -2.2259  0.0037
 5179SOL    HW227174   4.288   2.560   6.274 -0.5489  0.7060 -1.8647
 5180SOL     OW27175   0.932   2.497   8.600  0.0356  0.3955  0.2400
 5180SOL    HW127176   0.915   2.487   8.694  0.4741  0.7226  0.3563
 5180SOL    HW227177   0.927   2.591   8.580  0.6388  0.5248  0.6883
 5181SOL     OW27178   0.016   4.666   6.179 -0.1037 -0.7195  0.4616
 5181SOL    HW127179   0.027   4.588   6.125  0.0772  0.8714 -1.8308
 5181SOL    HW227180   4.657   4.671   6.194  0.1285  0.7233  1.4176
 5182SOL     OW27181   2.311   2.867  15.947  0.1031 -0.3679 -0.4459
 5182SOL    HW127182   2.338   2.949  15.989  0.7186 -1.0071  0.4052
 5182SOL    HW227183   2.397   2.835  15.921  0.4886 -0.8879  1.4803
 5183SOL     OW27184   2.933   3.767   6.044  0.2805  0.3935 -0.0161
 5183SOL    HW127185   2.871   3.701   6.011  0.1843  0.7733 -0.5987
 5183SOL    HW227186   2.858   3.824   6.058  0.4355 -0.3796  3.7715
 5184SOL     OW27187   2.881   0.001   5.038 -0.2219  0.1880 -0.0494
 5184SOL    HW127188   2.949   0.030   4.978 -1.6459  1.9251 -0.8227
 5184SOL    HW227189   2.807   0.051   5.003 -0.5457 -0.3907 -0.1880
 5185SOL     OW27190   2.011   1.410   0.171 -0.2617 -0.5221 -0.2404
 5185SOL    HW127191   1.935   1.360   0.140 -1.5480  0.9349  0.5656
 5185SOL    HW227192   2.059   1.389   0.090  1.1561 -1.0272  0.7339
 5186SOL     OW27193   0.334   4.488  15.446 -0.4386  0.2468  0.1428
 5186SOL    HW127194   0.375   4.519  15.366 -0.4151  0.1165  0.1043
 5186SOL    HW227195   0.338   4.569  15.496 -1.8216 -1.0011  2.3106
 5187SOL     OW27196   3.135   4.257   0.133  0.0316 -0.5209  0.3036
 5187SOL    HW127197   3.161   4.232   0.222 -0.0642 -2.4076 -0.2022
 5187SOL    HW227198   3.180   4.342   0.131 -2.5890  0.8165 -1.3145
 5188SOL     OW27199   1.982   1.196   4.599 -0.0140  0.3834 -0.0224
 5188SOL    HW127200   2.003   1.283   4.564  0.5803  1.0085  1.8388
 5188SOL    HW227201   2.050   1.183   4.665  0.7494  3.3458 -0.2199
 5189SOL     OW27202   2.151   4.661   8.865  0.4626  0.1533 -0.0782
 5189SOL    HW127203   2.093   4.603   8.816  1.2511  0.5609 -1.4738
 5189SOL    HW227204   2.184   4.717   8.795 -0.1363 -0.0602 -0.5321
 5190SOL     OW27205   4.660   4.146   6.866 -0.3454 -0.1378  0.0210
 5190SOL    HW127206   4.566   4.131   6.851  0.4647 -5.2739 -0.1646
 5190SOL    HW227207   4.684   4.055   6.887  0.5638  0.2864  0.7766
 5191SOL     OW27208   3.452   4.257   7.875  0.5786  0.2684 -0.5532
 5191SOL    HW127209   3.389   4.329   7.874 -1.2486 -1.3273  0.9794
 5191SOL    HW227210   3.512   4.274   7.802  1.5555 -2.4081 -0.4016
 5192SOL     OW27211   1.884   4.623   1.584 -0.5144  0.1971  0.4328
 5192SOL    HW127212   1.936   4.702   1.567 -2.5767  1.3913 -0.4255
 5192SOL    HW227213   1.929   4.567   1.521  0.5711  0.8241  0.6542
 5193SOL     OW27214   4.165   2.370   2.703 -0.3347 -0.5250  0.5883
 5193SOL    HW127215   4.188   2.455   2.741 -2.8983  1.0046 -1.2891
 5193SOL    HW227216   4.116   2.398   2.626 -2.2001  0.4074  2.1021
 5194SOL     OW27217   2.028   4.578  10.169 -0.1728 -0.3513  0.2712
 5194SOL    HW127218   1.991   4.664  10.149  0.3922  0.2964  2.0226
 5194SOL    HW227219   1.948   4.525  10.177 -0.6672  0.3219 -0.2226
 5195SOL     OW27220   1.850   4.424   1.788 -0.3272 -0.3800  1.0353
 5195SOL    HW127221   1.754   4.425   1.784 -0.3087  1.1891  1.1486
 5195SOL    HW227222   1.861   4.480   1.712 -2.7610  1.2683  1.8930
 5196SOL     OW27223   2.707   3.617  16.327  0.1477  0.2457  0.4082
 5196SOL    HW127224   2.696   3.674  16.252 -0.0179  1.0809  1.0691
 5196SOL    HW227225   2.785   3.650  16.372 -0.0500 -0.6671  1.4189
 5197SOL     OW27226   1.901   2.343   3.373  0.0947 -0.8026  0.0997
 5197SOL    HW127227   1.900   2.418   3.432 -1.8280 -0.5960 -0.1692
 5197SOL    HW227228   1.907   2.264   3.427  2.6979  0.3654  1.4738
 5198SOL     OW27229   1.003   2.650   9.253  0.5667 -0.3311 -0.2767
 5198SOL    HW127230   0.974   2.736   9.285  2.5189 -0.0328  0.7070
 5198SOL    HW227231   1.097   2.659   9.237  0.4102  2.9267  0.5886
 5199SOL     OW27232   0.027   4.004   9.122  0.0759 -0.1778  0.5525
 5199SOL    HW127233   0.041   4.017   9.029  1.3898 -0.7252  0.6721
 5199SOL    HW227234   0.048   4.093   9.153  0.8956  0.8036 -2.7699
 5200SOL     OW27235   2.865   2.454   9.606  0.3280  0.0680 -0.0066
 5200SOL    HW127236   2.891   2.455   9.514 -1.3220 -0.6035 -0.4878
 5200SOL    HW227237   2.913   2.526   9.647 -0.1567  0.0985  0.5030
 5201SOL     OW27238   1.132   3.360   5.239  0.1564  0.0686  0.4152
 5201SOL    HW127239   1.143   3.279   5.289 -0.0081 -0.1935  0.0307
 5201SOL    HW227240   1.160   3.327   5.153  1.4373 -2.7551  1.9245
 5202SOL     OW27241   1.388   0.929   1.529 -0.3840  0.4439  1.0565
 5202SOL    HW127242   1.423   1.017   1.516  0.2974  0.0890  0.4821
 5202SOL    HW227243   1.301   0.945   1.566 -0.5505  0.1565  0.7962
 5203SOL     OW27244   2.396   3.884   4.798  0.0145 -0.2504 -0.3248
 5203SOL    HW127245   2.451   3.956   4.829  0.4563 -0.9880  0.6354
 5203SOL    HW227246   2.420   3.881   4.706  0.1183  2.4971 -0.3671
 5204SOL     OW27247   1.142   4.110   9.487 -0.6354  0.0546 -0.9460
 5204SOL    HW127248   1.232   4.112   9.454 -0.4927  1.2595 -0.4754
 5204SOL    HW227249   1.147   4.059   9.568 -1.5457  3.3720  1.1942
 5205SOL     OW27250   1.871   1.416  12.928 -0.4404  0.2580 -0.0292
 5205SOL    HW127251   1.847   1.437  13.019 -2.9754 -0.4521 -0.5326
 5205SOL    HW227252   1.922   1.495  12.909  0.7422 -0.6186 -0.5098
 5206SOL     OW27253   4.575   3.589   8.579 -0.3230  0.8843  0.0423
 5206SOL    HW127254   4.659   3.635   8.584  1.2495 -2.0731  0.9674
 5206SOL    HW227255   4.605   3.498   8.590  0.9320  1.2350 -0.4136
 5207SOL     OW27256   1.492   3.008   5.073  0.4202 -0.0208  0.5970
 5207SOL    HW127257   1.542   3.000   4.992  1.0311  0.5648  0.9236
 5207SOL    HW227258   1.441   3.087   5.054 -0.3421 -0.0879  2.3862
 5208SOL     OW27259   1.050   2.698   4.389 -0.7855  0.1856 -0.2451
 5208SOL    HW127260   1.090   2.624   4.343  2.7835  1.0335  1.4437
 5208SOL    HW227261   0.984   2.652   4.439 -0.3124 -2.6695 -2.2565
 5209SOL     OW27262   4.256   2.607   5.406  0.2409  1.0465 -0.2438
 5209SOL    HW127263   4.200   2.614   5.483 -1.0299  3.8687 -1.4470
 5209SOL    HW227264   4.333   2.652   5.439  1.8035 -1.0977 -0.9582
 5210SOL     OW27265   0.293   0.731   6.704 -0.0705 -0.8093 -0.0454
 5210SOL    HW127266   0.336   0.741   6.618 -2.0236  2.0295 -0.6976
 5210SOL    HW227267   0.217   0.788   6.693 -0.4376 -1.1451  0.8432
 5211SOL     OW27268   0.473   3.730   6.861  0.5142 -0.8793  0.7450
 5211SOL    HW127269   0.470   3.710   6.955  0.9225 -0.5428  0.8271
 5211SOL    HW227270   0.561   3.702   6.838  0.2727 -0.6153 -0.5223
 5212SOL     OW27271   2.005   3.171  14.428 -0.0101  0.0474 -0.0625
 5212SOL    HW127272   2.003   3.216  14.344 -0.3086  2.0489  1.0108
 5212SOL    HW227273   2.070   3.223  14.476  0.9772  1.0053 -2.4245
 5213SOL     OW27274   1.931   3.300  16.922  0.1521  0.7577  0.6759
 5213SOL    HW127275   1.880   3.220  16.907  1.5149  0.1772 -0.8679
 5213SOL    HW227276   1.901   3.347  16.844 -1.9955  0.3623  1.2619
 5214SOL     OW27277   3.536   1.096   4.049 -0.7192 -0.3742 -0.5204
 5214SOL    HW127278   3.531   1.090   4.144 -1.8598  0.0007 -0.5453
 5214SOL    HW227279   3.449   1.131   4.027 -1.3679 -1.8883 -0.3578
 5215SOL     OW27280   4.154   0.478   6.862 -0.0890 -0.2813  0.0202
 5215SOL    HW127281   4.248   0.471   6.846 -0.2835  1.2303 -1.7472
 5215SOL    HW227282   4.145   0.410   6.929  0.1914  1.3004  1.6551
 5216SOL     OW27283   0.003   0.248   8.463  0.1112 -0.2309  0.5954
 5216SOL    HW127284   0.090   0.211   8.452  0.3467 -0.3619  2.9613
 5216SOL    HW227285   0.014   0.333   8.506  0.4510 -0.2827  0.6064
 5217SOL     OW27286   3.419   3.928   2.832 -0.4675 -0.5223  0.2243
 5217SOL    HW127287   3.347   3.865   2.831 -0.2368 -0.7491 -2.4806
 5217SOL    HW227288   3.495   3.870   2.834  2.1712  2.7461 -5.1448
 5218SOL     OW27289   3.986   0.839   4.559  0.4276 -0.2759  0.1241
 5218SOL    HW127290   3.924   0.765   4.558  0.3906 -0.2256 -1.5981
 5218SOL    HW227291   4.070   0.805   4.589 -0.0118 -1.3947  0.1103
 5219SOL     OW27292   3.994   2.316   5.934 -0.5505 -0.2842  0.3159
 5219SOL    HW127293   4.020   2.243   5.990 -1.5840 -0.7488  0.1855
 5219SOL    HW227294   4.047   2.390   5.962 -0.1206 -0.3809 -0.2392
 5220SOL     OW27295   2.634   0.279   6.470 -0.7008 -0.0682  0.0522
 5220SOL    HW127296   2.689   0.327   6.532 -1.2777  2.8667 -1.6894
 5220SOL    HW227297   2.678   0.195   6.481 -2.1436 -0.5578  2.1088
 5221SOL     OW27298   3.095   4.473  17.115  0.5450  0.4577 -0.3367
 5221SOL    HW127299   3.105   4.563  17.084  0.6467  0.7002  0.3948
 5221SOL    HW227300   3.182   4.462  17.153 -0.4743 -2.8004  1.0599
 5222SOL     OW27301   2.211   2.004   7.504  0.2204 -0.6276  0.3343
 5222SOL    HW127302   2.304   2.020   7.487  0.2025 -0.6746  0.1873
 5222SOL    HW227303   2.172   2.091   7.493 -0.1740 -0.9564 -0.9196
 5223SOL     OW27304   4.502   0.255   8.276  0.3177 -1.0925 -0.5351
 5223SOL    HW127305   4.593   0.260   8.305  0.5902  0.5212 -1.6504
 5223SOL    HW227306   4.480   0.345   8.254 -2.2337 -1.9505 -1.4826
 5224SOL     OW27307   0.028   1.800   7.058 -0.3867 -0.4874 -0.1196
 5224SOL    HW127308   0.058   1.869   6.999  0.3972  0.6960  1.6324
 5224SOL    HW227309   0.111   1.798   7.107  0.4996  0.0891 -1.5838
 5225SOL     OW27310   0.095   1.777  17.678 -0.6506  0.2036 -0.2404
 5225SOL    HW127311   0.190   1.780  17.666 -0.4568  0.6130  1.3547
 5225SOL    HW227312   0.073   1.836  17.606 -0.8998 -0.4515 -0.6925
 5226SOL     OW27313   0.947   0.326   2.864 -0.2654 -0.5263  0.6464
 5226SOL    HW127314   0.894   0.362   2.793 -1.9121  0.7934  2.5633
 5226SOL    HW227315   0.993   0.402   2.899  0.9158 -0.0357 -1.9576
 5227SOL     OW27316   3.499   4.735  17.667 -0.5780 -0.1877  0.3136
 5227SOL    HW127317   3.500   0.085  17.710  0.8667  0.6974 -1.4823
 5227SOL    HW227318   3.413   4.730  17.624  1.6097 -0.6615 -4.0088
 5228SOL     OW27319   0.237   4.362   5.903 -0.0277 -0.1184  0.0596
 5228SOL    HW127320   0.322   4.339   5.939 -0.7463 -4.2156 -0.8197
 5228SOL    HW227321   0.239   4.301   5.829  0.1119  0.4219 -0.3825
 5229SOL     OW27322   0.744   4.390   2.894 -0.4694 -0.5158  0.2748
 5229SOL    HW127323   0.792   4.427   2.968  3.0981  0.2885 -2.4449
 5229SOL    HW227324   0.816   4.345   2.851  0.8390  1.4074  0.4452
 5230SOL     OW27325   0.804   3.033   7.990 -0.1608  0.8214  0.1659
 5230SOL    HW127326   0.865   3.102   8.016  2.1398 -1.1358 -0.0117
 5230SOL    HW227327   0.810   2.970   8.062  3.0732  0.0314 -0.8098
 5231SOL     OW27328   0.638   2.055  11.301 -0.7638 -0.2965  1.0025
 5231SOL    HW127329   0.646   2.083  11.210  0.5838  0.3090  1.3075
 5231SOL    HW227330   0.714   1.998  11.308 -0.6351 -0.0917  1.2832
 5232SOL     OW27331   3.669   1.060   4.621  0.5430 -0.7487 -0.8074
 5232SOL    HW127332   3.628   1.009   4.692 -1.4721 -1.0792 -2.2211
 5232SOL    HW227333   3.650   0.999   4.550 -2.6350 -0.7669  0.0434
 5233SOL     OW27334   4.081   3.633   2.625 -0.1615 -0.0236  0.0498
 5233SOL    HW127335   4.123   3.715   2.652 -3.2911  1.6091 -0.0809
 5233SOL    HW227336   4.052   3.658   2.537 -1.8589  3.0407  1.5030
 5234SOL     OW27337   0.116   1.049   5.192  0.5766  0.2599  0.0462
 5234SOL    HW127338   0.042   1.005   5.234 -0.0155 -0.0471 -1.2987
 5234SOL    HW227339   0.183   0.987   5.221 -0.2147 -0.0992  1.1001
 5235SOL     OW27340   3.146   1.544   9.328  0.3477  0.0989  0.1253
 5235SOL    HW127341   3.226   1.498   9.303 -0.8988 -2.3984  0.7548
 5235SOL    HW227342   3.183   1.627   9.358  0.0147 -0.4284  1.9612
 5236SOL     OW27343   2.451   2.238   2.260  0.7442  0.2464 -0.1268
 5236SOL    HW127344   2.475   2.166   2.200 -1.7146  0.3462 -1.2154
 5236SOL    HW227345   2.490   2.312   2.214 -0.0839  1.9564  1.9418
 5237SOL     OW27346   2.708   1.224   6.804  0.3528  0.1190  0.0307
 5237SOL    HW127347   2.776   1.263   6.749 -0.8013  3.6749  1.1666
 5237SOL    HW227348   2.761   1.147   6.826 -1.2047 -0.6465  1.1511
 5238SOL     OW27349   1.130   0.973  15.369  0.1100  0.1536  0.4224
 5238SOL    HW127350   1.112   0.909  15.438  1.9749 -1.5899 -0.6941
 5238SOL    HW227351   1.136   0.915  15.293 -1.3859  0.6388 -0.0593
 5239SOL     OW27352   2.766   3.867   5.616  0.1123 -0.1736 -0.7960
 5239SOL    HW127353   2.737   3.937   5.558 -0.4987  0.5870  0.4186
 5239SOL    HW227354   2.790   3.796   5.556 -0.4476  1.4814 -2.9360
 5240SOL     OW27355   2.185   2.198   2.150 -0.4965  0.9167 -0.5684
 5240SOL    HW127356   2.267   2.239   2.177  0.1237  0.2578 -1.4741
 5240SOL    HW227357   2.198   2.108   2.179 -1.6016  0.6509 -0.8888
 5241SOL     OW27358   4.452   2.342   2.913  0.0585  0.0353 -0.7324
 5241SOL    HW127359   4.410   2.269   2.959 -0.0879 -0.0545 -1.0046
 5241SOL    HW227360   4.532   2.301   2.879 -0.5418 -0.8162 -1.1233
 5242SOL     OW27361   0.357   2.961   6.599 -0.2812 -0.3552 -0.2295
 5242SOL    HW127362   0.303   2.901   6.651  1.0560 -1.3342  0.0410
 5242SOL    HW227363   0.425   2.987   6.661 -0.3308  0.2679 -0.4376
 5243SOL     OW27364   1.174   3.313   2.681 -0.1099  0.1330  0.4308
 5243SOL    HW127365   1.088   3.355   2.689 -0.2119  0.2397 -1.1603
 5243SOL    HW227366   1.208   3.295   2.768  1.6813 -3.0299 -0.9217
 5244SOL     OW27367   2.359   0.768   2.627 -0.4110 -0.1462 -0.5664
 5244SOL    HW127368   2.436   0.729   2.585 -0.0905 -0.6683  0.5116
 5244SOL    HW227369   2.365   0.850   2.579  0.1834 -0.0091 -0.2537
 5245SOL     OW27370   0.705   0.201   2.913  0.1420 -0.1523 -0.7281
 5245SOL    HW127371   0.641   0.272   2.912  1.2503  0.8974  2.8431
 5245SOL    HW227372   0.777   0.249   2.954 -0.6200  0.9277 -0.6629
 5246SOL     OW27373   0.120   1.286   4.076  0.1830  0.4333 -0.8479
 5246SOL    HW127374   0.180   1.220   4.111 -0.9404 -0.3283 -0.3579
 5246SOL    HW227375   0.176   1.356   4.111 -0.5641  0.5390  0.1297
 5247SOL     OW27376   1.377   2.972   8.571  0.1453 -0.2390  0.5321
 5247SOL    HW127377   1.331   3.054   8.555 -0.5961 -0.9793 -1.1567
 5247SOL    HW227378   1.466   2.998   8.546  0.9843 -1.3358  2.3087
 5248SOL     OW27379   0.554   1.807   3.970 -0.4703 -0.0605  0.5615
 5248SOL    HW127380   0.604   1.825   3.890  1.3177  1.9604  2.1316
 5248SOL    HW227381   0.619   1.764   4.026 -0.2174  1.3589  1.3397
 5249SOL     OW27382   1.647   1.504   3.895  0.7128  0.4595 -0.0322
 5249SOL    HW127383   1.680   1.427   3.941  0.2033  0.7722  0.8545
 5249SOL    HW227384   1.712   1.544   3.837 -0.0842 -1.2838 -2.0973
 5250SOL     OW27385   2.964   0.065   5.300  0.5890 -0.3726 -0.2829
 5250SOL    HW127386   2.873   0.038   5.312  0.3125  0.0083 -1.4840
 5250SOL    HW227387   2.958   0.063   5.204  1.3217 -1.6568 -0.3092
 5251SOL     OW27388   0.547   0.678   3.895 -0.1555  0.1149 -0.4103
 5251SOL    HW127389   0.639   0.700   3.881  0.6966 -3.3808 -0.1206
 5251SOL    HW227390   0.541   0.618   3.821 -0.1838 -2.8494  2.0137
 5252SOL     OW27391   4.035   2.818   4.136  0.4572 -0.3032  0.2237
 5252SOL    HW127392   4.048   2.729   4.103  1.4026 -0.3335  0.7064
 5252SOL    HW227393   3.965   2.840   4.074 -1.5923 -3.2481  1.4708
 5253SOL     OW27394   4.323   4.097   2.845  0.7279  0.1573 -0.2708
 5253SOL    HW127395   4.344   4.131   2.758 -2.2228  1.9824 -0.2634
 5253SOL    HW227396   4.367   4.013   2.858  2.3941  1.2480  1.1310
 5254SOL     OW27397   1.556   3.409   0.707 -0.9064  0.3161  0.0532
 5254SOL    HW127398   1.643   3.384   0.737 -0.6071  0.5154 -0.6454
 5254SOL    HW227399   1.570   3.503   0.694 -0.9906  0.6262  2.2602
 5255SOL     OW27400   1.678   4.458   5.002 -0.0721 -0.3159 -0.5089
 5255SOL    HW127401   1.619   4.386   4.980 -1.0608  0.0685  0.8713
 5255SOL    HW227402   1.642   4.484   5.087  1.7059 -0.8301  0.3998
 5256SOL     OW27403   0.266   0.776   2.416 -0.0087 -0.1715  0.5055
 5256SOL    HW127404   0.244   0.789   2.508  0.4978  1.3258  0.4085
 5256SOL    HW227405   0.348   0.727   2.420  0.5832  0.7074 -1.1784
 5257SOL     OW27406   0.063   2.202   4.683  0.2341  0.1231 -0.1922
 5257SOL    HW127407   0.127   2.272   4.676  0.8341 -0.4329 -0.3046
 5257SOL    HW227408   0.062   2.197   4.779 -0.8694 -0.2806 -0.2212
 5258SOL     OW27409   3.574   0.986   1.663 -0.8876  0.1477  0.9641
 5258SOL    HW127410   3.570   1.004   1.569  0.8527  0.0743  0.8672
 5258SOL    HW227411   3.487   0.953   1.682 -0.6942  0.3510  2.1593
 5259SOL     OW27412   2.934   1.549  14.455  0.4969  0.3216 -0.5050
 5259SOL    HW127413   3.029   1.553  14.471  0.3067  2.2702  0.1826
 5259SOL    HW227414   2.930   1.511  14.367  1.3349  0.7457 -0.7275
 5260SOL     OW27415   3.631   3.468   7.859  1.0477 -0.2425 -0.0815
 5260SOL    HW127416   3.621   3.558   7.826 -3.7172 -0.4566  0.8888
 5260SOL    HW227417   3.685   3.432   7.789  2.6078  2.1905 -0.1731
 5261SOL     OW27418   1.374   2.291   3.130  0.1509 -0.0001  0.1052
 5261SOL    HW127419   1.458   2.317   3.170 -0.6587  0.5344  1.4608
 5261SOL    HW227420   1.399   2.299   3.038 -0.5379  0.2475 -0.0593
 5262SOL     OW27421   2.704   1.694   7.960 -0.6887  0.1009 -0.0816
 5262SOL    HW127422   2.733   1.613   8.001 -1.8303  0.4487  1.4233
 5262SOL    HW227423   2.620   1.709   8.004 -1.1570  1.2270 -1.3415
 5263SOL     OW27424   1.405   2.916   9.275 -0.2230  0.1107 -0.4285
 5263SOL    HW127425   1.405   2.951   9.186  2.8668 -0.7312 -0.7787
 5263SOL    HW227426   1.315   2.939   9.300  0.1706 -0.2983  1.3804
 5264SOL     OW27427   2.465   1.436   8.928 -0.2959  0.0452  0.8193
 5264SOL    HW127428   2.508   1.403   9.007 -1.0565 -0.0014  1.2131
 5264SOL    HW227429   2.463   1.528   8.956 -1.0643  0.7676 -1.5653
 5265SOL     OW27430   3.007   4.148   6.399  0.4117  0.1814  0.0396
 5265SOL    HW127431   2.959   4.231   6.395  1.6529  0.8654 -0.4798
 5265SOL    HW227432   2.972   4.100   6.324  0.3413 -1.1847  0.9485
 5266SOL     OW27433   1.967   4.716   5.236  0.0223 -0.2383 -0.7477
 5266SOL    HW127434   1.917   0.056   5.208  2.3500  1.6649  0.2936
 5266SOL    HW227435   1.987   0.005   5.326 -2.1559 -0.3391 -0.2406
 5267SOL     OW27436   2.192   3.387   4.166 -0.2586 -0.0655 -0.0542
 5267SOL    HW127437   2.195   3.470   4.119 -0.5043 -0.8852 -1.4976
 5267SOL    HW227438   2.101   3.361   4.157 -0.0745 -0.5814 -0.3740
 5268SOL     OW27439   2.243   1.943   2.225  0.1273 -0.2114  0.3590
 5268SOL    HW127440   2.335   1.927   2.203  0.1118  0.4918 -0.2296
 5268SOL    HW227441   2.211   1.856   2.249 -1.5817  0.5524  0.8379
 5269SOL     OW27442   3.782   2.826   4.010 -0.0176 -0.5126  0.1491
 5269SOL    HW127443   3.745   2.913   4.025 -1.3322 -1.1717  0.7142
 5269SOL    HW227444   3.758   2.811   3.919 -0.7497  0.1233  0.2382
 5270SOL     OW27445   4.559   2.916   6.901  0.0007 -0.4136  0.3609
 5270SOL    HW127446   4.540   3.010   6.900 -1.1200 -0.6579 -0.3714
 5270SOL    HW227447   4.636   2.922   6.845 -0.9785  4.0925 -0.5244
 5271SOL     OW27448   2.863   2.300   3.739  0.4285 -0.1033  0.0537
 5271SOL    HW127449   2.844   2.316   3.646  1.7108  1.3710  0.0405
 5271SOL    HW227450   2.807   2.223   3.749  2.8297 -1.7359  0.7329
 5272SOL     OW27451   2.824   4.180   3.130  0.0631 -0.9288 -0.1198
 5272SOL    HW127452   2.849   4.116   3.064 -1.7071 -0.6733 -1.0527
 5272SOL    HW227453   2.818   4.256   3.073  1.0747 -0.9749 -0.2878
 5273SOL     OW27454   3.208   4.176   0.371  0.4077 -0.1035  0.0780
 5273SOL    HW127455   3.161   4.196   0.451 -0.6027 -1.8653 -0.0726
 5273SOL    HW227456   3.181   4.084   0.366 -0.5638  0.2084 -0.3436
 5274SOL     OW27457   2.241   0.498   7.025  0.3477 -0.8985 -0.6109
 5274SOL    HW127458   2.306   0.432   7.049 -0.6824 -0.7921  2.5286
 5274SOL    HW227459   2.181   0.491   7.099  1.5320 -3.0843  0.1471
 5275SOL     OW27460   3.193   0.573   4.845  0.6842  0.4381  0.0386
 5275SOL    HW127461   3.260   0.567   4.912  0.4945  0.3397  0.2206
 5275SOL    HW227462   3.109   0.561   4.890  0.6909  0.6893  0.1182
 5276SOL     OW27463   1.233   4.701  12.155 -0.2727  0.1725 -0.0887
 5276SOL    HW127464   1.150   4.704  12.107 -0.7709  0.1407  0.7537
 5276SOL    HW227465   1.209   0.013  12.234  1.0040  0.1106  0.3284
 5277SOL     OW27466   3.189   3.223   5.175 -0.7354  0.5602  0.3268
 5277SOL    HW127467   3.262   3.257   5.124 -2.7809 -0.6405 -3.3670
 5277SOL    HW227468   3.129   3.216   5.101 -0.5255 -1.6581  0.3566
 5278SOL     OW27469   1.644   4.011   7.944  0.3484  0.3085 -0.5801
 5278SOL    HW127470   1.612   3.976   7.861 -0.4205 -0.5167  0.0648
 5278SOL    HW227471   1.606   4.099   7.948 -1.0226 -0.2830 -0.6151
 5279SOL     OW27472   0.916   1.709  16.533  0.0963 -0.0866  0.2997
 5279SOL    HW127473   0.909   1.795  16.573  0.6479  1.1164 -2.1747
 5279SOL    HW227474   0.925   1.719  16.438  2.4090  0.1072  0.5594
 5280SOL     OW27475   0.447   1.857   6.026 -0.4637  0.2071 -0.0680
 5280SOL    HW127476   0.434   1.937   6.077 -1.9684 -0.5617  0.7515
 5280SOL    HW227477   0.389   1.861   5.950  1.7867  1.7850 -1.6896
 5281SOL     OW27478   0.705   3.875   9.888  0.0511 -0.2232  0.7431
 5281SOL    HW127479   0.723   3.833   9.804 -3.2391  0.5208 -0.3529
 5281SOL    HW227480   0.644   3.946   9.866 -1.9893 -1.6837  1.6556
 5282SOL     OW27481   0.697   3.477   1.169 -0.0478 -0.1162 -0.2063
 5282SOL    HW127482   0.761   3.412   1.140 -0.1703 -0.9909  1.4873
 5282SOL    HW227483   0.703   3.540   1.097 -4.4014 -0.0808 -0.5173
 5283SOL     OW27484   1.239   1.978   2.178 -0.4445 -0.0947  1.1243
 5283SOL    HW127485   1.174   1.919   2.140  0.2683  0.3568 -0.7926
 5283SOL    HW227486   1.242   1.953   2.271 -1.6446 -2.4794  0.5115
 5284SOL     OW27487   3.892   2.954   1.841 -0.4867  0.0795 -0.3447
 5284SOL    HW127488   3.975   2.984   1.803  0.2858  0.3540  1.5725
 5284SOL    HW227489   3.916   2.899   1.916 -2.7429 -1.1503 -0.5215
 5285SOL     OW27490   0.517   1.568   2.711 -0.4535 -0.5583 -0.1099
 5285SOL    HW127491   0.441   1.600   2.661  0.5184  1.9032  0.0003
 5285SOL    HW227492   0.577   1.539   2.642  1.4119 -2.1544  2.2053
 5286SOL     OW27493   2.023   0.492  10.061 -0.3469  0.3395 -0.2467
 5286SOL    HW127494   2.040   0.578  10.024 -0.5744  0.0685 -0.9777
 5286SOL    HW227495   2.105   0.455  10.029  0.3568  0.6149  1.2474
 5287SOL     OW27496   4.462   3.754   8.285  0.3060  0.3268  0.2584
 5287SOL    HW127497   4.555   3.749   8.308  0.0106 -0.2305  1.3114
 5287SOL    HW227498   4.446   3.847   8.302 -0.5994  0.0225  1.0438
 5288SOL     OW27499   3.337   3.658   2.881  0.5464 -0.0792  0.1406
 5288SOL    HW127500   3.256   3.680   2.926  0.0624  1.5375 -1.5314
 5288SOL    HW227501   3.386   3.608   2.946  0.7876  0.4898  0.3938
 5289SOL     OW27502   2.286   1.186   4.675 -0.5611  0.2862  0.1362
 5289SOL    HW127503   2.292   1.119   4.607  0.5344 -1.3034  1.7979
 5289SOL    HW227504   2.318   1.258   4.621  0.1548  0.3382  0.6283
 5290SOL     OW27505   3.703   0.243   8.948  0.3872  0.2871 -0.4119
 5290SOL    HW127506   3.748   0.211   9.026 -1.2086 -2.1396 -0.4701
 5290SOL    HW227507   3.633   0.294   8.988  0.7877 -1.4631  2.5137
 5291SOL     OW27508   0.708   2.525   4.972 -0.0538 -0.6918 -0.0433
 5291SOL    HW127509   0.614   2.518   4.954 -0.4173  1.5685  1.0047
 5291SOL    HW227510   0.710   2.586   5.045  1.2541 -1.0619  0.2379
 5292SOL     OW27511   3.113   2.514   0.416 -0.1177  0.2414  0.6093
 5292SOL    HW127512   3.182   2.567   0.377  0.0749  0.3200  1.0464
 5292SOL    HW227513   3.146   2.509   0.506  0.1710 -0.2245  0.4796
 5293SOL     OW27514   0.897   0.383  13.505  0.5888 -0.4131 -0.2081
 5293SOL    HW127515   0.946   0.319  13.555  0.8020 -1.7830 -2.1557
 5293SOL    HW227516   0.825   0.399  13.566 -0.2916 -1.7016 -0.9092
 5294SOL     OW27517   2.426   1.379   3.125  0.8742  0.2872 -0.0452
 5294SOL    HW127518   2.380   1.370   3.041  0.4308  2.5059 -0.0443
 5294SOL    HW227519   2.489   1.308   3.129 -0.0810 -0.4767  1.3034
 5295SOL     OW27520   1.865   2.421  12.911 -0.5190  0.1110 -1.2534
 5295SOL    HW127521   1.862   2.436  13.006  1.2338 -0.7981 -1.0557
 5295SOL    HW227522   1.898   2.505  12.880 -0.7045  0.2766 -1.0040
 5296SOL     OW27523   0.906   0.344   0.561  0.0642  0.0468 -0.1594
 5296SOL    HW127524   0.829   0.354   0.506  1.8191 -1.5335 -2.9152
 5296SOL    HW227525   0.983   0.312   0.514 -0.2299 -1.5939  0.4604
 5297SOL     OW27526   1.928   0.341   9.214  0.4742 -0.6359  0.0222
 5297SOL    HW127527   1.876   0.321   9.291 -2.8516  2.2435 -1.4475
 5297SOL    HW227528   1.866   0.391   9.161  2.4085  1.6581 -0.0903
 5298SOL     OW27529   2.844   1.082  15.697 -0.5628 -0.6057  0.1714
 5298SOL    HW127530   2.853   1.177  15.690 -0.5117 -0.4613  2.2790
 5298SOL    HW227531   2.770   1.081  15.635 -0.5905 -0.8685  0.2084
 5299SOL     OW27532   0.364   1.159   5.723  0.2636 -0.1115 -0.5657
 5299SOL    HW127533   0.444   1.109   5.737  1.7121  2.5576  0.7302
 5299SOL    HW227534   0.362   1.213   5.803  1.4133  2.8797 -2.5611
 5300SOL     OW27535   1.859   3.327   8.900 -0.6791  0.2640  0.0357
 5300SOL    HW127536   1.785   3.381   8.873  0.4163  1.1591 -1.1738
 5300SOL    HW227537   1.832   3.237   8.880  1.3632 -0.5831  1.1170
 5301SOL     OW27538   1.058   3.073  14.871 -0.9257  0.3921  0.3660
 5301SOL    HW127539   1.056   3.110  14.959  0.6357  0.2696  0.4424
 5301SOL    HW227540   0.978   3.020  14.865 -0.6442 -0.1311  1.2898
 5302SOL     OW27541   1.976   0.509   8.105 -0.3949  0.3466 -0.1608
 5302SOL    HW127542   2.026   0.461   8.038 -1.0227  0.1826 -0.5131
 5302SOL    HW227543   2.007   0.599   8.106  0.8866 -0.0566 -1.3414
 5303SOL     OW27544   0.357   0.633   7.756 -0.1266  0.5489 -0.4749
 5303SOL    HW127545   0.364   0.649   7.850 -1.1744  2.3734 -0.7147
 5303SOL    HW227546   0.438   0.585   7.739 -0.2967  0.6275 -1.5151
 5304SOL     OW27547   1.439   0.509   3.776  0.8023 -0.0065 -0.4974
 5304SOL    HW127548   1.475   0.502   3.864  0.4464 -0.5383 -0.3893
 5304SOL    HW227549   1.499   0.446   3.736  1.2781 -1.1493  2.0701
 5305SOL     OW27550   4.212   0.338   6.392  0.7077  0.6016  0.1571
 5305SOL    HW127551   4.183   0.416   6.439 -0.4111  0.5109 -0.3661
 5305SOL    HW227552   4.297   0.332   6.435  1.3102 -0.9770 -1.2527
 5306SOL     OW27553   3.902   1.412  13.947 -0.0680 -0.0625 -0.1798
 5306SOL    HW127554   3.867   1.436  13.862 -0.3929 -0.5178 -0.1752
 5306SOL    HW227555   3.843   1.350  13.990 -0.2742 -0.2770 -0.7832
 5307SOL     OW27556   0.604   1.750  16.583 -0.1695 -0.3445 -0.4180
 5307SOL    HW127557   0.693   1.715  16.578  0.6646  1.8275 -0.7148
 5307SOL    HW227558   0.546   1.675  16.572  2.8753 -2.0487 -4.4981
 5308SOL     OW27559   2.870   0.358   3.356 -0.2840 -0.0461  1.0121
 5308SOL    HW127560   2.879   0.391   3.446 -1.7065  1.2777  0.6717
 5308SOL    HW227561   2.897   0.437   3.310  0.2102 -0.4753  0.5723
 5309SOL     OW27562   0.783   3.491  10.765 -0.3095  0.1064  0.5384
 5309SOL    HW127563   0.739   3.548  10.828 -0.6615  0.2396  0.1781
 5309SOL    HW227564   0.745   3.405  10.783  2.9383 -1.1718  1.2966
 5310SOL     OW27565   4.688   3.566  14.757  0.1196 -0.0100 -0.7302
 5310SOL    HW127566   0.030   3.589  14.708 -1.3648  2.0571 -2.1223
 5310SOL    HW227567   4.717   3.544  14.846  0.4972 -0.6490 -1.0141
 5311SOL     OW27568   0.677   0.766   1.633 -0.5443  0.1271 -0.0388
 5311SOL    HW127569   0.742   0.828   1.667 -0.0513  0.0147 -0.7629
 5311SOL    HW227570   0.748   0.704   1.619 -0.4470  0.8112 -2.6272
 5312SOL     OW27571   0.802   1.404   5.316  0.0566  0.0396 -0.3083
 5312SOL    HW127572   0.742   1.446   5.377 -0.8605 -3.0016  0.9123
 5312SOL    HW227573   0.877   1.460   5.299 -0.8090  0.5329 -2.5437
 5313SOL     OW27574   1.088   3.010   4.652 -0.3014  0.6494  0.1416
 5313SOL    HW127575   1.119   2.942   4.592 -2.8980 -0.3932  0.0194
 5313SOL    HW227576   0.994   3.002   4.639  0.1069 -1.6114 -1.5141
 5314SOL     OW27577   2.318   3.731   3.581  0.1417  0.0536 -0.1143
 5314SOL    HW127578   2.389   3.668   3.568 -0.0145 -0.2902  0.6894
 5314SOL    HW227579   2.365   3.803   3.622 -1.7151  0.7002  0.8457
 5315SOL     OW27580   1.067   4.698   5.336 -0.8331 -0.6070 -0.0984
 5315SOL    HW127581   1.011   0.015   5.393 -1.1334 -0.8450 -0.1724
 5315SOL    HW227582   1.054   4.606   5.358 -1.6689 -0.2262  1.0172
 5316SOL     OW27583   0.221   4.384  11.589  0.0404  0.0800  0.3558
 5316SOL    HW127584   0.254   4.472  11.575  1.7718 -0.9468 -2.0265
 5316SOL    HW227585   0.218   4.345  11.501  2.7777 -0.3464  0.4624
 5317SOL     OW27586   3.256   1.234   8.364 -0.3581 -0.2784  0.0671
 5317SOL    HW127587   3.246   1.311   8.420  0.7971  0.3490 -0.5671
 5317SOL    HW227588   3.294   1.276   8.287 -0.2285  1.1067  0.8817
 5318SOL     OW27589   3.262   3.389   2.535  0.1921 -0.1149  0.0859
 5318SOL    HW127590   3.318   3.457   2.571 -0.0761  0.7809 -1.2018
 5318SOL    HW227591   3.186   3.385   2.593 -0.2352  2.8153 -0.2691
 5319SOL     OW27592   0.892   2.766   8.589 -0.3155  0.2165 -0.7596
 5319SOL    HW127593   0.964   2.821   8.620  0.2817 -0.3517 -1.1420
 5319SOL    HW227594   0.825   2.833   8.602  1.4773  1.6150  1.1353
 5320SOL     OW27595   2.151   1.745  14.773 -0.0311 -0.4904  0.1129
 5320SOL    HW127596   2.147   1.822  14.831  0.7755  1.4388 -2.3815
 5320SOL    HW227597   2.233   1.704  14.802  0.6385  1.2795  0.7360
 5321SOL     OW27598   0.514   0.185   5.782  0.3965 -0.6383  0.0573
 5321SOL    HW127599   0.512   0.089   5.776  0.6400 -0.7424  1.7546
 5321SOL    HW227600   0.425   0.210   5.804  1.3264  1.3648  1.5267
 5322SOL     OW27601   1.652   2.931  15.460  0.0266 -0.3426 -0.2856
 5322SOL    HW127602   1.662   2.902  15.551  1.7066 -1.3212 -0.7844
 5322SOL    HW227603   1.740   2.964  15.438 -0.2636 -0.0540 -1.0127
 5323SOL     OW27604   4.447   0.826  15.991 -0.1713 -0.4151  0.3040
 5323SOL    HW127605   4.417   0.882  15.920  2.1307  2.2512  1.4443
 5323SOL    HW227606   4.359   0.803  16.020 -0.0766  0.5033  1.3258
 5324SOL     OW27607   0.520   1.846   7.314  0.2715  0.1994  0.0894
 5324SOL    HW127608   0.526   1.885   7.227  0.9989 -0.7891 -0.3085
 5324SOL    HW227609   0.582   1.898   7.366  0.8374 -2.7722  2.4394
 5325SOL     OW27610   3.143   4.364   9.530  0.1810  0.3477 -0.1357
 5325SOL    HW127611   3.127   4.457   9.545  0.9136  0.2919  0.9791
 5325SOL    HW227612   3.217   4.373   9.469 -0.0711  0.7461 -0.3865
 5326SOL     OW27613   0.720   3.483  15.638  0.0708 -0.3499  0.8562
 5326SOL    HW127614   0.733   3.464  15.731  0.9549 -1.1949  0.5608
 5326SOL    HW227615   0.767   3.411  15.595 -0.8991 -0.5006  0.0450
 5327SOL     OW27616   0.711   3.585   1.471 -0.4354 -0.0918 -0.2552
 5327SOL    HW127617   0.683   3.516   1.530 -0.8992  1.1054  0.9279
 5327SOL    HW227618   0.762   3.639   1.532 -0.4695 -1.5288  1.0483
 5328SOL     OW27619   2.479   1.052   6.853 -0.0268 -0.1960 -0.2408
 5328SOL    HW127620   2.392   1.044   6.815 -0.3671 -0.2426  0.5676
 5328SOL    HW227621   2.502   1.140   6.821  0.4120 -0.1375  0.2309
 5329SOL     OW27622   0.104   3.753   0.842 -0.6773 -0.2624  0.9876
 5329SOL    HW127623   0.065   3.667   0.826 -2.6660  0.7053  0.5742
 5329SOL    HW227624   0.024   3.805   0.852 -2.3433 -2.3962 -1.2286
 5330SOL     OW27625   2.274   0.965   9.641  0.3262  0.1185 -0.1688
 5330SOL    HW127626   2.281   0.933   9.551  1.3954  2.0369 -0.7714
 5330SOL    HW227627   2.206   0.905   9.673  1.3803 -1.4113 -0.8196
 5331SOL     OW27628   3.590   3.113  15.388 -0.1067 -0.1220  0.3521
 5331SOL    HW127629   3.505   3.148  15.361 -0.2542  0.1441  1.1458
 5331SOL    HW227630   3.630   3.193  15.424  0.8383  0.0321 -1.0567
 5332SOL     OW27631   1.794   0.018  15.836 -0.6879  0.4422 -0.2435
 5332SOL    HW127632   1.884   4.726  15.853 -0.4005  1.4512 -0.1169
 5332SOL    HW227633   1.752   4.672  15.810  0.7184 -0.2034 -0.4594
 5333SOL     OW27634   2.211   1.601   5.100  0.1593  0.0352 -0.2175
 5333SOL    HW127635   2.237   1.625   5.011  1.0304 -0.8189 -0.2043
 5333SOL    HW227636   2.199   1.688   5.139 -1.9942 -0.6875  0.7262
 5334SOL     OW27637   3.994   2.823  14.815  0.0999  0.0100  0.1914
 5334SOL    HW127638   3.942   2.829  14.896 -0.0903  1.0485 -0.0067
 5334SOL    HW227639   3.993   2.914  14.783  1.3559  0.3304  1.0697
 5335SOL     OW27640   1.168   1.608  14.485  0.4556  0.0563  0.3497
 5335SOL    HW127641   1.181   1.644  14.397  2.2867 -0.2693  0.4824
 5335SOL    HW227642   1.119   1.528  14.467  0.8045  0.5546 -2.8810
 5336SOL     OW27643   1.018   0.014   4.602  0.7031  0.4319  0.1059
 5336SOL    HW127644   0.943   0.043   4.653  1.4145  0.9724  0.8419
 5336SOL    HW227645   0.980   4.679   4.550 -0.3312 -0.4597  2.1013
 5337SOL     OW27646   4.208   1.095   3.403  0.1319 -0.0476  0.2583
 5337SOL    HW127647   4.156   1.092   3.323 -0.6499 -0.0596  0.7698
 5337SOL    HW227648   4.287   1.138   3.368 -0.0083  1.7887  2.1787
 5338SOL     OW27649   2.590   3.214  10.711  0.7036 -0.2405  0.1762
 5338SOL    HW127650   2.646   3.291  10.722  0.7112 -0.3117  0.6343
 5338SOL    HW227651   2.587   3.199  10.616  2.3032  2.5881 -0.3178
 5339SOL     OW27652   2.963   2.967  10.652  0.2831  0.0099 -0.3314
 5339SOL    HW127653   2.905   2.969  10.728 -0.0756 -1.1456 -0.5724
 5339SOL    HW227654   2.930   2.907  10.585  0.2286  1.6207 -1.7402
 5340SOL     OW27655   4.365   2.113   5.503  0.4212 -0.2165 -0.0465
 5340SOL    HW127656   4.278   2.111   5.542 -0.1745 -0.7276 -1.3958
 5340SOL    HW227657   4.408   2.185   5.548 -0.2888  1.0704 -1.4486
 5341SOL     OW27658   1.091   4.100   2.962  0.6038  0.3640 -0.2642
 5341SOL    HW127659   1.122   4.024   3.012  0.7289  0.1682 -0.6414
 5341SOL    HW227660   1.058   4.146   3.039 -0.5677 -0.3413 -0.3414
 5342SOL     OW27661   0.241   3.212   2.431  0.2882  0.1086 -0.0193
 5342SOL    HW127662   0.316   3.269   2.412 -0.4271  0.6676 -1.1302
 5342SOL    HW227663   0.214   3.233   2.520  1.3988  2.7831 -0.2959
 5343SOL     OW27664   1.896   2.344   4.403  0.2248  0.1391 -0.4363
 5343SOL    HW127665   1.976   2.335   4.351 -0.4554 -2.2252 -1.0547
 5343SOL    HW227666   1.855   2.258   4.402 -2.9869  1.6864 -2.1373
 5344SOL     OW27667   0.935   2.248  14.421 -0.5523  0.0242 -0.0884
 5344SOL    HW127668   1.018   2.248  14.469 -1.5604  0.0334  1.6640
 5344SOL    HW227669   0.886   2.328  14.439 -0.9786  0.0355 -1.3525
 5345SOL     OW27670   0.583   2.061   0.794 -0.2804 -0.5746 -0.5275
 5345SOL    HW127671   0.506   2.104   0.757 -0.9365  0.3570  1.9123
 5345SOL    HW227672   0.617   2.132   0.848 -0.7119  1.8592 -3.4032
 5346SOL     OW27673   1.684   2.338   5.388 -0.0869  0.0444 -0.4360
 5346SOL    HW127674   1.607   2.371   5.343  0.8877 -0.4294 -2.4850
 5346SOL    HW227675   1.759   2.355   5.330  0.3454 -0.7427 -0.1167
 5347SOL     OW27676   1.228   4.346   4.213 -0.4703  0.0161 -0.0947
 5347SOL    HW127677   1.243   4.433   4.250 -2.5314  0.3879 -0.1466
 5347SOL    HW227678   1.219   4.357   4.119  1.4463  3.0994  0.0858
 5348SOL     OW27679   0.931   2.194   4.820  0.0261  0.2031 -0.5461
 5348SOL    HW127680   0.861   2.258   4.809 -0.2984  0.1209  1.0272
 5348SOL    HW227681   0.877   2.121   4.849 -1.7176  0.6279 -2.7251
 5349SOL     OW27682   4.390   4.403  13.116 -0.2053 -0.0243 -0.5519
 5349SOL    HW127683   4.409   4.415  13.023 -2.5137  2.8058 -0.6937
 5349SOL    HW227684   4.402   4.493  13.148  0.4483 -0.7709  1.3201
 5350SOL     OW27685   4.458   1.490   7.040  0.2682 -0.3987 -0.1216
 5350SOL    HW127686   4.494   1.453   7.121  0.1124  1.2926  0.7189
 5350SOL    HW227687   4.364   1.495   7.053  0.7565 -0.5610  3.5415
 5351SOL     OW27688   3.395   4.629   0.340  0.0386  0.3801 -0.2789
 5351SOL    HW127689   3.353   4.677   0.269  1.7610  1.6342 -0.4670
 5351SOL    HW227690   3.312   4.603   0.378  0.2711 -0.3152 -0.2506
 5352SOL     OW27691   3.773   2.240   3.277 -0.2095  0.4149  0.3306
 5352SOL    HW127692   3.715   2.176   3.318  0.2210 -2.0350 -2.9086
 5352SOL    HW227693   3.824   2.181   3.222 -0.3377 -0.0938  0.7581
 5353SOL     OW27694   2.962   3.876   9.014 -0.3327  0.1391  0.3358
 5353SOL    HW127695   3.029   3.901   9.078 -2.6778  3.3103  1.5236
 5353SOL    HW227696   2.973   3.926   8.933  2.5284  1.4392  1.5475
 5354SOL     OW27697   4.636   1.519   4.445 -0.4065 -0.4702  0.7196
 5354SOL    HW127698   4.567   1.463   4.409 -1.9754  0.2510  2.6167
 5354SOL    HW227699   4.576   1.581   4.486 -0.3605  0.4554 -0.6057
 5355SOL     OW27700   2.289   4.599   1.071 -0.8715 -0.4493  0.9512
 5355SOL    HW127701   2.370   4.549   1.066 -0.1748  0.8889 -1.4624
 5355SOL    HW227702   2.312   4.674   1.124  0.6468 -0.2000 -0.0606
 5356SOL     OW27703   2.139   1.818  13.673  0.1116 -0.0495 -0.0043
 5356SOL    HW127704   2.134   1.737  13.725 -2.4647  0.8377  1.1172
 5356SOL    HW227705   2.045   1.832  13.669  0.2380  0.4707 -1.0024
 5357SOL     OW27706   4.594   1.119   5.478 -0.3757 -0.2022 -0.4689
 5357SOL    HW127707   4.543   1.047   5.441 -2.4644  0.9668  0.1711
 5357SOL    HW227708   4.609   1.179   5.405  0.3132  1.3266  0.9392
 5358SOL     OW27709   3.532   2.844   3.269 -0.2918 -0.4441 -0.4487
 5358SOL    HW127710   3.499   2.932   3.247 -0.5432 -0.6309 -0.8117
 5358SOL    HW227711   3.450   2.801   3.294 -0.2975  1.5856  2.9741
 5359SOL     OW27712   1.834   3.141   3.093 -0.5150 -0.2723  0.2229
 5359SOL    HW127713   1.845   3.229   3.129  0.6914 -0.6874  0.8743
 5359SOL    HW227714   1.844   3.155   2.999  1.3278 -3.1004 -0.0073
 5360SOL     OW27715   2.662   2.807   4.553 -0.7674  0.1227 -0.2261
 5360SOL    HW127716   2.604   2.741   4.516  0.1017 -0.2442 -0.9431
 5360SOL    HW227717   2.748   2.770   4.531 -1.0548 -0.3188 -0.6071
 5361SOL     OW27718   4.427   3.676  12.575  0.1436  0.1671  0.0302
 5361SOL    HW127719   4.518   3.700  12.594 -0.8162  0.0193  4.6996
 5361SOL    HW227720   4.445   3.655  12.483 -0.4777  2.0867 -0.5464
 5362SOL     OW27721   4.027   4.240   5.680 -0.1600 -0.3513 -0.6512
 5362SOL    HW127722   4.053   4.329   5.703  0.6515 -0.6250 -0.4885
 5362SOL    HW227723   4.052   4.245   5.588 -0.5340  0.5607 -0.7030
 5363SOL     OW27724   2.331   1.415   9.284  0.2502 -0.8266 -0.7117
 5363SOL    HW127725   2.339   1.466   9.364  0.8010 -0.0655 -1.2483
 5363SOL    HW227726   2.400   1.349   9.295 -0.7641 -1.6431  0.7882
 5364SOL     OW27727   2.810   1.939   4.575  0.3198 -0.5117  0.1936
 5364SOL    HW127728   2.777   1.981   4.496 -0.5437 -0.2883  0.6622
 5364SOL    HW227729   2.889   1.896   4.542 -0.2829 -0.8469 -0.8010
 5365SOL     OW27730   2.228   3.236   8.822  0.3048  0.1548 -0.0788
 5365SOL    HW127731   2.175   3.165   8.786 -1.8681  1.2297  1.0206
 5365SOL    HW227732   2.220   3.229   8.917 -0.7425  0.1074 -0.1717
 5366SOL     OW27733   1.869   3.211   2.467 -0.1671  0.6991 -0.0179
 5366SOL    HW127734   1.812   3.223   2.392 -1.5607 -0.4264  0.8664
 5366SOL    HW227735   1.813   3.197   2.544  0.9168 -0.4966  0.5504
 5367SOL     OW27736   0.443   2.154   3.219  0.1467 -0.3733 -0.1293
 5367SOL    HW127737   0.508   2.109   3.165  0.5762 -0.4187  0.4247
 5367SOL    HW227738   0.476   2.242   3.198 -0.5261 -0.0947 -0.0077
 5368SOL     OW27739   4.066   1.507   6.812 -0.1725  0.0487 -0.0925
 5368SOL    HW127740   4.051   1.600   6.827  0.2479  0.2394 -0.8624
 5368SOL    HW227741   3.981   1.473   6.841 -1.0942  0.3154 -2.4774
 5369SOL     OW27742   1.463   2.894  12.153  0.0836  0.0341  0.0857
 5369SOL    HW127743   1.422   2.937  12.228 -3.2141 -0.5314 -1.3977
 5369SOL    HW227744   1.457   2.804  12.185 -1.2434  0.2072  0.3006
 5370SOL     OW27745   2.580   2.846   7.415  0.6625 -0.6053  0.1654
 5370SOL    HW127746   2.611   2.816   7.501 -1.3386 -1.6331  0.5168
 5370SOL    HW227747   2.500   2.889   7.444  0.0891 -3.1081  2.3133
 5371SOL     OW27748   0.608   1.655   6.649 -0.2367 -0.4482  0.2850
 5371SOL    HW127749   0.686   1.599   6.643 -0.6615 -0.9993 -0.1687
 5371SOL    HW227750   0.599   1.664   6.744 -0.0708 -1.4659  0.4061
 5372SOL     OW27751   2.853   0.103   6.793 -0.5922 -0.5190 -0.4214
 5372SOL    HW127752   2.803   0.028   6.762  0.4464 -0.9571 -1.0406
 5372SOL    HW227753   2.922   0.061   6.844  0.6740 -0.8008 -2.3566
 5373SOL     OW27754   3.846   0.771   6.835  0.2836 -0.2221  0.0846
 5373SOL    HW127755   3.787   0.831   6.788  2.6898  1.0531 -1.3081
 5373SOL    HW227756   3.788   0.741   6.904  0.2875  0.6005  0.4532
 5374SOL     OW27757   3.915   2.806  11.294  0.4870  0.3385 -0.5612
 5374SOL    HW127758   3.866   2.827  11.214 -0.2016  2.7345  0.4778
 5374SOL    HW227759   3.997   2.774  11.257  0.3580 -0.9260  0.2482
 5375SOL     OW27760   2.996   4.380   7.611 -0.4171 -0.0869  0.1504
 5375SOL    HW127761   2.995   4.341   7.698  0.5232  3.2732  1.6766
 5375SOL    HW227762   2.971   4.469   7.639 -1.9179 -0.0080 -1.4356
 5376SOL     OW27763   2.307   2.555   9.010  0.1463 -0.1746 -0.2633
 5376SOL    HW127764   2.285   2.625   9.071  1.3546 -1.8897  2.1422
 5376SOL    HW227765   2.272   2.596   8.931  2.0394 -2.3676 -2.2581
 5377SOL     OW27766   1.368   3.746  17.368 -0.0965 -0.3604  0.0557
 5377SOL    HW127767   1.307   3.812  17.333  1.1349  0.5026 -0.4783
 5377SOL    HW227768   1.389   3.699  17.287  0.4974  1.8150 -1.0827
 5378SOL     OW27769   3.356   0.103   3.336 -0.2600  0.4085  0.6758
 5378SOL    HW127770   3.365   0.011   3.361 -3.3180  0.4143  1.7221
 5378SOL    HW227771   3.372   0.146   3.420  0.3653  0.3230  0.6060
 5379SOL     OW27772   0.156   1.276   8.460  0.6523  0.6361 -0.4674
 5379SOL    HW127773   0.087   1.312   8.405 -1.3249  0.8484  2.1831
 5379SOL    HW227774   0.217   1.350   8.452  1.2224  0.1797 -0.3470
 5380SOL     OW27775   1.144   0.364  15.685 -0.0609  0.2097  0.1773
 5380SOL    HW127776   1.237   0.347  15.670 -0.4010 -1.3462 -0.2691
 5380SOL    HW227777   1.141   0.429  15.615 -1.1475 -2.1672 -1.9842
 5381SOL     OW27778   1.084   2.251  15.549 -0.6307  0.4975 -0.0958
 5381SOL    HW127779   1.040   2.166  15.554 -1.4514  0.8311 -1.7667
 5381SOL    HW227780   1.126   2.245  15.635  1.4525 -1.2277 -1.2414
 5382SOL     OW27781   1.103   3.856   6.891  0.0390  0.9919 -0.6087
 5382SOL    HW127782   1.164   3.928   6.877  0.8943  0.5063  0.6416
 5382SOL    HW227783   1.161   3.780   6.885 -0.5272  0.6721 -1.9776
 5383SOL     OW27784   3.602   0.956   4.876 -0.1796 -0.0264  0.3537
 5383SOL    HW127785   3.508   0.965   4.861  0.0374 -0.3575 -1.2134
 5383SOL    HW227786   3.610   1.023   4.945 -0.6312  0.7629 -0.3579
 5384SOL     OW27787   1.798   2.981   4.901 -0.1532 -0.5080  0.1294
 5384SOL    HW127788   1.833   2.956   4.815  0.0888 -0.3477  0.1804
 5384SOL    HW227789   1.705   2.974   4.878 -0.1555 -1.3732  0.4010
 5385SOL     OW27790   1.123   1.270   7.003  0.2297  0.4372 -0.4921
 5385SOL    HW127791   1.210   1.291   7.035  0.9220 -1.2012 -1.3083
 5385SOL    HW227792   1.070   1.324   7.062  0.1949 -0.4270  0.2648
 5386SOL     OW27793   4.628   0.266   0.114  0.4717  0.1036  0.1692
 5386SOL    HW127794   4.572   0.342   0.133  0.6122  0.4119 -0.6696
 5386SOL    HW227795   4.643   0.225   0.199  0.9873  2.4186  1.1876
 5387SOL     OW27796   4.135   3.807   5.152  0.4320  0.6454  0.1785
 5387SOL    HW127797   4.103   3.888   5.112  2.0699  1.8972  1.4127
 5387SOL    HW227798   4.070   3.793   5.221 -2.5559  0.0646 -2.7511
 5388SOL     OW27799   1.088   0.511   3.651 -0.1014 -0.9629  0.1879
 5388SOL    HW127800   1.049   0.525   3.564  2.2319 -0.0866 -0.7173
 5388SOL    HW227801   1.180   0.500   3.626 -0.0873  0.0862 -0.2446
 5389SOL     OW27802   1.268   3.766   4.886 -0.2885 -0.0503  0.7376
 5389SOL    HW127803   1.242   3.856   4.905  2.7649  0.9513  0.2815
 5389SOL    HW227804   1.182   3.726   4.891  0.0519 -0.6693  1.6580
 5390SOL     OW27805   2.855   0.344   3.840 -0.0787  0.0668 -0.3509
 5390SOL    HW127806   2.866   0.427   3.886 -1.2503 -0.7922  1.4809
 5390SOL    HW227807   2.816   0.368   3.756  1.7792  1.2391 -0.8863
 5391SOL     OW27808   0.103   1.915   4.559  0.0988  0.1427 -0.6844
 5391SOL    HW127809   0.076   1.856   4.630 -1.8071  0.7284 -0.9224
 5391SOL    HW227810   0.122   1.997   4.605  0.6664  1.0950 -2.6125
 5392SOL     OW27811   3.853   2.845  14.482  0.4252  0.4242 -0.6432
 5392SOL    HW127812   3.843   2.753  14.455  0.2330 -0.0868  1.1958
 5392SOL    HW227813   3.778   2.859  14.539  1.9171  3.1565  0.6341
 5393SOL     OW27814   0.671   4.614  16.536 -0.2917  0.4637  0.4233
 5393SOL    HW127815   0.759   4.611  16.499 -1.1745  1.8601 -1.7797
 5393SOL    HW227816   0.681   4.699  16.579 -1.0034  0.0949  1.3139
 5394SOL     OW27817   0.972   3.809  12.252  0.2140  0.2723 -0.3561
 5394SOL    HW127818   0.920   3.890  12.255 -1.9510 -1.2070  1.3065
 5394SOL    HW227819   0.980   3.795  12.157 -0.2174 -1.3695 -0.1449
 5395SOL     OW27820   3.539   4.242   0.523  0.3665 -0.3713  0.6266
 5395SOL    HW127821   3.584   4.222   0.441 -1.1870  3.6665 -1.2257
 5395SOL    HW227822   3.459   4.284   0.492 -0.9578 -1.4791  2.5497
 5396SOL     OW27823   4.100   1.593   0.689 -0.6008 -0.4861  0.3623
 5396SOL    HW127824   4.088   1.656   0.619  0.4347  0.6345  1.2084
 5396SOL    HW227825   4.168   1.632   0.744 -0.9742  2.2410 -1.1301
 5397SOL     OW27826   4.732   4.203   0.865 -0.1023 -0.5256 -0.1169
 5397SOL    HW127827   4.645   4.181   0.833  0.3626 -1.1922 -0.9200
 5397SOL    HW227828   0.002   4.298   0.853 -1.3588 -0.2494  1.3732
 5398SOL     OW27829   1.390   0.105   4.770  0.0932  0.3478 -0.3869
 5398SOL    HW127830   1.308   0.072   4.733 -2.7082  2.7165  3.7952
 5398SOL    HW227831   1.370   0.093   4.862  2.0153  0.7780  0.0943
 5399SOL     OW27832   3.102   0.537  12.473 -0.1457  0.0425 -0.6570
 5399SOL    HW127833   3.068   0.586  12.548 -0.3402  0.6847 -1.1704
 5399SOL    HW227834   3.189   0.506  12.499 -0.0920  1.2258  0.5684
 5400SOL     OW27835   3.539   2.500   3.332 -0.2922 -0.1770  0.6176
 5400SOL    HW127836   3.473   2.569   3.323 -1.6395 -1.7213 -1.4594
 5400SOL    HW227837   3.600   2.537   3.395 -1.1326  2.0017  0.1659
 5401SOL     OW27838   2.239   2.988   6.914  0.0814  0.3913  0.0338
 5401SOL    HW127839   2.237   2.979   7.010 -0.0279  0.1158  0.0063
 5401SOL    HW227840   2.165   3.047   6.901  0.8096  1.1157 -0.7323
 5402SOL     OW27841   3.157   1.721  10.652  0.0108 -0.1630  0.6282
 5402SOL    HW127842   3.128   1.809  10.628  0.8866 -0.3990 -1.3034
 5402SOL    HW227843   3.229   1.748  10.709  0.2099 -1.8011  1.1299
 5403SOL     OW27844   2.195   1.867   0.390 -0.1887  0.1940  0.1899
 5403SOL    HW127845   2.136   1.810   0.341 -0.5483  2.0157 -1.4705
 5403SOL    HW227846   2.162   1.852   0.479  0.3793  0.5152  0.4541
 5404SOL     OW27847   3.158   0.847   4.194  0.5662 -0.4139 -0.0488
 5404SOL    HW127848   3.179   0.795   4.272  2.7374  2.1286  1.0407
 5404SOL    HW227849   3.224   0.806   4.138 -1.0069 -0.8549 -1.5798
 5405SOL     OW27850   0.989   4.718  16.062  0.4583  0.3359 -0.1979
 5405SOL    HW127851   1.021   0.061  16.105 -0.8590  0.2559  0.9457
 5405SOL    HW227852   1.030   4.648  16.113  1.4740  1.2341  0.1991
 5406SOL     OW27853   0.049   3.415   3.661 -0.4018  0.5328  0.2853
 5406SOL    HW127854   4.718   3.482   3.648  0.7082  1.7155  0.8029
 5406SOL    HW227855   0.084   3.439   3.746  2.6029 -1.5615 -0.3590
 5407SOL     OW27856   2.129   0.400  16.972  0.1873 -0.2564 -0.1872
 5407SOL    HW127857   2.126   0.456  16.894 -0.0420  0.9270  0.6743
 5407SOL    HW227858   2.071   0.445  17.033 -0.3072 -3.2177  1.5453
 5408SOL     OW27859   3.112   2.061   6.588  0.3165 -0.0169 -0.0241
 5408SOL    HW127860   3.154   2.114   6.656  0.9068 -0.2689 -0.2008
 5408SOL    HW227861   3.017   2.068   6.598  0.3553  1.5693 -0.9263
 5409SOL     OW27862   1.301   3.460  14.646 -0.4270 -0.0088  0.0045
 5409SOL    HW127863   1.326   3.471  14.737 -0.4151 -0.7906  0.1004
 5409SOL    HW227864   1.214   3.499  14.635 -1.1312 -1.4314  0.5372
 5410SOL     OW27865   0.151   1.447   8.859 -0.2375  1.0544  0.2603
 5410SOL    HW127866   0.075   1.398   8.828 -1.0517  0.7189  2.8203
 5410SOL    HW227867   0.129   1.452   8.952  1.6280  3.2481  0.5858
 5411SOL     OW27868   0.646   2.240   6.488 -0.1398  0.2894 -0.5835
 5411SOL    HW127869   0.724   2.288   6.516  0.7846 -1.0867 -0.8084
 5411SOL    HW227870   0.674   2.149   6.480  1.1444  0.7162 -0.9327
 5412SOL     OW27871   1.652   2.094   2.340  0.1795  0.2226  0.0886
 5412SOL    HW127872   1.732   2.086   2.288  0.2976 -0.1125  0.3177
 5412SOL    HW227873   1.593   2.102   2.265  1.1747  2.6355 -0.4260
 5413SOL     OW27874   2.210   3.856   5.441  0.3821 -0.4314 -0.0102
 5413SOL    HW127875   2.191   3.782   5.384  0.8955 -1.4283  1.1209
 5413SOL    HW227876   2.256   3.810   5.511  0.4325 -1.3051 -0.6235
 5414SOL     OW27877   0.673   1.222   5.479  0.0008  0.2632 -0.1276
 5414SOL    HW127878   0.749   1.204   5.534 -0.1451 -0.4444 -0.1595
 5414SOL    HW227879   0.723   1.269   5.413 -1.0434  1.0640 -0.3469
 5415SOL     OW27880   0.583   2.675   5.836  0.0364  0.3054  0.1691
 5415SOL    HW127881   0.605   2.735   5.766  2.6758  0.3044  1.0087
 5415SOL    HW227882   0.572   2.590   5.793 -2.0459 -0.1203  1.5218
 5416SOL     OW27883   1.385   3.092  16.924 -0.2050  0.1467 -0.8039
 5416SOL    HW127884   1.322   3.145  16.876 -0.1914  0.7593 -0.1470
 5416SOL    HW227885   1.393   3.018  16.864 -2.7016 -0.1043 -0.8153
 5417SOL     OW27886   1.651   1.383   7.278  0.2585  0.1597 -0.5048
 5417SOL    HW127887   1.572   1.384   7.333  1.0237  0.8745  0.5671
 5417SOL    HW227888   1.712   1.315   7.304 -0.5763  0.9555  3.5898
 5418SOL     OW27889   0.954   3.096   5.682  0.0748  0.6840  0.5571
 5418SOL    HW127890   0.911   3.031   5.738 -0.9465 -1.0422 -2.2447
 5418SOL    HW227891   0.883   3.140   5.636  0.6908  0.7988 -0.2690
 5419SOL     OW27892   1.182   4.666   9.738 -0.0233  0.0236  0.2183
 5419SOL    HW127893   1.200   4.624   9.654  0.3395 -0.8137  0.7075
 5419SOL    HW227894   1.108   4.615   9.773  0.4081  0.0636  1.2072
 5420SOL     OW27895   2.263   1.484   9.874 -0.3006  0.0314  0.3361
 5420SOL    HW127896   2.344   1.469   9.825 -1.5939 -1.6432 -1.2815
 5420SOL    HW227897   2.287   1.537   9.950 -0.1231 -1.3923  1.2648
 5421SOL     OW27898   4.108   2.149   7.583 -0.6158  0.2022  0.4701
 5421SOL    HW127899   4.052   2.195   7.520  0.0898  0.8516  0.3102
 5421SOL    HW227900   4.171   2.219   7.601 -0.7832  0.7959 -1.2536
 5422SOL     OW27901   0.271   3.096   6.072 -0.1024  1.0684 -0.4232
 5422SOL    HW127902   0.188   3.121   6.033 -0.8113 -0.5202  0.0232
 5422SOL    HW227903   0.257   3.015   6.121  0.2123  1.2430 -0.0404
 5423SOL     OW27904   3.992   4.132   6.060  0.6640  0.0452  0.4623
 5423SOL    HW127905   4.037   4.217   6.062  2.2405 -0.7524 -1.6284
 5423SOL    HW227906   3.988   4.118   6.155  0.5264  0.6582  0.5505
 5424SOL     OW27907   1.169   0.016   8.794 -0.3153  0.0475 -0.2714
 5424SOL    HW127908   1.233   4.681   8.789  0.0416  0.4327 -1.0024
 5424SOL    HW227909   1.195   0.077   8.726 -0.2886 -0.9459 -1.1616
 5425SOL     OW27910   1.696   1.616  16.557  0.1734  0.4946 -0.0363
 5425SOL    HW127911   1.761   1.662  16.611  0.1878  0.5889 -0.1353
 5425SOL    HW227912   1.752   1.558  16.505  1.3164 -0.7733  2.5699
 5426SOL     OW27913   3.391   2.120  12.575 -0.1741 -0.0546 -0.4087
 5426SOL    HW127914   3.421   2.165  12.653  1.7435 -3.1891  0.6760
 5426SOL    HW227915   3.425   2.031  12.587 -0.9259 -0.3053 -0.1597
 5427SOL     OW27916   1.428   2.320   2.032  0.2983 -0.6531 -0.2451
 5427SOL    HW127917   1.396   2.410   2.024 -0.5321 -0.7918  1.4077
 5427SOL    HW227918   1.512   2.332   2.077 -0.8089  0.5104  1.5259
 5428SOL     OW27919   2.289   0.544   0.177  0.1909  0.0740  0.4133
 5428SOL    HW127920   2.265   0.628   0.215 -1.2901 -1.0370  1.9355
 5428SOL    HW227921   2.376   0.552   0.137 -0.5865 -0.9671 -1.5012
 5429SOL     OW27922   2.322   1.078   8.762 -0.2847  0.1272  0.0066
 5429SOL    HW127923   2.232   1.078   8.730 -0.3579  0.7810  0.2153
 5429SOL    HW227924   2.331   0.986   8.786 -2.1502 -0.6276 -2.2168
 5430SOL     OW27925   2.093   3.466   2.149  0.4778 -0.2603 -0.2680
 5430SOL    HW127926   2.140   3.385   2.172  1.1108  0.2931  0.3703
 5430SOL    HW227927   2.010   3.442   2.191  0.0294 -1.9010 -2.0564
 5431SOL     OW27928   3.869   4.056   3.802  0.5701  0.1808  0.0921
 5431SOL    HW127929   3.956   4.096   3.798 -0.7641  2.9395 -0.8774
 5431SOL    HW227930   3.892   3.968   3.834 -1.1186 -0.4444 -0.4095
 5432SOL     OW27931   3.616   1.904   5.057 -0.3745  0.0439 -0.8944
 5432SOL    HW127932   3.699   1.887   5.101 -1.0121  1.4659  0.8206
 5432SOL    HW227933   3.575   1.962   5.121 -0.5971 -0.6654 -0.3946
 5433SOL     OW27934   2.918   2.226   0.861  0.0850 -0.3735  0.4090
 5433SOL    HW127935   2.869   2.173   0.925  2.6582 -2.2299  0.8284
 5433SOL    HW227936   2.937   2.292   0.928  3.8053 -1.6782  0.6123
 5434SOL     OW27937   1.892   3.371   5.090 -0.1171 -0.2641  0.3059
 5434SOL    HW127938   1.938   3.453   5.072 -0.0820  0.1578  2.3372
 5434SOL    HW227939   1.833   3.364   5.015 -0.6212  3.7853  0.3422
 5435SOL     OW27940   0.988   1.065   9.227  0.1782  0.0372 -0.1596
 5435SOL    HW127941   0.914   1.124   9.245 -1.5170 -1.9199 -0.6907
 5435SOL    HW227942   1.040   1.080   9.306 -0.7075  2.2522 -0.0073
 5436SOL     OW27943   4.497   4.089   8.033 -0.2020 -0.0804  0.2262
 5436SOL    HW127944   4.476   4.139   7.955 -0.5869 -0.0626  0.3429
 5436SOL    HW227945   4.583   4.051   8.013 -1.4893 -1.7694 -2.0905
 5437SOL     OW27946   4.120   3.689   2.037 -0.2441  0.3242  0.7337
 5437SOL    HW127947   4.200   3.722   2.077 -1.0669  1.2709  1.5796
 5437SOL    HW227948   4.052   3.737   2.085 -0.7969  0.0645  0.2107
 5438SOL     OW27949   0.689   2.244   3.982  0.0020  0.1497  0.4009
 5438SOL    HW127950   0.664   2.322   3.932 -2.2535  0.5342  2.1159
 5438SOL    HW227951   0.766   2.273   4.031  0.9092 -0.0819 -0.8793
 5439SOL     OW27952   4.144   4.169   5.216  0.1021  0.0542 -0.4980
 5439SOL    HW127953   4.116   4.110   5.286  2.2747 -2.0471 -1.3896
 5439SOL    HW227954   4.106   4.116   5.145  0.1616 -0.9803  0.2511
 5440SOL     OW27955   0.888   1.101  15.061  0.1091  0.0119 -0.5579
 5440SOL    HW127956   0.951   1.164  15.025 -0.3311  0.7482 -0.0462
 5440SOL    HW227957   0.931   1.020  15.033  1.7160  1.4726 -2.3535
 5441SOL     OW27958   2.930   3.444   9.139  0.4812 -0.4612 -0.4696
 5441SOL    HW127959   2.932   3.523   9.086 -0.3945 -0.4271 -0.4501
 5441SOL    HW227960   3.021   3.441   9.169  1.1521  1.1357 -2.3922
 5442SOL     OW27961   1.639   3.839   3.674  0.0100 -0.0359 -0.0570
 5442SOL    HW127962   1.630   3.862   3.582  1.2874 -0.8042 -0.3758
 5442SOL    HW227963   1.681   3.754   3.662 -0.0565 -0.3643  1.9839
 5443SOL     OW27964   1.729   0.288  15.854 -0.4118  0.3244  0.2990
 5443SOL    HW127965   1.711   0.194  15.851 -1.3919  0.5528 -0.8548
 5443SOL    HW227966   1.756   0.289  15.946 -0.3113  4.1422  0.2059
 5444SOL     OW27967   1.841   3.642   4.599  0.3874 -0.1413 -0.8539
 5444SOL    HW127968   1.902   3.700   4.644 -0.0633  0.9670 -1.6583
 5444SOL    HW227969   1.800   3.583   4.662  0.6683  0.4948 -0.0716
 5445SOL     OW27970   3.484   3.485  12.633  0.0523  0.0539 -0.5677
 5445SOL    HW127971   3.497   3.390  12.631  0.3619  0.0610  2.2168
 5445SOL    HW227972   3.563   3.522  12.670 -1.1667  0.8484  1.2280
 5446SOL     OW27973   1.339   4.591  11.173  0.7955 -0.2429  0.3358
 5446SOL    HW127974   1.380   4.645  11.241  1.5312 -0.0743 -0.2358
 5446SOL    HW227975   1.362   4.638  11.093 -2.1043 -3.1984 -2.2074
 5447SOL     OW27976   2.564   1.850   4.356 -0.0556 -0.3549 -0.5491
 5447SOL    HW127977   2.605   1.934   4.376 -0.7571 -0.2598  0.5189
 5447SOL    HW227978   2.646   1.805   4.337 -0.7463 -1.2494 -1.3544
 5448SOL     OW27979   2.809   1.889   7.162  0.0988  0.1922  0.0706
 5448SOL    HW127980   2.769   1.814   7.205 -1.4838 -0.3561 -2.3366
 5448SOL    HW227981   2.860   1.841   7.097 -1.8527 -0.2184 -1.1968
 5449SOL     OW27982   1.066   1.468   6.607  0.5029  0.0805  0.3253
 5449SOL    HW127983   1.049   1.477   6.514  1.5350 -1.2748  0.0149
 5449SOL    HW227984   1.074   1.559   6.637 -0.6848  1.1128 -2.4934
 5450SOL     OW27985   4.617   3.456   2.489 -0.2768 -0.0243 -0.5378
 5450SOL    HW127986   4.693   3.405   2.517 -1.0557 -1.2467 -0.6441
 5450SOL    HW227987   4.540   3.405   2.517 -1.0213  1.1300 -0.5075
 5451SOL     OW27988   0.703   2.318   0.860 -0.0690  0.3306 -0.1928
 5451SOL    HW127989   0.619   2.341   0.820  0.1627  1.8157  0.1780
 5451SOL    HW227990   0.748   2.390   0.815  0.6573  0.3142  0.5132
 5452SOL     OW27991   0.981   3.074   6.039  0.0470 -0.2643 -0.2197
 5452SOL    HW127992   0.954   3.046   6.126  1.0635  0.7094  0.3984
 5452SOL    HW227993   1.070   3.040   6.038  0.3073  0.3852  2.6041
 5453SOL     OW27994   2.955   4.028   4.656 -0.4982 -0.6520  0.2258
 5453SOL    HW127995   2.961   4.040   4.751  0.8738  1.0151 -0.0667
 5453SOL    HW227996   3.043   4.005   4.627 -1.1371 -3.7713  0.7762
 5454SOL     OW27997   3.537   2.678   6.683 -0.0941 -0.1686 -0.6388
 5454SOL    HW127998   3.608   2.717   6.733  0.5392  0.4344 -2.0314
 5454SOL    HW227999   3.583   2.634   6.611 -0.6063  0.6200 -1.4500
 5455SOL     OW28000   2.146   0.664   9.085 -0.4673 -0.2666 -0.8295
 5455SOL    HW128001   2.171   0.572   9.092 -0.2363 -0.2212 -1.1004
 5455SOL    HW228002   2.084   0.659   9.013  0.2719  2.9384 -1.6664
 5456SOL     OW28003   4.495   2.611  10.913 -0.3881  0.1118  0.4315
 5456SOL    HW128004   4.459   2.699  10.898 -0.7482 -0.2959 -1.1522
 5456SOL    HW228005   4.469   2.568  10.832  2.3439 -2.6725  1.0459
 5457SOL     OW28006   0.703   2.594   7.709  0.1666  0.5905  0.4050
 5457SOL    HW128007   0.735   2.667   7.656  1.3969  0.8003  1.4348
 5457SOL    HW228008   0.683   2.645   7.787 -0.7895  0.1353  0.4608
 5458SOL     OW28009   4.491   0.027  15.247 -0.3366 -0.0528 -0.2149
 5458SOL    HW128010   4.507   0.082  15.170  0.7355  0.3697  0.3140
 5458SOL    HW228011   4.560   4.697  15.243  0.0409  0.3525 -0.4797
 5459SOL     OW28012   0.561   2.941   5.596 -0.1011  0.1116  0.5483
 5459SOL    HW128013   0.589   2.995   5.671 -0.5482  1.8660 -0.5602
 5459SOL    HW228014   0.642   2.914   5.554 -1.7889 -3.0945 -0.6201
 5460SOL     OW28015   0.558   3.195   4.483 -0.5345  0.0766  0.2305
 5460SOL    HW128016   0.556   3.255   4.409 -1.2952 -0.7077 -0.3869
 5460SOL    HW228017   0.633   3.233   4.530 -1.0844 -0.0130  1.1973
 5461SOL     OW28018   0.784   1.172   3.765  0.4994 -0.1587 -0.3394
 5461SOL    HW128019   0.729   1.107   3.721  0.0084  0.4496 -0.6351
 5461SOL    HW228020   0.726   1.247   3.750  0.2654 -0.6890 -2.1379
 5462SOL     OW28021   0.108   4.134  14.277  0.0087  0.8855 -0.1286
 5462SOL    HW128022   0.062   4.208  14.317 -0.0866  0.0584  1.3065
 5462SOL    HW228023   0.116   4.154  14.184 -0.8962 -1.1316 -0.6475
 5463SOL     OW28024   3.628   1.075   5.125  0.2405 -0.8123  0.0685
 5463SOL    HW128025   3.605   1.162   5.156  1.3578 -0.5176  0.0777
 5463SOL    HW228026   3.618   1.020   5.203  2.0023  0.2651  1.0666
 5464SOL     OW28027   3.340   1.740  13.417 -0.1896  0.1802  0.0913
 5464SOL    HW128028   3.266   1.801  13.414  0.9519  1.5331 -0.5348
 5464SOL    HW228029   3.310   1.670  13.359  0.4042 -2.3973  2.9085
 5465SOL     OW28030   3.148   3.852  11.672  0.0810 -0.2676 -0.3201
 5465SOL    HW128031   3.138   3.759  11.651 -1.2650  0.0505 -1.1178
 5465SOL    HW228032   3.205   3.889  11.605 -0.3279  2.1109  0.6152
 5466SOL     OW28033   1.395   3.287  12.525  0.0131  0.0298 -0.1145
 5466SOL    HW128034   1.440   3.368  12.500 -1.6969  1.4786  1.4028
 5466SOL    HW228035   1.395   3.281  12.621  0.3845  3.6417  0.1221
 5467SOL     OW28036   4.429   0.172   3.981  0.6357 -0.1879 -0.1085
 5467SOL    HW128037   4.498   0.224   4.024 -0.1617 -2.3878  3.7926
 5467SOL    HW228038   4.481   0.136   3.910 -1.5744  0.2187 -1.9373
 5468SOL     OW28039   0.062   2.756  14.427 -0.0726 -0.2976  0.2798
 5468SOL    HW128040   0.055   2.751  14.522  1.5571  1.1732  0.4831
 5468SOL    HW228041   0.081   2.847  14.404 -1.4965  0.8568  3.7385
 5469SOL     OW28042   2.834   1.108  15.272  0.4454 -0.7126 -0.4412
 5469SOL    HW128043   2.798   1.172  15.211  1.0033 -0.9916 -1.0555
 5469SOL    HW228044   2.784   1.126  15.352 -1.3480 -1.6351 -1.3460
 5470SOL     OW28045   2.634   4.636   8.779 -0.6489  0.0734  0.4706
 5470SOL    HW128046   2.704   4.695   8.753 -1.3633  0.1685 -1.2528
 5470SOL    HW228047   2.609   4.599   8.694  0.7139 -2.0116  0.9750
 5471SOL     OW28048   0.774   3.283  15.029  0.6792 -0.1662 -0.2840
 5471SOL    HW128049   0.802   3.347  14.963 -0.3830 -1.7795 -2.2909
 5471SOL    HW228050   0.862   3.267  15.064  0.0850 -0.6943  0.9888
 5472SOL     OW28051   1.122   3.864   5.856  0.0848  0.1700 -0.1775
 5472SOL    HW128052   1.108   3.775   5.822  1.1054  0.1774 -0.6219
 5472SOL    HW228053   1.203   3.892   5.813  0.0341  3.0189  1.6097
 5473SOL     OW28054   3.924   3.874   7.879 -0.0081 -0.8451 -0.4595
 5473SOL    HW128055   3.979   3.816   7.931  3.8311  2.5448 -0.7343
 5473SOL    HW228056   3.917   3.820   7.800  0.7549 -0.5526 -0.7225
 5474SOL     OW28057   4.460   4.059   8.803  0.7485  0.0073  0.1893
 5474SOL    HW128058   4.472   4.024   8.891  3.1242 -3.2519 -1.4035
 5474SOL    HW228059   4.523   4.004   8.756  0.1145 -0.2675 -0.3358
 5475SOL     OW28060   0.350   1.232   2.499  0.2620 -0.4322 -0.3653
 5475SOL    HW128061   0.325   1.159   2.442 -1.1023 -0.0839 -0.2191
 5475SOL    HW228062   0.373   1.296   2.431  0.6549 -1.9281 -1.6276
 5476SOL     OW28063   3.652   2.222   2.183  0.5191  0.5613  0.3841
 5476SOL    HW128064   3.628   2.304   2.225  1.1383  1.5231 -1.1594
 5476SOL    HW228065   3.742   2.234   2.154  0.3003  0.1224 -0.4756
 5477SOL     OW28066   2.709   0.609   4.173 -0.0651  0.3957 -0.3739
 5477SOL    HW128067   2.660   0.530   4.149  2.9465 -0.5950 -3.3213
 5477SOL    HW228068   2.704   0.612   4.269  0.5667  1.9568 -0.3855
 5478SOL     OW28069   2.985   0.375  17.440  0.0973  0.3430 -0.3892
 5478SOL    HW128070   2.897   0.356  17.472  0.2441  0.5499  0.1342
 5478SOL    HW228071   3.000   0.455  17.490  0.6940  0.6440 -1.0459
 5479SOL     OW28072   1.805   1.381   9.150  0.5636 -0.0070  0.6932
 5479SOL    HW128073   1.827   1.368   9.242  1.2838 -0.3496  0.4715
 5479SOL    HW228074   1.838   1.297   9.118 -1.1663 -0.9550  1.4241
 5480SOL     OW28075   0.344   3.857   8.630  0.1701 -0.1154 -0.5436
 5480SOL    HW128076   0.330   3.943   8.591 -2.4657  0.1619  1.0021
 5480SOL    HW228077   0.329   3.874   8.723  0.3789  1.3538 -0.7857
 5481SOL     OW28078   1.012   2.002   8.240 -0.0095 -0.0569  0.2239
 5481SOL    HW128079   0.969   2.085   8.220  1.1683  0.1250 -1.6043
 5481SOL    HW228080   0.942   1.959   8.289 -0.9178  1.2376  0.0335
 5482SOL     OW28081   2.788   2.749   6.537 -0.6320 -0.2350 -0.3326
 5482SOL    HW128082   2.840   2.734   6.458  0.4124 -1.8843  0.6637
 5482SOL    HW228083   2.709   2.696   6.524  0.0635 -1.0123 -1.3807
 5483SOL     OW28084   3.103   4.400   4.224  0.1388  0.2472  0.4033
 5483SOL    HW128085   3.193   4.430   4.225  0.6569 -1.2293 -0.5901
 5483SOL    HW228086   3.066   4.474   4.272 -0.6787  1.1986 -1.6898
 5484SOL     OW28087   3.470   3.223   9.733  0.8400  0.8893 -0.5945
 5484SOL    HW128088   3.552   3.265   9.760  0.4097  0.3302  1.5798
 5484SOL    HW228089   3.466   3.143   9.784  2.2235  1.4063  0.3097
 5485SOL     OW28090   1.636   0.801   9.711 -0.5627 -0.7901 -0.0622
 5485SOL    HW128091   1.674   0.874   9.662 -0.8835 -0.1512  0.6436
 5485SOL    HW228092   1.692   0.726   9.690 -0.7915 -0.8776 -0.3654
 5486SOL     OW28093   3.228   4.121   9.098  0.7800 -0.2498  0.5219
 5486SOL    HW128094   3.313   4.116   9.055  1.2373  0.8101  1.3039
 5486SOL    HW228095   3.206   4.214   9.090  2.3271 -0.2732 -3.6662
 5487SOL     OW28096   4.701   0.728   5.066  0.3226  0.1523 -0.0107
 5487SOL    HW128097   4.717   0.751   5.158  1.2147 -1.6088  0.2828
 5487SOL    HW228098   4.672   0.812   5.031 -1.8220 -0.8677 -0.6971
 5488SOL     OW28099   3.450   0.291   7.402  0.3492  0.0055  0.5408
 5488SOL    HW128100   3.445   0.244   7.486 -0.7199 -0.8616 -0.0098
 5488SOL    HW228101   3.541   0.318   7.392 -0.2391  1.8651  0.2564
 5489SOL     OW28102   4.593   0.007  10.571  0.0322 -0.3309 -0.2182
 5489SOL    HW128103   4.503   4.711  10.567 -0.4337  0.6548  1.8847
 5489SOL    HW228104   4.585   0.078  10.507 -0.4101 -0.8500 -0.7283
 5490SOL     OW28105   4.331   2.143  10.783 -0.1426  1.1018  0.0096
 5490SOL    HW128106   4.392   2.151  10.710  0.1985 -1.9917 -0.0463
 5490SOL    HW228107   4.312   2.234  10.802  0.5265  1.2585 -0.0845
 5491SOL     OW28108   1.550   0.725   5.395 -0.3195  0.1097 -0.5632
 5491SOL    HW128109   1.559   0.637   5.430  0.4479  0.1586 -0.6368
 5491SOL    HW228110   1.604   0.713   5.317 -2.3830 -0.8571 -1.8390
 5492SOL     OW28111   2.276   2.535  17.037  1.1066 -0.2607 -0.1130
 5492SOL    HW128112   2.310   2.617  17.075  1.6199 -0.2585 -0.5764
 5492SOL    HW228113   2.290   2.467  17.103  0.4299 -1.0332 -0.7685
 5493SOL     OW28114   1.860   4.065  12.555 -0.2419  0.2614 -0.0298
 5493SOL    HW128115   1.821   4.013  12.625 -1.8533  1.9120  0.3045
 5493SOL    HW228116   1.830   4.018  12.477 -0.3264  1.6165 -0.8051
 5494SOL     OW28117   4.647   3.866   6.623 -0.2628  0.3970  0.0677
 5494SOL    HW128118   4.683   3.838   6.707 -0.6670  0.1950  0.1714
 5494SOL    HW228119   4.619   3.786   6.579  0.5311 -0.2650  0.7611
 5495SOL     OW28120   2.034   1.964   2.648 -0.2130  0.3806  0.3107
 5495SOL    HW128121   1.945   1.988   2.671  0.3455  3.5871 -0.9638
 5495SOL    HW228122   2.085   2.042   2.670 -0.5244  0.4343  0.8196
 5496SOL     OW28123   0.554   2.002  10.990 -0.1464  0.0401  0.0632
 5496SOL    HW128124   0.619   2.052  10.941 -1.4563  0.0240 -1.6564
 5496SOL    HW228125   0.605   1.922  11.008  0.1025  0.0033 -0.8150
 5497SOL     OW28126   2.070   0.516   1.791 -0.4226 -0.5852 -0.2837
 5497SOL    HW128127   2.090   0.502   1.698  0.4381 -0.1679 -0.1562
 5497SOL    HW228128   2.159   0.520   1.826 -1.2748  0.8901  1.7226
 5498SOL     OW28129   1.374   2.173   3.722  0.1910 -0.2484  0.1724
 5498SOL    HW128130   1.454   2.186   3.773  0.9463 -1.9871 -0.5488
 5498SOL    HW228131   1.337   2.104   3.777 -0.4523 -0.0736 -0.0440
 5499SOL     OW28132   0.352   4.547   7.736  0.0725  0.4271  0.1312
 5499SOL    HW128133   0.279   4.515   7.684  2.4228 -0.4007 -2.6335
 5499SOL    HW228134   0.420   4.539   7.669 -1.8103  1.4055 -1.8611
 5500SOL     OW28135   0.756   4.612   7.085  0.0502 -0.4610 -0.2090
 5500SOL    HW128136   0.750   4.518   7.066  0.9910 -0.2806 -1.3820
 5500SOL    HW228137   0.847   4.633   7.063 -0.1654  1.0018  0.2783
 5501SOL     OW28138   4.457   3.375   3.160 -0.3766 -0.5015 -0.0547
 5501SOL    HW128139   4.510   3.421   3.224 -1.4605  0.7604 -0.0555
 5501SOL    HW228140   4.523   3.361   3.092  0.8031  3.2103  0.2819
 5502SOL     OW28141   3.130   0.482   2.133 -0.1600 -0.4906 -0.0313
 5502SOL    HW128142   3.138   0.573   2.105 -1.9312  0.3710  2.3402
 5502SOL    HW228143   3.215   0.480   2.176 -0.8056  1.3271  1.3173
 5503SOL     OW28144   0.725   0.832  16.491 -0.5818 -0.0860  0.0960
 5503SOL    HW128145   0.630   0.820  16.488 -0.6588  0.3361  0.7060
 5503SOL    HW228146   0.752   0.745  16.518  1.0901  1.0080  1.9720
 5504SOL     OW28147   2.361   2.582   8.682  0.2158  0.0072  0.5668
 5504SOL    HW128148   2.450   2.609   8.701  1.0043 -1.2538 -1.2863
 5504SOL    HW228149   2.368   2.580   8.586  1.4445 -1.2705  0.6891
 5505SOL     OW28150   0.903   0.389   5.806  0.0546 -0.4080 -0.2785
 5505SOL    HW128151   0.889   0.483   5.803 -3.6256 -0.9431  0.6107
 5505SOL    HW228152   0.876   0.367   5.896  0.9385 -1.1950 -0.2055
 5506SOL     OW28153   2.911   0.944   4.582  0.3555  0.3591 -0.1889
 5506SOL    HW128154   2.865   0.937   4.498  0.6992 -0.3253 -0.3177
 5506SOL    HW228155   2.844   0.971   4.645  0.1379 -1.4901  0.3906
 5507SOL     OW28156   4.456   0.510   8.191  0.2344 -0.4388  0.9973
 5507SOL    HW128157   4.539   0.550   8.162  0.3479 -0.7219  0.9249
 5507SOL    HW228158   4.419   0.581   8.242 -2.1753  0.3055 -1.7831
 5508SOL     OW28159   0.482   3.365  13.891  0.1614  0.1509  0.5436
 5508SOL    HW128160   0.397   3.326  13.913  0.3555 -1.3864 -1.4624
 5508SOL    HW228161   0.528   3.341  13.971 -1.7974 -0.7652  1.4147
 5509SOL     OW28162   3.563   4.394  13.310  0.2844  0.0397  0.5712
 5509SOL    HW128163   3.533   4.338  13.382  0.9517 -0.4534  0.4562
 5509SOL    HW228164   3.478   4.416  13.272  1.0460 -0.0959 -1.2005
 5510SOL     OW28165   2.017   3.815   3.861  0.0944  0.9084 -0.0432
 5510SOL    HW128166   1.994   3.888   3.919 -2.2087  0.1794 -0.0246
 5510SOL    HW228167   1.998   3.863   3.780 -1.4588  1.7533  0.8064
 5511SOL     OW28168   2.730   0.826  16.160 -0.2225  0.4264 -0.7978
 5511SOL    HW128169   2.729   0.879  16.080  1.6527  0.6815 -0.6471
 5511SOL    HW228170   2.703   0.738  16.134  0.1638  0.1332 -0.2189
 5512SOL     OW28171   1.746   3.023   7.918 -0.2483  0.0529  0.5118
 5512SOL    HW128172   1.681   2.955   7.935  0.3979 -0.6052  0.3639
 5512SOL    HW228173   1.825   2.971   7.933 -0.7394 -0.8145  0.0649
 5513SOL     OW28174   0.760   0.573   6.200  0.1696 -0.1760 -0.7638
 5513SOL    HW128175   0.680   0.625   6.201 -0.5316 -1.2845  1.6495
 5513SOL    HW228176   0.820   0.645   6.217  2.4622 -2.5073  1.2017
 5514SOL     OW28177   4.633   3.408  10.859  0.2687 -0.2046  0.2974
 5514SOL    HW128178   4.559   3.369  10.812  0.5441 -0.7068  0.2817
 5514SOL    HW228179   4.687   3.330  10.870  0.1510 -0.4533 -0.8444
 5515SOL     OW28180   0.276   3.267   3.543 -0.2995 -0.4457  0.1976
 5515SOL    HW128181   0.247   3.213   3.470 -0.0805 -1.4621  0.8734
 5515SOL    HW228182   0.200   3.321   3.564 -0.9698 -0.9713 -0.9042
 5516SOL     OW28183   4.123   1.221  11.588  0.4812  0.2125  0.6073
 5516SOL    HW128184   4.157   1.208  11.677  1.3124  2.4771  0.6237
 5516SOL    HW228185   4.109   1.132  11.556  1.4345  0.6264 -0.9546
 5517SOL     OW28186   2.490   3.332   0.923 -0.0970 -0.0882 -1.0607
 5517SOL    HW128187   2.480   3.426   0.939 -2.4169 -0.7148  1.2663
 5517SOL    HW228188   2.585   3.321   0.919 -0.2603 -2.2733  1.2586
 5518SOL     OW28189   1.798   2.521   7.435  0.0663 -0.1380  0.2099
 5518SOL    HW128190   1.852   2.463   7.489  0.2339  0.0314  0.2259
 5518SOL    HW228191   1.755   2.445   7.397  2.2010 -0.2521 -2.0203
 5519SOL     OW28192   1.455   3.433   8.982 -0.1383 -0.5535  0.0756
 5519SOL    HW128193   1.542   3.471   8.969 -0.8256  0.6733 -0.9919
 5519SOL    HW228194   1.441   3.436   9.076 -0.4903 -0.2437  0.0149
 5520SOL     OW28195   3.207   2.118   5.347  0.1546  0.4689 -0.3463
 5520SOL    HW128196   3.292   2.110   5.391  1.0906 -0.1591 -2.3135
 5520SOL    HW228197   3.225   2.204   5.311  2.7910  0.2552  0.4631
 5521SOL     OW28198   3.824   2.588   8.262  0.5783 -0.4693 -0.1519
 5521SOL    HW128199   3.855   2.501   8.288 -2.2862 -1.5162 -0.1320
 5521SOL    HW228200   3.873   2.640   8.326  2.2698  0.1320 -1.9557
 5522SOL     OW28201   2.856   4.655   1.182 -0.2504  0.0799 -0.5632
 5522SOL    HW128202   2.775   4.645   1.234 -0.6200 -0.7971 -1.3083
 5522SOL    HW228203   2.906   4.691   1.255  0.6868  0.3091 -1.3305
 5523SOL     OW28204   0.995   4.182   8.247  0.0980 -0.1113  0.5640
 5523SOL    HW128205   0.927   4.199   8.311 -0.7333  1.0293 -0.6148
 5523SOL    HW228206   1.007   4.089   8.267  2.3516  0.3082  1.1640
 5524SOL     OW28207   3.552   3.189   0.380 -0.2184 -0.0459  0.1333
 5524SOL    HW128208   3.467   3.194   0.424 -0.4198 -0.4412 -0.2161
 5524SOL    HW228209   3.577   3.282   0.378 -1.3631  0.3037  2.3718
 5525SOL     OW28210   1.378   1.156  16.480 -0.3283  0.8092  0.0712
 5525SOL    HW128211   1.301   1.213  16.483 -0.4540  0.5326  2.4148
 5525SOL    HW228212   1.441   1.212  16.526  1.3463 -0.0775 -1.1524
 5526SOL     OW28213   3.560   4.373   3.723 -0.3023  0.2807  0.1530
 5526SOL    HW128214   3.572   4.279   3.730 -0.3354  0.3356  0.9865
 5526SOL    HW228215   3.475   4.378   3.678  0.0733  0.6898 -0.5210
 5527SOL     OW28216   2.573   1.175   0.777  0.7004  0.5227  0.2432
 5527SOL    HW128217   2.589   1.227   0.698 -1.8065 -2.1848 -2.0459
 5527SOL    HW228218   2.484   1.147   0.758  0.8406  1.7662 -2.2148
 5528SOL     OW28219   2.162   0.810   9.856 -0.2614  0.5162  1.0974
 5528SOL    HW128220   2.220   0.843   9.923 -2.6914  2.3307  2.3169
 5528SOL    HW228221   2.098   0.764   9.910 -1.0483  0.2850 -0.0137
 5529SOL     OW28222   2.543   2.156  15.526 -0.0206  0.8497 -0.2755
 5529SOL    HW128223   2.631   2.188  15.507  0.0859  0.3186 -0.6891
 5529SOL    HW228224   2.480   2.224  15.503  1.4592  0.9020 -4.2501
 5530SOL     OW28225   0.892   2.620   4.807 -0.0662  0.6160  0.8152
 5530SOL    HW128226   0.825   2.577   4.860  0.5119  0.8854  1.7701
 5530SOL    HW228227   0.938   2.672   4.873 -0.7350 -0.1915  1.9278
 5531SOL     OW28228   3.990   0.976   7.800 -0.0514 -0.3669  0.6610
 5531SOL    HW128229   3.964   0.998   7.890 -1.4290 -2.2140  0.7461
 5531SOL    HW228230   3.907   0.993   7.755  1.3632 -0.0977 -1.8216
 5532SOL     OW28231   1.056   3.130   6.911 -0.0650 -0.3495 -0.6766
 5532SOL    HW128232   1.146   3.159   6.929  0.3972 -1.5006 -1.1171
 5532SOL    HW228233   1.081   3.083   6.831  1.7064 -0.8513  0.1550
 5533SOL     OW28234   0.115   2.291   6.726  0.2458 -0.1483  0.2720
 5533SOL    HW128235   0.190   2.272   6.670  0.0858  1.5600 -0.5034
 5533SOL    HW228236   0.044   2.261   6.669 -0.0950 -0.1367  0.6908
 5534SOL     OW28237   2.618   0.023   4.235 -0.3658 -0.3879  0.1760
 5534SOL    HW128238   2.565   4.702   4.179 -0.4885 -0.5516  0.4578
 5534SOL    HW228239   2.650   0.080   4.165 -0.6961 -1.3631 -0.7631
 5535SOL     OW28240   3.430   0.103   9.631 -0.7026  0.2317  0.8337
 5535SOL    HW128241   3.412   0.031   9.571  0.1115  0.5998  0.1582
 5535SOL    HW228242   3.424   0.175   9.568 -2.1137  0.9157  1.7406
 5536SOL     OW28243   0.815   3.175   3.989  0.0276  0.0783 -0.2139
 5536SOL    HW128244   0.885   3.125   3.947  0.8648  0.2384  1.0045
 5536SOL    HW228245   0.759   3.203   3.917  0.2602 -0.2780 -0.5303
 5537SOL     OW28246   0.533   3.395   3.133  0.6982 -0.0974  0.5783
 5537SOL    HW128247   0.560   3.391   3.041 -0.6698  1.3908  0.1056
 5537SOL    HW228248   0.539   3.489   3.153 -1.4559  0.1239  0.1898
 5538SOL     OW28249   2.997   3.297  13.257 -0.5748 -0.3669  0.0173
 5538SOL    HW128250   3.015   3.237  13.330  1.6793 -0.2318 -0.4163
 5538SOL    HW228251   3.087   3.316  13.228 -0.5590  0.9518  0.9273
 5539SOL     OW28252   0.622   2.836   0.700  0.5354 -0.6897 -0.2954
 5539SOL    HW128253   0.600   2.920   0.740  1.8449 -1.5945  2.2839
 5539SOL    HW228254   0.641   2.870   0.612 -2.4877  0.8927 -0.3397
 5540SOL     OW28255   1.106   2.848   8.212 -0.9720 -0.1417 -0.2661
 5540SOL    HW128256   1.105   2.944   8.204 -2.5131 -0.1556 -0.3187
 5540SOL    HW228257   1.016   2.843   8.245 -0.2951 -1.4518  1.3845
 5541SOL     OW28258   4.490   2.451   7.463 -0.0778 -0.4847  0.0442
 5541SOL    HW128259   4.575   2.472   7.426  1.1385 -4.1782  0.7996
 5541SOL    HW228260   4.426   2.490   7.403  0.3201 -1.0976 -0.7672
 5542SOL     OW28261   0.103   4.154   3.713 -0.1344  0.1391 -0.0372
 5542SOL    HW128262   0.023   4.207   3.708  0.0206  0.5281  1.6401
 5542SOL    HW228263   0.070   4.066   3.695  1.3635 -0.7846  1.7251
 5543SOL     OW28264   0.223   2.431   4.692 -0.5363  0.1376 -0.1966
 5543SOL    HW128265   0.207   2.525   4.686 -1.8385 -0.0588  0.1648
 5543SOL    HW228266   0.295   2.432   4.754 -1.1178  0.6179  0.4695
 5544SOL     OW28267   1.117   2.293   7.284  0.5362  0.3337  0.0191
 5544SOL    HW128268   1.057   2.326   7.351 -1.2663  0.4037 -1.6216
 5544SOL    HW228269   1.175   2.236   7.335  2.3157  2.2444  0.1395
 5545SOL     OW28270   3.352   0.512   9.977  0.4070 -0.0157 -0.4153
 5545SOL    HW128271   3.344   0.607   9.964  1.4900  0.1941  0.4533
 5545SOL    HW228272   3.386   0.504  10.066 -0.7704  1.8470  0.2198
 5546SOL     OW28273   4.566   0.800   3.477  0.3409  0.2473  0.2229
 5546SOL    HW128274   4.583   0.870   3.414  1.4244 -1.8203 -1.7808
 5546SOL    HW228275   4.480   0.823   3.511 -0.1909  0.7342 -1.4503
 5547SOL     OW28276   0.905   1.860  13.639  0.3972 -0.4271 -0.2245
 5547SOL    HW128277   0.861   1.897  13.563 -0.1670  0.2486  0.4335
 5547SOL    HW228278   0.834   1.830  13.697 -0.4463  0.1064 -0.9807
 5548SOL     OW28279   1.651   0.415   4.886  0.1355 -0.2854 -0.0949
 5548SOL    HW128280   1.616   0.395   4.973  0.4366  2.6941  0.7095
 5548SOL    HW228281   1.744   0.396   4.898  0.6218  1.3844 -1.1915
 5549SOL     OW28282   0.453   0.416  12.765  0.2990  0.5829 -0.6166
 5549SOL    HW128283   0.405   0.334  12.773  1.2476  0.1263  0.3945
 5549SOL    HW228284   0.423   0.444  12.678 -0.0546 -1.1775 -1.0614
 5550SOL     OW28285   1.858   1.682  17.418  0.8603  0.0486 -0.3162
 5550SOL    HW128286   1.925   1.715  17.358  0.7418 -0.7363 -0.8773
 5550SOL    HW228287   1.859   1.594  17.380 -1.1520  0.2115 -0.7558
 5551SOL     OW28288   1.206   3.951   4.160 -0.0274  0.3390  0.3570
 5551SOL    HW128289   1.273   4.018   4.147  0.4556 -0.0902  0.5938
 5551SOL    HW228290   1.259   3.877   4.191 -0.0767 -0.0380 -0.4727
 5552SOL     OW28291   3.747   4.443   2.427  0.5075 -0.2212  0.2355
 5552SOL    HW128292   3.816   4.466   2.365  1.4031  0.5654  1.5195
 5552SOL    HW228293   3.703   4.526   2.444 -0.3605 -0.8392  1.0533
 5553SOL     OW28294   3.544   0.396  11.556  0.0749 -0.1278  0.3394
 5553SOL    HW128295   3.578   0.339  11.487  0.0609 -0.7001  0.8091
 5553SOL    HW228296   3.514   0.336  11.624  1.6054  1.0525  2.0371
 5554SOL     OW28297   0.162   0.047   7.303 -0.2865  0.8740 -0.0211
 5554SOL    HW128298   0.199   0.135   7.296  0.8722  0.1281 -3.2507
 5554SOL    HW228299   0.120   0.044   7.389  0.5258 -0.4083  0.3347
 5555SOL     OW28300   4.701   4.661   7.877  0.5551 -0.2508  0.2109
 5555SOL    HW128301   4.701   4.733   7.941  2.5217 -2.2923  2.5306
 5555SOL    HW228302   4.613   4.637   7.904  0.0739 -1.7948 -2.8410
 5556SOL     OW28303   4.481   1.201   7.259 -1.0907 -0.4907 -0.3018
 5556SOL    HW128304   4.425   1.205   7.181 -1.9440 -2.8074  0.1752
 5556SOL    HW228305   4.460   1.286   7.297  1.2306 -1.1384  2.3899
 5557SOL     OW28306   3.194   2.924   7.965  0.5080  0.4926 -0.7700
 5557SOL    HW128307   3.220   3.015   7.979  0.7138  0.5184 -1.3018
 5557SOL    HW228308   3.223   2.892   8.050 -2.5558 -1.0239 -0.2660
 5558SOL     OW28309   1.074   1.269  15.507 -0.0898 -0.0276  1.2910
 5558SOL    HW128310   1.130   1.199  15.542 -1.1561 -1.5673 -0.0742
 5558SOL    HW228311   1.009   1.285  15.575  0.1446  1.4999  1.1617
 5559SOL     OW28312   0.076   0.878   6.691 -0.1665  0.1336  0.0354
 5559SOL    HW128313   0.025   0.947   6.733  2.5168  2.9185 -1.2477
 5559SOL    HW228314   0.019   0.842   6.624 -0.1982  0.7950 -0.2975
 5560SOL     OW28315   0.705   2.186  10.184  0.2967  0.2388  0.0824
 5560SOL    HW128316   0.702   2.152  10.094  3.0596  2.0741 -0.7178
 5560SOL    HW228317   0.776   2.126  10.208  1.1897  1.7728  1.2460
 5561SOL     OW28318   0.578   3.386  16.229  0.1312 -0.0886  0.2002
 5561SOL    HW128319   0.629   3.380  16.148  1.1210  1.1004  0.7529
 5561SOL    HW228320   0.538   3.299  16.232 -1.5241  0.6718  0.0949
 5562SOL     OW28321   1.022   4.518   8.427  0.2736  0.6433  0.5885
 5562SOL    HW128322   0.999   4.425   8.415 -1.0966  1.1786 -0.9461
 5562SOL    HW228323   1.034   4.521   8.522  2.1822  0.8718  0.3482
 5563SOL     OW28324   2.066   3.151  12.034 -0.7784 -0.2542  0.1818
 5563SOL    HW128325   2.087   3.127  11.944 -2.4723 -0.9012 -0.0289
 5563SOL    HW228326   2.000   3.218  12.022 -2.1305 -1.5148  0.6270
 5564SOL     OW28327   0.758   3.665   6.207 -0.0408  0.0620  0.1785
 5564SOL    HW128328   0.751   3.752   6.246  0.3734  0.6016 -0.9613
 5564SOL    HW228329   0.842   3.633   6.242  0.0180 -0.2879 -0.2853
 5565SOL     OW28330   1.208   1.473   0.585  0.1893 -0.3069  0.2216
 5565SOL    HW128331   1.186   1.482   0.677 -4.3400 -0.3864 -0.8841
 5565SOL    HW228332   1.265   1.549   0.570 -0.9687 -0.0199 -2.8929
 5566SOL     OW28333   3.500   3.773  11.623  0.8110  0.3233 -0.3029
 5566SOL    HW128334   3.441   3.845  11.600 -1.8797 -1.0588  2.2938
 5566SOL    HW228335   3.489   3.775  11.718  0.6044 -1.6012 -0.2949
 5567SOL     OW28336   4.177   4.594   4.965  0.2048  0.0776 -0.2847
 5567SOL    HW128337   4.198   4.536   5.038  1.7100  0.3071 -0.5386
 5567SOL    HW228338   4.137   4.670   5.008  2.2589  0.5547  0.7933
 5568SOL     OW28339   3.291   3.104   0.435  0.2003  0.3704 -0.1947
 5568SOL    HW128340   3.232   3.055   0.492  0.6436 -1.1795 -1.0908
 5568SOL    HW228341   3.229   3.175   0.413  0.3268  0.0002 -1.7073
 5569SOL     OW28342   1.143   0.835   6.329  0.0509  0.2669 -0.2585
 5569SOL    HW128343   1.226   0.861   6.288  1.3973 -1.4905  1.3582
 5569SOL    HW228344   1.144   0.888   6.409  0.1746 -1.7468  1.0733
 5570SOL     OW28345   4.416   2.438   5.243 -0.1762  0.4700 -0.6170
 5570SOL    HW128346   4.448   2.490   5.169  0.1808 -0.8012 -1.3490
 5570SOL    HW228347   4.340   2.487   5.275 -2.1728 -3.4268  0.6102
 5571SOL     OW28348   4.544   4.165   4.536 -0.4570 -0.1651  0.4009
 5571SOL    HW128349   4.504   4.247   4.567 -0.0377 -0.2941  1.3027
 5571SOL    HW228350   4.468   4.107   4.524 -0.1644 -0.1075 -1.6930
 5572SOL     OW28351   3.240   3.787   8.849 -0.5241  0.1449 -0.9701
 5572SOL    HW128352   3.313   3.824   8.899 -1.9045 -2.4266  3.0396
 5572SOL    HW228353   3.194   3.863   8.816 -0.5421  0.5482 -0.0229
 5573SOL     OW28354   0.897   3.902   0.732  0.7285 -0.0618 -0.5094
 5573SOL    HW128355   0.839   3.870   0.663 -0.8911 -2.3967  1.9626
 5573SOL    HW228356   0.830   3.914   0.800 -1.1420 -1.7196 -2.0631
 5574SOL     OW28357   2.408   3.077   4.720 -0.0932 -0.0397 -0.1091
 5574SOL    HW128358   2.407   3.021   4.797 -0.4383  1.1039  0.7092
 5574SOL    HW228359   2.343   3.143   4.743  1.5071  1.3695  0.3930
 5575SOL     OW28360   4.317   3.749  13.833 -0.1099  0.3760 -0.2282
 5575SOL    HW128361   4.293   3.659  13.814 -0.5701  0.9152 -2.1569
 5575SOL    HW228362   4.234   3.787  13.803  0.2358  1.2648 -0.0671
 5576SOL     OW28363   2.529   1.274   1.184  0.0639 -0.3728 -0.4951
 5576SOL    HW128364   2.610   1.270   1.235  0.2831 -1.0242 -0.8911
 5576SOL    HW228365   2.560   1.224   1.109  0.3835 -1.2547  0.2145
 5577SOL     OW28366   3.383   3.585   6.873 -0.3513 -0.3546  0.0603
 5577SOL    HW128367   3.304   3.575   6.926 -0.9488  2.1526 -0.3748
 5577SOL    HW228368   3.450   3.582   6.942 -1.8728 -1.2696  1.4777
 5578SOL     OW28369   2.207   3.583   0.652  0.7302  0.2631 -0.7231
 5578SOL    HW128370   2.254   3.500   0.651  0.2007 -0.0375 -0.2356
 5578SOL    HW228371   2.119   3.547   0.642  1.3734 -0.8697 -2.2969
 5579SOL     OW28372   1.678   1.032   0.328  0.1508 -0.5275  0.3123
 5579SOL    HW128373   1.630   0.986   0.259  2.3360 -1.5890 -0.5140
 5579SOL    HW228374   1.640   0.982   0.401  0.2254 -0.0371  0.6878
 5580SOL     OW28375   3.250   3.390   1.868  0.0300  0.3967 -0.6312
 5580SOL    HW128376   3.340   3.416   1.887  0.3168 -2.0868  1.5206
 5580SOL    HW228377   3.193   3.441   1.925  1.9552  0.1023  1.5747
 5581SOL     OW28378   1.974   4.440   7.011 -0.2074  0.4087 -0.6359
 5581SOL    HW128379   1.919   4.481   6.944 -0.3909  0.1647 -0.6321
 5581SOL    HW228380   1.935   4.354   6.999  0.5497 -0.1750  1.2054
 5582SOL     OW28381   4.362   1.851   1.975  0.0316 -0.7420  0.0660
 5582SOL    HW128382   4.435   1.828   2.032 -1.3437 -3.0044  0.8952
 5582SOL    HW228383   4.285   1.817   2.020  0.0270 -0.5172  0.2286
 5583SOL     OW28384   1.648   2.067   9.616 -0.2545  0.4415  0.0891
 5583SOL    HW128385   1.689   2.004   9.675  1.3387  1.9312  0.5769
 5583SOL    HW228386   1.683   2.146   9.657  2.9783  0.1159 -2.0144
 5584SOL     OW28387   0.813   2.335  15.257 -0.0678  0.5620 -0.6575
 5584SOL    HW128388   0.900   2.354  15.221 -0.7303  1.1278 -1.9724
 5584SOL    HW228389   0.829   2.241  15.252  1.9171  0.8416  0.6714
 5585SOL     OW28390   1.142   2.402   8.466 -0.4008 -0.2521  0.0298
 5585SOL    HW128391   1.185   2.340   8.525  0.3413  0.2517  0.0262
 5585SOL    HW228392   1.078   2.442   8.526  1.3681  2.0556  0.3919
 5586SOL     OW28393   0.456   3.200   0.285  0.0618  0.8657 -0.1749
 5586SOL    HW128394   0.434   3.273   0.343  0.9280 -0.5279  1.9050
 5586SOL    HW228395   0.512   3.146   0.341 -0.7444  1.7748  1.4935
 5587SOL     OW28396   1.885   0.052   9.332 -0.2486  0.1501  0.2531
 5587SOL    HW128397   1.980   0.039   9.339 -0.1702  1.3582  1.3678
 5587SOL    HW228398   1.853   4.702   9.359 -1.6199  0.5915  0.0274
 5588SOL     OW28399   4.247   1.425  17.545 -0.0949 -0.3162  0.2098
 5588SOL    HW128400   4.231   1.472  17.463  0.7799 -0.8068 -0.2408
 5588SOL    HW228401   4.319   1.364  17.528  2.6669  2.5142  1.6797
 5589SOL     OW28402   0.081   3.082   3.079 -0.2709 -0.0563  0.2759
 5589SOL    HW128403   0.096   3.004   3.133 -1.2220 -0.8510 -0.6074
 5589SOL    HW228404   0.163   3.132   3.085  0.2624 -1.2032  2.6173
 5590SOL     OW28405   2.524   1.484  10.311  0.8061  0.5267 -0.0179
 5590SOL    HW128406   2.533   1.540  10.388 -0.5777  0.7699 -0.0308
 5590SOL    HW228407   2.466   1.534  10.253 -1.6554 -0.8827  1.2488
 5591SOL     OW28408   3.136   2.850   7.651 -0.7096 -0.1542  0.5768
 5591SOL    HW128409   3.127   2.941   7.679 -0.6387 -1.1712  3.8637
 5591SOL    HW228410   3.200   2.818   7.714 -1.0270  0.5654  1.2657
 5592SOL     OW28411   4.418   2.268   6.689  0.5011  0.2121 -0.2089
 5592SOL    HW128412   4.342   2.234   6.643  1.1054 -0.9467 -0.3565
 5592SOL    HW228413   4.496   2.235   6.644  0.6207 -1.2696  1.0741
 5593SOL     OW28414   1.391   0.131   3.718 -0.3486 -0.1746 -0.0974
 5593SOL    HW128415   1.375   0.068   3.789 -1.6650 -0.8865 -1.0090
 5593SOL    HW228416   1.306   0.129   3.673  0.1688  0.7807 -1.0899
 5594SOL     OW28417   0.358   2.431  15.453  0.5363 -0.0113 -0.5713
 5594SOL    HW128418   0.378   2.485  15.530 -0.5009  1.5815 -1.4343
 5594SOL    HW228419   0.442   2.429  15.407  0.0198  2.4621 -1.6271
 5595SOL     OW28420   1.113   0.579  14.644  0.1685 -0.2846 -0.6636
 5595SOL    HW128421   1.167   0.597  14.567 -0.6774 -1.8984 -1.6139
 5595SOL    HW228422   1.133   0.642  14.713  0.6446 -1.7005  0.4851
 5596SOL     OW28423   3.265   0.678   5.343  0.4040  0.5549  0.0994
 5596SOL    HW128424   3.293   0.605   5.398  0.4242  0.1266 -0.4775
 5596SOL    HW228425   3.177   0.691   5.377 -0.3504 -3.5976 -0.3520
 5597SOL     OW28426   1.965   0.994   3.895 -0.3972 -0.2867  0.3104
 5597SOL    HW128427   2.049   1.015   3.935  1.0902 -0.2064 -2.7982
 5597SOL    HW228428   1.961   0.898   3.905 -1.9051 -0.5893 -3.1604
 5598SOL     OW28429   3.410   4.286   5.066 -0.3665 -0.7589 -0.4156
 5598SOL    HW128430   3.358   4.254   4.993  1.3484  1.0921 -2.4419
 5598SOL    HW228431   3.358   4.257   5.141 -0.0717 -0.0392  0.0672
 5599SOL     OW28432   1.750   0.690   6.461 -0.2546 -0.8970 -0.3830
 5599SOL    HW128433   1.714   0.778   6.465 -0.3706 -0.9150 -0.9967
 5599SOL    HW228434   1.802   0.710   6.383 -2.6908  2.4397 -1.1542
 5600SOL     OW28435   0.263   2.294   8.678 -0.1205 -0.3956 -0.4163
 5600SOL    HW128436   0.202   2.324   8.746  0.2610 -0.0567 -0.2288
 5600SOL    HW228437   0.295   2.376   8.640 -0.8742  1.6878  3.4789
 5601SOL     OW28438   2.311   3.333   0.680 -0.5245 -0.3102 -0.3255
 5601SOL    HW128439   2.313   3.260   0.618 -0.2132 -0.9371  0.4273
 5601SOL    HW228440   2.398   3.318   0.718 -0.0105 -0.9766 -1.7404
 5602SOL     OW28441   4.109   2.391   8.625 -0.0123 -0.2200  0.1364
 5602SOL    HW128442   4.098   2.479   8.660 -0.4964 -1.2744  2.6327
 5602SOL    HW228443   4.110   2.407   8.531  0.2384 -0.4245  0.1049
 5603SOL     OW28444   4.661   1.767   3.486 -0.3792 -0.0119  0.1186
 5603SOL    HW128445   4.707   1.707   3.427 -0.4236  2.0256 -1.9812
 5603SOL    HW228446   4.736   1.823   3.508 -1.6946  0.8022  2.4891
 5604SOL     OW28447   0.111   3.085  10.153  0.0428  0.6677  0.4953
 5604SOL    HW128448   0.189   3.131  10.122 -1.2274  1.5014 -1.4683
 5604SOL    HW228449   0.035   3.115  10.104 -0.5150  0.2137  1.0904
 5605SOL     OW28450   3.540   0.540  16.851 -0.8745  0.0110  0.0479
 5605SOL    HW128451   3.606   0.559  16.784 -0.5461  0.7618  0.5869
 5605SOL    HW228452   3.599   0.490  16.907  0.3145 -0.2895 -1.4509
 5606SOL     OW28453   1.671   4.349   7.210  0.0852 -0.1242 -0.0060
 5606SOL    HW128454   1.582   4.358   7.243 -0.0499 -0.0229 -0.3903
 5606SOL    HW228455   1.713   4.428   7.243  2.9907 -0.6840 -2.2707
 5607SOL     OW28456   3.192   2.117   4.259 -0.4745 -0.3787 -0.3206
 5607SOL    HW128457   3.275   2.073   4.273 -0.3679 -0.1080 -0.1036
 5607SOL    HW228458   3.213   2.210   4.260 -1.0266 -0.2487 -0.5017
 5608SOL     OW28459   0.016   2.311   1.184  0.1413 -0.4301 -0.0957
 5608SOL    HW128460   0.045   2.291   1.273 -2.9387 -3.0012  0.2949
 5608SOL    HW228461   0.051   2.235   1.139  1.9136 -0.4721  1.3265
 5609SOL     OW28462   3.487   4.205   6.252  0.3654  0.6084 -0.2536
 5609SOL    HW128463   3.412   4.156   6.285  0.7274  0.3846  0.2308
 5609SOL    HW228464   3.475   4.213   6.157  0.5177  1.2233 -0.2198
 5610SOL     OW28465   2.805   0.297   0.034 -0.0653 -0.2042 -0.0687
 5610SOL    HW128466   2.785   0.338  17.692 -1.3061 -0.7301 -0.0404
 5610SOL    HW228467   2.715   0.297   0.068  0.6303 -0.8958  1.7689
 5611SOL     OW28468   3.128   2.571  15.667  0.1366  0.0581 -0.0238
 5611SOL    HW128469   3.162   2.654  15.635 -1.6337  1.3617  1.5015
 5611SOL    HW228470   3.068   2.547  15.596  0.8305 -2.2068  0.1513
 5612SOL     OW28471   4.076   2.509   6.521 -0.1342  0.0540 -0.5386
 5612SOL    HW128472   4.121   2.538   6.442  1.9699 -2.1539 -0.1653
 5612SOL    HW228473   4.089   2.581   6.583  1.9088  0.5785 -1.5654
 5613SOL     OW28474   3.472   1.287  11.900  0.2252 -0.0848  0.3433
 5613SOL    HW128475   3.486   1.245  11.985  1.1502 -1.6361 -0.5778
 5613SOL    HW228476   3.439   1.208  11.856  2.4868 -0.4476 -0.6688
 5614SOL     OW28477   2.889   4.683   3.433  0.0497  0.1000  0.2239
 5614SOL    HW128478   2.916   4.600   3.393 -2.9267 -1.3317  1.2108
 5614SOL    HW228479   2.816   4.656   3.487 -0.6708  0.6871 -0.4593
 5615SOL     OW28480   3.541   1.155   7.515  0.0699  0.3483 -0.1498
 5615SOL    HW128481   3.453   1.152   7.551  0.7323 -0.3388  1.4227
 5615SOL    HW228482   3.546   1.247   7.488 -1.4354  0.1333 -1.1606
 5616SOL     OW28483   3.307   0.715   9.019 -0.4526  0.5412 -0.3646
 5616SOL    HW128484   3.301   0.743   9.110  1.8032  1.2815 -0.4508
 5616SOL    HW228485   3.335   0.800   8.985  0.7938 -0.5130 -1.9815
 5617SOL     OW28486   3.625   1.178  16.324  0.0821 -0.1141 -0.3240
 5617SOL    HW128487   3.642   1.196  16.232  3.2595  0.1673  0.3207
 5617SOL    HW228488   3.538   1.217  16.331 -0.3267 -0.9567 -0.6095
 5618SOL     OW28489   3.404   1.786   4.907 -0.7066 -0.2669  0.4891
 5618SOL    HW128490   3.336   1.852   4.896  0.3549  0.3345 -2.7014
 5618SOL    HW228491   3.461   1.833   4.967 -2.3003  0.5736  1.3299
 5619SOL     OW28492   3.320   0.390   5.805 -0.5859 -0.5865 -0.2591
 5619SOL    HW128493   3.315   0.389   5.710  0.7174  4.1346 -0.3711
 5619SOL    HW228494   3.287   0.477   5.829  0.1217 -1.0071  2.2883
 5620SOL     OW28495   1.065   2.694   7.354  0.5355  0.3777 -0.0879
 5620SOL    HW128496   0.976   2.661   7.369  0.2995  1.5740  1.2107
 5620SOL    HW228497   1.073   2.749   7.432 -1.3434 -2.5547  2.1596
 5621SOL     OW28498   4.613   2.482  14.905  0.2217  0.7182  0.0960
 5621SOL    HW128499   4.527   2.476  14.947  0.9432 -1.0853  1.2895
 5621SOL    HW228500   4.660   2.409  14.944 -0.8465 -0.0958 -0.1419
 5622SOL     OW28501   0.638   4.677   2.423 -0.1554 -0.5389 -0.2847
 5622SOL    HW128502   0.636   4.637   2.510 -0.9226 -1.1680 -0.5886
 5622SOL    HW228503   0.547   4.669   2.395 -1.3192 -0.2718  3.3715
 5623SOL     OW28504   3.137   3.532   8.484  0.1659  0.3459 -0.2517
 5623SOL    HW128505   3.097   3.453   8.447  4.2012 -2.5770  1.6540
 5623SOL    HW228506   3.167   3.570   8.402  1.3547  2.6986  1.2555
 5624SOL     OW28507   3.487   0.229   3.563 -0.2681  0.0876  0.6691
 5624SOL    HW128508   3.528   0.142   3.562  0.0640  0.2672 -0.7299
 5624SOL    HW228509   3.555   0.283   3.523  0.1697 -0.2835  0.9130
 5625SOL     OW28510   4.146   1.463  15.375 -0.2137 -0.1639  0.6436
 5625SOL    HW128511   4.118   1.373  15.390  0.6732 -0.8580 -1.8043
 5625SOL    HW228512   4.065   1.503  15.344 -0.5097 -1.7026 -0.5429
 5626SOL     OW28513   4.564   2.676   7.924 -0.0722 -0.1916  0.0101
 5626SOL    HW128514   4.579   2.736   7.851  0.4709 -0.8820 -0.4403
 5626SOL    HW228515   4.530   2.737   7.989  1.1775 -0.3253  0.7755
 5627SOL     OW28516   0.488   4.266   5.960 -0.0158  0.3237  0.4621
 5627SOL    HW128517   0.567   4.223   5.927 -2.5405 -1.9658 -2.5932
 5627SOL    HW228518   0.523   4.311   6.037  0.7090  1.7247 -0.6672
 5628SOL     OW28519   0.903   1.839   5.484 -0.5344  0.0779 -0.2579
 5628SOL    HW128520   0.819   1.806   5.515 -1.8491  2.4115 -1.3522
 5628SOL    HW228521   0.873   1.914   5.432  0.0726  0.1684 -0.4762
 5629SOL     OW28522   3.959   3.770   8.890  0.0160  0.3171 -0.2968
 5629SOL    HW128523   3.935   3.846   8.837  0.3184  1.2017  0.8477
 5629SOL    HW228524   3.958   3.813   8.975  1.0619  0.5383 -0.3968
 5630SOL     OW28525   2.060   4.269   8.269  0.1762  0.2403 -0.5260
 5630SOL    HW128526   2.137   4.213   8.268 -0.4027 -0.5449 -1.7111
 5630SOL    HW228527   2.090   4.350   8.310  2.2575 -0.8497  0.0502
 5631SOL     OW28528   4.384   0.414   2.911 -0.4246  0.5866  0.1017
 5631SOL    HW128529   4.437   0.485   2.948 -0.4872 -0.3367  1.9566
 5631SOL    HW228530   4.304   0.432   2.960 -0.9617 -0.7057 -0.2950
 5632SOL     OW28531   4.698   1.828  14.677  0.6385 -0.0829  0.4277
 5632SOL    HW128532   4.695   1.741  14.637 -0.0197  0.3072 -0.3818
 5632SOL    HW228533   4.612   1.859  14.649 -0.0653 -1.4668  1.0206
 5633SOL     OW28534   0.243   1.713   8.876  0.3845 -0.1122 -0.0526
 5633SOL    HW128535   0.252   1.618   8.863 -0.1992 -0.2625  0.6636
 5633SOL    HW228536   0.265   1.735   8.786  0.2050 -2.0435 -0.5768
 5634SOL     OW28537   1.639   0.621   2.159 -0.1830 -0.2100  0.2101
 5634SOL    HW128538   1.568   0.633   2.096  0.8926  1.1959 -0.7411
 5634SOL    HW228539   1.690   0.549   2.121 -1.3847  0.3035 -2.4049
 5635SOL     OW28540   2.938   2.466   5.318  0.3038 -0.3671  0.2804
 5635SOL    HW128541   2.843   2.454   5.325 -0.1338  1.3135 -2.6805
 5635SOL    HW228542   2.939   2.534   5.250 -0.4803 -1.6232 -0.9741
 5636SOL     OW28543   3.558   2.513   8.958 -0.0697 -0.1417  0.0411
 5636SOL    HW128544   3.478   2.488   9.006 -2.2269  0.2940 -3.3559
 5636SOL    HW228545   3.570   2.429   8.914 -1.2828 -0.9287  1.2020
 5637SOL     OW28546   1.243   2.118   3.294 -0.1213  0.2586 -0.3005
 5637SOL    HW128547   1.275   2.178   3.227 -1.1384  3.0383  1.7193
 5637SOL    HW228548   1.237   2.181   3.366 -0.9548  1.9415 -1.8653
 5638SOL     OW28549   3.649   2.934  12.371 -0.5830 -0.2334  0.0428
 5638SOL    HW128550   3.600   2.894  12.299 -1.0054 -1.5909  1.0860
 5638SOL    HW228551   3.668   2.859  12.428 -1.8707 -1.5179 -1.2058
 5639SOL     OW28552   0.225   2.343  13.699  0.7398 -0.8559  0.2184
 5639SOL    HW128553   0.177   2.263  13.722  1.9756 -1.7610 -0.3420
 5639SOL    HW228554   0.271   2.305  13.624 -1.3734 -0.1028 -1.4514
 5640SOL     OW28555   3.128   1.881  16.297 -0.1300  0.0348 -0.3487
 5640SOL    HW128556   3.195   1.852  16.358 -1.0795 -0.0904  0.6472
 5640SOL    HW228557   3.093   1.949  16.354  0.8413  1.2453 -1.1799
 5641SOL     OW28558   0.926   0.984   3.989  0.3276  0.1593  0.2636
 5641SOL    HW128559   0.928   0.945   4.076  1.1283 -0.3545  0.0197
 5641SOL    HW228560   0.992   0.930   3.945 -1.8076 -0.2036 -2.4940
 5642SOL     OW28561   0.082   1.360   8.055 -0.8566 -0.3294 -0.0028
 5642SOL    HW128562   0.021   1.325   7.990  0.3302  1.1431 -1.9185
 5642SOL    HW228563   0.117   1.443   8.023 -2.2505  0.7362  1.2472
 5643SOL     OW28564   3.985   1.637   8.210  0.0129  0.3867  0.2652
 5643SOL    HW128565   4.045   1.658   8.282  0.8045 -0.1324 -0.2417
 5643SOL    HW228566   4.010   1.683   8.130  1.7449 -0.7263  0.1646
 5644SOL     OW28567   1.508   2.545   8.572 -0.0158 -0.3299  0.0272
 5644SOL    HW128568   1.505   2.461   8.616 -1.8198  0.1543  0.8035
 5644SOL    HW228569   1.563   2.520   8.497  1.4160  0.8394  0.6949
 5645SOL     OW28570   4.158   4.731  11.759  0.3600 -0.6650  0.0905
 5645SOL    HW128571   4.128   4.640  11.767  1.3902 -0.9245  0.9491
 5645SOL    HW228572   4.184   0.021  11.848  1.4606  2.5703 -1.1861
 5646SOL     OW28573   4.700   2.840   6.653  0.5636 -0.4626 -0.1857
 5646SOL    HW128574   4.713   2.747   6.673  1.3993 -0.7829 -2.2214
 5646SOL    HW228575   0.051   2.873   6.674  0.2211  0.3905 -0.1070
 5647SOL     OW28576   3.368   2.775   4.640  0.0906  0.2840 -0.5087
 5647SOL    HW128577   3.415   2.858   4.629  1.2587 -0.3570 -0.3970
 5647SOL    HW228578   3.423   2.728   4.703 -0.7882 -0.0548 -0.0001
 5648SOL     OW28579   3.880   2.837  11.969  0.1505  0.1253  0.6023
 5648SOL    HW128580   3.947   2.771  11.983 -1.3343 -1.3498  0.7795
 5648SOL    HW228581   3.890   2.896  12.044  0.2334 -0.4936  1.0839
 5649SOL     OW28582   0.394   3.375   6.002 -0.5180  0.2613  0.2059
 5649SOL    HW128583   0.359   3.305   6.057 -1.6589 -1.4762 -2.6959
 5649SOL    HW228584   0.445   3.433   6.058 -2.7235  1.8993  0.5207
 5650SOL     OW28585   3.063   0.276  10.198  0.8275 -0.2688  0.1708
 5650SOL    HW128586   3.007   0.287  10.120 -2.0795 -0.1134  2.2744
 5650SOL    HW228587   3.094   0.365  10.208  1.4511 -0.6030  1.1842
 5651SOL     OW28588   3.743   0.843   9.351 -0.7282  0.0425  0.0939
 5651SOL    HW128589   3.819   0.794   9.383 -0.1406 -0.5215 -2.1563
 5651SOL    HW228590   3.774   0.932   9.361 -0.4471 -0.2433  1.6817
 5652SOL     OW28591   2.092   0.502  12.087  0.1053  0.0108  0.4978
 5652SOL    HW128592   2.003   0.467  12.097 -0.0222 -0.0113 -0.7803
 5652SOL    HW228593   2.079   0.551  12.006  0.7926  1.2707  1.1498
 5653SOL     OW28594   0.159   1.751   9.648  0.0451  0.5473  0.3559
 5653SOL    HW128595   0.235   1.794   9.687  1.2835 -0.2411 -1.1339
 5653SOL    HW228596   0.200   1.666   9.626 -0.9952  0.3513 -0.8087
 5654SOL     OW28597   2.362   0.652   8.280  0.6533 -0.0900  0.2216
 5654SOL    HW128598   2.401   0.573   8.242  1.9323  1.0707 -0.8309
 5654SOL    HW228599   2.368   0.706   8.202 -1.0884  0.1469  0.2480
 5655SOL     OW28600   1.068   3.645   1.922  0.4771 -0.6420 -1.3536
 5655SOL    HW128601   1.113   3.590   1.858  1.6832 -0.8620 -0.3197
 5655SOL    HW228602   1.115   3.728   1.914  0.4731 -0.2032  2.8652
 5656SOL     OW28603   1.698   0.063   1.034  0.0407 -0.4302  0.2499
 5656SOL    HW128604   1.768   0.005   1.004 -0.0722 -0.1878 -0.4706
 5656SOL    HW228605   1.690   0.125   0.962  0.3534 -0.7326 -0.0453
 5657SOL     OW28606   4.735   2.171   6.331 -0.0698 -0.3174 -0.2370
 5657SOL    HW128607   4.666   2.215   6.381  0.0104  0.4243 -0.7834
 5657SOL    HW228608   4.676   2.112   6.283  0.2154 -1.7361  1.1499
 5658SOL     OW28609   1.885   3.520   7.177 -0.2324  0.3755  0.3118
 5658SOL    HW128610   1.923   3.589   7.231  1.1616 -0.5274  0.4841
 5658SOL    HW228611   1.793   3.539   7.196 -0.8782  0.0266 -2.5193
 5659SOL     OW28612   1.345   1.475   1.868  0.3335 -0.6760 -0.0361
 5659SOL    HW128613   1.390   1.553   1.900 -1.6946  0.5654 -0.2270
 5659SOL    HW228614   1.330   1.498   1.776 -2.8961  2.1093  1.1808
 5660SOL     OW28615   1.901   4.542   3.890  0.1225  0.0485 -0.1748
 5660SOL    HW128616   1.945   4.610   3.941  0.8612 -0.5937  0.0445
 5660SOL    HW228617   1.810   4.544   3.919 -0.5494  2.8887 -2.4054
 5661SOL     OW28618   0.899   1.655   6.948 -0.4175  0.0893  0.5977
 5661SOL    HW128619   0.881   1.595   6.876 -1.4871 -0.5483  1.3832
 5661SOL    HW228620   0.993   1.662   6.934 -0.6096 -1.2670 -1.4171
 5662SOL     OW28621   3.152   1.900   6.876 -0.2304  0.4549  0.6430
 5662SOL    HW128622   3.170   1.807   6.868 -2.0381  0.3117 -1.8857
 5662SOL    HW228623   3.173   1.909   6.969 -1.8154  0.3255  1.0069
 5663SOL     OW28624   0.039   2.399   2.147 -0.0119  0.0294 -0.3347
 5663SOL    HW128625   4.726   2.390   2.066 -0.9272 -0.4355  0.2749
 5663SOL    HW228626   0.067   2.490   2.156 -0.2146  0.1664 -1.0897
 5664SOL     OW28627   3.072   0.885   1.453  0.2909  0.6677  0.5265
 5664SOL    HW128628   3.081   0.937   1.374 -0.2662 -0.9352 -0.5798
 5664SOL    HW228629   2.987   0.846   1.434  1.1431 -0.3127 -1.2103
 5665SOL     OW28630   0.838   2.373  16.802  0.6154 -0.4843 -0.0324
 5665SOL    HW128631   0.755   2.408  16.770  1.2317 -0.5789 -1.7263
 5665SOL    HW228632   0.818   2.347  16.892  2.6899 -0.8558  0.3358
 5666SOL     OW28633   4.177   2.523   3.575  0.3152 -0.4249  0.4395
 5666SOL    HW128634   4.253   2.483   3.533  0.0494 -0.4495 -0.0207
 5666SOL    HW228635   4.108   2.496   3.514  0.9656 -0.3323 -0.3397
 5667SOL     OW28636   3.637   1.663   0.282  0.1489  0.0582 -0.1835
 5667SOL    HW128637   3.589   1.587   0.248  0.9018 -0.5313  0.0722
 5667SOL    HW228638   3.683   1.615   0.350 -1.0482 -0.9174 -0.0567
 5668SOL     OW28639   0.440   1.346   7.761  0.4389 -0.4263 -0.5710
 5668SOL    HW128640   0.354   1.379   7.733  0.3849  1.6531  2.1140
 5668SOL    HW228641   0.473   1.336   7.671  1.1329 -0.1846 -0.3416
 5669SOL     OW28642   2.335   1.241   4.164  0.0794  0.8044 -0.1187
 5669SOL    HW128643   2.413   1.261   4.113 -0.8541 -1.8401 -2.5418
 5669SOL    HW228644   2.280   1.314   4.134 -1.1918 -0.8728 -1.8225
 5670SOL     OW28645   2.129   0.521  16.729 -0.1000  0.1538  0.1815
 5670SOL    HW128646   2.221   0.521  16.701  0.3418  1.6439  1.5979
 5670SOL    HW228647   2.092   0.437  16.703 -2.3457  0.0539  3.6666
 5671SOL     OW28648   0.737   0.366   6.412 -0.7535 -0.3237 -0.1408
 5671SOL    HW128649   0.761   0.374   6.504  2.6977  1.5694 -1.2152
 5671SOL    HW228650   0.778   0.444   6.374 -0.0431 -0.1970  0.8923
 5672SOL     OW28651   2.601   2.878  13.924  0.1413 -0.6076 -0.3219
 5672SOL    HW128652   2.633   2.968  13.921 -0.0418 -0.5349 -0.1189
 5672SOL    HW228653   2.623   2.868  13.832 -1.7038  0.3003 -0.8513
 5673SOL     OW28654   1.862   1.720   2.369 -0.0026 -0.0988 -0.7701
 5673SOL    HW128655   1.818   1.782   2.427 -0.1615 -1.7016  0.8492
 5673SOL    HW228656   1.796   1.654   2.349 -0.2924 -0.1116  0.2128
 5674SOL     OW28657   2.650   1.919   7.447  0.3431  0.2469 -0.1113
 5674SOL    HW128658   2.610   1.834   7.431  0.5167  0.1087  0.1909
 5674SOL    HW228659   2.576   1.977   7.431 -1.0742 -1.5324  0.1085
 5675SOL     OW28660   3.223   4.557   8.099 -0.5612  0.0919  0.1041
 5675SOL    HW128661   3.217   4.491   8.029  2.5532  0.7125 -0.7349
 5675SOL    HW228662   3.131   4.583   8.105  0.1549  2.5095  0.4068
 5676SOL     OW28663   4.710   1.823  13.242 -0.1836 -0.0423 -0.6446
 5676SOL    HW128664   4.681   1.906  13.279  0.9774  0.7885 -1.5949
 5676SOL    HW228665   0.021   1.854  13.166  0.9468 -0.0460  0.0501
 5677SOL     OW28666   2.077   0.601   4.859 -0.3163 -0.0527 -0.0516
 5677SOL    HW128667   2.163   0.635   4.835 -0.4531  0.0151 -0.4459
 5677SOL    HW228668   2.025   0.637   4.787  1.7585  0.1558 -1.4479
 5678SOL     OW28669   1.425   1.071   6.701  0.1708 -0.0685 -0.0796
 5678SOL    HW128670   1.411   1.064   6.796  0.4638  1.2547  0.0600
 5678SOL    HW228671   1.386   1.157   6.685  0.4992  0.4337  1.8262
 5679SOL     OW28672   4.107   0.509   5.631 -0.7569  0.2222 -0.0055
 5679SOL    HW128673   4.129   0.504   5.538  1.5601 -0.3284  0.5747
 5679SOL    HW228674   4.136   0.596   5.660 -0.9241  0.1205  0.4563
 5680SOL     OW28675   2.311   3.498   9.090 -0.4197 -0.3872  0.0485
 5680SOL    HW128676   2.403   3.472   9.085 -0.8990 -2.2785  1.1994
 5680SOL    HW228677   2.311   3.541   9.176  0.1914 -0.5206  0.1179
 5681SOL     OW28678   1.825   4.186   9.170 -0.4942  0.5389 -0.0101
 5681SOL    HW128679   1.885   4.242   9.219  0.5603 -1.6368  1.1780
 5681SOL    HW228680   1.873   4.155   9.094 -1.4392 -2.5799  0.6659
 5682SOL     OW28681   4.011   0.985   2.790 -0.0788  0.1747 -0.4882
 5682SOL    HW128682   4.050   1.068   2.762 -0.9430  0.6724 -0.2183
 5682SOL    HW228683   4.097   0.949   2.813  0.4520  2.3252  0.9241
 5683SOL     OW28684   1.026   1.892   4.844 -0.2814 -0.8311  0.3160
 5683SOL    HW128685   1.081   1.896   4.923  2.0820 -1.5233 -1.2835
 5683SOL    HW228686   0.941   1.866   4.878 -0.0780 -0.9136  0.7676
 5684SOL     OW28687   1.982   3.888  16.161 -0.5405  0.2294 -0.4186
 5684SOL    HW128688   2.065   3.901  16.115  0.5022  0.6037  1.5900
 5684SOL    HW228689   1.987   3.955  16.229  0.0768 -0.2020 -0.0439
 5685SOL     OW28690   0.448   3.738   8.215  0.5792  0.2474 -0.0994
 5685SOL    HW128691   0.469   3.720   8.306 -1.7373  0.5245  0.5062
 5685SOL    HW228692   0.480   3.664   8.164  1.3071 -1.4711  2.9127
 5686SOL     OW28693   0.096   2.823  14.726 -0.2745  0.6158 -0.2949
 5686SOL    HW128694   0.125   2.772  14.801 -0.0574  1.6195  0.3119
 5686SOL    HW228695   0.009   2.785  14.716 -0.0387 -0.1143  0.4769
 5687SOL     OW28696   1.296   3.416   6.238  0.1611  0.4606 -0.9764
 5687SOL    HW128697   1.263   3.421   6.328  1.5138 -1.1163 -0.3973
 5687SOL    HW228698   1.266   3.495   6.193 -0.4468  0.4625 -0.5651
 5688SOL     OW28699   2.604   1.015   3.829 -0.4935  0.6426 -0.3983
 5688SOL    HW128700   2.580   0.939   3.776  0.0730  0.0062  0.2532
 5688SOL    HW228701   2.580   1.079   3.763  0.5819 -0.2150 -1.6146
 5689SOL     OW28702   1.923   2.277   8.602  0.0280  0.0670 -0.2544
 5689SOL    HW128703   1.977   2.284   8.681 -0.5034 -1.4478  0.2455
 5689SOL    HW228704   1.890   2.367   8.598  0.6121  0.3451  1.2095
 5690SOL     OW28705   0.922   2.679   5.850  0.3569 -0.5336  0.0632
 5690SOL    HW128706   1.012   2.702   5.873  0.0156  0.7640  0.1327
 5690SOL    HW228707   0.882   2.689   5.937  2.5650  1.6370  0.8086
 5691SOL     OW28708   2.627   1.190   3.105 -0.4527  0.2504 -0.1427
 5691SOL    HW128709   2.654   1.100   3.087  0.4838  0.7822 -1.4038
 5691SOL    HW228710   2.650   1.194   3.198  0.0614 -1.3726 -0.2071
 5692SOL     OW28711   4.430   1.910   2.582  0.1550 -0.0535 -0.7631
 5692SOL    HW128712   4.514   1.929   2.542 -0.1898  0.8476 -1.0510
 5692SOL    HW228713   4.395   1.998   2.598 -1.4911 -0.9069  0.3924
 5693SOL     OW28714   2.965   3.500   2.472 -0.2488  0.5648 -0.0110
 5693SOL    HW128715   3.044   3.481   2.522  1.4900  1.4367 -2.4012
 5693SOL    HW228716   2.971   3.596   2.464  0.5797  0.6986  2.2555
 5694SOL     OW28717   1.192   3.878   1.887 -0.5389  0.0901 -0.4259
 5694SOL    HW128718   1.132   3.953   1.885  1.9543  2.1602  1.5421
 5694SOL    HW228719   1.263   3.920   1.840 -0.5939  0.5119 -0.1372
 5695SOL     OW28720   3.085   1.526   3.810 -0.4459  0.0695  0.5040
 5695SOL    HW128721   3.097   1.541   3.716 -1.6734  3.5200  0.8896
 5695SOL    HW228722   3.178   1.521   3.831 -0.4793  0.7718  0.8294
 5696SOL     OW28723   2.050   3.836   5.840 -0.0091  0.3239 -0.5404
 5696SOL    HW128724   2.058   3.740   5.844  1.8269  0.4739 -0.3900
 5696SOL    HW228725   2.021   3.854   5.929  1.7007  0.3614  0.0100
 5697SOL     OW28726   0.673   3.134   9.906 -0.9652  0.4610  0.6108
 5697SOL    HW128727   0.607   3.185   9.860 -2.4449 -1.6578  0.3994
 5697SOL    HW228728   0.633   3.048   9.896  0.2820  0.2517 -2.8497
 5698SOL     OW28729   2.578   3.398   3.568 -0.0318  0.0851  0.0686
 5698SOL    HW128730   2.556   3.435   3.654  0.1578 -0.3531  0.3082
 5698SOL    HW228731   2.580   3.481   3.521 -0.4566  1.6473  2.8208
 5699SOL     OW28732   3.843   0.545   2.768  0.3808 -1.0002 -0.2389
 5699SOL    HW128733   3.865   0.551   2.861 -0.9806  1.8217 -0.1044
 5699SOL    HW228734   3.844   0.635   2.738 -0.2647 -0.2927  1.8437
 5700SOL     OW28735   2.354   1.272   5.702 -0.0793 -0.2943 -0.4972
 5700SOL    HW128736   2.356   1.366   5.683 -1.9733  0.1368  1.3417
 5700SOL    HW228737   2.441   1.258   5.739  0.8167  0.7747 -2.1998
 5701SOL     OW28738   0.149   1.909   2.575 -0.2324  0.6091 -0.1487
 5701SOL    HW128739   0.112   1.821   2.568  1.9692 -0.4246  1.1308
 5701SOL    HW228740   0.200   1.910   2.493  1.4710 -0.6007  0.8830
 5702SOL     OW28741   1.531   0.646   7.817 -0.5555  0.3649 -0.5452
 5702SOL    HW128742   1.490   0.600   7.743  2.4082 -1.5245 -0.9959
 5702SOL    HW228743   1.620   0.652   7.784  0.2028 -0.6902  1.3500
 5703SOL     OW28744   1.405   0.606   8.882  0.2554 -0.1350  0.5230
 5703SOL    HW128745   1.378   0.678   8.940 -2.7167 -1.3824  0.6727
 5703SOL    HW228746   1.370   0.530   8.927 -0.5881 -0.8877 -1.4173
 5704SOL     OW28747   1.445   2.872   4.538  0.2579  0.2138  0.0499
 5704SOL    HW128748   1.417   2.781   4.527 -0.8124  0.5850 -0.3903
 5704SOL    HW228749   1.360   2.902   4.504  0.1680 -0.3275 -0.1998
 5705SOL     OW28750   4.496   4.677   1.317 -0.0237 -0.7111 -0.2473
 5705SOL    HW128751   4.507   4.724   1.400 -1.5522 -0.0553 -0.4188
 5705SOL    HW228752   4.588   4.663   1.292  0.3430  0.4680  0.4439
 5706SOL     OW28753   4.155   2.378   5.506  0.3194 -0.4214  0.4973
 5706SOL    HW128754   4.125   2.361   5.417 -0.7308 -0.0811  0.7817
 5706SOL    HW228755   4.220   2.443   5.479  1.2908 -1.9675 -0.8130
 5707SOL     OW28756   0.229   2.603   2.514 -0.7517  0.3059  0.3283
 5707SOL    HW128757   0.234   2.693   2.544  1.4758  0.2945 -0.0031
 5707SOL    HW228758   0.269   2.607   2.426  1.8259  0.4499  1.4997
 5708SOL     OW28759   2.249   0.120   8.698  0.1117  0.0803 -0.0229
 5708SOL    HW128760   2.332   0.138   8.741  0.8246 -0.2377 -1.2671
 5708SOL    HW228761   2.187   0.178   8.743 -0.4449 -0.6431  0.1449
 5709SOL     OW28762   2.159   3.958   9.471 -0.0014  0.5257 -0.3061
 5709SOL    HW128763   2.066   3.955   9.497 -0.5899 -0.1677 -2.4594
 5709SOL    HW228764   2.151   3.918   9.384 -0.7637 -1.0214  0.4700
 5710SOL     OW28765   0.724   1.870   0.932 -0.2569 -0.2264 -0.2342
 5710SOL    HW128766   0.732   1.953   0.980  0.0879 -0.0706 -0.5600
 5710SOL    HW228767   0.680   1.904   0.854  0.1490 -1.1235 -0.8493
 5711SOL     OW28768   4.425   4.550   4.329 -0.7200  0.2673 -0.1579
 5711SOL    HW128769   4.352   4.489   4.340 -0.0765 -0.6523 -0.9623
 5711SOL    HW228770   4.491   4.482   4.320 -1.4281 -0.4033 -0.3390
 5712SOL     OW28771   4.049   1.413   3.158 -0.7876  0.3537  0.0967
 5712SOL    HW128772   4.079   1.414   3.067  0.3633 -1.4313  0.4560
 5712SOL    HW228773   4.073   1.326   3.189  2.0553  1.2147  0.3597
 5713SOL     OW28774   0.112   0.070  16.945  0.0170  0.3231 -0.1824
 5713SOL    HW128775   0.077   0.030  16.865 -0.5014 -0.5394  0.4674
 5713SOL    HW228776   0.188   0.118  16.914  0.5954 -1.6092 -1.8044
 5714SOL     OW28777   2.815   1.366   5.782 -0.2277 -0.1212 -0.3359
 5714SOL    HW128778   2.824   1.458   5.757 -0.6538 -0.8821 -3.3837
 5714SOL    HW228779   2.902   1.354   5.820  0.9498  0.7556 -2.7164
 5715SOL     OW28780   0.598   0.946   7.480  0.6065  0.2596  0.0296
 5715SOL    HW128781   0.652   1.017   7.515 -2.4566  2.9144 -0.5909
 5715SOL    HW228782   0.646   0.913   7.404 -0.0038  1.1261 -0.7380
 5716SOL     OW28783   1.783   3.994  16.642 -0.4813 -0.4035 -0.3538
 5716SOL    HW128784   1.791   3.902  16.669  2.0755 -0.2366 -0.5483
 5716SOL    HW228785   1.779   4.040  16.726 -1.2756 -1.1153  0.0016
 5717SOL     OW28786   2.037   0.920   2.389 -0.0979 -0.2294  0.8754
 5717SOL    HW128787   1.942   0.926   2.383  0.0628 -0.3260 -1.8011
 5717SOL    HW228788   2.043   1.000   2.441  0.0059  0.9307 -0.9014
 5718SOL     OW28789   1.881   0.538   8.503 -0.0011  0.0156  0.4266
 5718SOL    HW128790   1.830   0.604   8.456  3.5114  1.2258 -1.6544
 5718SOL    HW228791   1.969   0.573   8.487  0.4277 -2.2843 -2.0695
 5719SOL     OW28792   1.341   1.682  12.521  0.4668 -0.0102 -0.4560
 5719SOL    HW128793   1.327   1.698  12.428 -2.5093  1.5351  0.2374
 5719SOL    HW228794   1.432   1.709  12.527  0.2382  0.3720  1.2071
 5720SOL     OW28795   1.109   0.260  13.651  0.0386 -1.2063  0.2366
 5720SOL    HW128796   1.065   0.255  13.736  0.2016 -0.5492  0.3564
 5720SOL    HW228797   1.202   0.246  13.670  0.5662  1.5558 -0.3480
 5721SOL     OW28798   2.294   0.545  12.263 -0.7392  0.6725 -0.0968
 5721SOL    HW128799   2.237   0.548  12.187 -0.9769  0.8253  0.0885
 5721SOL    HW228800   2.353   0.475  12.234  0.8780  1.2521  1.7384
 5722SOL     OW28801   0.991   0.836   4.862 -0.0472  0.4123  0.3838
 5722SOL    HW128802   1.004   0.919   4.816  0.1783  0.5970  0.7784
 5722SOL    HW228803   0.955   0.868   4.945 -0.1355 -1.8200  1.1929
 5723SOL     OW28804   1.624   0.031  12.693 -0.6581 -0.0335  0.1969
 5723SOL    HW128805   1.573   4.688  12.707 -1.5204  0.6117  0.6749
 5723SOL    HW228806   1.569   0.069  12.625  0.5294 -0.9196 -1.2538
 5724SOL     OW28807   3.037   0.809   5.506  0.5927  0.4447 -0.3475
 5724SOL    HW128808   3.060   0.864   5.431 -2.0082  0.7664 -0.9220
 5724SOL    HW228809   2.954   0.851   5.529  0.6237 -0.0070  0.5730
 5725SOL     OW28810   1.095   3.572   5.783 -0.6645  0.5760  0.2762
 5725SOL    HW128811   1.031   3.546   5.849 -2.5087 -0.2464 -1.8591
 5725SOL    HW228812   1.097   3.487   5.740  2.4949 -0.1871  1.8748
 5726SOL     OW28813   4.105   4.407  10.367  0.3059 -0.0303 -0.3274
 5726SOL    HW128814   4.087   4.316  10.347  0.8075 -0.3975  0.9050
 5726SOL    HW228815   4.048   4.431  10.440 -2.1209 -1.0763 -1.8939
 5727SOL     OW28816   1.590   3.167   7.745  0.3713  0.1530 -0.4831
 5727SOL    HW128817   1.655   3.115   7.793  1.3297  2.3062  0.5433
 5727SOL    HW228818   1.603   3.252   7.788 -0.1331  1.2429 -2.4744
 5728SOL     OW28819   0.714   3.379  15.898  0.3955  0.1794  0.1469
 5728SOL    HW128820   0.763   3.327  15.962  1.9476  1.5829  0.0954
 5728SOL    HW228821   0.646   3.312  15.891  0.6872  0.0741 -1.4979
 5729SOL     OW28822   0.065   0.972   2.807 -0.1652  0.5077 -0.1342
 5729SOL    HW128823   0.143   0.933   2.767 -1.0346 -1.2231 -0.1525
 5729SOL    HW228824   0.022   1.009   2.730  1.1807  3.7076  0.6731
 5730SOL     OW28825   3.084   3.753  10.324  1.1418  0.6262 -0.0638
 5730SOL    HW128826   3.046   3.727  10.408 -1.3524  2.0190 -0.7609
 5730SOL    HW228827   3.160   3.801  10.355  0.1374  1.3186  1.3115
 5731SOL     OW28828   2.403   4.057   5.429 -0.1504 -0.1941  0.7859
 5731SOL    HW128829   2.338   4.115   5.469  2.2637  2.7818  0.3446
 5731SOL    HW228830   2.366   3.971   5.448  0.6312 -0.3861  1.4737
 5732SOL     OW28831   2.298   3.286   3.673 -0.0758  0.2697  0.2853
 5732SOL    HW128832   2.345   3.344   3.733  0.1169 -1.4652  1.8088
 5732SOL    HW228833   2.324   3.309   3.584  0.4472  0.5985  0.5180
 5733SOL     OW28834   4.254   0.452   6.159 -0.3162  0.6506  0.4020
 5733SOL    HW128835   4.224   0.414   6.242 -0.6094  2.2228  1.0182
 5733SOL    HW228836   4.197   0.403   6.100  1.9351 -1.3923 -0.0688
 5734SOL     OW28837   1.725   4.272   3.711  0.1219  0.0069  0.5101
 5734SOL    HW128838   1.800   4.327   3.733  0.1856 -0.1123  0.5908
 5734SOL    HW228839   1.706   4.290   3.619 -2.3340  1.5505  1.3135
 5735SOL     OW28840   3.185   4.270  10.328  0.2390  0.3846  0.4053
 5735SOL    HW128841   3.101   4.316  10.320  0.3576  0.5984  0.3919
 5735SOL    HW228842   3.243   4.344  10.311 -0.1510  0.9092  1.3628
 5736SOL     OW28843   3.625   2.005   3.359  0.2776 -0.2006  0.5412
 5736SOL    HW128844   3.531   2.003   3.341  0.3026 -1.9093  0.5598
 5736SOL    HW228845   3.651   1.917   3.331 -0.4152  0.4813 -2.1961
 5737SOL     OW28846   0.114   1.331   4.707 -0.2012 -0.2281  0.3882
 5737SOL    HW128847   0.099   1.289   4.622  1.6526  0.1613 -0.1160
 5737SOL    HW228848   0.120   1.419   4.670  0.4569 -0.4334  0.0099
 5738SOL     OW28849   2.828   3.302   2.615 -0.0927  0.5445 -0.0877
 5738SOL    HW128850   2.856   3.383   2.573 -0.4522  1.2148  0.9742
 5738SOL    HW228851   2.903   3.245   2.598  0.6868  1.2550  0.9322
 5739SOL     OW28852   3.258   1.635   2.442 -0.5699 -0.1338  0.2754
 5739SOL    HW128853   3.222   1.722   2.425 -3.5906 -1.5283 -0.4092
 5739SOL    HW228854   3.341   1.656   2.484 -1.9708 -0.1913  3.0373
 5740SOL     OW28855   0.565   1.103  14.405 -0.3972 -0.1497 -0.2446
 5740SOL    HW128856   0.495   1.157  14.369  0.6870  0.9293 -0.7501
 5740SOL    HW228857   0.519   1.031  14.446 -0.8011 -0.4024 -1.1451
 5741SOL     OW28858   1.198   2.221  11.778  0.1035  0.1089  0.3788
 5741SOL    HW128859   1.210   2.234  11.872  0.9359 -1.1247  0.4474
 5741SOL    HW228860   1.144   2.144  11.791 -2.3550  1.7528 -0.0335
 5742SOL     OW28861   2.517   3.379   8.250 -0.4905 -0.0302 -0.0220
 5742SOL    HW128862   2.502   3.431   8.171 -1.4146  0.8480  0.7271
 5742SOL    HW228863   2.589   3.416   8.300 -0.9445  1.6881 -0.6431
 5743SOL     OW28864   3.753   1.200   4.398  0.1274  0.3784 -0.1548
 5743SOL    HW128865   3.827   1.147   4.370 -1.2372 -0.7812 -1.5804
 5743SOL    HW228866   3.721   1.158   4.478 -1.5291  2.2725  0.1794
 5744SOL     OW28867   1.642   0.416   0.300 -0.3282 -0.2177 -0.4944
 5744SOL    HW128868   1.573   0.370   0.347  1.7597 -2.2838  0.5957
 5744SOL    HW228869   1.698   0.340   0.280 -0.5785 -0.3526 -0.6858
 5745SOL     OW28870   2.833   1.149   1.517  0.3082  0.4416  0.1793
 5745SOL    HW128871   2.864   1.077   1.572 -1.5493 -2.0198 -1.9552
 5745SOL    HW228872   2.914   1.180   1.476  0.8373  0.8660  1.5503
 5746SOL     OW28873   4.650   0.724  17.679 -0.5785 -0.5841 -0.3753
 5746SOL    HW128874   4.695   0.798  17.720  0.2776 -1.4314  0.2130
 5746SOL    HW228875   4.720   0.661  17.699  0.7277  0.6048 -1.1791
 5747SOL     OW28876   0.953   4.049   2.158  0.0716 -0.1159  0.1564
 5747SOL    HW128877   0.898   4.098   2.219 -1.5969 -0.1677 -1.2866
 5747SOL    HW228878   0.962   3.963   2.199 -1.3787  0.2411  1.2437
 5748SOL     OW28879   4.186   4.529   8.882  0.1398  0.3904 -0.2072
 5748SOL    HW128880   4.134   4.595   8.927  3.5698  4.2879 -1.9051
 5748SOL    HW228881   4.225   4.599   8.829  0.7617  0.2886  0.1118
 5749SOL     OW28882   0.313   1.249   8.131 -0.3553  0.5967 -0.1029
 5749SOL    HW128883   0.221   1.264   8.109 -0.7021 -0.4856  0.6063
 5749SOL    HW228884   0.344   1.339   8.139 -2.3217  1.2051  0.6817
 5750SOL     OW28885   0.041   1.007  17.673  0.4018 -0.1416  0.0423
 5750SOL    HW128886   4.719   1.081  17.689  2.5793  1.7973 -1.0542
 5750SOL    HW228887   0.122   1.046  17.706  0.1932 -0.5886  1.0949
 5751SOL     OW28888   4.016   0.971   6.626  0.3014 -0.0675  0.2456
 5751SOL    HW128889   4.078   1.006   6.562  2.1861  0.1498  2.1964
 5751SOL    HW228890   3.933   0.965   6.578  0.7987 -0.9099 -0.4838
 5752SOL     OW28891   1.133   4.126   6.210 -0.4305  0.0887 -0.1643
 5752SOL    HW128892   1.101   4.210   6.176  0.5431  0.1010 -1.0417
 5752SOL    HW228893   1.059   4.082   6.252  0.4438 -0.7321  0.4935
 5753SOL     OW28894   0.712   1.140   9.064  0.1300 -0.2433 -0.3522
 5753SOL    HW128895   0.787   1.081   9.068  0.3049  0.0766  1.1331
 5753SOL    HW228896   0.750   1.228   9.066 -0.2022 -0.1456  1.5130
 5754SOL     OW28897   1.967   2.461   6.112  0.2384  0.5753 -0.6227
 5754SOL    HW128898   1.903   2.497   6.052 -3.1635 -4.1960  0.1415
 5754SOL    HW228899   2.037   2.526   6.116 -1.0483  1.9755 -0.9508
 5755SOL     OW28900   0.989   2.371   6.780 -0.5298  0.0687  0.4166
 5755SOL    HW128901   1.022   2.322   6.855 -4.1006 -0.2675  1.7585
 5755SOL    HW228902   1.053   2.352   6.711 -1.0254 -1.1789  0.2939
 5756SOL     OW28903   2.305   1.282   8.237  0.0938 -0.0815 -0.3917
 5756SOL    HW128904   2.362   1.323   8.172 -0.4402  1.6769  0.2262
 5756SOL    HW228905   2.223   1.320   8.203 -0.4412 -1.1336 -0.2686
 5757SOL     OW28906   1.585   3.110   3.347  0.2671 -0.2833 -0.2378
 5757SOL    HW128907   1.585   3.071   3.259  0.5964  1.9254 -1.2198
 5757SOL    HW228908   1.609   3.201   3.332 -1.5259  0.4644  1.4398
 5758SOL     OW28909   2.838   0.804   6.330 -0.4830 -0.4243 -0.0079
 5758SOL    HW128910   2.797   0.726   6.366  0.6699 -0.5880  0.9394
 5758SOL    HW228911   2.926   0.770   6.312 -0.5895 -0.6771 -0.0436
 5759SOL     OW28912   2.337   4.129   6.353 -0.0489 -0.2820 -0.3478
 5759SOL    HW128913   2.251   4.094   6.378  0.1064  0.5506  1.3397
 5759SOL    HW228914   2.304   4.159   6.268 -1.0207 -0.3583  0.0014
 5760SOL     OW28915   2.783   1.622   8.823 -0.0264  0.2947 -0.2241
 5760SOL    HW128916   2.795   1.602   8.916 -0.1644  0.4781 -0.1664
 5760SOL    HW228917   2.761   1.715   8.827 -2.4810 -0.3544  1.6956
 5761SOL     OW28918   4.174   0.149   5.721 -0.0828 -0.0071 -0.8300
 5761SOL    HW128919   4.107   0.184   5.779 -1.1454 -1.1196 -1.3730
 5761SOL    HW228920   4.143   0.179   5.635 -1.9674 -1.2772 -0.5835
 5762SOL     OW28921   1.660   1.805  17.584  0.5760 -0.2549  0.1304
 5762SOL    HW128922   1.617   1.721  17.593  0.0357  0.3662  3.0870
 5762SOL    HW228923   1.739   1.775  17.539  1.7370  0.5800  1.6152
 5763SOL     OW28924   1.328   3.962   8.184 -0.5975 -0.4588 -0.2394
 5763SOL    HW128925   1.422   3.944   8.176 -0.7936 -1.0921 -1.1868
 5763SOL    HW228926   1.316   4.031   8.120  2.1192  1.3499  1.2050
 5764SOL     OW28927   3.222   3.432   4.413  0.1961 -0.1573 -0.3319
 5764SOL    HW128928   3.193   3.438   4.504  0.7814  0.2659 -0.1739
 5764SOL    HW228929   3.283   3.506   4.406  0.9813 -0.8479 -0.7847
 5765SOL     OW28930   4.024   3.552   1.829  0.2846 -0.6176  0.2691
 5765SOL    HW128931   4.080   3.476   1.809  1.7606  0.2777  1.0363
 5765SOL    HW228932   4.064   3.575   1.913 -1.5952  0.8722  0.7348
 5766SOL     OW28933   3.522   0.511   0.720 -0.0351  0.2911 -0.5076
 5766SOL    HW128934   3.588   0.572   0.752  0.8042 -0.4781 -0.7589
 5766SOL    HW228935   3.512   0.456   0.798  1.7060  1.0832  0.2686
 5767SOL     OW28936   0.962   1.159   2.818  0.5148 -0.4769  0.3648
 5767SOL    HW128937   0.900   1.094   2.785 -1.3550  1.8404 -0.7577
 5767SOL    HW228938   0.957   1.137   2.911 -0.7359  0.1306  0.4421
 5768SOL     OW28939   4.141   3.838  14.573  0.0021 -0.0860  0.5742
 5768SOL    HW128940   4.151   3.835  14.478  0.6590 -1.5263  0.6846
 5768SOL    HW228941   4.077   3.770  14.596 -0.1988 -0.2371 -0.4522
 5769SOL     OW28942   3.929   0.602   9.145 -0.0647 -0.1696  0.4460
 5769SOL    HW128943   4.005   0.658   9.161  0.5110 -1.4473  2.2046
 5769SOL    HW228944   3.919   0.600   9.050  2.5951 -2.2801  0.1936
 5770SOL     OW28945   1.748   2.091   8.500  0.6637  0.4114  0.3765
 5770SOL    HW128946   1.812   2.149   8.541  1.7346 -1.4029  1.2704
 5770SOL    HW228947   1.720   2.041   8.576  0.9681  2.1855  1.6675
 5771SOL     OW28948   1.525   0.642   2.858  0.1500 -0.4639 -0.1680
 5771SOL    HW128949   1.447   0.649   2.913 -0.3895  0.5813 -1.0534
 5771SOL    HW228950   1.520   0.550   2.833 -0.9057 -0.4869  0.1194
 5772SOL     OW28951   1.967   1.686  12.957 -0.5399  0.1286 -0.3040
 5772SOL    HW128952   1.901   1.743  12.997  0.5406  0.0955  1.5068
 5772SOL    HW228953   2.042   1.708  13.012 -2.0630  3.6717  0.3682
 5773SOL     OW28954   2.703   3.626   6.014  0.4661 -0.2775 -0.2374
 5773SOL    HW128955   2.629   3.687   6.011  1.1628  0.6070  0.7442
 5773SOL    HW228956   2.698   3.561   5.943 -0.5809 -0.2694 -0.1660
 5774SOL     OW28957   2.709   1.203   8.932  0.3860  0.1584 -0.3273
 5774SOL    HW128958   2.715   1.269   9.001 -1.2074  1.3676 -1.3441
 5774SOL    HW228959   2.719   1.259   8.856  1.3797 -1.5672 -1.4751
 5775SOL     OW28960   2.918   2.364  11.544  0.6343  0.4352 -0.4026
 5775SOL    HW128961   2.864   2.334  11.471 -0.2209  0.1174  0.3618
 5775SOL    HW228962   2.847   2.356  11.607 -2.4778 -0.1574 -3.9918
 5776SOL     OW28963   4.400   3.143  17.098 -0.4423 -0.1497  0.5507
 5776SOL    HW128964   4.416   3.234  17.120  0.6387 -0.2644  0.2580
 5776SOL    HW228965   4.340   3.114  17.166 -0.6138  1.9626  1.2945
 5777SOL     OW28966   1.168   0.692   4.464  0.2797 -0.5390  0.7022
 5777SOL    HW128967   1.252   0.650   4.481  1.6740  2.5443  1.2945
 5777SOL    HW228968   1.171   0.758   4.533 -1.8453 -0.1986  0.4958
 5778SOL     OW28969   3.883   0.151   6.733 -0.1747  0.1292 -0.3969
 5778SOL    HW128970   3.856   0.233   6.776 -0.6814  0.1518 -0.7514
 5778SOL    HW228971   3.863   0.173   6.642  1.3215 -3.2022 -1.5196
 5779SOL     OW28972   2.354   2.149   6.241  0.4888  0.3721 -0.2252
 5779SOL    HW128973   2.276   2.103   6.271  1.3865 -2.3552 -2.1196
 5779SOL    HW228974   2.423   2.086   6.263  0.9374  0.1500 -2.2427
 5780SOL     OW28975   4.194   1.300   2.933 -0.2007  0.2686 -0.3961
 5780SOL    HW128976   4.146   1.289   2.852 -2.5647 -1.8768  1.3151
 5780SOL    HW228977   4.285   1.310   2.904 -0.1244 -0.9203 -0.5555
 5781SOL     OW28978   4.228   1.846   4.763 -0.1712  0.3830  0.1205
 5781SOL    HW128979   4.219   1.937   4.790  2.3635  1.0472 -1.2970
 5781SOL    HW228980   4.174   1.804   4.830 -0.3735  2.0121  0.9761
 5782SOL     OW28981   4.472   1.549   8.731  0.5097  0.3454  0.7047
 5782SOL    HW128982   4.556   1.593   8.727  0.5240  0.0601 -1.9384
 5782SOL    HW228983   4.419   1.627   8.713 -0.7643 -0.5941  0.3879
 5783SOL     OW28984   0.263   1.786   7.218 -0.2788 -0.0111  0.0043
 5783SOL    HW128985   0.358   1.770   7.212 -0.4379 -0.1516 -2.2778
 5783SOL    HW228986   0.274   1.872   7.258  1.7129  0.0055 -0.5424
 5784SOL     OW28987   4.339   3.828   3.797 -0.2917  0.0170 -0.1888
 5784SOL    HW128988   4.371   3.739   3.811  0.4459  0.0169 -1.9683
 5784SOL    HW228989   4.420   3.877   3.809 -1.0156  0.4783  3.0851
 5785SOL     OW28990   0.825   1.645   5.913 -0.2488  0.2787 -0.0191
 5785SOL    HW128991   0.883   1.592   5.858 -0.3847 -0.8872  0.9387
 5785SOL    HW228992   0.846   1.731   5.879 -2.0100  0.0374 -1.7338
 5786SOL     OW28993   0.671   4.228   3.576 -0.4394 -0.1572 -0.7437
 5786SOL    HW128994   0.580   4.198   3.574 -0.6325  0.2611  1.0818
 5786SOL    HW228995   0.674   4.258   3.485 -2.3402  0.5383 -0.5842
 5787SOL     OW28996   3.810   3.904   6.084  0.4972 -0.1356 -0.2061
 5787SOL    HW128997   3.883   3.965   6.084 -0.8220  1.4341  0.8753
 5787SOL    HW228998   3.788   3.903   6.177  0.0272 -2.1539 -0.3209
 5788SOL     OW28999   4.359   1.546   3.075  0.2967 -0.7865 -0.6219
 5788SOL    HW129000   4.354   1.523   3.168  0.1654 -0.0343 -0.4410
 5788SOL    HW229001   4.432   1.608   3.084 -0.3901 -0.0306 -0.2029
 5789SOL     OW29002   4.525   0.957   4.970 -0.0509  0.1558  0.5918
 5789SOL    HW129003   4.466   0.940   4.897  0.4063 -1.8074  0.6780
 5789SOL    HW229004   4.467   0.981   5.042  0.9095 -0.7630  1.6687
 5790SOL     OW29005   1.309   3.168   2.493 -0.3489  0.1565  0.3273
 5790SOL    HW129006   1.326   3.237   2.428 -0.5006  0.1135  0.2426
 5790SOL    HW229007   1.274   3.222   2.564 -1.3059  2.1913 -1.6801
 5791SOL     OW29008   1.596   1.353  16.555 -0.1457  0.4905 -0.5784
 5791SOL    HW129009   1.655   1.423  16.583  0.8767 -0.2500 -0.8909
 5791SOL    HW229010   1.545   1.331  16.633 -1.7978 -1.0125 -2.1049
 5792SOL     OW29011   1.001   1.668   6.143 -0.1433  0.2217  0.4107
 5792SOL    HW129012   0.945   1.651   6.067 -1.1019 -1.2818  1.4459
 5792SOL    HW229013   1.007   1.763   6.141 -1.7778  0.3615  2.3187
 5793SOL     OW29014   3.616   1.468   6.557  0.2114 -0.0785  0.9481
 5793SOL    HW129015   3.691   1.518   6.589  0.2457  0.0605  0.6593
 5793SOL    HW229016   3.637   1.474   6.463 -1.9668 -1.0010  0.3889
 5794SOL     OW29017   0.172   0.363   4.322  0.5931 -0.2668  0.3834
 5794SOL    HW129018   0.263   0.365   4.350  0.1065  0.8781  1.8337
 5794SOL    HW229019   0.142   0.275   4.346  2.2684 -0.3343  2.1963
 5795SOL     OW29020   2.087   3.591   5.976 -0.0815 -0.3695 -0.6560
 5795SOL    HW129021   2.140   3.568   6.051  1.5630 -0.7305 -1.9379
 5795SOL    HW229022   2.059   3.508   5.937 -2.8849  0.9032 -1.3957
 5796SOL     OW29023   2.504   4.298   9.512  0.9649  0.2072 -0.3563
 5796SOL    HW129024   2.549   4.217   9.534 -2.2014 -0.8524  2.3232
 5796SOL    HW229025   2.416   4.268   9.533  2.2490 -1.5847  2.4321
 5797SOL     OW29026   3.468   2.471   4.801 -0.3365  0.3109 -0.0042
 5797SOL    HW129027   3.483   2.452   4.708 -0.1304  0.6725 -0.0451
 5797SOL    HW229028   3.507   2.558   4.810 -0.3616 -0.0448  3.3856
 5798SOL     OW29029   0.867   2.523  14.482  0.6899 -0.4109  0.0783
 5798SOL    HW129030   0.916   2.595  14.443  0.8547 -1.2649 -1.2945
 5798SOL    HW229031   0.781   2.563  14.492 -0.7158 -2.4954 -3.4125
 5799SOL     OW29032   2.828   4.556   4.205 -0.0724 -0.5109 -0.6936
 5799SOL    HW129033   2.766   4.619   4.242  0.8314  0.0143 -0.0709
 5799SOL    HW229034   2.847   4.513   4.288  1.8353 -0.4212 -1.0960
 5800SOL     OW29035   3.826   1.416  11.820  0.0467  0.0951 -0.5990
 5800SOL    HW129036   3.816   1.503  11.780 -1.5962  0.8779  1.5134
 5800SOL    HW229037   3.914   1.428  11.855  0.2116 -2.5210 -0.1633
 5801SOL     OW29038   4.023   0.092  11.288 -0.6140  0.1544  0.3225
 5801SOL    HW129039   4.101   0.092  11.233 -1.4663 -1.6472 -0.8880
 5801SOL    HW229040   4.049   0.016  11.341  2.2813  0.8670 -0.0749
 5802SOL     OW29041   1.120   3.411   2.239  0.4042  0.1136  0.3570
 5802SOL    HW129042   1.081   3.324   2.243 -0.8666  0.6242 -0.8875
 5802SOL    HW229043   1.085   3.451   2.319  0.6543 -0.1095  0.5755
 5803SOL     OW29044   1.999   1.879   7.358  0.0513 -0.2438 -1.0426
 5803SOL    HW129045   2.039   1.851   7.275  1.4352 -1.0738 -0.1180
 5803SOL    HW229046   2.067   1.926   7.406 -2.1215 -0.0091  1.7625
 5804SOL     OW29047   4.611   4.160   5.103  0.1790  0.5853  0.5578
 5804SOL    HW129048   4.560   4.228   5.059  0.2616  0.8855  0.9358
 5804SOL    HW229049   4.580   4.083   5.056  0.6223  1.5133 -1.2700
 5805SOL     OW29050   0.937   3.746   4.291 -0.0236 -0.3961  0.2730
 5805SOL    HW129051   0.900   3.696   4.219  2.7601 -0.6447 -1.0003
 5805SOL    HW229052   1.018   3.696   4.306 -0.9321 -0.8948  3.4281
 5806SOL     OW29053   1.728   1.431   6.606  0.7814 -0.2009 -0.1204
 5806SOL    HW129054   1.794   1.454   6.541 -4.1459  2.6657 -4.1927
 5806SOL    HW229055   1.740   1.511   6.658 -1.8510  0.4668 -0.5072
 5807SOL     OW29056   0.763   1.328   7.312 -0.2115  0.2533  0.3036
 5807SOL    HW129057   0.714   1.295   7.388  1.3836 -0.3802  1.0570
 5807SOL    HW229058   0.701   1.385   7.267 -1.9335 -0.3109  1.9551
 5808SOL     OW29059   3.182   1.019   6.029  0.5837  0.2016 -0.1472
 5808SOL    HW129060   3.137   0.940   5.999  2.1382 -0.7898  0.1138
 5808SOL    HW229061   3.115   1.065   6.080 -0.1915  0.2273 -1.1912
 5809SOL     OW29062   0.189   3.303   7.520 -0.4813  0.8293  0.9311
 5809SOL    HW129063   0.193   3.359   7.443  2.1528 -1.3842 -0.5649
 5809SOL    HW229064   0.097   3.274   7.526 -0.1476 -0.5566 -0.5856
 5810SOL     OW29065   0.218   0.342   8.854 -0.7123 -0.0928 -0.5691
 5810SOL    HW129066   0.228   0.436   8.864 -1.3241  0.0658 -1.4589
 5810SOL    HW229067   0.285   0.319   8.789  2.1262 -0.9796  2.6373
 5811SOL     OW29068   1.312   3.646   6.635 -0.5213 -0.1727 -0.6175
 5811SOL    HW129069   1.323   3.599   6.717 -3.5602 -1.9430 -1.2280
 5811SOL    HW229070   1.395   3.691   6.623  0.2766 -1.3602  0.4637
 5812SOL     OW29071   0.721   4.301   4.067 -0.0199 -0.1596  0.0413
 5812SOL    HW129072   0.627   4.312   4.055  0.1068  2.1359  1.3048
 5812SOL    HW229073   0.741   4.263   3.981 -1.8062 -0.4433 -0.2370
 5813SOL     OW29074   1.428   3.577   2.737 -0.6643 -0.4666 -0.5887
 5813SOL    HW129075   1.481   3.647   2.699 -0.2153  0.4006  1.6629
 5813SOL    HW229076   1.474   3.501   2.703 -2.3381 -1.9929  0.5844
 5814SOL     OW29077   3.903   3.674   5.856 -0.3792 -0.3575 -0.2579
 5814SOL    HW129078   3.990   3.706   5.882 -0.0524 -0.4890 -1.2022
 5814SOL    HW229079   3.846   3.744   5.887 -0.0590 -0.0464 -0.3642
 5815SOL     OW29080   3.282   3.598  10.552  0.3903 -0.4570 -0.3086
 5815SOL    HW129081   3.335   3.640  10.620 -2.5993  2.2737  0.3072
 5815SOL    HW229082   3.321   3.510  10.546  3.0920  0.8805 -2.1198
 5816SOL     OW29083   1.552   1.095  10.141  0.0264 -0.1285  0.3051
 5816SOL    HW129084   1.528   1.029  10.205  1.6958 -1.1564 -0.1276
 5816SOL    HW229085   1.643   1.080  10.114  0.3387  1.1745  0.6241
 5817SOL     OW29086   0.171   1.633   9.339  0.4517  0.6248  0.4428
 5817SOL    HW129087   0.224   1.589   9.406 -0.3205  0.4705  0.9431
 5817SOL    HW229088   0.212   1.719   9.338 -1.3806  1.4876  1.7965
 5818SOL     OW29089   4.718   2.919  14.991  0.2901 -0.2348 -0.3109
 5818SOL    HW129090   0.030   3.002  14.982  1.1118 -0.6507  0.3076
 5818SOL    HW229091   0.050   2.852  14.992  1.5970  1.1263  1.7780
 5819SOL     OW29092   2.731   1.389   3.669  0.7905 -0.2778  0.6550
 5819SOL    HW129093   2.688   1.306   3.654  1.4454 -0.7166  1.1550
 5819SOL    HW229094   2.799   1.361   3.731 -0.4935  0.1084  2.2671
 5820SOL     OW29095   2.311   3.304   7.562  0.9107  0.1041  0.0086
 5820SOL    HW129096   2.403   3.308   7.534  0.3615  0.8854 -1.7078
 5820SOL    HW229097   2.265   3.241   7.506  1.5643 -1.7364  1.5181
 5821SOL     OW29098   2.378   3.756  11.620 -0.6199 -0.1447 -0.1663
 5821SOL    HW129099   2.431   3.724  11.693 -1.2422  0.6798  0.6415
 5821SOL    HW229100   2.367   3.672  11.576 -1.0615 -0.1998  0.0510
 5822SOL     OW29101   3.401   0.691   9.506 -0.4477 -0.0734  0.2824
 5822SOL    HW129102   3.485   0.689   9.552 -0.1626 -1.9637 -0.3147
 5822SOL    HW229103   3.335   0.671   9.572 -1.1123 -1.2801 -0.7428
 5823SOL     OW29104   2.857   1.254   4.146  0.0057  0.0764  0.0763
 5823SOL    HW129105   2.819   1.167   4.150  1.1964 -0.3714  1.9756
 5823SOL    HW229106   2.779   1.310   4.142  0.4956  0.8911  1.6908
 5824SOL     OW29107   3.747   4.418   4.215 -0.7062  0.1376 -0.3552
 5824SOL    HW129108   3.654   4.417   4.193 -1.0102  0.3728  0.9282
 5824SOL    HW229109   3.779   4.433   4.126 -4.2358  2.3057 -1.2529
 5825SOL     OW29110   1.532   0.536  11.065 -0.0040  0.0175  0.3117
 5825SOL    HW129111   1.598   0.597  11.031  1.8732 -3.0604 -1.5922
 5825SOL    HW229112   1.521   0.577  11.150  1.5445  0.1510  0.4588
 5826SOL     OW29113   0.412   3.559   5.255 -0.3963  0.0598  0.4741
 5826SOL    HW129114   0.485   3.517   5.209 -3.8167 -2.6331 -2.4893
 5826SOL    HW229115   0.455   3.578   5.338  1.5466 -0.9264 -0.2892
 5827SOL     OW29116   2.124   0.302   6.625  0.4887 -0.5518  0.7923
 5827SOL    HW129117   2.175   0.258   6.557  3.7983 -0.8711  3.4904
 5827SOL    HW229118   2.083   0.370   6.572 -1.8346 -2.4325  0.1812
 5828SOL     OW29119   0.139   2.946   2.362  0.0388 -0.2789 -0.2472
 5828SOL    HW129120   0.148   2.929   2.268  2.1767  3.2398 -0.6626
 5828SOL    HW229121   0.175   3.034   2.372 -0.2977 -0.0447 -1.0790
 5829SOL     OW29122   2.868   4.275   4.679  0.0601 -0.2738  0.2845
 5829SOL    HW129123   2.950   4.315   4.650 -0.7141  1.1594  0.0612
 5829SOL    HW229124   2.893   4.185   4.657  0.4677  0.3118 -1.6390
 5830SOL     OW29125   0.118   2.691  12.314 -0.7653  0.2867 -0.0932
 5830SOL    HW129126   0.023   2.689  12.318 -0.7711 -0.6532 -0.8763
 5830SOL    HW229127   0.136   2.736  12.232  0.9661  0.5843  0.4369
 5831SOL     OW29128   1.672   4.674   8.982  0.6312 -0.2651 -0.2839
 5831SOL    HW129129   1.761   4.706   8.997 -0.0818  1.2310  0.8194
 5831SOL    HW229130   1.688   4.606   8.916 -1.9367  0.3720 -1.5692
 5832SOL     OW29131   1.227   3.452   6.492 -0.4346  0.2673 -0.3095
 5832SOL    HW129132   1.263   3.533   6.528  1.0477  0.1136 -1.4601
 5832SOL    HW229133   1.269   3.386   6.547 -3.1112  0.0622  1.4898
 5833SOL     OW29134   1.132   3.898   6.516  0.4433 -0.2322 -0.0489
 5833SOL    HW129135   1.075   3.967   6.551  1.0889  0.4264 -0.3129
 5833SOL    HW229136   1.173   3.858   6.592  0.4030  0.9707  0.6105
 5834SOL     OW29137   2.886   0.731   9.503  0.1593 -0.2594 -0.6571
 5834SOL    HW129138   2.928   0.814   9.527 -0.2313 -0.6847  1.5013
 5834SOL    HW229139   2.887   0.731   9.407  0.7577  1.4286 -0.6506
 5835SOL     OW29140   4.697   3.766   5.869 -0.3600  0.3211 -0.4657
 5835SOL    HW129141   4.669   3.739   5.782 -0.2258  0.5565 -0.5812
 5835SOL    HW229142   4.673   3.859   5.875  0.5366  0.4892  0.5960
 5836SOL     OW29143   1.245   0.247   4.230 -0.3748  0.0901  0.0653
 5836SOL    HW129144   1.321   0.201   4.195  0.1117  1.1371 -0.2589
 5836SOL    HW229145   1.235   0.221   4.322 -1.6379  0.9320  0.1719
 5837SOL     OW29146   1.885   3.123   2.085 -0.0758 -0.2039 -0.1888
 5837SOL    HW129147   1.846   3.144   2.001  1.3980 -0.2290 -0.8744
 5837SOL    HW229148   1.810   3.149   2.139 -1.8295 -3.6406 -0.9980
 5838SOL     OW29149   4.479   0.175  15.472  0.1271  0.0483  0.8591
 5838SOL    HW129150   4.442   0.147  15.389 -0.1371  0.4392  0.8472
 5838SOL    HW229151   4.451   0.105  15.531 -1.7221  0.5539  0.5825
 5839SOL     OW29152   1.109   4.158   5.766  0.3731  0.2473 -0.3065
 5839SOL    HW129153   1.028   4.202   5.740  0.7636  1.4633  0.5085
 5839SOL    HW229154   1.071   4.084   5.813  3.5583  0.8595  3.1701
 5840SOL     OW29155   4.246   1.087   6.515  0.2133 -0.0646 -0.1798
 5840SOL    HW129156   4.255   1.132   6.599  0.1522 -1.4048  0.5366
 5840SOL    HW229157   4.176   1.143   6.481  0.7547  0.2478 -0.7903
 5841SOL     OW29158   0.249   1.714  13.434  0.4497  0.1101 -0.1721
 5841SOL    HW129159   0.233   1.712  13.340 -0.6580  0.1718  0.0176
 5841SOL    HW229160   0.294   1.632  13.453 -1.4651 -0.9771 -0.3950
 5842SOL     OW29161   3.878   0.373   4.475  0.0408 -0.0813 -0.2122
 5842SOL    HW129162   3.870   0.435   4.403 -1.8920 -0.4396 -0.3095
 5842SOL    HW229163   3.958   0.326   4.451  1.5599  0.7892  3.1753
 5843SOL     OW29164   4.222   4.122   4.302 -0.0237 -0.0599 -0.6907
 5843SOL    HW129165   4.236   4.092   4.212  2.2509 -2.1656  0.3735
 5843SOL    HW229166   4.127   4.117   4.303  0.0123 -0.8251 -2.0813
 5844SOL     OW29167   2.064   3.028  15.708 -0.0497  0.3911  0.0230
 5844SOL    HW129168   2.071   2.970  15.783  0.8752  0.8331  0.2837
 5844SOL    HW229169   2.155   3.020  15.678 -0.1242 -1.1609  0.2375
 5845SOL     OW29170   1.366   3.993  12.007 -0.3321  0.0780  0.1642
 5845SOL    HW129171   1.430   4.059  11.980 -1.7925  0.4636 -2.3860
 5845SOL    HW229172   1.304   4.051  12.052  0.8686  0.8471  0.8355
 5846SOL     OW29173   4.351   1.388   3.647  0.0979  0.0949  0.0811
 5846SOL    HW129174   4.360   1.483   3.651 -1.6939  0.2291  1.1957
 5846SOL    HW229175   4.393   1.375   3.732  0.3315  0.3377  0.0034
 5847SOL     OW29176   3.231   2.043   8.702 -0.2328  0.0472  0.1347
 5847SOL    HW129177   3.248   2.129   8.739 -2.5174  0.3511  0.5134
 5847SOL    HW229178   3.242   2.054   8.608  1.9886  1.9954  0.6438
 5848SOL     OW29179   2.338   2.258   9.111 -0.2944  0.1067 -0.6813
 5848SOL    HW129180   2.283   2.241   9.035 -1.7365 -2.1723  0.8955
 5848SOL    HW229181   2.301   2.328   9.166 -0.6031 -2.0814  1.8939
 5849SOL     OW29182   2.703   3.012  12.067  0.0004  0.4157 -0.0347
 5849SOL    HW129183   2.745   2.927  12.058  0.8984  1.1411 -2.6124
 5849SOL    HW229184   2.707   3.023  12.162 -1.3503 -1.2078  0.2004
 5850SOL     OW29185   2.920   3.316   8.669  0.0991 -0.3255  0.4516
 5850SOL    HW129186   2.886   3.256   8.601  0.4235 -0.4328  0.3853
 5850SOL    HW229187   2.850   3.376   8.693  0.6517 -0.6155  2.7375
 5851SOL     OW29188   3.066   4.238  17.624 -0.3874 -0.7435  0.0501
 5851SOL    HW129189   3.073   4.266  17.716 -3.8965  0.4082 -0.0246
 5851SOL    HW229190   3.108   4.152  17.628 -0.6325 -0.9143 -1.2850
 5852SOL     OW29191   4.384   4.479   2.412 -0.0886  0.4710 -0.0617
 5852SOL    HW129192   4.430   4.493   2.330  0.7347  1.0748  0.4968
 5852SOL    HW229193   4.438   4.534   2.469 -0.1267 -1.8870  2.2903
 5853SOL     OW29194   3.817   2.149   7.960 -0.1669 -0.3208 -0.6029
 5853SOL    HW129195   3.827   2.074   7.901  0.6433 -0.0309 -0.8378
 5853SOL    HW229196   3.830   2.223   7.901 -0.7530  0.1881 -0.0960
 5854SOL     OW29197   3.338   1.708  16.833  0.2941  0.2015 -0.3460
 5854SOL    HW129198   3.398   1.698  16.907  0.2288  1.2325 -0.1518
 5854SOL    HW229199   3.410   1.705  16.770 -1.9980  2.4106 -3.0161
 5855SOL     OW29200   2.630   2.245   8.298  0.2624 -0.6846 -0.7997
 5855SOL    HW129201   2.684   2.291   8.235 -0.2936 -1.2305 -1.6704
 5855SOL    HW229202   2.686   2.227   8.374  0.5376  1.3781 -0.5265
 5856SOL     OW29203   0.255   0.062   3.081 -0.2804  0.2437 -0.4007
 5856SOL    HW129204   0.290   4.729   3.025 -1.4371 -0.9835  0.3871
 5856SOL    HW229205   0.267   0.031   3.170 -1.8852 -0.9212 -0.5999
 5857SOL     OW29206   1.401   2.311   4.860 -0.0931 -0.1965 -0.8995
 5857SOL    HW129207   1.450   2.362   4.796 -0.1278 -0.4065 -1.0922
 5857SOL    HW229208   1.331   2.268   4.812 -0.2665  0.2355 -1.0363
 5858SOL     OW29209   4.587   4.582   3.328 -0.0497 -0.6564  0.2386
 5858SOL    HW129210   4.602   4.632   3.247 -0.9476  0.9922  1.1153
 5858SOL    HW229211   4.675   4.544   3.326 -0.8243 -2.5289  2.2269
 5859SOL     OW29212   3.911   2.323  10.046 -0.1072 -0.3175  0.1484
 5859SOL    HW129213   3.858   2.376  10.106 -0.1703  1.3347 -1.3769
 5859SOL    HW229214   3.979   2.387  10.022  1.7507 -2.6401 -0.6979
 5860SOL     OW29215   3.023   4.287   2.328  0.2713  0.0801 -0.3068
 5860SOL    HW129216   3.105   4.323   2.363  0.5189 -1.7460  0.9498
 5860SOL    HW229217   3.056   4.225   2.263  1.0822 -1.5825  1.7049
 5861SOL     OW29218   2.878   1.193  11.411 -0.0363 -0.5247  0.0747
 5861SOL    HW129219   2.917   1.172  11.326  0.7867 -1.1837  0.6059
 5861SOL    HW229220   2.933   1.267  11.436 -1.5283  0.7484 -0.4604
 5862SOL     OW29221   1.602   3.206   7.036  0.0360 -0.3847 -0.1808
 5862SOL    HW129222   1.533   3.144   7.012  1.5705 -1.7113 -1.1960
 5862SOL    HW229223   1.621   3.191   7.129 -1.5230  0.0474  0.2065
 5863SOL     OW29224   1.387   3.013   7.083 -0.2286 -0.0065 -0.0707
 5863SOL    HW129225   1.408   2.991   7.174 -0.8727  4.3507  1.1290
 5863SOL    HW229226   1.293   2.994   7.079 -0.4063  0.7074  0.7114
 5864SOL     OW29227   0.812   0.655  13.410  0.4675 -0.0049  0.2898
 5864SOL    HW129228   0.725   0.687  13.385  0.5225 -0.6376 -0.6890
 5864SOL    HW229229   0.807   0.560  13.411  0.6440 -0.0245 -1.2054
 5865SOL     OW29230   3.247   4.431  11.044  0.4741  0.4998  0.0115
 5865SOL    HW129231   3.295   4.431  10.961 -0.1061  2.4641 -0.3030
 5865SOL    HW229232   3.205   4.345  11.037  1.6154 -0.0861  0.3095
 5866SOL     OW29233   4.489   0.713   7.316 -0.2590 -0.6668 -0.3677
 5866SOL    HW129234   4.416   0.770   7.338  0.0747 -0.7079  0.8014
 5866SOL    HW229235   4.542   0.766   7.256 -0.9292  1.2054  0.7022
 5867SOL     OW29236   3.288   0.315  12.592 -0.4311 -0.7024 -0.1957
 5867SOL    HW129237   3.316   0.298  12.682  0.0247 -3.2774 -0.8238
 5867SOL    HW229238   3.367   0.302  12.539 -0.2839 -0.3627 -0.0620
 5868SOL     OW29239   2.805   3.033   4.900 -0.4179  0.4610  0.7663
 5868SOL    HW129240   2.776   3.048   4.810 -2.3206 -3.2217  0.7836
 5868SOL    HW229241   2.734   3.012   4.960  0.3371 -0.9007  1.1881
 5869SOL     OW29242   4.446   4.452  14.013 -0.1202 -0.3321 -0.2966
 5869SOL    HW129243   4.407   4.533  14.048  1.2496  0.5084 -0.7306
 5869SOL    HW229244   4.456   4.405  14.095 -1.2318  1.8816  1.1073
 5870SOL     OW29245   4.646   1.867   2.164 -0.4912  0.3113  0.0171
 5870SOL    HW129246   4.678   1.922   2.236 -0.5085 -0.6923  0.7996
 5870SOL    HW229247   4.725   1.852   2.113 -0.1157  1.7190  0.1910
 5871SOL     OW29248   2.991   3.246  11.096 -0.5070 -0.4297 -0.1433
 5871SOL    HW129249   3.068   3.189  11.098 -0.3676 -0.1466  1.7675
 5871SOL    HW229250   2.918   3.194  11.129 -2.6703  0.3521 -3.7021
 5872SOL     OW29251   4.092   1.092   3.940 -0.3839  0.2345 -0.4536
 5872SOL    HW129252   4.127   1.128   3.859 -0.8956 -0.1569 -0.8493
 5872SOL    HW229253   4.028   1.029   3.907 -0.7192  0.4735 -0.2651
 5873SOL     OW29254   1.205   1.792   7.541  0.0927  0.2225  0.0284
 5873SOL    HW129255   1.298   1.770   7.541  0.2777  0.9556  3.0750
 5873SOL    HW229256   1.205   1.885   7.565 -2.8279  0.1025  0.5363
 5874SOL     OW29257   4.095   2.329   5.232  0.0955 -0.1303 -0.3285
 5874SOL    HW129258   4.098   2.389   5.158 -1.0336 -1.2389 -1.2810
 5874SOL    HW229259   4.158   2.260   5.211  0.7916  0.3858  0.0750
 5875SOL     OW29260   4.667   4.037  15.200 -0.7463 -0.1791  0.1139
 5875SOL    HW129261   4.612   3.963  15.227  1.0468 -0.7226  2.2781
 5875SOL    HW229262   4.603   4.100  15.167 -1.4914 -0.1703  1.5543
 5876SOL     OW29263   0.663   4.510   3.858 -0.0260 -0.3247  0.8148
 5876SOL    HW129264   0.661   4.599   3.895 -1.2165 -0.2626  0.6127
 5876SOL    HW229265   0.577   4.482   3.892 -1.1396 -0.8814 -2.5174
 5877SOL     OW29266   3.511   2.905   0.393  0.5400 -0.7017  0.4175
 5877SOL    HW129267   3.512   3.001   0.393  0.3476 -0.6805  2.2315
 5877SOL    HW229268   3.439   2.900   0.457  0.1509 -1.4213 -0.0757
 5878SOL     OW29269   0.357   4.263   8.881  0.3062  0.1359  0.3739
 5878SOL    HW129270   0.346   4.356   8.859 -0.4078  0.6140  2.7563
 5878SOL    HW229271   0.396   4.268   8.968  1.0188 -1.2649  0.1257
 5879SOL     OW29272   3.153   3.832   4.331 -0.5080  0.3180 -0.1647
 5879SOL    HW129273   3.225   3.865   4.383 -1.1813 -0.8408  1.5061
 5879SOL    HW229274   3.151   3.899   4.262  0.4492  0.9070  0.3935
 5880SOL     OW29275   1.917   0.316   8.795  0.1969 -0.2489 -0.4603
 5880SOL    HW129276   2.010   0.334   8.807  0.4924 -2.2019  0.0542
 5880SOL    HW229277   1.906   0.255   8.868  0.6706 -0.2432 -0.3878
 5881SOL     OW29278   1.917   2.597   3.115 -0.0966  0.1855  0.3919
 5881SOL    HW129279   1.900   2.688   3.137 -0.6309 -0.3103  2.0139
 5881SOL    HW229280   1.829   2.576   3.084 -0.6852  0.9059  1.5676
 5882SOL     OW29281   2.885   1.557   9.059 -0.6740  0.3547  0.1825
 5882SOL    HW129282   2.947   1.499   9.016  0.1895  0.7622  0.8692
 5882SOL    HW229283   2.885   1.513   9.144  1.5914  0.6765  0.3521
 5883SOL     OW29284   4.110   1.005  16.432  0.3168  0.5454 -0.3680
 5883SOL    HW129285   4.026   1.050  16.419 -1.1644 -1.8961  0.6534
 5883SOL    HW229286   4.089   0.912  16.443  4.0610 -0.1846  0.3846
 5884SOL     OW29287   4.012   2.395   3.360 -0.1425 -0.5464 -0.6135
 5884SOL    HW129288   3.949   2.349   3.304 -0.0528 -0.7732 -0.5307
 5884SOL    HW229289   3.965   2.391   3.443  1.5975  1.5702  0.4655
 5885SOL     OW29290   1.921   2.155   8.220 -0.3294 -0.1174 -0.8857
 5885SOL    HW129291   1.951   2.137   8.309  0.5587  3.9604 -0.3736
 5885SOL    HW229292   1.880   2.240   8.234  3.3052  1.2779  1.2592
 5886SOL     OW29293   2.271   2.878  13.850  0.0251  0.0118 -0.0190
 5886SOL    HW129294   2.348   2.828  13.876  1.7953  1.2672 -2.7393
 5886SOL    HW229295   2.311   2.965  13.840 -0.5118  0.3659  0.9267
 5887SOL     OW29296   0.981   3.806  11.983  0.0999  0.1474 -0.2779
 5887SOL    HW129297   1.021   3.874  11.930  0.3996  0.8474  0.8442
 5887SOL    HW229298   0.927   3.766  11.915  0.0029 -0.3378  0.0814
 5888SOL     OW29299   0.008   1.383   5.827  0.4056  0.1890 -0.1545
 5888SOL    HW129300   0.085   1.408   5.777  0.9072 -1.1040 -0.0354
 5888SOL    HW229301   0.005   1.456   5.889 -0.3659  0.1411 -0.1402
 5889SOL     OW29302   1.742   2.795   8.399  0.6090 -0.3064 -0.4056
 5889SOL    HW129303   1.825   2.841   8.387  0.8073 -0.5191  0.1501
 5889SOL    HW229304   1.680   2.864   8.375  0.9391 -1.0356 -3.4348
 5890SOL     OW29305   3.746   2.352   7.608  0.4546 -0.1651 -0.3604
 5890SOL    HW129306   3.784   2.273   7.647 -0.6795 -1.8250 -2.5850
 5890SOL    HW229307   3.815   2.375   7.545  1.1276 -1.0327  0.0497
 5891SOL     OW29308   4.157   2.400   8.355 -0.1208 -0.0679 -0.0881
 5891SOL    HW129309   4.088   2.345   8.317 -0.1556  0.6757 -1.0932
 5891SOL    HW229310   4.183   2.448   8.276 -1.1800 -0.6866 -0.8150
 5892SOL     OW29311   3.062   2.374   2.864  0.2495 -0.2011 -0.2570
 5892SOL    HW129312   3.009   2.407   2.936  0.5564  0.1671 -0.2012
 5892SOL    HW229313   3.007   2.304   2.828 -0.7328 -0.1162  1.0984
 5893SOL     OW29314   2.908   1.996   3.765  0.1158 -0.0925 -0.6702
 5893SOL    HW129315   2.868   1.933   3.705 -2.3620 -0.5630  1.4435
 5893SOL    HW229316   3.000   1.984   3.741 -0.2189 -2.8866 -0.5517
 5894SOL     OW29317   2.608   4.729   0.844  0.4920  0.6656  0.3848
 5894SOL    HW129318   2.698   4.716   0.876  1.0464  0.1585 -1.3789
 5894SOL    HW229319   2.583   0.058   0.910  0.9301  2.5864 -1.3172
 5895SOL     OW29320   1.156   1.378  13.218 -0.2805 -0.5638 -0.2953
 5895SOL    HW129321   1.178   1.285  13.220 -0.4800 -0.6280 -0.9986
 5895SOL    HW229322   1.135   1.393  13.126  0.6224  2.2547 -0.0546
 5896SOL     OW29323   3.095   2.242   6.879  0.3342 -0.8617 -0.3230
 5896SOL    HW129324   3.001   2.228   6.889 -0.1137  2.3386 -0.0594
 5896SOL    HW229325   3.096   2.310   6.946  2.5379  0.2075 -1.4707
 5897SOL     OW29326   3.396   4.298  13.972  0.0246  0.1819 -0.6308
 5897SOL    HW129327   3.346   4.320  13.893  0.9262 -0.1802 -1.3045
 5897SOL    HW229328   3.450   4.374  13.992 -0.9831 -0.5169  4.7436
 5898SOL     OW29329   2.577   0.175   5.932  0.3966  0.6274  0.5755
 5898SOL    HW129330   2.658   0.222   5.916  1.3951 -0.6482  1.9095
 5898SOL    HW229331   2.611   0.095   5.973 -1.2022 -0.4110 -0.1092
 5899SOL     OW29332   0.939   2.900   9.297  0.4535 -0.4017 -0.1912
 5899SOL    HW129333   0.960   2.923   9.206 -0.0537  0.5845 -0.0572
 5899SOL    HW229334   1.007   2.952   9.340 -1.7189  1.7840  0.5441
 5900SOL     OW29335   4.713   3.223   1.825 -0.3685 -0.1505  0.4247
 5900SOL    HW129336   0.043   3.262   1.768 -1.6200  1.5528  0.1459
 5900SOL    HW229337   4.665   3.162   1.768 -0.2227  1.5454 -1.5413
 5901SOL     OW29338   4.262   4.078  14.700 -0.2844  0.4807  0.0987
 5901SOL    HW129339   4.182   4.047  14.656  1.1174 -3.0272  0.0359
 5901SOL    HW229340   4.325   4.076  14.628 -0.6130 -2.3810 -0.1355
 5902SOL     OW29341   1.211   1.275   1.488 -0.1262 -1.1659 -0.4525
 5902SOL    HW129342   1.152   1.205   1.462 -1.4062 -0.3835  0.3420
 5902SOL    HW229343   1.294   1.227   1.487 -0.7853 -2.3265  0.5147
 5903SOL     OW29344   4.655   3.299   8.460  0.5546  0.1593  0.2284
 5903SOL    HW129345   4.716   3.340   8.399 -0.7076  0.8036 -0.6254
 5903SOL    HW229346   4.572   3.330   8.421  0.9358 -0.2437 -0.8960
 5904SOL     OW29347   1.867   4.117   0.950  0.3333 -0.3318 -0.0526
 5904SOL    HW129348   1.806   4.191   0.946  2.6004  1.4854 -1.2746
 5904SOL    HW229349   1.918   4.127   0.870  2.7840 -0.9762  1.4302
 5905SOL     OW29350   1.759   1.114  16.257  0.3538 -0.5541  0.2778
 5905SOL    HW129351   1.736   1.200  16.221  1.3805  0.4120  1.8936
 5905SOL    HW229352   1.670   1.089  16.283 -0.5671  3.8790  1.4190
 5906SOL     OW29353   1.952   4.140  11.060  0.3763  0.1505 -0.5252
 5906SOL    HW129354   1.981   4.230  11.073  0.2198  0.0693  0.3387
 5906SOL    HW229355   1.862   4.148  11.028 -0.0544 -1.5416  0.3009
 5907SOL     OW29356   3.047   0.795  13.072  0.1289  0.0088 -0.0039
 5907SOL    HW129357   2.977   0.797  13.005  1.9847 -0.8340 -1.9653
 5907SOL    HW229358   3.117   0.836  13.023 -0.7562 -0.1357 -1.4084
 5908SOL     OW29359   0.411   0.201   2.657 -0.2430  0.4297 -0.0508
 5908SOL    HW129360   0.500   0.165   2.663 -0.7117 -0.9247 -1.3472
 5908SOL    HW229361   0.355   0.140   2.706  0.6092  0.7241  1.2932
 5909SOL     OW29362   1.820   1.476   7.868  0.0575 -0.0555 -0.1414
 5909SOL    HW129363   1.790   1.398   7.820 -0.6604 -0.5270  1.0672
 5909SOL    HW229364   1.823   1.539   7.797  0.8416 -0.3614 -0.3809
 5910SOL     OW29365   0.052   2.903   5.860 -0.4319 -0.0232 -0.1571
 5910SOL    HW129366   4.728   2.914   5.786 -0.8489 -0.1924  0.1593
 5910SOL    HW229367   0.052   2.989   5.902 -0.5832 -0.7381  1.2975
 5911SOL     OW29368   1.629   3.976   3.925  0.1746  0.0587 -0.0950
 5911SOL    HW129369   1.641   3.959   3.831 -1.0044  2.8629 -0.7792
 5911SOL    HW229370   1.706   4.029   3.946  0.9116 -1.8067  1.8958
 5912SOL     OW29371   2.301   3.494  11.550 -0.0398 -0.1367 -0.2032
 5912SOL    HW129372   2.241   3.478  11.477  1.3330 -3.1194 -0.7130
 5912SOL    HW229373   2.377   3.456  11.506 -0.8071 -2.1061  0.1585
 5913SOL     OW29374   1.482   1.703   7.552  0.8333 -0.5872  0.3545
 5913SOL    HW129375   1.512   1.666   7.469  3.0156 -0.3426  1.0446
 5913SOL    HW229376   1.444   1.623   7.590  0.8925 -0.1026  1.4273
 5914SOL     OW29377   2.281   0.117   5.147  0.1567 -0.2647  0.3772
 5914SOL    HW129378   2.250   0.062   5.219 -0.3390 -1.2260 -0.5603
 5914SOL    HW229379   2.204   0.129   5.091  0.2765  0.1197  0.2977
 5915SOL     OW29380   2.530   0.212   1.006  0.0275  0.5595  0.3035
 5915SOL    HW129381   2.473   0.288   0.995  1.2095  1.4892  0.6079
 5915SOL    HW229382   2.603   0.253   1.053  0.7870 -0.6397  0.1555
 5916SOL     OW29383   0.059   3.165   5.918 -0.0362 -0.1446  0.9828
 5916SOL    HW129384   4.724   3.179   5.981 -1.7061 -0.1569 -0.8908
 5916SOL    HW229385   0.041   3.212   5.837 -1.5927 -1.0881  0.7754
 5917SOL     OW29386   1.955   1.624   9.116  0.4347 -0.0749 -0.0267
 5917SOL    HW129387   1.902   1.549   9.142 -0.6778  0.7240  0.0257
 5917SOL    HW229388   1.926   1.687   9.182 -1.7847  0.6207 -1.6595
 5918SOL     OW29389   3.429   0.247  16.182  0.5965  0.1840  0.0977
 5918SOL    HW129390   3.345   0.230  16.224  1.8632  1.5010  3.1487
 5918SOL    HW229391   3.481   0.253  16.262 -1.1984  2.2172  1.1010
 5919SOL     OW29392   4.070   2.250   6.919 -0.4292  0.4957 -0.2335
 5919SOL    HW129393   4.002   2.258   6.986 -1.1236 -2.0571 -0.6360
 5919SOL    HW229394   4.015   2.196   6.863 -1.2626 -0.5733  1.6252
 5920SOL     OW29395   2.213   3.863  11.445  0.2289  0.0153  0.2963
 5920SOL    HW129396   2.281   3.846  11.379 -0.0747  0.3052 -0.0931
 5920SOL    HW229397   2.268   3.832  11.517 -1.0548 -2.0999  0.3848
 5921SOL     OW29398   0.724   3.134   9.100  0.1543 -0.0147 -0.1968
 5921SOL    HW129399   0.787   3.184   9.152 -0.9945  0.8831  0.3227
 5921SOL    HW229400   0.723   3.194   9.027 -2.9728  1.3161  0.9403
 5922SOL     OW29401   1.213   3.169   4.334  0.2907 -0.5963 -0.2763
 5922SOL    HW129402   1.199   3.075   4.346  0.6270 -0.6144 -0.0355
 5922SOL    HW229403   1.190   3.175   4.242  0.2306 -0.8289 -0.2764
 5923SOL     OW29404   1.763   4.344   7.735 -0.5926 -0.6581  0.0270
 5923SOL    HW129405   1.722   4.407   7.795  1.6271 -1.7039  2.6214
 5923SOL    HW229406   1.788   4.270   7.789  2.1977 -0.9888 -1.7021
 5924SOL     OW29407   4.638   0.378   5.296  0.6213  0.2418  0.5805
 5924SOL    HW129408   4.657   0.472   5.296 -1.6106  0.6866  1.4388
 5924SOL    HW229409   4.726   0.349   5.318 -0.0003 -1.6727  0.4991
 5925SOL     OW29410   1.734   1.539   2.811  0.2538  0.4086  0.4400
 5925SOL    HW129411   1.751   1.633   2.809  1.4018  0.1799 -0.6914
 5925SOL    HW229412   1.820   1.507   2.837 -0.1980 -0.1392  1.2530
 5926SOL     OW29413   3.419   3.164  12.775 -0.1442  0.1965 -0.3161
 5926SOL    HW129414   3.374   3.231  12.826 -1.7004 -1.1047  0.0069
 5926SOL    HW229415   3.509   3.167  12.808 -0.4665  0.1307  0.5468
 5927SOL     OW29416   2.391   2.810   7.208  0.1410 -0.2775  0.1835
 5927SOL    HW129417   2.306   2.823   7.249 -0.3644 -3.9185  0.2190
 5927SOL    HW229418   2.433   2.773   7.285  0.9936  0.7403  0.2199
 5928SOL     OW29419   4.620   1.288  17.027  0.3299 -0.2734  0.1726
 5928SOL    HW129420   4.614   1.253  16.938 -0.1577  3.3918 -1.2257
 5928SOL    HW229421   4.708   1.262  17.054  0.5629 -0.6350 -0.9286
 5929SOL     OW29422   0.183   2.973   8.577 -0.1898 -0.1335  0.4470
 5929SOL    HW129423   0.098   3.012   8.595 -0.6292 -0.2124 -1.4748
 5929SOL    HW229424   0.166   2.881   8.598  1.0971 -0.0641  1.8087
 5930SOL     OW29425   0.637   1.806   5.595  0.1186  0.0061 -0.2791
 5930SOL    HW129426   0.673   1.865   5.661  1.2773 -1.1079  0.0776
 5930SOL    HW229427   0.578   1.869   5.553 -0.9134 -1.8254 -1.6082
 5931SOL     OW29428   3.297   1.350   5.588 -0.4614  0.2173 -0.0403
 5931SOL    HW129429   3.296   1.254   5.588 -1.4991  0.2261 -0.3313
 5931SOL    HW229430   3.365   1.369   5.523  0.5535  0.0021  0.9603
 5932SOL     OW29431   3.145   0.676  11.721 -0.0907 -0.8337  0.3005
 5932SOL    HW129432   3.213   0.617  11.755  0.5091  1.0479  2.3876
 5932SOL    HW229433   3.168   0.753  11.772 -1.8575  2.4689 -3.9191
 5933SOL     OW29434   1.680   4.348   1.997 -0.6970  0.1739  0.2375
 5933SOL    HW129435   1.765   4.385   2.021  0.0448 -1.1684 -0.3042
 5933SOL    HW229436   1.664   4.294   2.074 -1.8815 -0.9563 -0.8091
 5934SOL     OW29437   0.126   1.495   5.478 -0.2283 -0.2896 -0.5858
 5934SOL    HW129438   0.062   1.558   5.445  2.4467  2.5318 -0.3846
 5934SOL    HW229439   0.100   1.415   5.433  0.4632  0.1156 -1.7015
 5935SOL     OW29440   3.507   1.006   6.052  0.3795  0.0543 -0.1721
 5935SOL    HW129441   3.425   1.037   6.090  0.7814 -0.5100  1.1648
 5935SOL    HW229442   3.503   1.064   5.976 -1.7897 -0.1471 -0.2048
 5936SOL     OW29443   3.680   2.718   4.464 -0.6455 -0.0741 -0.6786
 5936SOL    HW129444   3.737   2.795   4.477  2.0887 -1.9123 -1.7862
 5936SOL    HW229445   3.619   2.756   4.401 -0.9360  0.9742  0.2187
 5937SOL     OW29446   3.078   4.006   4.874  0.8987 -0.1269  0.0238
 5937SOL    HW129447   3.143   3.942   4.847  0.2084 -0.5192 -0.7044
 5937SOL    HW229448   3.110   4.042   4.957 -1.9814 -0.5559  1.3177
 5938SOL     OW29449   0.907   3.495  11.185 -0.2135 -0.3538 -0.3375
 5938SOL    HW129450   0.916   3.578  11.232 -0.4419 -1.0464  0.9386
 5938SOL    HW229451   0.986   3.502  11.133  0.0980 -0.7092  0.0932
 5939SOL     OW29452   0.267   2.154   8.318 -0.1858 -0.0188  0.1799
 5939SOL    HW129453   0.209   2.192   8.252  1.7969 -0.9989 -2.1330
 5939SOL    HW229454   0.344   2.181   8.269 -0.6088  2.3416  0.8095
 5940SOL     OW29455   3.274   1.113   7.668  0.8494  0.3607  0.7710
 5940SOL    HW129456   3.233   1.177   7.725 -1.0640  1.0104 -1.3289
 5940SOL    HW229457   3.347   1.082   7.721  0.3274 -0.4826  0.9865
 5941SOL     OW29458   0.011   1.592  16.610 -0.9713 -0.3668  0.2433
 5941SOL    HW129459   4.706   1.611  16.526 -0.0314  1.1376  0.1191
 5941SOL    HW229460   0.039   1.503  16.590  0.8470  0.2056  0.2928
 5942SOL     OW29461   4.308   3.716   2.999 -0.3294 -0.2084 -0.0788
 5942SOL    HW129462   4.264   3.800   3.010  0.5106  0.3221 -0.8304
 5942SOL    HW229463   4.312   3.680   3.088  0.4060 -3.4120 -1.4112
 5943SOL     OW29464   3.353   4.425   9.331 -0.4854 -0.2455 -0.1133
 5943SOL    HW129465   3.434   4.373   9.329  0.3140  0.9603  0.5723
 5943SOL    HW229466   3.312   4.392   9.252 -0.0662  0.0398 -0.4476
 5944SOL     OW29467   2.074   1.178   2.931 -0.0404 -0.2179  0.3865
 5944SOL    HW129468   2.140   1.205   2.867 -2.0638  1.1176 -1.1195
 5944SOL    HW229469   2.031   1.105   2.886  0.3451  0.8127 -1.6471
 5945SOL     OW29470   1.089   1.037   5.442 -0.4752 -0.7019 -0.1733
 5945SOL    HW129471   1.061   0.974   5.375 -1.5731  1.7945 -2.0785
 5945SOL    HW229472   1.172   1.062   5.401 -0.8710 -1.0742 -1.1964
 5946SOL     OW29473   0.513   0.993   2.199 -0.3903  0.0513  0.4871
 5946SOL    HW129474   0.425   0.995   2.236  0.7889  1.8425  3.1906
 5946SOL    HW229475   0.489   0.933   2.128  0.8551  1.0602 -0.7901
 5947SOL     OW29476   4.034   1.540   3.801 -0.0167  0.2245 -0.1072
 5947SOL    HW129477   4.117   1.586   3.805  0.0561  0.0454  0.5714
 5947SOL    HW229478   4.032   1.512   3.893 -1.8019 -0.1540 -0.2487
 5948SOL     OW29479   3.681   4.710  14.290 -0.2186  0.2550 -0.6833
 5948SOL    HW129480   3.617   0.045  14.299 -1.4241 -0.7729 -1.1862
 5948SOL    HW229481   3.733   0.019  14.223 -0.6043  0.7303 -0.6667
 5949SOL     OW29482   0.016   4.080  17.719 -0.2223  0.2741  0.0348
 5949SOL    HW129483   4.731   4.066   0.068 -0.5963  0.3578 -0.0356
 5949SOL    HW229484   4.670   4.069  17.670 -0.5665 -2.6753  1.3131
 5950SOL     OW29485   4.455   1.833   0.449 -0.0509  0.0260 -0.1580
 5950SOL    HW129486   4.494   1.755   0.488  0.3432 -0.2986 -1.1974
 5950SOL    HW229487   4.531   1.888   0.431  1.6739 -2.5372 -0.7501
 5951SOL     OW29488   2.458   3.599   2.944  0.0492  0.0930 -0.2011
 5951SOL    HW129489   2.403   3.657   2.998 -3.4900 -1.9044 -1.6466
 5951SOL    HW229490   2.436   3.515   2.986  1.4169  0.7201  1.7879
 5952SOL     OW29491   1.766   0.800   1.091  0.0757  0.4471  0.0557
 5952SOL    HW129492   1.698   0.865   1.109 -0.6179  0.1910 -1.6898
 5952SOL    HW229493   1.737   0.738   1.159  1.0669  1.1403  1.0992
 5953SOL     OW29494   0.439   4.226  15.464  0.0230 -0.4680 -0.2378
 5953SOL    HW129495   0.410   4.317  15.467  0.8975 -0.2630  2.6731
 5953SOL    HW229496   0.522   4.239  15.511  0.2941 -0.7201 -0.6473
 5954SOL     OW29497   3.289   2.248  12.989  0.0377 -0.0670 -0.2686
 5954SOL    HW129498   3.233   2.237  12.912 -0.7678 -0.4594  0.3724
 5954SOL    HW229499   3.331   2.162  12.982 -0.7525 -0.4987  0.4513
 5955SOL     OW29500   2.859   4.108   3.777  0.2743 -0.0630  0.0598
 5955SOL    HW129501   2.920   4.127   3.848 -1.2336  0.6115  1.1862
 5955SOL    HW229502   2.776   4.115   3.825 -0.8008  1.0699 -1.9525
 5956SOL     OW29503   0.608   1.305  12.505  0.2253  0.0202  0.5578
 5956SOL    HW129504   0.681   1.295  12.566 -0.9822  0.8959  2.1838
 5956SOL    HW229505   0.543   1.306  12.576 -0.3538 -2.6915  0.0693
 5957SOL     OW29506   1.570   0.149  16.084  0.1289 -0.7327  0.2843
 5957SOL    HW129507   1.652   0.194  16.106  0.5796 -1.8521  0.8738
 5957SOL    HW229508   1.516   0.226  16.065 -1.0906 -1.6785 -0.0615
 5958SOL     OW29509   2.447   1.858   7.900 -0.8165 -0.4866  0.0420
 5958SOL    HW129510   2.380   1.924   7.878  1.2401  1.2295 -1.0248
 5958SOL    HW229511   2.526   1.909   7.884 -1.2224 -0.7943 -2.8233
 5959SOL     OW29512   1.258   1.580   3.571  0.4125  0.2971 -0.1747
 5959SOL    HW129513   1.274   1.544   3.484 -0.7669 -0.4975 -0.0613
 5959SOL    HW229514   1.337   1.557   3.619  1.1573  1.7811 -0.7060
 5960SOL     OW29515   0.427   1.301   4.704  0.1745 -0.4498 -0.2645
 5960SOL    HW129516   0.431   1.212   4.739 -0.7361  0.9230  3.3684
 5960SOL    HW229517   0.335   1.295   4.679 -0.2237  1.9235  0.6286
 5961SOL     OW29518   1.443   3.882   3.124 -0.0202 -0.3426 -0.0758
 5961SOL    HW129519   1.472   3.932   3.048  1.7100  0.0611  0.8226
 5961SOL    HW229520   1.350   3.883   3.104 -0.1708  1.4117  0.7065
 5962SOL     OW29521   4.544   0.895  13.945 -0.3784  0.0385  0.6582
 5962SOL    HW129522   4.508   0.816  13.986  0.0163 -1.0574 -1.0847
 5962SOL    HW229523   4.542   0.872  13.852  2.6217 -1.8256  1.0404
 5963SOL     OW29524   1.021   0.617   4.263  0.5036  0.0646  0.1282
 5963SOL    HW129525   1.068   0.641   4.342 -0.2773  0.6119  0.4320
 5963SOL    HW229526   1.008   0.522   4.266  1.8130 -0.0236  2.5562
 5964SOL     OW29527   3.592   2.257   1.902 -0.0428  0.4260 -0.2824
 5964SOL    HW129528   3.603   2.240   1.996 -0.3646  1.1036 -0.1239
 5964SOL    HW229529   3.505   2.298   1.905 -0.1618  0.2329 -0.9978
 5965SOL     OW29530   3.510   4.101   9.126  0.3290  0.1443 -0.5850
 5965SOL    HW129531   3.591   4.095   9.074  0.2609  3.5641 -1.0818
 5965SOL    HW229532   3.525   4.178   9.181  1.9022 -0.0622 -0.7092
 5966SOL     OW29533   1.101   1.735   5.809 -0.2757  0.4700 -0.0538
 5966SOL    HW129534   1.156   1.741   5.730 -0.8492 -0.5757 -0.5187
 5966SOL    HW229535   1.132   1.654   5.849 -0.1564  0.7596  0.4498
 5967SOL     OW29536   3.608   1.301   7.943 -0.3629  0.3837 -0.1863
 5967SOL    HW129537   3.561   1.310   8.026  0.2953 -1.3468  0.3789
 5967SOL    HW229538   3.666   1.377   7.947 -0.2572  0.2638  0.5673
 5968SOL     OW29539   2.336   0.321  14.200  0.0043 -0.5030 -0.4476
 5968SOL    HW129540   2.422   0.283  14.216  1.1732  2.6077  0.5859
 5968SOL    HW229541   2.300   0.244  14.156 -1.5356 -0.0551  0.0291
 5969SOL     OW29542   1.375   1.172  12.577  0.1100  0.6741 -0.0547
 5969SOL    HW129543   1.419   1.087  12.586  3.3442  2.0787 -2.7277
 5969SOL    HW229544   1.402   1.190  12.487  0.5902  1.6626  0.2900
 5970SOL     OW29545   1.751   2.221   3.118  0.2598 -0.4188  0.4533
 5970SOL    HW129546   1.772   2.310   3.146  2.3288 -0.4975 -0.8093
 5970SOL    HW229547   1.790   2.211   3.031 -0.4156 -0.2286  0.1291
 5971SOL     OW29548   0.890   3.630   7.431 -0.1304  0.1884  0.3547
 5971SOL    HW129549   0.813   3.593   7.473  0.7857 -2.3379 -0.2085
 5971SOL    HW229550   0.938   3.678   7.499 -0.6349  0.3785  0.5761
 5972SOL     OW29551   0.353   0.004  14.918 -0.3943  0.2640  0.1818
 5972SOL    HW129552   0.267   0.032  14.952  0.7321  3.6986  0.2349
 5972SOL    HW229553   0.343   4.645  14.917  2.2582  0.0126 -0.8361
 5973SOL     OW29554   4.620   0.674   7.571  0.0658 -0.2244 -0.2767
 5973SOL    HW129555   4.546   0.680   7.511  1.4187  1.5640 -1.7743
 5973SOL    HW229556   4.692   0.642   7.516  0.3549  1.5209 -0.9080
 5974SOL     OW29557   3.566   3.905   4.560  0.0786 -0.2365 -0.2026
 5974SOL    HW129558   3.484   3.955   4.561  0.5750  0.5759  0.5296
 5974SOL    HW229559   3.631   3.971   4.585  1.3877 -1.5825 -0.0695
 5975SOL     OW29560   0.108   2.598   9.250  0.4655 -0.3844  0.4990
 5975SOL    HW129561   0.059   2.634   9.324 -1.9737 -0.2074 -1.2371
 5975SOL    HW229562   0.196   2.612   9.285  0.6004  1.4461 -0.5875
 5976SOL     OW29563   2.122   4.302   0.075  0.4819 -0.2359 -0.0182
 5976SOL    HW129564   2.038   4.275   0.039  1.2924 -0.9444 -1.3792
 5976SOL    HW229565   2.100   4.354   0.152  1.7448  0.1338  0.1013
 5977SOL     OW29566   0.746   0.953  13.381  0.2037  0.4084  0.0089
 5977SOL    HW129567   0.813   1.011  13.346  0.6095 -0.7131 -1.0469
 5977SOL    HW229568   0.807   0.904  13.436 -0.2232 -2.5570 -2.1400
 5978SOL     OW29569   4.482   2.997  11.967 -0.3827 -0.8745  0.3750
 5978SOL    HW129570   4.402   3.035  11.932  1.8827  1.1099 -2.6079
 5978SOL    HW229571   4.470   3.014  12.060 -0.3084  1.4885 -0.0484
 5979SOL     OW29572   1.842   0.983   0.756 -0.7151  0.1353 -0.2352
 5979SOL    HW129573   1.845   1.053   0.691  0.7510  0.3110  0.0210
 5979SOL    HW229574   1.766   1.013   0.805  1.5115  1.2569  2.5088
 5980SOL     OW29575   1.308   0.135   1.700  0.5549  0.5867 -0.2098
 5980SOL    HW129576   1.214   0.146   1.715  0.4755  0.1234 -0.3517
 5980SOL    HW229577   1.317   0.176   1.614 -0.0640  2.2075  0.4921
 5981SOL     OW29578   0.925   0.965   8.026  0.0085  0.4369  0.7987
 5981SOL    HW129579   0.878   1.035   7.981 -0.4871  0.8582  1.9721
 5981SOL    HW229580   1.009   1.001   8.055 -0.9890  1.2762  2.6645
 5982SOL     OW29581   2.233   0.485   4.377  0.1370 -0.5839  0.3513
 5982SOL    HW129582   2.154   0.481   4.323  1.1825 -0.3123 -1.2002
 5982SOL    HW229583   2.282   0.410   4.345  0.1244 -1.2435  1.8911
 5983SOL     OW29584   1.303   4.311   5.656 -0.3773  0.6390 -1.3270
 5983SOL    HW129585   1.243   4.267   5.716  0.8529 -0.6906 -1.0723
 5983SOL    HW229586   1.346   4.230   5.629 -0.4733  0.9437 -2.3705
 5984SOL     OW29587   1.610   0.346   9.758  0.1065 -0.5969 -0.1247
 5984SOL    HW129588   1.591   0.331   9.851  1.8603  1.2947  0.5569
 5984SOL    HW229589   1.545   0.293   9.713 -0.7287 -0.0626  0.4590
 5985SOL     OW29590   3.205   1.438   9.704  0.3089 -0.1040  0.6294
 5985SOL    HW129591   3.284   1.459   9.655 -1.2499 -0.9175 -2.2655
 5985SOL    HW229592   3.247   1.438   9.790 -0.9300  2.4148  1.2387
 5986SOL     OW29593   2.856   2.284   4.363  0.6300  0.3912  0.2976
 5986SOL    HW129594   2.882   2.321   4.279 -1.0705  4.6201  1.6206
 5986SOL    HW229595   2.918   2.324   4.424  0.1439  1.5994 -0.0057
 5987SOL     OW29596   2.474   1.692   2.342 -1.1424 -0.1195 -0.4197
 5987SOL    HW129597   2.381   1.679   2.322 -1.5481  0.5027  1.1088
 5987SOL    HW229598   2.470   1.722   2.433 -3.1749 -0.2933 -0.4538
 5988SOL     OW29599   0.907   1.161   5.614  0.0605 -0.4275  0.6194
 5988SOL    HW129600   0.987   1.185   5.662  1.1350 -1.4335 -0.6553
 5988SOL    HW229601   0.950   1.095   5.559  0.1278  0.7397 -0.7106
 5989SOL     OW29602   3.649   3.078   4.926  0.6102  0.2445  0.6333
 5989SOL    HW129603   3.656   3.053   4.834  1.6354  2.0510  0.2260
 5989SOL    HW229604   3.680   2.995   4.962  1.7179  0.2683 -0.2341
 5990SOL     OW29605   1.231   0.297  16.240 -0.7036 -0.7208  0.0818
 5990SOL    HW129606   1.206   0.291  16.148 -1.6707  0.1338  0.2928
 5990SOL    HW229607   1.180   0.231  16.288 -1.3305 -1.2014 -1.2178
 5991SOL     OW29608   1.033   1.631   9.468  0.6800  0.7284 -0.5746
 5991SOL    HW129609   0.962   1.688   9.439  1.1841  1.0999 -1.0787
 5991SOL    HW229610   1.028   1.648   9.562 -2.0784  1.0942 -0.7953
 5992SOL     OW29611   1.127   1.667  17.197  0.4103  0.5015  0.1337
 5992SOL    HW129612   1.052   1.717  17.231 -0.5466 -0.4188 -0.6336
 5992SOL    HW229613   1.204   1.689  17.249  0.3633 -4.0147  2.1226
 5993SOL     OW29614   2.583   3.604   5.646  0.0887 -0.4566  0.4229
 5993SOL    HW129615   2.520   3.546   5.603  1.4102 -0.5493 -1.3935
 5993SOL    HW229616   2.526   3.671   5.684  0.3636 -0.2949  0.5479
 5994SOL     OW29617   2.945   4.190   7.840 -0.3668  0.6409  0.1570
 5994SOL    HW129618   3.010   4.133   7.799  0.7511  1.1893  1.1888
 5994SOL    HW229619   2.972   4.183   7.931 -0.6027 -2.4071  0.0261
 5995SOL     OW29620   3.438   0.436   6.057  0.0058 -0.3828 -0.3584
 5995SOL    HW129621   3.489   0.357   6.068  0.9029 -0.1683 -2.8993
 5995SOL    HW229622   3.420   0.427   5.963  0.7618  0.3677 -0.5774
 5996SOL     OW29623   4.421   0.645   7.745 -0.1153 -0.0250  0.1959
 5996SOL    HW129624   4.495   0.667   7.688  0.7845  0.2493  1.4848
 5996SOL    HW229625   4.402   0.728   7.788 -1.3719 -1.2865  2.0680
 5997SOL     OW29626   2.040   1.518   9.629 -0.5383  0.4332 -0.2774
 5997SOL    HW129627   2.058   1.432   9.668  1.1504  0.4882 -0.9015
 5997SOL    HW229628   1.957   1.501   9.585  1.4538 -2.4893 -2.8971
 5998SOL     OW29629   2.938   0.681   4.532 -0.3853 -0.3765 -0.0193
 5998SOL    HW129630   2.928   0.771   4.561 -0.8475 -0.1795 -0.8023
 5998SOL    HW229631   3.034   0.674   4.539 -0.5018 -2.9015 -0.8079
 5999SOL     OW29632   1.168   1.228   7.431 -0.2198 -0.4584  0.2163
 5999SOL    HW129633   1.216   1.308   7.408  0.1529 -0.5481  0.6789
 5999SOL    HW229634   1.119   1.258   7.507 -1.0119  1.9330 -1.2327
 6000SOL     OW29635   1.768   0.357   3.168  0.0604 -0.3131  0.3123
 6000SOL    HW129636   1.747   0.448   3.145  0.5680 -0.0184  1.0165
 6000SOL    HW229637   1.863   0.369   3.166  0.0312 -0.2488 -1.3480
 6001SOL     OW29638   2.513   0.973   5.769 -0.0364  0.3150 -0.3442
 6001SOL    HW129639   2.551   1.057   5.792  0.3272  0.5342 -1.7554
 6001SOL    HW229640   2.592   0.920   5.784 -0.8538 -0.7766  0.1292
 6002SOL     OW29641   1.793   3.984   2.666  0.1640  0.1034  0.2688
 6002SOL    HW129642   1.822   3.981   2.575  0.8465 -1.5566  0.5428
 6002SOL    HW229643   1.747   4.068   2.669  0.2270  0.1423  0.1549
 6003SOL     OW29644   1.714   1.860  16.731 -0.3956  0.0696 -0.2959
 6003SOL    HW129645   1.791   1.916  16.730  0.2189 -0.7813 -0.0842
 6003SOL    HW229646   1.640   1.905  16.771 -0.4775  0.3184 -0.7255
 6004SOL     OW29647   3.385   0.618  11.499 -0.2907 -0.0548 -0.2155
 6004SOL    HW129648   3.465   0.566  11.502  0.6472  1.4549  0.9166
 6004SOL    HW229649   3.322   0.548  11.514 -0.3224 -0.1477 -0.7811
 6005SOL     OW29650   1.044   0.671   6.140  0.3959 -0.2099 -0.2964
 6005SOL    HW129651   1.056   0.719   6.222  0.1352 -2.3077  0.9710
 6005SOL    HW229652   1.128   0.679   6.095  0.0412 -0.8602 -1.0719
 6006SOL     OW29653   2.724   3.493   8.371 -0.0889  0.1938 -0.0512
 6006SOL    HW129654   2.760   3.581   8.369 -3.3183  1.5873  3.4031
 6006SOL    HW229655   2.725   3.473   8.464  0.1776 -0.1376 -0.1252
 6007SOL     OW29656   4.396   1.697   4.527 -0.5833 -0.7020  0.1013
 6007SOL    HW129657   4.327   1.647   4.569  0.5900 -1.5831  0.9935
 6007SOL    HW229658   4.437   1.712   4.612  0.3956  1.8583 -0.8058
 6008SOL     OW29659   1.663   3.410   1.886  0.3607  0.0648 -0.2489
 6008SOL    HW129660   1.606   3.363   1.825 -1.2210 -1.8510  2.6703
 6008SOL    HW229661   1.610   3.477   1.928 -0.1776 -0.6341  0.1924
 6009SOL     OW29662   3.022   2.644   9.734 -0.1629 -0.3335 -0.0389
 6009SOL    HW129663   2.946   2.701   9.751 -0.1792  0.1465 -1.7517
 6009SOL    HW229664   3.090   2.687   9.786 -0.8682  1.2074 -0.3638
 6010SOL     OW29665   3.010   4.179  11.524  0.5465 -0.2841 -0.7744
 6010SOL    HW129666   3.036   4.263  11.485  1.2438 -0.0401  0.2053
 6010SOL    HW229667   3.051   4.121  11.460 -0.7501 -2.5357  0.4333
 6011SOL     OW29668   3.566   0.357  13.040 -0.8586  0.5864  0.0385
 6011SOL    HW129669   3.517   0.436  13.020 -0.6835  0.7295  0.1841
 6011SOL    HW229670   3.501   0.288  13.023 -2.5224  1.8616  1.2227
 6012SOL     OW29671   2.864   1.314   2.381  0.2858  0.0145 -0.4425
 6012SOL    HW129672   2.958   1.333   2.370  0.5216 -2.5505 -2.7933
 6012SOL    HW229673   2.833   1.404   2.394 -0.5867 -0.1789 -1.2322
 6013SOL     OW29674   4.693   3.624   1.847 -0.0284  0.5911  0.0447
 6013SOL    HW129675   4.640   3.552   1.882  1.4321 -0.3539  0.2770
 6013SOL    HW229676   4.640   3.698   1.875  0.5784 -0.1843  3.2542
 6014SOL     OW29677   0.476   0.995  14.784 -0.1392  0.0967 -0.1545
 6014SOL    HW129678   0.530   1.048  14.726  1.3374 -0.4544  0.7301
 6014SOL    HW229679   0.415   0.951  14.724 -0.1776  1.4825 -1.1191
 6015SOL     OW29680   0.242   1.708   5.094  0.1830  0.4429 -0.3618
 6015SOL    HW129681   0.251   1.694   5.000  1.1332 -1.1292 -0.0462
 6015SOL    HW229682   0.176   1.640   5.108  2.0930 -1.0280  1.4595
 6016SOL     OW29683   4.365   2.867   7.117  0.3157 -0.4626  0.0041
 6016SOL    HW129684   4.297   2.820   7.070  0.4220 -0.7210  0.1088
 6016SOL    HW229685   4.438   2.865   7.055  2.0709 -0.2745  2.0683
 6017SOL     OW29686   2.028   1.141   2.579  0.3756 -0.7248 -0.8160
 6017SOL    HW129687   2.112   1.165   2.620 -1.0109 -0.5504  1.8962
 6017SOL    HW229688   1.973   1.110   2.651  1.0272 -2.8222 -1.2164
 6018SOL     OW29689   1.851   0.483   4.024  0.4548 -0.0311 -0.2537
 6018SOL    HW129690   1.870   0.410   3.964 -0.1590  0.5989 -1.2056
 6018SOL    HW229691   1.756   0.473   4.028  0.3894  0.8113  0.3186
 6019SOL     OW29692   4.637   1.298   6.931 -0.3878  0.3555 -0.0010
 6019SOL    HW129693   4.578   1.363   6.970  0.9939  3.8145 -3.5479
 6019SOL    HW229694   4.595   1.288   6.845  3.2793  0.6010 -1.8440
 6020SOL     OW29695   2.636   3.688  10.950 -0.3000  0.2523  0.3287
 6020SOL    HW129696   2.633   3.754  11.019 -0.2203 -0.1463  0.7141
 6020SOL    HW229697   2.713   3.642  10.982 -1.5227 -1.9846  0.0806
 6021SOL     OW29698   2.402   1.386   4.532  0.0566 -0.2335  0.1950
 6021SOL    HW129699   2.481   1.346   4.495 -0.8445 -0.6269 -1.3250
 6021SOL    HW229700   2.438   1.473   4.551 -1.2284  0.4577 -0.4626
 6022SOL     OW29701   3.249   3.854   3.617  0.0130  0.5357 -0.0106
 6022SOL    HW129702   3.271   3.766   3.648 -0.5902  0.2791 -0.3032
 6022SOL    HW229703   3.171   3.817   3.575  0.7939 -0.2500 -0.7769
 6023SOL     OW29704   0.239   1.192  10.409 -0.4692  0.4869  0.2417
 6023SOL    HW129705   0.235   1.166  10.501  3.0784 -1.5769 -0.1599
 6023SOL    HW229706   0.266   1.284  10.414 -0.5124  0.5086  0.0650
 6024SOL     OW29707   3.429   4.574   5.014  0.2281 -0.4869  0.0350
 6024SOL    HW129708   3.334   4.576   5.020  0.1973  0.0058 -0.6605
 6024SOL    HW229709   3.440   4.483   5.042  0.2763  0.1452  2.0817
 6025SOL     OW29710   4.065   3.061   0.271 -1.0102  0.0292  0.2912
 6025SOL    HW129711   4.113   3.054   0.353 -0.9090 -1.4698  0.0989
 6025SOL    HW229712   3.977   3.053   0.309 -1.2834  1.1203 -0.1074
 6026SOL     OW29713   0.588   3.638   9.462 -0.1779  0.2596 -0.2649
 6026SOL    HW129714   0.580   3.566   9.525  1.0408 -0.4704 -0.9311
 6026SOL    HW229715   0.526   3.607   9.395 -0.4921  0.0920  0.1075
 6027SOL     OW29716   3.092   0.067  13.922 -0.4093 -0.0439 -0.0603
 6027SOL    HW129717   3.156   0.004  13.955 -1.5289 -2.1346 -1.8220
 6027SOL    HW229718   3.016   0.035  13.970  1.4503 -1.5892  1.8418
 6028SOL     OW29719   3.080   3.591   4.216 -0.2499 -0.0835  0.1529
 6028SOL    HW129720   3.118   3.539   4.287 -0.5799 -4.5140 -2.9311
 6028SOL    HW229721   3.094   3.678   4.253  2.0104 -0.1332 -0.5937
 6029SOL     OW29722   0.766   2.854   9.017 -0.1523  0.1346 -0.2817
 6029SOL    HW129723   0.859   2.864   8.995  0.3247 -0.5822  1.4156
 6029SOL    HW229724   0.728   2.939   8.999 -0.5602 -0.0816 -0.4454
 6030SOL     OW29725   0.479   0.573   3.299  0.2004  0.0922 -0.3537
 6030SOL    HW129726   0.407   0.528   3.344 -0.9407  2.0847 -0.2196
 6030SOL    HW229727   0.433   0.638   3.247 -0.9835  0.2277  0.8477
 6031SOL     OW29728   4.405   4.129   6.818 -0.5734  0.0565  0.4606
 6031SOL    HW129729   4.380   4.083   6.738 -2.3173  0.4517  0.7832
 6031SOL    HW229730   4.319   4.166   6.838  0.6358  2.5505  1.0668
 6032SOL     OW29731   2.009   1.799   6.754  0.0843 -0.3837  0.3070
 6032SOL    HW129732   1.933   1.743   6.744  0.7609 -1.4298  1.1213
 6032SOL    HW229733   2.067   1.754   6.815  0.2674  0.4831  0.7766
 6033SOL     OW29734   3.188   2.950   8.785  0.6631 -0.0783  0.2019
 6033SOL    HW129735   3.165   2.885   8.851 -0.3964  0.8370  0.7429
 6033SOL    HW229736   3.244   3.003   8.841  0.7466 -1.0733  1.0542
 6034SOL     OW29737   0.573   3.046   2.257 -0.0719 -0.2363 -0.7619
 6034SOL    HW129738   0.569   3.136   2.290  3.9044  0.1715 -1.4093
 6034SOL    HW229739   0.575   2.998   2.340  0.0600 -1.4817 -1.4905
 6035SOL     OW29740   1.318   1.019  13.074 -0.1056  0.2511  0.0863
 6035SOL    HW129741   1.365   1.100  13.056 -0.5756  0.4499 -0.2388
 6035SOL    HW229742   1.255   1.035  13.144 -3.7418  1.3472 -3.3862
 6036SOL     OW29743   2.385   4.395   2.822 -0.2943 -0.2979 -0.6853
 6036SOL    HW129744   2.423   4.436   2.745  3.7746 -1.0328  0.9602
 6036SOL    HW229745   2.341   4.315   2.795 -1.2096  0.1433 -0.5167
 6037SOL     OW29746   0.804   2.170   8.195 -0.3030  0.0362  0.6455
 6037SOL    HW129747   0.753   2.179   8.114  1.7173  0.8283 -0.5376
 6037SOL    HW229748   0.739   2.178   8.264 -1.5830  2.8203 -0.8581
 6038SOL     OW29749   2.127   1.841   7.084 -0.0298 -0.2837 -0.2435
 6038SOL    HW129750   2.198   1.782   7.109 -0.9474 -1.2072  0.1772
 6038SOL    HW229751   2.172   1.906   7.030 -0.0277 -1.2429 -1.4045
 6039SOL     OW29752   2.290   3.104   9.808 -0.3304 -0.4195 -0.3506
 6039SOL    HW129753   2.223   3.158   9.767 -0.1767 -0.6786 -0.9419
 6039SOL    HW229754   2.365   3.124   9.752  0.6530 -3.2043 -0.0367
 6040SOL     OW29755   1.863   0.407   5.303  0.5159 -0.5497 -0.2397
 6040SOL    HW129756   1.891   0.457   5.380  1.8605 -1.9591  0.1809
 6040SOL    HW229757   1.914   0.445   5.231 -0.1873  2.5120  0.8523
 6041SOL     OW29758   0.686   0.576   3.446 -0.2090  0.1957 -0.1075
 6041SOL    HW129759   0.703   0.664   3.479  0.0037 -0.1021  0.5820
 6041SOL    HW229760   0.621   0.592   3.378  0.3613  3.0314  0.0168
 6042SOL     OW29761   2.955   0.118   6.442  0.4982 -0.3353 -0.2229
 6042SOL    HW129762   2.918   0.183   6.502 -2.5286 -1.8663 -0.3935
 6042SOL    HW229763   3.037   0.095   6.485  0.9504  0.8412 -0.4569
 6043SOL     OW29764   0.156   0.546   5.190 -0.3237  0.6243  0.5962
 6043SOL    HW129765   0.126   0.557   5.100 -3.7513 -0.0251  1.6790
 6043SOL    HW229766   0.155   0.451   5.199 -0.1466  0.6301  0.6821
 6044SOL     OW29767   0.750   3.933   7.300 -0.5729 -0.3042 -0.1897
 6044SOL    HW129768   0.734   4.017   7.257 -1.2254 -0.8728 -1.0450
 6044SOL    HW229769   0.838   3.915   7.267  0.1739  3.8652 -0.5634
 6045SOL     OW29770   0.172   1.551   4.515  0.2551 -0.7247 -0.3710
 6045SOL    HW129771   0.214   1.630   4.479 -1.0183  0.6870  1.2870
 6045SOL    HW229772   0.097   1.542   4.456  0.2470  0.1786 -0.4979
 6046SOL     OW29773   0.541   3.583  15.857  0.5565  0.0458  0.0730
 6046SOL    HW129774   0.610   3.645  15.876 -0.6853  0.4870  3.0918
 6046SOL    HW229775   0.595   3.505  15.872  0.1810 -0.1173  0.5775
 6047SOL     OW29776   3.405   0.665  15.638 -0.5491 -0.7895 -0.6785
 6047SOL    HW129777   3.448   0.580  15.632  0.8268  0.1753 -4.2757
 6047SOL    HW229778   3.417   0.705  15.551 -1.0768 -0.6883 -0.7044
 6048SOL     OW29779   3.047   2.844   0.454  0.8139  0.2917 -0.1883
 6048SOL    HW129780   3.053   2.822   0.547 -0.6720  0.1542 -0.1227
 6048SOL    HW229781   2.996   2.924   0.459  0.7388  0.3404 -1.6539
 6049SOL     OW29782   3.852   3.849   4.180  0.1163  0.6541  0.2200
 6049SOL    HW129783   3.942   3.819   4.176 -0.3355 -0.7892  0.9244
 6049SOL    HW229784   3.856   3.938   4.145  3.5235 -0.0330 -1.0815
 6050SOL     OW29785   3.544   4.377   5.659 -0.0584 -0.2602 -0.1614
 6050SOL    HW129786   3.484   4.400   5.730  0.2418 -0.8175  0.2631
 6050SOL    HW229787   3.618   4.349   5.713 -1.2367 -2.4724  0.2869
 6051SOL     OW29788   1.276   2.807   7.533  0.1479 -0.4229 -0.4038
 6051SOL    HW129789   1.268   2.714   7.513 -1.8978 -0.6040  1.2463
 6051SOL    HW229790   1.234   2.814   7.618  0.5948 -2.8859  0.0161
 6052SOL     OW29791   2.734   1.733  10.760 -0.0299  0.1061  1.1835
 6052SOL    HW129792   2.653   1.691  10.787  0.6060 -0.6089  1.9844
 6052SOL    HW229793   2.702   1.783  10.685  2.4315 -1.6790 -1.0454
 6053SOL     OW29794   4.323   1.607  13.401  1.3783 -0.2764  0.0817
 6053SOL    HW129795   4.375   1.599  13.321  1.1811  0.4570 -0.1185
 6053SOL    HW229796   4.279   1.522  13.403 -1.7729  1.3358 -0.7604
 6054SOL     OW29797   3.347   2.464   3.614 -0.5433 -0.0792  0.3295
 6054SOL    HW129798   3.260   2.504   3.621 -1.2291 -1.5287 -0.0006
 6054SOL    HW229799   3.393   2.546   3.630  0.3461 -0.5405  0.0998
 6055SOL     OW29800   1.372   0.175  13.736  0.0388  0.0854 -0.5703
 6055SOL    HW129801   1.441   0.188  13.672  0.2192 -1.5070 -0.7095
 6055SOL    HW229802   1.402   0.223  13.813  3.7262 -2.9055 -0.1646
 6056SOL     OW29803   4.714   1.171  16.726 -0.0293 -0.1401 -0.1779
 6056SOL    HW129804   4.709   1.102  16.792  0.6686 -1.1425 -1.1947
 6056SOL    HW229805   4.666   1.118  16.663 -0.9406  0.6218 -0.1339
 6057SOL     OW29806   1.382   3.672   3.414  0.0654 -0.0869  0.2259
 6057SOL    HW129807   1.384   3.763   3.443  1.1690  0.0005 -0.1449
 6057SOL    HW229808   1.305   3.679   3.357  1.1622 -0.0337 -1.2681
 6058SOL     OW29809   1.848   0.939  10.685  0.1679  0.4087  0.2189
 6058SOL    HW129810   1.798   0.862  10.710  1.4904 -0.8569 -1.0444
 6058SOL    HW229811   1.925   0.894  10.649  1.8100  4.3775 -1.1777
 6059SOL     OW29812   2.618   2.088   5.465 -0.1807 -0.5275 -0.1239
 6059SOL    HW129813   2.582   2.170   5.499 -1.3965 -1.2242  0.2558
 6059SOL    HW229814   2.683   2.123   5.403 -1.1105  0.5276 -0.5018
 6060SOL     OW29815   1.706   2.623  14.291  0.2727 -0.1031 -0.0585
 6060SOL    HW129816   1.633   2.679  14.320 -0.1455 -0.7221  0.0714
 6060SOL    HW229817   1.711   2.561  14.363  0.3411 -0.4461 -0.3559
 6061SOL     OW29818   3.164   2.779   5.720 -0.0929 -0.2063 -0.7739
 6061SOL    HW129819   3.114   2.841   5.668 -1.2227 -1.7642 -1.5145
 6061SOL    HW229820   3.200   2.722   5.652 -0.2364 -0.0953 -0.9444
 6062SOL     OW29821   0.210   0.347   5.819  0.0521 -0.2427 -0.2980
 6062SOL    HW129822   0.159   0.337   5.899 -0.6983  1.9893 -0.4977
 6062SOL    HW229823   0.131   0.358   5.766 -0.3607  1.2971  0.6485
 6063SOL     OW29824   2.237   4.365  10.124 -0.0270 -0.4454 -0.3388
 6063SOL    HW129825   2.221   4.275  10.153  1.5622  0.0719  2.0505
 6063SOL    HW229826   2.196   4.411  10.197 -2.6530 -0.6004 -1.7057
 6064SOL     OW29827   3.743   4.649   8.437  0.2820 -0.1424  0.3466
 6064SOL    HW129828   3.717   4.608   8.354  1.3770  0.4058 -0.2565
 6064SOL    HW229829   3.767   4.573   8.491  2.8598 -0.2838 -1.0004
 6065SOL     OW29830   3.819   0.057   5.008  0.2621 -0.3067 -0.0069
 6065SOL    HW129831   3.886   0.099   4.954 -1.8059  0.2769 -2.1175
 6065SOL    HW229832   3.776   0.138   5.036 -2.9477 -1.4232 -1.7868
 6066SOL     OW29833   0.030   1.484   9.124  0.5155 -0.4972  0.0277
 6066SOL    HW129834   0.049   1.561   9.177 -1.8275  0.7442 -0.9583
 6066SOL    HW229835   0.059   1.413   9.181  0.9919 -0.0814  0.3063
 6067SOL     OW29836   2.363   3.831  16.211 -0.1245 -0.1908 -0.1620
 6067SOL    HW129837   2.338   3.743  16.182 -0.0110 -1.3367  3.2409
 6067SOL    HW229838   2.328   3.852  16.297 -1.0894  0.2642 -0.6653
 6068SOL     OW29839   0.202   3.752   4.288 -0.3899  0.3541  0.1066
 6068SOL    HW129840   0.275   3.704   4.251  1.0967  1.2455  1.8617
 6068SOL    HW229841   0.206   3.724   4.380 -1.9997 -1.2427 -0.3141
 6069SOL     OW29842   0.650   1.214   1.509  0.1766  0.4011  0.2260
 6069SOL    HW129843   0.609   1.168   1.583 -1.9085  1.0530 -0.5379
 6069SOL    HW229844   0.598   1.294   1.514  0.9823  0.9962 -1.1653
 6070SOL     OW29845   4.050   3.803   6.798  0.4750  0.3314 -0.0701
 6070SOL    HW129846   4.005   3.718   6.793 -0.7974  0.8849  1.9787
 6070SOL    HW229847   4.096   3.814   6.715 -2.3100 -0.5668 -1.7138
 6071SOL     OW29848   1.803   3.660   6.006  0.5482  0.0808  0.7145
 6071SOL    HW129849   1.774   3.602   5.936 -0.7981  1.9729 -0.3215
 6071SOL    HW229850   1.895   3.659   5.980  0.8443 -0.6422  1.8243
 6072SOL     OW29851   4.360   2.312   3.701 -0.5211 -0.0599 -0.2838
 6072SOL    HW129852   4.318   2.264   3.630 -1.7433  0.4745  0.0902
 6072SOL    HW229853   4.451   2.290   3.680 -0.7349  0.9585 -2.2528
 6073SOL     OW29854   1.843   3.845  12.715 -0.0270  0.6035  0.0288
 6073SOL    HW129855   1.868   3.783  12.647 -0.5337  1.5844 -1.0480
 6073SOL    HW229856   1.909   3.829  12.783 -0.4570 -1.5876 -0.0921
 6074SOL     OW29857   4.213   0.650   0.506  0.5608  0.2215  0.1137
 6074SOL    HW129858   4.199   0.607   0.421 -1.4223  1.7027 -0.3062
 6074SOL    HW229859   4.204   0.591   0.581  2.1195  0.9790  0.9029
 6075SOL     OW29860   0.449   4.587  15.229 -0.4248 -0.0348  0.8010
 6075SOL    HW129861   0.504   4.594  15.151 -1.0477  0.3262  0.3965
 6075SOL    HW229862   0.511   4.611  15.298 -2.6587 -0.5050  2.9837
 6076SOL     OW29863   1.975   3.227   0.993  0.1809 -0.2080  0.0039
 6076SOL    HW129864   1.931   3.160   1.046  0.3013 -0.6077 -0.4045
 6076SOL    HW229865   2.069   3.211   1.001 -0.3526 -2.1722  2.4475
 6077SOL     OW29866   3.244   0.095  15.623  0.0115 -0.1762 -0.4551
 6077SOL    HW129867   3.198   0.152  15.562 -1.6292  0.7274  1.6522
 6077SOL    HW229868   3.184   0.022  15.612 -0.7563  0.1768  1.5762
 6078SOL     OW29869   2.456   3.494   9.572  0.4893  0.3973 -0.9098
 6078SOL    HW129870   2.363   3.494   9.551  0.3032 -0.6666 -0.0459
 6078SOL    HW229871   2.484   3.582   9.598 -1.8134  0.5655  0.9541
 6079SOL     OW29872   1.920   2.339   7.593  0.5073 -0.0164  0.3433
 6079SOL    HW129873   1.846   2.281   7.609 -0.1486  0.1563 -2.1442
 6079SOL    HW229874   1.988   2.303   7.650 -2.1335 -1.4870  2.5448
 6080SOL     OW29875   3.653   3.700  10.592  0.1850  0.1645  0.2870
 6080SOL    HW129876   3.664   3.768  10.659  0.2794  0.5419 -0.1130
 6080SOL    HW229877   3.587   3.739  10.534  1.9686  1.4126 -0.8999
 6081SOL     OW29878   1.060   4.521   5.896 -0.4029 -0.1900 -0.3710
 6081SOL    HW129879   1.010   4.601   5.909 -0.6828 -0.6770  1.4832
 6081SOL    HW229880   1.044   4.525   5.802  1.2570  2.9029 -0.5191
 6082SOL     OW29881   4.403   1.512   5.977  0.2245 -0.0848 -0.3441
 6082SOL    HW129882   4.449   1.524   5.894  1.5859  0.3728  0.4776
 6082SOL    HW229883   4.441   1.571   6.042 -1.0601  0.0577  0.2977
 6083SOL     OW29884   0.685   2.861   9.352 -0.0108 -0.3906 -0.2470
 6083SOL    HW129885   0.779   2.850   9.336  0.1625  0.8556 -0.0573
 6083SOL    HW229886   0.658   2.770   9.364  1.0583 -0.7003 -0.2401
 6084SOL     OW29887   4.539   1.074   1.887  0.1084 -0.0264 -0.1564
 6084SOL    HW129888   4.512   1.155   1.845 -1.0580  0.3630  1.3286
 6084SOL    HW229889   4.604   1.044   1.823  0.1513 -0.3389  0.0349
 6085SOL     OW29890   0.916   0.627   5.175  0.0416 -0.3158 -0.4480
 6085SOL    HW129891   0.898   0.588   5.090 -0.5471  0.3741 -0.6353
 6085SOL    HW229892   0.917   0.548   5.228  0.5110 -0.2417 -0.3453
 6086SOL     OW29893   2.079   1.715  16.713  0.7347 -0.1262 -0.2732
 6086SOL    HW129894   2.030   1.719  16.631  0.2562  1.1549  0.0706
 6086SOL    HW229895   2.167   1.742  16.685  0.5002 -0.6282 -1.4505
 6087SOL     OW29896   1.368   0.808   5.757  0.0675  0.2144  0.1359
 6087SOL    HW129897   1.278   0.811   5.726  0.3416  1.3237 -0.5645
 6087SOL    HW229898   1.409   0.888   5.725 -0.4525  0.6828  0.6279
 6088SOL     OW29899   3.406   1.055  17.330 -0.5298  0.3265 -0.6351
 6088SOL    HW129900   3.485   1.098  17.362  0.4202 -0.6213 -1.7491
 6088SOL    HW229901   3.437   1.005  17.255 -1.5451 -1.4249  0.0787
 6089SOL     OW29902   3.374   3.207   8.376 -0.1030  0.0163 -0.2482
 6089SOL    HW129903   3.311   3.186   8.444  0.2886  0.0624  0.1297
 6089SOL    HW229904   3.392   3.290   8.420 -1.0301 -0.2222  0.5677
 6090SOL     OW29905   3.057   2.638   2.152 -0.1028  0.0434  0.0066
 6090SOL    HW129906   3.039   2.669   2.241 -0.6927  2.7401 -1.0485
 6090SOL    HW229907   3.022   2.549   2.159 -1.2462  0.7531  3.5168
 6091SOL     OW29908   0.581   0.942  15.799  0.3227 -0.4014  0.1980
 6091SOL    HW129909   0.547   0.973  15.883  0.3932 -0.4746  0.2531
 6091SOL    HW229910   0.674   0.960  15.810  0.4932 -1.3019  0.1923
 6092SOL     OW29911   0.904   1.067   1.472  0.3203 -0.5094  0.0134
 6092SOL    HW129912   0.829   1.046   1.416 -1.0168 -0.3245  1.7266
 6092SOL    HW229913   0.869   1.141   1.522  0.9490 -0.4290  0.3329
 6093SOL     OW29914   0.185   3.888   5.514  0.2203  0.1790 -0.1914
 6093SOL    HW129915   0.107   3.943   5.506  1.1721  1.5565 -0.1367
 6093SOL    HW229916   0.228   3.918   5.594  0.1261 -2.0193  0.6749
 6094SOL     OW29917   4.674   4.445   2.464  0.0592  0.7075 -0.3833
 6094SOL    HW129918   4.646   4.528   2.503 -0.9742  0.9594 -1.6368
 6094SOL    HW229919   4.736   4.421   2.533  0.1025  1.0861 -0.2889
 6095SOL     OW29920   4.484   2.690   5.549 -0.1019 -0.2495  0.1595
 6095SOL    HW129921   4.479   2.677   5.644  0.6845  1.8621  0.4852
 6095SOL    HW229922   4.538   2.769   5.556 -0.3452 -0.3816  3.5754
 6096SOL     OW29923   1.521   3.973  17.098  0.6711  1.3392 -0.1041
 6096SOL    HW129924   1.502   4.035  17.028  0.7826  0.4426 -0.9219
 6096SOL    HW229925   1.455   3.999  17.162  0.1110  1.7572 -0.8491
 6097SOL     OW29926   1.529   2.778   5.205  0.0852 -0.5708  0.2349
 6097SOL    HW129927   1.606   2.762   5.150 -0.5815  1.4948 -1.2808
 6097SOL    HW229928   1.509   2.864   5.170 -0.6297 -1.3048 -1.1463
 6098SOL     OW29929   2.627   1.396   7.446  0.0852 -0.8110 -0.0122
 6098SOL    HW129930   2.581   1.334   7.502  1.2587  0.4460  2.3374
 6098SOL    HW229931   2.562   1.427   7.382 -1.1602  0.4459  1.8513
 6099SOL     OW29932   0.113   0.127  10.473  0.1387 -0.1712 -0.2441
 6099SOL    HW129933   0.200   0.140  10.434 -0.1548 -1.0337 -1.1801
 6099SOL    HW229934   0.138   0.062  10.538  1.0169  1.4562  1.0582
 6100SOL     OW29935   2.763   3.313   3.876  0.3781 -0.4222 -0.6711
 6100SOL    HW129936   2.685   3.259   3.867 -1.3020  1.4603  2.6080
 6100SOL    HW229937   2.780   3.299   3.969  1.3400  3.6543 -0.2446
 6101SOL     OW29938   3.938   0.844   4.900 -0.2066  0.0882  0.3230
 6101SOL    HW129939   3.905   0.788   4.829 -1.5153 -0.4907  1.3866
 6101SOL    HW229940   3.853   0.875   4.933 -0.5592 -1.4097  0.8246
 6102SOL     OW29941   2.916   2.862   3.719 -0.6661  0.4354 -0.0522
 6102SOL    HW129942   2.852   2.831   3.654  0.8038  1.1092 -1.8104
 6102SOL    HW229943   2.955   2.933   3.668 -4.5159  2.1670 -0.6405
 6103SOL     OW29944   0.257   1.021   2.338 -0.1094 -0.8920 -0.4063
 6103SOL    HW129945   0.182   1.006   2.282 -1.5873 -1.3290  1.6668
 6103SOL    HW229946   0.274   0.939   2.386 -1.4619 -0.7585  0.2801
 6104SOL     OW29947   3.510   0.075   4.052 -0.4791 -0.2915  0.5622
 6104SOL    HW129948   3.428   0.124   4.041  1.0619  2.2458  0.2506
 6104SOL    HW229949   3.492   0.011   3.983  0.5001  1.2322 -1.1262
 6105SOL     OW29950   3.926   2.760   0.755 -0.1408 -0.2485 -0.4432
 6105SOL    HW129951   3.949   2.707   0.832 -1.1381 -0.0775 -0.0177
 6105SOL    HW229952   4.015   2.785   0.731  0.4240 -3.1003 -1.2605
 6106SOL     OW29953   2.655   0.999   1.387  0.5142  0.4271  0.2706
 6106SOL    HW129954   2.719   1.063   1.417  1.0556  1.5752 -3.3759
 6106SOL    HW229955   2.577   1.043   1.420  0.0215  0.5448 -1.0675
 6107SOL     OW29956   2.881   0.816  12.016 -0.0211 -0.0235 -0.3022
 6107SOL    HW129957   2.813   0.883  12.014  0.4399  0.3506 -2.5283
 6107SOL    HW229958   2.848   0.767  12.092  3.1604 -0.7814  0.6273
 6108SOL     OW29959   3.362   2.260  11.900  0.1657 -0.4353 -0.2853
 6108SOL    HW129960   3.277   2.233  11.866  0.6850 -1.8076 -0.4870
 6108SOL    HW229961   3.345   2.257  11.994 -0.8140 -0.3052 -0.4637
 6109SOL     OW29962   4.224   4.348  13.912 -0.0134 -0.5087  0.4431
 6109SOL    HW129963   4.305   4.384  13.947  1.4271 -2.1310 -1.2238
 6109SOL    HW229964   4.194   4.427  13.868 -0.0984  0.0881  1.5835
 6110SOL     OW29965   3.069   1.380  15.196 -0.5122  0.1109  0.4048
 6110SOL    HW129966   2.992   1.356  15.145  0.1159  0.7931 -0.8565
 6110SOL    HW229967   3.020   1.391  15.278 -0.2398 -1.2341  0.7448
 6111SOL     OW29968   1.063   0.875   6.999  0.1714 -0.1966  0.4516
 6111SOL    HW129969   1.083   0.924   6.920  0.7361 -2.5653 -0.8729
 6111SOL    HW229970   1.074   0.941   7.067 -1.7680  1.2886 -0.6726
 6112SOL     OW29971   3.062   4.206  10.814  0.4262  0.4051  0.2119
 6112SOL    HW129972   2.985   4.234  10.764  1.4788  0.4492 -1.3677
 6112SOL    HW229973   3.094   4.135  10.758  1.9544  1.0604  0.2732
 6113SOL     OW29974   3.620   0.615   9.220 -0.0769 -0.5468  0.4324
 6113SOL    HW129975   3.662   0.688   9.265  1.7198 -1.5031  0.3405
 6113SOL    HW229976   3.537   0.612   9.268 -0.7403 -0.0290 -0.6892
 6114SOL     OW29977   1.728   0.412  13.724  0.2147  0.3504 -0.1548
 6114SOL    HW129978   1.806   0.451  13.685 -0.2133 -0.8247 -2.1767
 6114SOL    HW229979   1.699   0.352  13.656  0.8131 -0.5712  0.3996
 6115SOL     OW29980   1.490   3.513   5.089  0.1211  0.5680  0.2834
 6115SOL    HW129981   1.446   3.537   5.170  1.7112 -2.2181  1.9381
 6115SOL    HW229982   1.539   3.591   5.064  3.5129 -1.8416 -0.5150
 6116SOL     OW29983   4.685   1.542   4.125  0.5121 -0.3303  0.4173
 6116SOL    HW129984   4.639   1.612   4.171 -0.5188  0.4809 -1.8623
 6116SOL    HW229985   0.036   1.552   4.164 -0.2370  0.0490  2.0305
 6117SOL     OW29986   1.003   2.257   7.025 -0.2246  0.0051 -0.4031
 6117SOL    HW129987   1.041   2.305   7.098 -0.1053 -0.1764 -0.3491
 6117SOL    HW229988   0.917   2.300   7.025  0.0058  0.4573  0.1917
 6118SOL     OW29989   1.871   3.097   1.417  0.2696 -0.0245 -0.1577
 6118SOL    HW129990   1.901   3.136   1.499  0.1904  0.3292 -0.2974
 6118SOL    HW229991   1.821   3.170   1.381 -0.4715 -0.1892  0.5323
 6119SOL     OW29992   3.059   3.195   4.558 -0.8202  0.3289 -0.1375
 6119SOL    HW129993   3.101   3.281   4.567  1.5082 -0.8518  0.2719
 6119SOL    HW229994   3.040   3.178   4.650 -0.3989 -0.8791 -0.2733
 6120SOL     OW29995   3.572   2.479   2.257  0.0279 -0.0143  0.4514
 6120SOL    HW129996   3.487   2.507   2.222 -0.0239 -0.7717 -0.0282
 6120SOL    HW229997   3.553   2.481   2.351  0.4421  1.0366  0.5148
 6121SOL     OW29998   0.145   0.344   3.813  0.2903  0.3408  0.4845
 6121SOL    HW129999   0.194   0.415   3.772 -1.3031  0.3883 -1.3406
 6121SOL    HW230000   0.111   0.379   3.895  1.1436 -1.2455  1.5276
 6122SOL     OW30001   1.859   0.324   3.779  0.2430  0.1539 -0.0357
 6122SOL    HW130002   1.867   0.394   3.714  1.9532 -1.0230 -1.0844
 6122SOL    HW230003   1.773   0.297   3.747 -0.0833  0.1363  0.8681
 6123SOL     OW30004   0.593   2.170   7.987  0.6575  0.6053  0.3431
 6123SOL    HW130005   0.594   2.206   7.899 -0.5447  1.9011  0.8731
 6123SOL    HW230006   0.578   2.077   7.966  0.6290  1.2676 -2.5954
 6124SOL     OW30007   4.021   4.708   9.047  0.1032  0.0924  0.2139
 6124SOL    HW130008   3.998   4.634   9.103 -0.2266  0.5313  0.6624
 6124SOL    HW230009   3.989   0.042   9.104 -0.6746  1.5852 -2.0188
 6125SOL     OW30010   3.134   0.728   2.061 -0.3362  0.6031  0.5067
 6125SOL    HW130011   3.066   0.772   2.010 -0.4738  0.1418  0.2972
 6125SOL    HW230012   3.204   0.793   2.054  0.4456 -0.4356 -1.2963
 6126SOL     OW30013   4.188   0.108   2.605  0.1562  0.1742 -0.0673
 6126SOL    HW130014   4.133   0.141   2.676 -1.1998 -2.0086 -0.0955
 6126SOL    HW230015   4.274   0.135   2.637 -1.5326  0.9992  3.8192
 6127SOL     OW30016   3.015   1.682   8.149  0.1602 -0.2727 -0.4946
 6127SOL    HW130017   2.963   1.692   8.229  0.2147 -1.5586 -0.3009
 6127SOL    HW230018   2.949   1.706   8.084  0.5621 -1.8321 -1.4713
 6128SOL     OW30019   2.821   3.238   4.127 -0.5369 -0.2961 -0.4311
 6128SOL    HW130020   2.837   3.274   4.215  2.8645 -0.6419 -0.9212
 6128SOL    HW230021   2.849   3.147   4.131 -0.4042 -0.1656  1.7021
 6129SOL     OW30022   0.676   3.962   0.846 -0.2621  0.2555  0.6172
 6129SOL    HW130023   0.664   4.051   0.879  1.1065  0.4078  0.7009
 6129SOL    HW230024   0.610   3.962   0.777  2.1964  0.3452 -1.7424
 6130SOL     OW30025   2.483   3.582   7.407 -0.1369  0.5524  0.5200
 6130SOL    HW130026   2.537   3.532   7.469  0.0655 -0.1333 -0.2060
 6130SOL    HW230027   2.494   3.522   7.333 -1.9510 -2.0312  2.3284
 6131SOL     OW30028   4.200   1.675   4.045 -0.0060 -0.4055  0.2650
 6131SOL    HW130029   4.262   1.739   4.009 -0.9254 -0.6665 -1.8208
 6131SOL    HW230030   4.211   1.690   4.139  2.7909  1.7466 -0.3989
 6132SOL     OW30031   2.505   2.954   2.119  0.1233  0.2028  0.0234
 6132SOL    HW130032   2.426   3.009   2.117  0.3908  0.6058  0.5547
 6132SOL    HW230033   2.506   2.907   2.036  0.6122 -1.6898  1.1191
 6133SOL     OW30034   3.943   1.601   8.801  0.4423  0.0218  0.5678
 6133SOL    HW130035   4.003   1.530   8.823 -0.9564 -1.0112  1.0295
 6133SOL    HW230036   3.855   1.565   8.806 -0.4151  1.9692 -0.4647
 6134SOL     OW30037   4.067   3.207   6.304  0.6104  0.0449 -0.2671
 6134SOL    HW130038   4.130   3.276   6.284  1.8131 -1.2103 -0.8085
 6134SOL    HW230039   4.107   3.127   6.271 -1.1067 -0.5039 -1.0429
 6135SOL     OW30040   2.077   4.457   6.014 -0.1572 -0.2654  0.0495
 6135SOL    HW130041   1.992   4.451   6.056  0.6293  2.1939  1.9465
 6135SOL    HW230042   2.054   4.397   5.943  1.7237 -0.0288 -0.7553
 6136SOL     OW30043   2.932   4.159  10.075  0.2442  0.0165  0.0195
 6136SOL    HW130044   2.990   4.228  10.044  0.5351  0.0020  0.5345
 6136SOL    HW230045   2.959   4.085  10.021 -1.6874 -0.3496 -0.4630
 6137SOL     OW30046   2.529   3.828   7.803 -0.0127  0.3006 -0.0848
 6137SOL    HW130047   2.595   3.852   7.868 -0.2293  1.1872 -0.2002
 6137SOL    HW230048   2.459   3.853   7.863  0.5784 -0.4158  0.9060
 6138SOL     OW30049   0.252   3.814   2.354  0.0960 -0.0908  0.2197
 6138SOL    HW130050   0.158   3.798   2.360  0.2547 -1.1864 -0.1791
 6138SOL    HW230051   0.291   3.747   2.298 -0.1959 -0.8496  0.9258
 6139SOL     OW30052   0.270   4.087   2.422 -0.2612  0.0294  0.0096
 6139SOL    HW130053   0.237   4.095   2.333 -0.1953  0.7943  0.0563
 6139SOL    HW230054   0.297   3.996   2.415 -2.7151 -0.7863  1.0365
 6140SOL     OW30055   0.844   3.398  12.526  0.9132  0.2699  0.0758
 6140SOL    HW130056   0.911   3.465  12.512 -1.1830  2.4995  0.6081
 6140SOL    HW230057   0.801   3.393  12.440  1.1310  0.2177 -0.0287
 6141SOL     OW30058   3.349   3.798  11.249 -0.4701  0.8976 -0.2764
 6141SOL    HW130059   3.331   3.837  11.163  0.1127 -1.9869 -1.7180
 6141SOL    HW230060   3.297   3.856  11.304 -0.7001  0.0362  0.4180
 6142SOL     OW30061   2.438   1.769   4.135 -0.3407 -0.0338  0.5769
 6142SOL    HW130062   2.468   1.798   4.221  0.7604  0.2968  0.0760
 6142SOL    HW230063   2.350   1.735   4.155 -0.4426  0.9813  1.9339
 6143SOL     OW30064   1.334   2.908   3.311 -0.0543 -0.5430 -0.2625
 6143SOL    HW130065   1.309   3.000   3.318  0.7436 -0.3525  0.1710
 6143SOL    HW230066   1.282   2.868   3.380 -0.6427 -0.8367 -0.8805
 6144SOL     OW30067   3.122   2.167   1.249  0.3676  0.2523  0.1653
 6144SOL    HW130068   3.140   2.091   1.193  1.7362  0.3804  0.4242
 6144SOL    HW230069   3.036   2.197   1.222 -0.6108 -2.5751  0.1146
 6145SOL     OW30070   2.002   2.964   9.031 -0.0738  0.9011 -0.3392
 6145SOL    HW130071   2.065   2.896   9.007 -0.6266  0.5575 -0.8114
 6145SOL    HW230072   2.061   3.033   9.062 -0.1038  0.8563 -0.1872
 6146SOL     OW30073   2.804   0.254   8.846  0.1696  0.5624  0.4473
 6146SOL    HW130074   2.884   0.245   8.794 -0.5093 -0.5291 -0.4204
 6146SOL    HW230075   2.803   0.349   8.840  0.8806  0.5509  0.2159
 6147SOL     OW30076   0.948   3.400  13.617  0.5611  0.6346  0.4543
 6147SOL    HW130077   0.956   3.471  13.554  0.0952  1.0157  0.8231
 6147SOL    HW230078   0.994   3.333  13.567  2.2304  1.5721  0.7367
 6148SOL     OW30079   0.437   3.449   2.561 -0.1935 -0.2941  0.3504
 6148SOL    HW130080   0.392   3.464   2.477  0.5629 -0.0538 -0.0090
 6148SOL    HW230081   0.442   3.354   2.557 -2.4981 -0.3331 -1.7702
 6149SOL     OW30082   1.217   2.813  13.372  0.3503  0.2292 -0.2189
 6149SOL    HW130083   1.292   2.753  13.379  1.0400  1.1689  0.4457
 6149SOL    HW230084   1.164   2.798  13.451  1.2595  0.6627  0.4720
 6150SOL     OW30085   1.481   4.642   7.259 -0.0725  0.0684  0.1789
 6150SOL    HW130086   1.456   4.573   7.322  0.0110  0.9415  1.1729
 6150SOL    HW230087   1.548   4.686   7.310  0.0495  1.3564 -1.1108
 6151SOL     OW30088   3.062   1.303   1.788 -0.2859 -0.8652  0.1858
 6151SOL    HW130089   3.075   1.217   1.826 -2.9800 -0.3163  2.3548
 6151SOL    HW230090   3.062   1.286   1.694  1.2908 -0.6279  0.1530
 6152SOL     OW30091   1.932   4.462   7.553  0.1066 -0.0857  0.7887
 6152SOL    HW130092   2.011   4.446   7.605  0.5348 -1.5161 -0.2979
 6152SOL    HW230093   1.863   4.413   7.599 -0.0521 -1.9204 -1.4376
 6153SOL     OW30094   4.696   1.317   8.288  0.0721  0.5629  0.3326
 6153SOL    HW130095   4.664   1.227   8.279 -0.6441  0.6364  1.9909
 6153SOL    HW230096   0.017   1.312   8.212  0.4233 -1.4311  0.7123
 6154SOL     OW30097   0.463   1.755   3.367  0.3776  0.3275 -0.0700
 6154SOL    HW130098   0.443   1.753   3.273  0.2230 -4.0715  0.0483
 6154SOL    HW230099   0.397   1.815   3.401  0.1676 -0.0443  0.1710
 6155SOL     OW30100   2.956   1.139  12.868  0.0348  0.0739 -0.0874
 6155SOL    HW130101   2.890   1.110  12.930 -2.1298  0.4157 -2.2101
 6155SOL    HW230102   2.940   1.232  12.882  1.2759  0.2493  0.1497
 6156SOL     OW30103   0.041   2.052  12.173  0.5734  0.3729  0.0543
 6156SOL    HW130104   0.132   2.069  12.199  0.4311  0.2595  0.6402
 6156SOL    HW230105   0.027   1.968  12.218 -0.2390  0.0571 -0.8016
 6157SOL     OW30106   1.649   2.233   6.532 -0.2697 -0.4669 -0.0554
 6157SOL    HW130107   1.613   2.145   6.538  0.1379 -0.6332 -0.0471
 6157SOL    HW230108   1.641   2.247   6.437  2.0315  3.6333  0.3583
 6158SOL     OW30109   4.537   1.469   6.339 -0.1091  0.8823 -0.2619
 6158SOL    HW130110   4.609   1.530   6.326  1.1074 -0.6662 -0.6866
 6158SOL    HW230111   4.586   1.389   6.358 -0.5130  0.7232  0.1240
 6159SOL     OW30112   1.106   1.202  10.096  0.3971  0.0162 -0.0260
 6159SOL    HW130113   1.152   1.158  10.168 -1.5979  0.4966  1.5258
 6159SOL    HW230114   1.028   1.148  10.088 -1.1843  2.1690  1.0171
 6160SOL     OW30115   2.983   3.401   1.803 -0.5321  0.0715  0.4311
 6160SOL    HW130116   2.947   3.359   1.725  3.1012 -2.5114  0.1677
 6160SOL    HW230117   3.074   3.371   1.805  0.6469  3.5764  0.2075
 6161SOL     OW30118   2.843   0.642   8.363 -0.2916 -0.5126 -0.1220
 6161SOL    HW130119   2.839   0.735   8.384  0.3043 -0.2724 -1.1189
 6161SOL    HW230120   2.910   0.641   8.295 -1.4397 -0.2930 -1.2526
 6162SOL     OW30121   4.577   0.677   4.603 -0.1051 -0.0919 -0.3343
 6162SOL    HW130122   4.496   0.661   4.651 -0.6947 -0.3802 -1.4089
 6162SOL    HW230123   4.550   0.750   4.547  0.0732 -0.7014 -1.2310
 6163SOL     OW30124   0.500   2.883   3.661  0.3648  0.3810 -0.2386
 6163SOL    HW130125   0.454   2.966   3.673 -2.2923 -1.4610  2.4983
 6163SOL    HW230126   0.447   2.823   3.713  0.3145  1.3823  0.8703
 6164SOL     OW30127   4.610   3.871   0.812 -0.2383  0.1974  0.3411
 6164SOL    HW130128   4.555   3.823   0.750 -0.7655  1.4212 -0.1464
 6164SOL    HW230129   4.552   3.892   0.885 -1.9595  0.1130 -1.0169
 6165SOL     OW30130   2.108   0.572   0.966  0.1256  0.2162 -0.1102
 6165SOL    HW130131   2.126   0.666   0.958 -0.9505  0.3455 -1.0256
 6165SOL    HW230132   2.018   0.563   0.935 -0.1009  0.3644  0.5184
 6166SOL     OW30133   4.559   4.146   3.354  0.0197  0.1124  0.3484
 6166SOL    HW130134   4.535   4.237   3.334 -2.2335 -0.6935 -0.6253
 6166SOL    HW230135   4.601   4.127   3.270 -2.7372  1.7861 -1.3955
 6167SOL     OW30136   3.905   4.713   6.375 -0.0495  0.3843  0.6013
 6167SOL    HW130137   3.902   4.633   6.323  1.0181  0.0653  1.0181
 6167SOL    HW230138   3.813   4.736   6.388  0.3513  1.9014  0.7658
 6168SOL     OW30139   2.025   4.446   3.664 -0.2270 -0.0405  0.3209
 6168SOL    HW130140   1.969   4.504   3.716 -0.9390 -0.3440 -0.1052
 6168SOL    HW230141   2.077   4.410   3.735  0.3121 -1.7742 -0.9488
 6169SOL     OW30142   2.276   4.262   7.745 -0.0648 -0.2856  0.3227
 6169SOL    HW130143   2.279   4.266   7.840 -2.4745 -3.7263  0.5646
 6169SOL    HW230144   2.347   4.204   7.717 -0.3017 -1.0416  1.2861
 6170SOL     OW30145   0.619   2.485  15.391  0.8467  0.0845 -0.0050
 6170SOL    HW130146   0.601   2.543  15.316 -1.8808 -1.9269 -0.9286
 6170SOL    HW230147   0.691   2.433  15.356  2.3177  2.0178  0.1594
 6171SOL     OW30148   2.631   4.032   7.295 -0.0266  0.2703  0.2741
 6171SOL    HW130149   2.670   4.042   7.382 -1.8657  1.4832  0.9558
 6171SOL    HW230150   2.563   4.100   7.301 -0.9899 -0.3975 -2.6529
 6172SOL     OW30151   3.353   0.817   3.651 -0.2349 -0.2626 -0.1005
 6172SOL    HW130152   3.281   0.873   3.681  0.0809 -0.5710  1.2395
 6172SOL    HW230153   3.418   0.865   3.703 -0.8861 -0.5574  1.0019
 6173SOL     OW30154   0.751   1.745   7.682 -0.1293 -0.3212  0.9466
 6173SOL    HW130155   0.706   1.685   7.741 -2.7266  1.4393  0.7663
 6173SOL    HW230156   0.825   1.689   7.659 -1.3475 -1.0063 -1.3183
 6174SOL     OW30157   2.641   2.423  11.600 -0.3316  0.0091  0.2603
 6174SOL    HW130158   2.550   2.409  11.626 -0.6314  0.4401 -0.5659
 6174SOL    HW230159   2.638   2.511  11.561  3.1829 -0.7853 -1.8494
 6175SOL     OW30160   2.902   2.196   9.373 -0.2564  0.4198 -0.2683
 6175SOL    HW130161   2.955   2.276   9.369  0.3357  0.0035 -0.7278
 6175SOL    HW230162   2.950   2.136   9.316  0.3371  1.0908 -0.4779
 6176SOL     OW30163   4.624   3.757   6.173 -0.7147  0.7935 -0.1240
 6176SOL    HW130164   4.659   3.740   6.086  1.8628 -2.0980  1.4722
 6176SOL    HW230165   4.698   3.800   6.216  1.1397 -2.4250 -0.1137
 6177SOL     OW30166   0.951   0.550   9.289 -0.3385 -0.6971  0.4632
 6177SOL    HW130167   0.882   0.484   9.300  0.4344 -1.3491  1.3439
 6177SOL    HW230168   0.994   0.525   9.207 -1.1343 -0.0449 -0.1566
 6178SOL     OW30169   2.812   1.859  14.921  0.4132  0.2546  0.0495
 6178SOL    HW130170   2.847   1.792  14.863  0.2064 -1.3134  1.7414
 6178SOL    HW230171   2.757   1.806  14.979  0.8331  0.0060  0.2197
 6179SOL     OW30172   0.834   2.067   5.297 -0.3200  0.1964 -1.0707
 6179SOL    HW130173   0.924   2.098   5.310  0.3211 -1.6795 -1.0400
 6179SOL    HW230174   0.839   2.032   5.209  2.2531  0.7368 -1.1427
 6180SOL     OW30175   0.011   1.227  15.175 -0.0455 -0.3259 -0.0270
 6180SOL    HW130176   0.027   1.227  15.081 -2.1776 -0.0311 -0.3813
 6180SOL    HW230177   0.098   1.216  15.213  0.3290 -1.7952 -1.2914
 6181SOL     OW30178   1.546   0.191   6.323 -0.4110 -0.1899  0.3925
 6181SOL    HW130179   1.493   0.269   6.304  1.0368  0.8842  0.7702
 6181SOL    HW230180   1.627   0.238   6.340 -0.3539  0.0012 -0.3761
 6182SOL     OW30181   0.574   1.307  10.547  0.3229  0.5720 -0.2076
 6182SOL    HW130182   0.551   1.215  10.538  0.6359  0.8423 -3.7123
 6182SOL    HW230183   0.506   1.354  10.499  1.6238  1.6194 -1.0519
 6183SOL     OW30184   3.073   2.596   3.590 -0.1616  0.4057 -0.7767
 6183SOL    HW130185   3.009   2.534   3.556  0.5614  1.8580 -4.8101
 6183SOL    HW230186   3.035   2.677   3.556 -2.3234 -0.0932  0.4764
 6184SOL     OW30187   0.669   1.620   4.508 -0.0995 -0.0799  0.5070
 6184SOL    HW130188   0.749   1.664   4.537 -0.9999  0.7190  1.8074
 6184SOL    HW230189   0.610   1.644   4.580 -0.5612 -0.3706  0.2251
 6185SOL     OW30190   2.236   1.506   0.483 -0.0474  0.0393 -0.6059
 6185SOL    HW130191   2.154   1.555   0.495  0.5849  0.9332  0.0523
 6185SOL    HW230192   2.222   1.494   0.389 -0.4644 -1.0818 -0.3961
 6186SOL     OW30193   2.837   1.267   4.979  0.5465 -0.0601  0.0318
 6186SOL    HW130194   2.879   1.260   4.893  2.8912 -1.9559  1.3108
 6186SOL    HW230195   2.885   1.196   5.022 -1.2343 -0.9497  0.5570
 6187SOL     OW30196   0.720   1.024   3.085 -0.3319  0.1109  0.3074
 6187SOL    HW130197   0.653   0.971   3.041  0.9805  0.4512 -2.1116
 6187SOL    HW230198   0.663   1.101   3.085 -0.8059 -0.2477  1.5782
 6188SOL     OW30199   2.945   1.449  14.189  0.4285 -0.5277 -0.6227
 6188SOL    HW130200   2.904   1.363  14.197  0.2223 -0.4697 -1.0987
 6188SOL    HW230201   2.959   1.450  14.094 -0.9915 -1.8462 -0.8437
 6189SOL     OW30202   4.224   1.866   3.101 -0.3406  0.2449  0.0416
 6189SOL    HW130203   4.254   1.957   3.102 -0.5610  0.3187 -0.3045
 6189SOL    HW230204   4.300   1.831   3.147  2.2258  1.8901 -2.9530
 6190SOL     OW30205   2.627   1.686   6.683  0.4284 -0.1227  0.1585
 6190SOL    HW130206   2.632   1.767   6.631  0.2208  0.6566  1.3411
 6190SOL    HW230207   2.557   1.642   6.637  0.2206  2.8553 -2.3754
 6191SOL     OW30208   0.504   4.240   7.698  0.0703 -0.0374  0.3683
 6191SOL    HW130209   0.493   4.203   7.610 -3.2382 -0.9271  1.1466
 6191SOL    HW230210   0.579   4.294   7.672 -0.8305  1.4690  0.8564
 6192SOL     OW30211   0.352   4.139   8.639 -0.0471  0.1940  0.0439
 6192SOL    HW130212   0.259   4.142   8.620 -0.1888 -0.5801  0.6026
 6192SOL    HW230213   0.357   4.175   8.728 -0.7098 -0.4694  0.3452
 6193SOL     OW30214   2.603   1.558   8.376  0.1214  0.4434  0.4614
 6193SOL    HW130215   2.573   1.637   8.331 -0.3832  0.0661  0.1281
 6193SOL    HW230216   2.537   1.553   8.445 -0.5811  2.4192 -0.0649
 6194SOL     OW30217   4.002   1.512   2.543 -0.2812  0.2755 -0.3667
 6194SOL    HW130218   3.952   1.589   2.572 -1.3157  0.1491 -1.8241
 6194SOL    HW230219   4.092   1.538   2.560  0.3294 -0.8099 -2.1131
 6195SOL     OW30220   2.156   0.052   9.330  0.0518 -0.5223 -0.3771
 6195SOL    HW130221   2.204   0.050   9.247  0.2218 -1.7665 -0.2482
 6195SOL    HW230222   2.179   4.705   9.373 -0.4194 -0.5949 -0.2656
 6196SOL     OW30223   0.585   0.246   8.837  0.0279  0.7094 -0.6471
 6196SOL    HW130224   0.512   0.304   8.815 -0.0446  0.5715 -0.7693
 6196SOL    HW230225   0.545   0.161   8.854  0.9519  0.7554  1.7033
 6197SOL     OW30226   4.404   0.627   4.838 -0.7087 -0.0470 -0.0659
 6197SOL    HW130227   4.437   0.541   4.864 -0.3625 -0.0970 -0.6628
 6197SOL    HW230228   4.417   0.666   4.924  0.8677  0.1475 -0.3932
 6198SOL     OW30229   2.843   2.624  16.910 -0.4667 -0.7458  0.1598
 6198SOL    HW130230   2.785   2.627  16.986  0.1014 -0.3980  0.5788
 6198SOL    HW230231   2.928   2.643  16.951  0.2278 -0.8739 -1.2258
 6199SOL     OW30232   2.823   0.960   2.196  0.1047 -0.3353  0.3262
 6199SOL    HW130233   2.778   1.028   2.246 -0.5335 -1.1304  0.8426
 6199SOL    HW230234   2.912   0.985   2.223  0.1968 -1.8177  1.4304
 6200SOL     OW30235   3.341   2.057   2.885 -0.1490  0.5056  0.6617
 6200SOL    HW130236   3.249   2.048   2.910  0.2547 -1.5939  1.4769
 6200SOL    HW230237   3.368   2.111   2.959  0.6029 -1.1111  1.5621
 6201SOL     OW30238   1.447   3.464   9.253 -0.7245  0.2400 -0.5435
 6201SOL    HW130239   1.383   3.517   9.301  0.6115  0.2601  1.1892
 6201SOL    HW230240   1.519   3.513   9.291  0.8651 -2.7522  0.3061
 6202SOL     OW30241   4.536   1.479   7.300  0.0521  0.3410  0.1950
 6202SOL    HW130242   4.626   1.469   7.271 -0.7470 -0.8034 -1.9086
 6202SOL    HW230243   4.548   1.555   7.358  1.7561  0.2608 -0.0545
 6203SOL     OW30244   3.740   1.465  15.790 -0.6531  0.2771  0.2289
 6203SOL    HW130245   3.787   1.384  15.810  1.0702  1.3657  0.5906
 6203SOL    HW230246   3.780   1.529  15.848  1.7931  0.1637 -1.3376
 6204SOL     OW30247   0.174   2.253  15.846 -0.2138  0.2705 -0.7231
 6204SOL    HW130248   0.107   2.239  15.780  1.3545 -0.9459 -2.0659
 6204SOL    HW230249   0.117   2.296  15.910  2.0978 -0.6139  1.9436
 6205SOL     OW30250   2.522   1.276  13.970 -0.0498 -0.2474  0.0664
 6205SOL    HW130251   2.535   1.291  14.063 -0.6853  1.5321 -0.1362
 6205SOL    HW230252   2.474   1.357  13.956 -1.0323 -0.9962 -0.9240
 6206SOL     OW30253   2.091   4.053   4.476  0.3356  0.0666 -0.2951
 6206SOL    HW130254   2.153   4.062   4.404 -1.2441  1.4367 -1.5026
 6206SOL    HW230255   2.117   4.136   4.518  0.9416 -0.5552  0.5642
 6207SOL     OW30256   0.239   3.755   5.785  0.2101  0.2962 -0.1835
 6207SOL    HW130257   0.228   3.660   5.791  0.2573  0.1364 -2.6091
 6207SOL    HW230258   0.160   3.785   5.830  0.3485  0.7721 -0.2592
 6208SOL     OW30259   0.724   0.884   2.400 -0.0632 -0.2532  0.4248
 6208SOL    HW130260   0.674   0.908   2.322 -2.7761  0.6698  2.4370
 6208SOL    HW230261   0.811   0.876   2.361  0.0707 -0.2264  0.7203
 6209SOL     OW30262   4.346   0.890   5.694 -0.0460  0.1906 -0.2495
 6209SOL    HW130263   4.397   0.810   5.686 -1.5149 -0.9796  2.2869
 6209SOL    HW230264   4.258   0.855   5.707 -0.1615 -0.0703 -1.7592
 6210SOL     OW30265   1.970   2.585   3.882 -0.5143 -0.5383  0.1755
 6210SOL    HW130266   1.979   2.631   3.966 -1.6556 -0.0058  0.0130
 6210SOL    HW230267   2.040   2.623   3.829 -0.4719  0.2448  0.7914
 6211SOL     OW30268   2.972   4.197   8.570  0.7375  0.2138  1.0281
 6211SOL    HW130269   3.024   4.274   8.593  0.0342  0.8841  0.3779
 6211SOL    HW230270   2.883   4.228   8.560  0.1734 -1.1673  1.7685
 6212SOL     OW30271   4.221   2.481   8.042  0.3539 -0.1854 -0.0769
 6212SOL    HW130272   4.141   2.453   7.998  1.6273 -1.2210 -1.7370
 6212SOL    HW230273   4.240   2.394   8.077  0.9801 -0.6898 -1.6627
 6213SOL     OW30274   1.703   2.042   4.792  0.0904 -0.3151 -0.3836
 6213SOL    HW130275   1.611   2.020   4.784  0.3224 -1.4045 -0.0844
 6213SOL    HW230276   1.724   2.095   4.715  1.0539 -1.4963 -0.9365
 6214SOL     OW30277   2.095   3.074   4.128 -0.5200  0.1357 -1.0495
 6214SOL    HW130278   2.057   3.158   4.100  2.0254  1.9684  1.0377
 6214SOL    HW230279   2.028   3.058   4.194 -1.3838  1.5569 -1.5676
 6215SOL     OW30280   3.925   4.113   9.029 -0.2220  0.6511  0.0903
 6215SOL    HW130281   4.013   4.140   9.003  0.0244 -1.2284 -0.9904
 6215SOL    HW230282   3.912   4.144   9.118  2.1005  1.7365  0.0436
 6216SOL     OW30283   2.330   0.063   3.927 -0.1076 -0.3195  0.3859
 6216SOL    HW130284   2.392   0.102   3.865 -1.2476  0.2956 -0.3480
 6216SOL    HW230285   2.271   0.138   3.931 -0.0931 -0.2486 -0.6922
 6217SOL     OW30286   4.641   0.051   7.454  0.2895  0.0112  0.2289
 6217SOL    HW130287   4.635   0.026   7.362 -0.0580  3.3406 -0.6405
 6217SOL    HW230288   4.553   0.088   7.464  0.3849  0.0525  0.9326
 6218SOL     OW30289   3.739   0.631  16.652 -0.3499  0.4316 -0.0101
 6218SOL    HW130290   3.816   0.590  16.691  0.1105  1.3394  0.0291
 6218SOL    HW230291   3.748   0.726  16.661  2.1350  0.1498  0.4958
 6219SOL     OW30292   2.522   2.262   8.037  0.0372 -0.3502  0.3722
 6219SOL    HW130293   2.607   2.221   8.018 -0.5465 -0.2111 -2.5448
 6219SOL    HW230294   2.523   2.273   8.132  2.7227 -0.4420  0.3690
 6220SOL     OW30295   3.781   1.627   5.634  1.0366 -0.1003 -0.0337
 6220SOL    HW130296   3.708   1.686   5.614  2.4226  0.9529 -1.9123
 6220SOL    HW230297   3.830   1.676   5.700 -0.8975  0.6085  0.8891
 6221SOL     OW30298   1.175   3.553   3.106  0.0759  0.5512 -0.3172
 6221SOL    HW130299   1.210   3.481   3.158  0.7407 -0.5264 -2.2530
 6221SOL    HW230300   1.130   3.591   3.181  0.3822  0.5383 -0.1283
 6222SOL     OW30301   1.255   3.329  15.393  0.2395 -0.5840 -0.2116
 6222SOL    HW130302   1.176   3.283  15.419  0.9817 -1.6649  0.1306
 6222SOL    HW230303   1.216   3.414  15.370  0.7044 -0.1368  0.6607
 6223SOL     OW30304   2.964   1.615   3.169 -0.1593 -0.1966  0.2212
 6223SOL    HW130305   3.027   1.664   3.117 -0.4808 -0.4556 -0.4175
 6223SOL    HW230306   2.891   1.612   3.107  0.1901  0.9535 -0.2429
 6224SOL     OW30307   3.210   0.583   2.533 -0.7129 -0.4606  0.0674
 6224SOL    HW130308   3.175   0.508   2.485 -0.3481 -0.6246  0.0582
 6224SOL    HW230309   3.229   0.649   2.466  1.0785 -0.7761  0.2510
 6225SOL     OW30310   4.169   2.878   6.304 -0.0759 -0.2561 -0.2392
 6225SOL    HW130311   4.210   2.792   6.302 -0.1482 -0.3153  1.0160
 6225SOL    HW230312   4.091   2.858   6.356 -0.0843  3.2704  1.1078
 6226SOL     OW30313   2.080   2.834   0.959 -1.0734  0.1306  0.2375
 6226SOL    HW130314   1.988   2.845   0.983 -0.9884 -0.2613  0.7533
 6226SOL    HW230315   2.116   2.870   1.040  0.8748  0.1725 -0.6561
 6227SOL     OW30316   0.368   2.615  12.395 -0.2801 -0.3730 -0.1988
 6227SOL    HW130317   0.282   2.655  12.405 -1.3368 -2.7264  0.1681
 6227SOL    HW230318   0.350   2.552  12.325 -0.4485  0.3615 -0.8126
 6228SOL     OW30319   0.025   2.098   1.717  0.3285 -0.4586 -0.1554
 6228SOL    HW130320   4.681   2.046   1.712 -1.3887  2.0948  0.3505
 6228SOL    HW230321   0.093   2.040   1.685  0.1460 -1.0858  0.5627
 6229SOL     OW30322   1.688   2.225  16.917 -0.2336  0.5698 -0.3972
 6229SOL    HW130323   1.677   2.319  16.927 -1.5977  0.3705 -0.1024
 6229SOL    HW230324   1.607   2.191  16.955  0.3130 -0.9239 -0.5574
 6230SOL     OW30325   0.504   4.714   9.151 -0.1993  0.0017 -0.2064
 6230SOL    HW130326   0.542   4.662   9.080  2.2156  0.5800  0.7031
 6230SOL    HW230327   0.543   0.065   9.140  0.8051 -0.4739 -0.3964
 6231SOL     OW30328   2.816   0.555   8.826 -0.0398 -0.1256 -0.1700
 6231SOL    HW130329   2.888   0.551   8.762 -0.7999 -0.0785 -1.0314
 6231SOL    HW230330   2.779   0.643   8.815 -0.1801 -0.3625 -1.6313
 6232SOL     OW30331   4.618   3.867   1.963 -0.1635  0.2212  0.6783
 6232SOL    HW130332   4.685   3.930   1.991 -0.7993  0.8508  0.7827
 6232SOL    HW230333   4.558   3.938   1.944  0.9810  0.9591 -0.1908
 6233SOL     OW30334   1.647   3.128   0.917 -0.2392 -0.0683 -0.0648
 6233SOL    HW130335   1.616   3.087   0.837  0.8352 -1.1223  0.0719
 6233SOL    HW230336   1.714   3.184   0.878 -0.5367 -0.1718 -0.7230
 6234SOL     OW30337   4.062   0.315   3.704  0.7329 -0.2383 -0.0807
 6234SOL    HW130338   4.063   0.253   3.776  0.0722  2.5138  2.2812
 6234SOL    HW230339   3.998   0.271   3.648 -0.0318 -1.2879  1.6208
 6235SOL     OW30340   2.599   0.809   6.885 -0.0849  0.4233 -0.4725
 6235SOL    HW130341   2.515   0.771   6.913  1.0059 -0.5816  1.4632
 6235SOL    HW230342   2.578   0.902   6.882  1.9237  0.9037  0.6258
 6236SOL     OW30343   0.386   2.639  12.993  0.3105 -0.2071  0.8437
 6236SOL    HW130344   0.324   2.712  13.001 -1.5887 -1.8024  0.5630
 6236SOL    HW230345   0.398   2.618  13.086  2.8899  1.8312  0.9456
 6237SOL     OW30346   4.602   2.227  11.732 -0.6915 -0.2834  0.6063
 6237SOL    HW130347   4.521   2.198  11.775 -0.8903 -1.2165 -0.3911
 6237SOL    HW230348   4.662   2.199  11.800 -1.1211 -0.5856  0.8611
 6238SOL     OW30349   0.565   4.678   8.887  0.1613  0.6836 -0.1780
 6238SOL    HW130350   0.502   4.703   8.821 -0.0951 -2.2040 -1.0253
 6238SOL    HW230351   0.640   4.660   8.830  0.7825  1.5543  0.3654
 6239SOL     OW30352   0.668   2.311   4.329 -0.0842 -0.2935 -0.4024
 6239SOL    HW130353   0.758   2.286   4.353 -0.2899 -0.8588 -0.2181
 6239SOL    HW230354   0.687   2.380   4.266  0.0788  1.9788  2.1101
 6240SOL     OW30355   2.553   0.923  12.237 -0.3961  0.9560  0.2202
 6240SOL    HW130356   2.508   1.005  12.258  0.9495  1.9383 -0.6371
 6240SOL    HW230357   2.577   0.936  12.145  3.6759  0.1713  1.1458
 6241SOL     OW30358   4.017   0.799   7.412 -0.0571  0.1313 -0.4103
 6241SOL    HW130359   3.967   0.793   7.494  0.5767  0.6914  0.0100
 6241SOL    HW230360   3.952   0.803   7.341 -0.3506 -3.2150 -0.3569
 6242SOL     OW30361   0.096   1.611   6.794  0.0155 -0.1968  0.4146
 6242SOL    HW130362   0.162   1.607   6.863  0.6389 -0.4136 -0.1944
 6242SOL    HW230363   0.016   1.642   6.836  0.4523  0.5947  0.6649
 6243SOL     OW30364   3.782   2.548   4.059  0.1381  0.1243  0.1939
 6243SOL    HW130365   3.740   2.625   4.098  1.2591  0.8521 -0.0475
 6243SOL    HW230366   3.870   2.553   4.098  0.1717 -2.3771  0.4887
 6244SOL     OW30367   1.583   2.756   2.396  0.2843 -0.0430  0.0199
 6244SOL    HW130368   1.540   2.827   2.444  1.6648  1.4254 -0.9089
 6244SOL    HW230369   1.515   2.729   2.333  1.0848 -0.9991 -0.4377
 6245SOL     OW30370   3.769   4.467   0.736  0.2664  0.2034 -0.3026
 6245SOL    HW130371   3.712   4.423   0.800 -1.7273  1.0975 -1.4548
 6245SOL    HW230372   3.812   4.395   0.690  0.3370 -0.5540  0.9461
 6246SOL     OW30373   3.426   0.600  10.225  0.5389 -0.0853  0.5096
 6246SOL    HW130374   3.400   0.672  10.282 -0.9113  0.9053 -1.3976
 6246SOL    HW230375   3.518   0.599  10.252  0.1339  1.1339  1.8742
 6247SOL     OW30376   2.916   0.848  15.313 -0.0066  0.2453 -0.2896
 6247SOL    HW130377   2.982   0.860  15.382 -0.6031  1.3093  0.0945
 6247SOL    HW230378   2.894   0.939  15.293 -2.6843 -0.4753 -0.5786
 6248SOL     OW30379   1.976   1.512   8.865 -0.6153  0.0818  0.2230
 6248SOL    HW130380   1.970   1.556   8.950 -1.4480 -1.4929  0.9821
 6248SOL    HW230381   2.054   1.457   8.874 -2.4654 -3.1445 -3.5913
 6249SOL     OW30382   0.008   3.731   8.300  0.0448 -0.7762  0.0153
 6249SOL    HW130383   0.061   3.713   8.222  1.1861 -1.0108  0.8358
 6249SOL    HW230384   0.072   3.745   8.370  0.4585  0.7827 -0.6741
 6250SOL     OW30385   1.333   2.776   8.348 -0.8381  0.1504  0.1339
 6250SOL    HW130386   1.264   2.823   8.302 -1.2542  0.3455  0.9580
 6250SOL    HW230387   1.348   2.829   8.426  2.2612  1.0717 -1.0488
 6251SOL     OW30388   4.050   2.184   4.870 -0.3149  0.5710  0.7006
 6251SOL    HW130389   4.044   2.273   4.838  2.1329  0.9248  1.2572
 6251SOL    HW230390   3.998   2.190   4.951  0.2920  0.0018  1.1362
 6252SOL     OW30391   1.163   1.211  12.729  0.1823 -0.0615  0.0309
 6252SOL    HW130392   1.246   1.226  12.683 -0.8475  1.0661 -1.4605
 6252SOL    HW230393   1.106   1.200  12.654 -1.6634  0.8028  1.2991
 6253SOL     OW30394   1.928   0.685   5.935 -0.4908 -0.0274 -0.2574
 6253SOL    HW130395   1.872   0.659   5.861  1.1498  0.3480 -1.6362
 6253SOL    HW230396   1.866   0.739   5.983 -1.9160 -1.5085 -0.4002
 6254SOL     OW30397   0.814   3.772   1.719 -0.0835  0.2207 -0.3770
 6254SOL    HW130398   0.814   3.778   1.815 -1.1025 -0.2123 -0.3508
 6254SOL    HW230399   0.887   3.828   1.692  0.3385  0.4966  1.2958
 6255SOL     OW30400   3.329   3.552   1.024  0.2132  0.4731 -1.0034
 6255SOL    HW130401   3.295   3.629   0.980  0.9574  0.7138 -1.1601
 6255SOL    HW230402   3.420   3.563   0.997  0.9843  1.0414  1.8525
 6256SOL     OW30403   4.358   0.983  15.220  0.5987  0.1848  0.0185
 6256SOL    HW130404   4.331   0.919  15.154  1.6257 -2.0240  1.7682
 6256SOL    HW230405   4.447   0.956  15.240  0.0648 -0.1147  1.9549
 6257SOL     OW30406   0.165   1.978   6.582  0.1425  0.1022  0.0163
 6257SOL    HW130407   0.149   1.895   6.539  0.3767 -0.2199  0.5482
 6257SOL    HW230408   0.254   1.995   6.552  0.8759 -0.6338  1.7751
 6258SOL     OW30409   2.791   2.802   5.594  0.2059 -0.2032 -0.1592
 6258SOL    HW130410   2.876   2.842   5.614 -0.5448  1.2037  0.2232
 6258SOL    HW230411   2.787   2.809   5.499  1.7739  2.9308  0.0148
 6259SOL     OW30412   0.240   3.857   4.739  0.1007 -0.2355  0.1499
 6259SOL    HW130413   0.190   3.786   4.698  0.9597 -1.4465  1.1991
 6259SOL    HW230414   0.326   3.816   4.748  1.3118  1.2232 -4.6879
 6260SOL     OW30415   3.169   3.554   3.675 -0.0966 -0.4880 -0.4943
 6260SOL    HW130416   3.117   3.585   3.601 -1.2428 -1.6520 -0.1821
 6260SOL    HW230417   3.093   3.545   3.733 -0.6051 -0.2860 -1.1228
 6261SOL     OW30418   0.915   4.285   5.051 -0.1746 -0.1681 -0.0675
 6261SOL    HW130419   0.820   4.284   5.048 -0.1699  1.0352 -0.7383
 6261SOL    HW230420   0.928   4.370   5.092  0.4122 -0.2987  0.0223
 6262SOL     OW30421   0.712   0.756   6.873 -0.6312  0.0279 -0.7397
 6262SOL    HW130422   0.752   0.690   6.929 -0.0171  0.9633 -0.0944
 6262SOL    HW230423   0.635   0.794   6.915  0.2586  0.5792  0.3699
 6263SOL     OW30424   1.509   1.885   2.722  0.6270  0.0554  0.1455
 6263SOL    HW130425   1.470   1.798   2.734 -1.8689  1.1403 -0.1036
 6263SOL    HW230426   1.434   1.945   2.717  0.3838 -0.2647 -0.1123
 6264SOL     OW30427   2.868   1.600   5.654  0.3345 -0.3589  0.1262
 6264SOL    HW130428   2.952   1.562   5.630  0.8475 -0.7178  2.4736
 6264SOL    HW230429   2.843   1.641   5.571  0.4749  0.1230  0.3201
 6265SOL     OW30430   1.605   4.096   7.628 -0.0700 -0.2302 -0.1950
 6265SOL    HW130431   1.586   4.059   7.541 -0.9308 -1.1495  0.3724
 6265SOL    HW230432   1.698   4.115   7.617 -0.3345  0.0976 -1.9183
 6266SOL     OW30433   1.625   4.376  12.542 -0.2416  0.0916 -0.2851
 6266SOL    HW130434   1.603   4.395  12.633 -1.0392  0.8567 -0.6379
 6266SOL    HW230435   1.707   4.424  12.528  0.2847 -0.8255 -0.3338
 6267SOL     OW30436   0.951   4.492   4.094  0.3354 -0.4445 -0.1808
 6267SOL    HW130437   0.859   4.486   4.070  0.2352  1.0283 -0.1750
 6267SOL    HW230438   0.960   4.582   4.126  0.8439 -0.1623 -1.1091
 6268SOL     OW30439   4.313   2.323  13.496 -0.1887  0.3430  0.2093
 6268SOL    HW130440   4.319   2.244  13.550 -3.6661 -0.2764 -0.3210
 6268SOL    HW230441   4.368   2.380  13.550  0.7847 -0.5951  0.2182
 6269SOL     OW30442   4.650   3.808   3.125 -0.1658  0.3892 -0.7571
 6269SOL    HW130443   4.590   3.734   3.121 -0.0159  0.2637 -0.6788
 6269SOL    HW230444   4.731   3.769   3.094  0.6055  0.7470  0.8199
 6270SOL     OW30445   0.018   1.210   4.492 -0.9713  0.2968  0.3635
 6270SOL    HW130446   4.707   1.252   4.420 -0.7610 -2.5709 -1.4201
 6270SOL    HW230447   4.684   1.150   4.520 -1.5476  0.4604 -0.7614
 6271SOL     OW30448   1.192   4.340   8.886  0.5675  0.2431  0.3413
 6271SOL    HW130449   1.267   4.366   8.833  0.2335  1.7280  0.5961
 6271SOL    HW230450   1.186   4.414   8.946  0.4903  0.7421 -0.2902
 6272SOL     OW30451   3.416   0.168   2.469  0.5300  0.2127 -0.1544
 6272SOL    HW130452   3.396   0.137   2.381  0.2114 -0.0394  0.0060
 6272SOL    HW230453   3.338   0.133   2.513  0.2581  1.0147  0.0050
 6273SOL     OW30454   0.448   1.013   6.700 -0.5502 -0.1787 -0.0675
 6273SOL    HW130455   0.482   0.948   6.762  0.0040  1.7422  1.6341
 6273SOL    HW230456   0.457   0.973   6.613 -0.1195  0.9249 -0.5272
 6274SOL     OW30457   2.260   4.497  17.658 -0.1194  0.5268 -0.1817
 6274SOL    HW130458   2.274   4.403  17.643  1.4248  0.5053  1.3998
 6274SOL    HW230459   2.198   4.497  17.731  2.1754  0.7940  1.7680
 6275SOL     OW30460   2.238   0.323   4.010 -0.6433 -0.5466  0.2715
 6275SOL    HW130461   2.241   0.417   3.993  0.9383 -0.2085  2.3447
 6275SOL    HW230462   2.193   0.332   4.094  0.6280 -0.8130  0.9952
 6276SOL     OW30463   1.819   3.240  16.027 -0.1433 -0.5101  0.6530
 6276SOL    HW130464   1.750   3.254  16.091 -1.3068 -4.2548  0.2025
 6276SOL    HW230465   1.863   3.323  16.046  0.7943 -0.5944 -1.0950
 6277SOL     OW30466   2.129   2.387   1.816  0.8764  0.3363  0.5572
 6277SOL    HW130467   2.224   2.386   1.827  0.9112 -0.1090  0.2481
 6277SOL    HW230468   2.107   2.416   1.904 -0.5252 -0.9121  0.6183
 6278SOL     OW30469   1.483   1.926  14.921  0.0398  0.1562  0.7472
 6278SOL    HW130470   1.479   1.833  14.941  0.8798 -0.4197 -1.8424
 6278SOL    HW230471   1.396   1.966  14.920 -1.3923 -3.0430  0.2233
 6279SOL     OW30472   3.917   2.115  14.339  0.3615 -0.0449 -0.8350
 6279SOL    HW130473   4.010   2.129  14.319  0.5758 -0.2577  0.0189
 6279SOL    HW230474   3.872   2.195  14.312  2.3995  0.7964 -1.7716
 6280SOL     OW30475   1.828   2.711   4.154 -0.2391  0.1361 -0.5538
 6280SOL    HW130476   1.793   2.623   4.159  1.9964 -0.8123 -1.5657
 6280SOL    HW230477   1.768   2.766   4.205 -0.9865 -1.5932  0.4045
 6281SOL     OW30478   1.147   4.254   7.724 -0.3537 -0.0780 -0.1298
 6281SOL    HW130479   1.214   4.187   7.716  0.6321  0.8599  0.2506
 6281SOL    HW230480   1.200   4.332   7.709  0.8708 -1.0533 -0.7771
 6282SOL     OW30481   3.378   0.956  15.745  0.0787 -0.3988  0.2952
 6282SOL    HW130482   3.341   0.869  15.729  2.6439 -1.5400  0.6569
 6282SOL    HW230483   3.311   1.011  15.703  0.9596  2.1697  2.2907
 6283SOL     OW30484   1.584   1.498   6.957 -0.2375 -0.2056 -0.2280
 6283SOL    HW130485   1.493   1.486   6.983  0.1097  0.7655  1.3898
 6283SOL    HW230486   1.601   1.571   7.017 -0.8225  1.4070 -2.0131
 6284SOL     OW30487   2.156   3.198  15.952  0.2370 -0.1297 -0.0939
 6284SOL    HW130488   2.107   3.264  16.002  2.3731  1.1165  0.3274
 6284SOL    HW230489   2.165   3.243  15.868  0.9713 -1.4410 -0.7128
 6285SOL     OW30490   2.463   0.949   4.205 -0.4691  0.1407 -0.3193
 6285SOL    HW130491   2.456   0.860   4.240 -2.9283  0.8379  0.9384
 6285SOL    HW230492   2.415   0.999   4.271  0.2895 -0.3976  0.6368
 6286SOL     OW30493   0.020   1.572   5.157  0.0353 -0.3246  0.1187
 6286SOL    HW130494   0.032   1.478   5.147 -0.0493 -0.1315 -2.0083
 6286SOL    HW230495   0.004   1.574   5.251  0.3112  1.1944  0.1444
 6287SOL     OW30496   4.391   2.577   3.777  0.3775  0.4472  0.4441
 6287SOL    HW130497   4.371   2.634   3.702  1.3774 -1.4299 -1.2641
 6287SOL    HW230498   4.381   2.491   3.736 -3.5563  0.2860  1.7615
 6288SOL     OW30499   1.653   2.876  12.628  0.4772 -0.4720 -0.5626
 6288SOL    HW130500   1.613   2.947  12.679 -0.6854 -1.4778 -0.0839
 6288SOL    HW230501   1.747   2.881  12.644  0.4210 -0.3361 -0.2844
 6289SOL     OW30502   4.004   3.607  16.111 -0.3400  0.6990 -0.8637
 6289SOL    HW130503   3.925   3.568  16.072 -0.4531 -1.6568  1.7346
 6289SOL    HW230504   4.065   3.640  16.045  1.0698 -1.9016 -0.8670
 6290SOL     OW30505   1.533   0.171   0.171 -0.0568 -0.2573  0.0262
 6290SOL    HW130506   1.455   0.218   0.199  0.9491  1.1189  0.4783
 6290SOL    HW230507   1.562   0.153   0.260  1.5490 -0.9244 -0.6135
 6291SOL     OW30508   2.010   3.818   1.793  0.5071 -0.4842 -0.1472
 6291SOL    HW130509   1.958   3.786   1.867  0.6576 -0.7904 -0.1740
 6291SOL    HW230510   1.970   3.767   1.722 -0.4883  0.4615 -0.2496
 6292SOL     OW30511   2.308   3.998   7.891  0.4690 -0.2340 -0.2232
 6292SOL    HW130512   2.242   3.937   7.859 -1.3284  1.7913 -0.3660
 6292SOL    HW230513   2.252   4.075   7.901 -1.5977 -1.6619 -0.8819
 6293SOL     OW30514   3.296   3.719   0.814 -1.0213 -0.4618  0.3168
 6293SOL    HW130515   3.201   3.714   0.799 -0.6605 -1.1338 -1.8449
 6293SOL    HW230516   3.331   3.749   0.730 -2.1770  2.1977  0.7836
 6294SOL     OW30517   2.376   3.737  11.247 -0.0109 -0.2862  0.3680
 6294SOL    HW130518   2.455   3.707  11.293  2.4099 -0.5144 -3.9550
 6294SOL    HW230519   2.386   3.695  11.162 -0.9055 -2.0999  1.1627
 6295SOL     OW30520   2.994   0.962   9.621 -0.1817 -0.2543  0.2845
 6295SOL    HW130521   3.020   0.986   9.710  0.8337 -0.3744  0.0209
 6295SOL    HW230522   3.033   1.032   9.570 -1.2157  1.2286  1.5532
 6296SOL     OW30523   3.344   2.777   3.555  0.4145  0.3054 -0.1303
 6296SOL    HW130524   3.312   2.840   3.621  0.1645 -0.2402  0.2691
 6296SOL    HW230525   3.428   2.757   3.596  0.8532  2.4717  0.0224
 6297SOL     OW30526   2.186   0.333   8.824  0.4417 -0.0349 -0.0299
 6297SOL    HW130527   2.224   0.408   8.777  0.8261 -1.3369 -1.8104
 6297SOL    HW230528   2.204   0.353   8.916 -1.1039 -0.1786  0.2960
 6298SOL     OW30529   0.450   1.341  11.898 -0.4013  0.0271 -0.1971
 6298SOL    HW130530   0.407   1.286  11.832  1.6124 -1.6364 -0.1472
 6298SOL    HW230531   0.542   1.327  11.878  0.7842  3.1419  3.0692
 6299SOL     OW30532   0.099   2.858   3.753  0.2838  0.0683 -0.5377
 6299SOL    HW130533   0.015   2.823   3.784  1.1502 -1.7823 -0.2579
 6299SOL    HW230534   0.123   2.924   3.817 -1.1763 -1.8761  1.9994
 6300SOL     OW30535   2.407   3.240   2.886  0.0475 -0.5796  0.2630
 6300SOL    HW130536   2.495   3.241   2.849 -0.5284 -2.1271 -1.1619
 6300SOL    HW230537   2.363   3.261   2.803 -0.2115 -1.5306  0.1634
 6301SOL     OW30538   3.679   1.860   4.603 -0.3843 -0.2841 -0.6165
 6301SOL    HW130539   3.749   1.807   4.642  1.5711  0.8632 -2.5483
 6301SOL    HW230540   3.647   1.909   4.679  0.7972  0.2063 -0.4375
 6302SOL     OW30541   3.563   3.598   7.091  0.2667 -0.1926  0.0958
 6302SOL    HW130542   3.530   3.652   7.162 -0.8516  0.4738 -0.9278
 6302SOL    HW230543   3.608   3.671   7.047 -2.0563  1.1638 -0.0366
 6303SOL     OW30544   2.541   0.364   4.073  0.2631  0.2351 -0.1179
 6303SOL    HW130545   2.482   0.356   3.998  0.4414  1.5918 -0.4038
 6303SOL    HW230546   2.625   0.324   4.052  0.8086  1.4698 -0.3255
 6304SOL     OW30547   0.830   0.163   7.956 -0.4451  0.0910 -0.5538
 6304SOL    HW130548   0.840   0.079   8.001  0.1274  0.8030  0.6445
 6304SOL    HW230549   0.911   0.177   7.907  0.3696 -3.1731 -0.1296
 6305SOL     OW30550   1.832   0.042   3.118  0.2860  0.1550 -0.6018
 6305SOL    HW130551   1.844   0.134   3.094  0.9626  0.1194 -0.3858
 6305SOL    HW230552   1.755   0.016   3.067  0.0582  0.5466 -0.4507
 6306SOL     OW30553   1.338   3.548   5.297  0.1429  0.0995  0.1431
 6306SOL    HW130554   1.261   3.495   5.318 -0.0525 -0.6601 -2.4523
 6306SOL    HW230555   1.390   3.542   5.377 -0.8310  1.7319  0.9177
 6307SOL     OW30556   3.580   4.101   3.730 -0.3357  0.6541 -0.1269
 6307SOL    HW130557   3.559   4.037   3.662 -0.5358 -0.6025  1.0961
 6307SOL    HW230558   3.661   4.055   3.754 -2.3917 -1.2990  3.1022
 6308SOL     OW30559   2.024   0.988   7.672  0.4354 -0.1165  0.0215
 6308SOL    HW130560   1.929   0.992   7.665  0.4272  1.7582  1.2489
 6308SOL    HW230561   2.036   1.003   7.766  2.6502 -1.4404 -0.0289
 6309SOL     OW30562   2.864   3.475   4.398 -0.2183 -0.5145 -0.2382
 6309SOL    HW130563   2.815   3.558   4.390  2.6408  1.3749  1.7699
 6309SOL    HW230564   2.885   3.464   4.305  1.8338 -3.8111  0.6355
 6310SOL     OW30565   0.695   1.925   6.683 -0.3287  0.0630  0.3184
 6310SOL    HW130566   0.764   1.965   6.735 -0.7426 -1.5148  2.0464
 6310SOL    HW230567   0.718   1.953   6.594 -1.2308 -0.7189 -0.1624
 6311SOL     OW30568   3.484   4.528   4.707  0.5353 -0.6954 -0.1993
 6311SOL    HW130569   3.548   4.515   4.777  0.5523  0.5247  0.0082
 6311SOL    HW230570   3.539   4.554   4.633 -1.1506  2.0913 -0.4485
 6312SOL     OW30571   3.052   3.983   0.629  0.5125  0.0958 -0.7779
 6312SOL    HW130572   3.067   3.987   0.723 -0.6484  1.8026 -0.6625
 6312SOL    HW230573   2.963   4.019   0.634  0.6362  0.4997 -1.4415
 6313SOL     OW30574   0.727   4.091   1.843 -0.2223  0.1005 -0.3741
 6313SOL    HW130575   0.655   4.101   1.905 -0.7412 -2.6941 -0.5095
 6313SOL    HW230576   0.683   4.067   1.761  0.6156 -0.2710 -0.7210
 6314SOL     OW30577   3.396   3.293  10.154  0.4387 -0.4899  0.3202
 6314SOL    HW130578   3.331   3.243  10.104  0.3150 -0.1077  0.0968
 6314SOL    HW230579   3.346   3.329  10.227 -0.6131 -0.2160 -0.5364
 6315SOL     OW30580   1.884   3.662   2.008  0.8829  0.2351  0.0134
 6315SOL    HW130581   1.792   3.681   2.025  0.6960  0.4901 -1.2869
 6315SOL    HW230582   1.893   3.592   2.072 -0.1791 -1.6767 -1.9067
 6316SOL     OW30583   0.757   4.294   5.321 -0.4537  0.0040  0.6102
 6316SOL    HW130584   0.724   4.217   5.275 -1.2295 -0.0161  1.2006
 6316SOL    HW230585   0.696   4.366   5.303 -1.7884 -0.5267  3.0079
 6317SOL     OW30586   0.773   2.665   5.616  0.6711 -0.2063  0.2922
 6317SOL    HW130587   0.837   2.691   5.682  1.5897  0.7246 -0.9597
 6317SOL    HW230588   0.796   2.739   5.560 -1.3477 -0.2953 -0.6686
 6318SOL     OW30589   4.090   4.724   3.495  0.2287  0.2312  0.2026
 6318SOL    HW130590   4.134   4.730   3.580 -0.9671  2.1301  0.6815
 6318SOL    HW230591   4.015   0.042   3.519 -0.4828 -0.3328 -0.7427
 6319SOL     OW30592   0.344   2.642   2.242 -0.0092 -0.1944 -0.6901
 6319SOL    HW130593   0.398   2.719   2.223 -1.1528  0.5067 -1.0755
 6319SOL    HW230594   0.257   2.673   2.216 -1.3023 -1.6467  1.9204
 6320SOL     OW30595   0.286   4.198  12.102  0.5831  0.5174 -0.1080
 6320SOL    HW130596   0.289   4.175  12.009  0.8812 -0.4713  0.1507
 6320SOL    HW230597   0.193   4.188  12.122  0.4237  1.1892 -0.4748
 6321SOL     OW30598   2.691   3.632  11.598  0.3896  0.3128 -0.0074
 6321SOL    HW130599   2.653   3.664  11.516 -1.5647  3.3031  2.0627
 6321SOL    HW230600   2.736   3.551  11.572 -0.2726 -0.5677  1.5923
 6322SOL     OW30601   2.084   1.861  16.205  0.2290  0.5403 -0.1988
 6322SOL    HW130602   1.994   1.865  16.237 -0.1994 -0.4935 -1.2495
 6322SOL    HW230603   2.083   1.766  16.198 -2.0857  0.5159  0.7022
 6323SOL     OW30604   2.464   0.081   2.343  0.1595 -0.2883  0.1758
 6323SOL    HW130605   2.377   0.059   2.310 -0.3022 -0.0688  1.2298
 6323SOL    HW230606   2.497   0.146   2.281  1.8389  0.0186  1.3925
 6324SOL     OW30607   1.038   2.266   3.864  0.2643  0.2665  0.2075
 6324SOL    HW130608   0.985   2.276   3.785 -1.9181  0.5620  1.6979
 6324SOL    HW230609   1.077   2.181   3.846  0.0222  0.1561  0.1991
 6325SOL     OW30610   3.723   1.073   6.851 -0.1334  0.4414 -0.7227
 6325SOL    HW130611   3.680   0.999   6.809 -0.9005  1.4533 -1.7047
 6325SOL    HW230612   3.729   1.129   6.774  1.3823  2.3376  0.7694
 6326SOL     OW30613   3.919   1.456   4.654  0.2962 -0.5898  0.6798
 6326SOL    HW130614   3.862   1.404   4.711 -0.3795 -0.6881 -0.0759
 6326SOL    HW230615   3.859   1.496   4.591  1.0291  0.4614  0.6569
 6327SOL     OW30616   2.293   0.344  13.434 -0.3004  0.0882 -0.1192
 6327SOL    HW130617   2.316   0.252  13.439  0.2597  0.3404  1.7608
 6327SOL    HW230618   2.199   0.341  13.413 -0.5090 -0.2492  0.9076
 6328SOL     OW30619   4.714   4.561   4.397  0.3765  0.1774  0.1211
 6328SOL    HW130620   4.714   4.574   4.302 -1.4206 -1.6747 -0.1358
 6328SOL    HW230621   0.011   4.472   4.406  0.9158  0.4825  1.1483
 6329SOL     OW30622   3.784   2.581   7.996  0.0709 -0.4421  0.1252
 6329SOL    HW130623   3.778   2.577   8.091 -1.3613  0.8705  0.1008
 6329SOL    HW230624   3.758   2.673   7.986  0.1499 -0.7389 -2.9002
 6330SOL     OW30625   4.728   4.266  16.569 -0.0793  0.5432  0.1241
 6330SOL    HW130626   4.677   4.342  16.540  1.5959  1.8151  0.5474
 6330SOL    HW230627   0.081   4.300  16.579 -0.6589  1.7796  1.1138
 6331SOL     OW30628   1.502   3.206   6.133  0.2397  0.4581 -0.2938
 6331SOL    HW130629   1.438   3.275   6.114  1.7882  1.5542 -1.5126
 6331SOL    HW230630   1.585   3.252   6.132 -0.7635  2.2789 -0.1301
 6332SOL     OW30631   1.475   1.135   7.241  0.0430 -0.6852  0.6429
 6332SOL    HW130632   1.460   1.135   7.335  2.4300 -0.4817  1.0268
 6332SOL    HW230633   1.461   1.044   7.213  2.4939 -0.3168 -1.8235
 6333SOL     OW30634   2.870   4.274   9.392 -0.7672  0.1398  0.2390
 6333SOL    HW130635   2.812   4.302   9.462 -0.7790 -0.7679  0.5909
 6333SOL    HW230636   2.956   4.275   9.434 -1.1952 -0.1363  1.1093
 6334SOL     OW30637   4.028   3.115   2.320 -0.8432 -0.1958  0.0540
 6334SOL    HW130638   3.994   3.026   2.317  1.0111 -0.9118 -0.1076
 6334SOL    HW230639   3.961   3.162   2.368  0.5702  1.3088  0.5729
 6335SOL     OW30640   1.691   2.379   9.679  0.0178 -0.1747 -0.5427
 6335SOL    HW130641   1.771   2.431   9.669  0.7060 -1.3820 -1.2761
 6335SOL    HW230642   1.661   2.394   9.769 -0.8332 -1.3971 -0.6182
 6336SOL     OW30643   3.592   2.761   8.290 -0.0761  0.3267  0.2362
 6336SOL    HW130644   3.625   2.831   8.346  0.6818 -2.1246  2.8329
 6336SOL    HW230645   3.668   2.709   8.265  0.2446  1.6034 -1.4759
 6337SOL     OW30646   0.050   3.785  12.940 -0.6287 -0.1099 -0.5176
 6337SOL    HW130647   0.065   3.738  13.023  0.5678  0.2805 -0.5223
 6337SOL    HW230648   0.066   3.876  12.962  1.2295 -0.2183 -1.4436
 6338SOL     OW30649   0.762   1.199   7.641  0.0187  0.4293  0.1792
 6338SOL    HW130650   0.682   1.225   7.595  0.1649 -1.4045 -1.1277
 6338SOL    HW230651   0.728   1.139   7.707 -0.9124  1.0348  0.2449
 6339SOL     OW30652   0.901   1.186   6.042  0.3209  0.3344 -0.1196
 6339SOL    HW130653   0.857   1.106   6.072  2.5423 -0.7688  0.2127
 6339SOL    HW230654   0.983   1.144   6.017  1.2717  0.7893  2.2438
 6340SOL     OW30655   2.851   0.599  10.602  0.1080  0.1480  0.2197
 6340SOL    HW130656   2.942   0.570  10.606 -0.4989 -1.5882  1.5010
 6340SOL    HW230657   2.827   0.568  10.689 -2.2464  0.5057 -0.2849
 6341SOL     OW30658   1.796   2.602   3.515 -0.1718  0.0326 -0.2441
 6341SOL    HW130659   1.728   2.628   3.453  0.7614  0.5372 -1.0572
 6341SOL    HW230660   1.753   2.587   3.599  0.8702 -1.2667  0.0581
 6342SOL     OW30661   4.707   0.358   7.946  0.1544  0.2122 -0.2671
 6342SOL    HW130662   0.023   0.433   7.916  2.1075 -1.1543 -0.2752
 6342SOL    HW230663   4.618   0.387   7.926  0.2960  1.4532  0.8485
 6343SOL     OW30664   0.173   3.338   4.185 -0.1114  0.6760  0.0877
 6343SOL    HW130665   0.162   3.339   4.280 -1.8558 -0.2047 -0.1014
 6343SOL    HW230666   0.251   3.390   4.165  0.0859  0.6393  0.7441
 6344SOL     OW30667   3.679   3.699   9.133  0.0452  0.6909  0.3755
 6344SOL    HW130668   3.658   3.605   9.128 -2.4196  1.2738 -0.1770
 6344SOL    HW230669   3.772   3.691   9.152 -0.1761 -0.8387  0.8965
 6345SOL     OW30670   3.705   2.270   2.675 -0.3080 -0.0455 -0.3285
 6345SOL    HW130671   3.643   2.324   2.723  2.0508  0.8108  1.7454
 6345SOL    HW230672   3.777   2.333   2.667 -0.0053 -0.0704  2.3140
 6346SOL     OW30673   3.688   0.776  13.036 -0.4987 -0.0469  0.5049
 6346SOL    HW130674   3.602   0.753  13.071 -0.0925 -1.5202  0.5649
 6346SOL    HW230675   3.737   0.824  13.102  1.3697  0.9072 -1.5581
 6347SOL     OW30676   2.943   1.817   5.042 -0.3559  0.4198 -0.8470
 6347SOL    HW130677   2.921   1.811   4.950 -0.4086  0.4825 -0.8381
 6347SOL    HW230678   2.989   1.734   5.055 -1.0976  0.1023 -0.2634
 6348SOL     OW30679   0.920   3.410   0.488 -0.4028  0.0193 -0.3572
 6348SOL    HW130680   0.850   3.449   0.540 -0.8680  0.3473 -1.2312
 6348SOL    HW230681   0.988   3.477   0.487  1.3664 -1.7488  0.9884
 6349SOL     OW30682   4.250   3.102   2.622 -0.2518 -0.8562 -0.7638
 6349SOL    HW130683   4.235   3.023   2.570 -1.0756 -0.2927 -1.3582
 6349SOL    HW230684   4.284   3.058   2.701  0.0053  1.1070  0.2166
 6350SOL     OW30685   1.041   2.762   6.403 -0.0684  0.1939 -0.0600
 6350SOL    HW130686   1.038   2.851   6.438 -1.0404 -0.5148  1.6265
 6350SOL    HW230687   1.040   2.714   6.486 -0.7049  0.8573  0.3245
 6351SOL     OW30688   0.278   1.582  16.823  0.1731  0.3569  0.3896
 6351SOL    HW130689   0.193   1.564  16.783  1.3745 -0.3366 -1.8116
 6351SOL    HW230690   0.331   1.517  16.777 -1.4730 -1.1581  0.6518
 6352SOL     OW30691   0.648   2.187   2.115 -0.2628 -0.7414 -0.0343
 6352SOL    HW130692   0.563   2.143   2.110 -1.4759  1.7458 -0.9748
 6352SOL    HW230693   0.621   2.276   2.096 -0.8270 -0.8999  0.0236
 6353SOL     OW30694   1.954   0.087   6.465 -0.5521 -0.0978 -0.3377
 6353SOL    HW130695   1.985   0.050   6.548 -0.0840 -0.1543 -0.5336
 6353SOL    HW230696   1.924   0.012   6.413 -0.9126  0.8806 -1.5586
 6354SOL     OW30697   3.439   3.887   8.984 -0.0692 -0.8571  0.2512
 6354SOL    HW130698   3.521   3.887   8.934 -0.8108 -0.6295 -0.9611
 6354SOL    HW230699   3.449   3.961   9.044  1.8513  0.3426 -1.5352
 6355SOL     OW30700   4.727   2.322   8.710  0.2022 -0.8384 -0.8384
 6355SOL    HW130701   4.735   2.257   8.780 -0.8545 -1.3154 -1.1621
 6355SOL    HW230702   4.664   2.378   8.757 -0.1881 -1.4746 -0.6036
 6356SOL     OW30703   1.887   0.256  10.657 -0.4994  0.1205  0.0247
 6356SOL    HW130704   1.971   0.219  10.686 -0.9901 -0.3963  0.7951
 6356SOL    HW230705   1.869   0.196  10.585 -1.3443  0.6184 -0.1784
 6357SOL     OW30706   0.511   3.869  16.209  0.4895 -0.9042  0.0408
 6357SOL    HW130707   0.576   3.923  16.167 -1.7590  0.5753 -1.5324
 6357SOL    HW230708   0.563   3.812  16.266  1.9457  1.0487  0.6408
 6358SOL     OW30709   1.969   0.259   5.984 -0.0468 -0.1472 -0.3245
 6358SOL    HW130710   1.991   0.274   5.892  0.1416 -0.9429 -0.4067
 6358SOL    HW230711   1.975   0.164   5.990 -3.0511 -0.4989 -2.6473
 6359SOL     OW30712   0.436   3.025   8.667  0.4261  0.0175  0.1512
 6359SOL    HW130713   0.460   2.992   8.754 -2.0816  1.8435  1.5509
 6359SOL    HW230714   0.349   2.990   8.649 -0.5786  1.6612  1.7534
 6360SOL     OW30715   4.496   1.176   1.239  0.4693 -0.2042 -0.0459
 6360SOL    HW130716   4.480   1.104   1.178  0.9194 -0.0019 -0.4064
 6360SOL    HW230717   4.565   1.222   1.191  0.4913 -2.0596 -1.7721
 6361SOL     OW30718   4.665   3.909   2.426  0.0361 -0.3196  0.5384
 6361SOL    HW130719   4.637   3.890   2.516 -0.5914  1.7073  0.7637
 6361SOL    HW230720   4.704   3.827   2.396 -0.9189 -0.8020  0.6058
 6362SOL     OW30721   4.736   3.633  15.532 -0.1444  0.2415  0.1780
 6362SOL    HW130722   0.077   3.688  15.521 -2.0637  3.0233  0.6700
 6362SOL    HW230723   0.017   3.584  15.613 -1.9254 -1.5892 -0.5516
 6363SOL     OW30724   1.044   3.516   9.652  0.5810  0.7259  0.1760
 6363SOL    HW130725   1.030   3.577   9.724  2.5363  1.1910  0.1765
 6363SOL    HW230726   0.991   3.442   9.681  0.9477  0.3081 -0.2060
 6364SOL     OW30727   0.376   1.118   2.966  0.0291 -0.6330 -0.5799
 6364SOL    HW130728   0.426   1.177   3.022  1.9048 -2.4561 -0.3356
 6364SOL    HW230729   0.433   1.126   2.889 -0.6064 -4.8061 -1.4811
 6365SOL     OW30730   3.461   0.707   2.463  0.2439 -0.5171 -0.7588
 6365SOL    HW130731   3.510   0.630   2.435 -0.7626 -1.6443  0.6452
 6365SOL    HW230732   3.428   0.666   2.542  0.5991 -0.6863 -0.7007
 6366SOL     OW30733   2.373   3.369   8.668  0.2414 -0.0929 -0.2764
 6366SOL    HW130734   2.388   3.301   8.603  0.7919 -1.1976  1.0011
 6366SOL    HW230735   2.325   3.317   8.732 -1.1131 -0.5499 -1.6669
 6367SOL     OW30736   4.694   0.723  13.027 -0.1976 -0.3783 -0.0266
 6367SOL    HW130737   4.613   0.751  13.070  2.2901  2.1684  3.0031
 6367SOL    HW230738   4.720   0.811  13.000 -1.9834  0.6101  1.4953
 6368SOL     OW30739   1.015   3.666   0.148 -0.3274 -0.0386  0.9178
 6368SOL    HW130740   0.998   3.724   0.074  1.4110 -0.9383 -0.1926
 6368SOL    HW230741   1.111   3.660   0.144 -0.2180  0.8378  2.1637
 6369SOL     OW30742   2.671   4.093  10.052 -0.3864  0.6248  0.4717
 6369SOL    HW130743   2.631   4.127  10.132 -3.1401 -0.8308 -0.2978
 6369SOL    HW230744   2.758   4.132  10.053 -0.1419 -0.0152  2.6078
 6370SOL     OW30745   2.521   0.368  11.434  0.6782  0.3208  0.3105
 6370SOL    HW130746   2.570   0.291  11.462  1.6175  1.1924  1.0434
 6370SOL    HW230747   2.562   0.442  11.479  2.1816 -0.1761 -0.2508
 6371SOL     OW30748   1.384   0.630  13.172  0.2393  0.1217  0.2608
 6371SOL    HW130749   1.441   0.681  13.114  1.7271  2.4024  3.7155
 6371SOL    HW230750   1.308   0.688  13.180 -0.5274 -1.0138  1.1119
 6372SOL     OW30751   4.009   2.038   5.345  0.1113  0.0760  0.3419
 6372SOL    HW130752   4.043   2.066   5.430 -0.3739  1.7793 -0.0406
 6372SOL    HW230753   4.008   2.124   5.303  0.2087  0.6368  1.4812
 6373SOL     OW30754   0.657   3.942   6.090 -0.4022 -0.1028  0.2080
 6373SOL    HW130755   0.708   3.926   6.011  1.2402  0.0556  1.2213
 6373SOL    HW230756   0.706   4.017   6.126 -1.0154 -0.6486  2.1963
 6374SOL     OW30757   1.629   3.884   8.785  0.0296 -0.0593 -0.2783
 6374SOL    HW130758   1.651   3.856   8.874  2.3439 -0.3408 -0.9263
 6374SOL    HW230759   1.698   3.949   8.771  0.4012 -0.2544  0.6204
 6375SOL     OW30760   3.503   1.426  16.904  0.7374  0.0767  0.9085
 6375SOL    HW130761   3.479   1.491  16.971  0.7708 -0.3785  1.3668
 6375SOL    HW230762   3.599   1.424  16.910  0.8514  1.1563 -0.4630
 6376SOL     OW30763   1.046   3.780   7.606  0.5745  0.0156 -0.0420
 6376SOL    HW130764   1.047   3.874   7.588  1.6144  0.0192  0.0256
 6376SOL    HW230765   1.107   3.742   7.544  1.2411 -1.1196  1.3176
 6377SOL     OW30766   1.630   4.627  16.141 -0.0380  0.3086  0.2750
 6377SOL    HW130767   1.620   4.714  16.103  1.1265  1.0847  1.7448
 6377SOL    HW230768   1.649   4.567  16.068  0.6538 -1.1319  1.6497
 6378SOL     OW30769   0.111   2.016   2.299  0.7233  0.6437  0.0739
 6378SOL    HW130770   0.165   2.018   2.220  1.6943 -3.9268  0.6688
 6378SOL    HW230771   0.149   2.087   2.351  1.2748 -0.3524  1.0166
 6379SOL     OW30772   2.528   0.967  16.766 -0.9910 -0.1021  0.4500
 6379SOL    HW130773   2.516   0.899  16.832  1.1478 -0.9095 -0.0112
 6379SOL    HW230774   2.518   0.918  16.684  0.3571  2.0729 -1.0055
 6380SOL     OW30775   3.402   3.406   1.450 -0.2657 -0.3000 -0.2676
 6380SOL    HW130776   3.440   3.466   1.514  2.4689  0.2264 -2.3862
 6380SOL    HW230777   3.318   3.419   1.494 -0.2658  1.4659 -0.7817
 6381SOL     OW30778   2.288   2.472   9.296 -0.1967 -0.0257  0.8288
 6381SOL    HW130779   2.336   2.438   9.372  1.7285  1.5141  0.2868
 6381SOL    HW230780   2.199   2.465   9.332 -0.3853 -0.9063  0.1820
 6382SOL     OW30781   4.308   3.618   4.992  0.0920  0.2218  0.3094
 6382SOL    HW130782   4.354   3.547   5.038  1.4542 -0.1693 -1.6351
 6382SOL    HW230783   4.256   3.661   5.060 -3.1246 -0.8401 -1.4678
 6383SOL     OW30784   4.433   4.599   1.043 -0.0438  0.2378 -0.8820
 6383SOL    HW130785   4.507   4.540   1.032 -0.1862 -0.2065  0.6066
 6383SOL    HW230786   4.412   4.590   1.135  1.1078  3.4959 -0.2961
 6384SOL     OW30787   3.118   1.485  14.680  1.1436  0.6312 -0.2041
 6384SOL    HW130788   3.115   1.396  14.646 -0.2608  0.9902 -1.0327
 6384SOL    HW230789   3.191   1.478  14.742  1.6111  2.0865 -0.5888
 6385SOL     OW30790   0.941   4.186   2.748  0.1344 -0.7968  0.1768
 6385SOL    HW130791   1.002   4.175   2.821 -2.9265  0.7267  3.0099
 6385SOL    HW230792   0.922   4.094   2.729 -1.1653 -0.5535  0.2466
 6386SOL     OW30793   0.802   2.524   4.220  0.3170  0.5589 -0.0228
 6386SOL    HW130794   0.874   2.538   4.159  1.9962 -2.7118  1.1855
 6386SOL    HW230795   0.757   2.607   4.201 -2.2151 -0.3364  2.0350
 6387SOL     OW30796   3.974   2.070  15.637 -0.4223  0.1795 -0.0808
 6387SOL    HW130797   3.919   2.105  15.567  1.5222  1.8755 -0.7673
 6387SOL    HW230798   4.047   2.126  15.612  1.4743 -1.5702  1.5878
 6388SOL     OW30799   4.179   2.429  11.505  0.5842 -0.7942 -0.3260
 6388SOL    HW130800   4.241   2.387  11.565 -0.1261 -0.4848  0.6310
 6388SOL    HW230801   4.156   2.351  11.454 -1.0469 -0.0020 -0.8085
 6389SOL     OW30802   3.620   1.432  12.484 -0.7305  0.1468 -0.0999
 6389SOL    HW130803   3.679   1.361  12.508 -0.5802  0.3204  0.0361
 6389SOL    HW230804   3.632   1.424  12.389 -1.4562 -1.5224 -0.0601
 6390SOL     OW30805   0.372   1.677  17.550  0.0820  0.6308  0.7594
 6390SOL    HW130806   0.340   1.727  17.474  1.8718 -0.3005 -0.6026
 6390SOL    HW230807   0.409   1.757  17.587  0.1906  1.3571 -0.9201
 6391SOL     OW30808   2.223   0.199   7.388  0.5119  0.3102  0.3042
 6391SOL    HW130809   2.146   0.229   7.340  1.3986 -0.0033 -1.3147
 6391SOL    HW230810   2.284   0.273   7.395  2.8731 -1.7617  1.2364
 6392SOL     OW30811   2.876   0.592   3.940 -0.0913  0.6164 -0.4963
 6392SOL    HW130812   2.885   0.678   3.899 -0.0434  0.8573  0.0147
 6392SOL    HW230813   2.833   0.617   4.022  0.9269 -0.7111  0.4378
 6393SOL     OW30814   1.866   2.849   3.212  0.6419 -0.0902 -0.3420
 6393SOL    HW130815   1.772   2.844   3.228  0.8863  0.8270  1.4851
 6393SOL    HW230816   1.871   2.937   3.174  0.1266  1.9349  4.2441
 6394SOL     OW30817   0.011   4.620   1.220  0.3142 -0.3253 -0.3721
 6394SOL    HW130818   0.011   4.533   1.182 -2.8450 -0.9388  1.0047
 6394SOL    HW230819   0.039   4.675   1.147  1.3741 -1.2278 -0.6551
 6395SOL     OW30820   0.378   1.936   4.826  0.0748  0.2493  0.8624
 6395SOL    HW130821   0.389   1.976   4.912 -0.2959  0.0422  1.0051
 6395SOL    HW230822   0.282   1.937   4.820  0.2003 -0.7062 -1.5024
 6396SOL     OW30823   3.809   2.011   2.621  0.0605 -0.2305  0.1742
 6396SOL    HW130824   3.776   2.100   2.626 -0.0993 -0.3224  0.8365
 6396SOL    HW230825   3.903   2.031   2.616 -0.5747  2.2664 -1.4018
 6397SOL     OW30826   3.320   2.393   7.722 -0.3554 -0.3023  0.8402
 6397SOL    HW130827   3.360   2.476   7.694  1.4194 -0.7097  2.2134
 6397SOL    HW230828   3.246   2.428   7.771 -1.1004  1.2526 -1.3551
 6398SOL     OW30829   3.210   0.984   3.110  0.5433  0.0718 -0.5103
 6398SOL    HW130830   3.242   0.930   3.182  0.1990  2.9257  1.7880
 6398SOL    HW230831   3.153   0.919   3.068  1.0394 -0.5605 -0.2113
 6399SOL     OW30832   0.844   1.633   7.313  0.3913 -0.5490 -0.0799
 6399SOL    HW130833   0.916   1.692   7.290 -0.0578 -0.5125 -1.3742
 6399SOL    HW230834   0.900   1.601   7.384  0.8815 -0.0797 -0.2536
 6400SOL     OW30835   2.643   2.634   2.276  0.4274 -0.1977 -1.0913
 6400SOL    HW130836   2.670   2.719   2.311 -2.8407 -0.5273  2.2158
 6400SOL    HW230837   2.564   2.618   2.328  1.0603 -0.9496 -0.3518
 6401SOL     OW30838   0.797   2.125  10.842  0.1098 -0.4266  0.4039
 6401SOL    HW130839   0.881   2.143  10.799 -0.8898  2.4615 -0.3253
 6401SOL    HW230840   0.736   2.137  10.769  0.6521 -0.1683 -0.0096
 6402SOL     OW30841   1.665   2.352   2.157  0.4015 -0.2415 -0.0491
 6402SOL    HW130842   1.753   2.317   2.167  0.2574 -0.6479 -0.2020
 6402SOL    HW230843   1.661   2.407   2.235 -0.9250 -1.0235  0.4310
 6403SOL     OW30844   2.817   2.841   7.257  0.6437 -0.2332 -0.1203
 6403SOL    HW130845   2.736   2.825   7.304  0.2235  3.2518  0.3816
 6403SOL    HW230846   2.834   2.928   7.294  0.2775 -0.5017  0.6705
 6404SOL     OW30847   4.397   3.742   4.313  0.4060 -0.1459 -0.1615
 6404SOL    HW130848   4.433   3.657   4.288  0.4449 -0.0036 -0.5893
 6404SOL    HW230849   4.475   3.793   4.295 -0.8816  2.1474  0.7495
 6405SOL     OW30850   3.292   4.538   3.363 -0.0665 -0.4170 -0.3087
 6405SOL    HW130851   3.326   4.545   3.274 -1.0510  3.7272 -0.3917
 6405SOL    HW230852   3.331   4.461   3.404  0.9783  0.7525  0.8942
 6406SOL     OW30853   4.510   0.297  10.498  0.3602  0.2870 -0.0401
 6406SOL    HW130854   4.474   0.233  10.437  0.4500  0.0717  0.1346
 6406SOL    HW230855   4.458   0.286  10.577  0.3241 -1.6660 -0.3421
 6407SOL     OW30856   3.316   3.257   8.944  0.0958  0.1902  0.0134
 6407SOL    HW130857   3.238   3.275   8.997 -0.0684 -2.0851  0.5330
 6407SOL    HW230858   3.296   3.322   8.876 -1.0300 -1.9449 -1.7042
 6408SOL     OW30859   0.089   1.176   2.644  0.4589  0.0558 -0.3799
 6408SOL    HW130860   0.171   1.193   2.597 -0.4003  0.6845 -1.6575
 6408SOL    HW230861   0.033   1.187   2.567  0.8210  0.9455 -0.5155
 6409SOL     OW30862   3.367   1.658   2.056 -0.1254  0.2018 -0.0201
 6409SOL    HW130863   3.455   1.646   2.093  0.1296  2.1867  0.0095
 6409SOL    HW230864   3.321   1.732   2.095 -0.0844  0.1486  0.1306
 6410SOL     OW30865   3.244   0.373   5.524  0.4224 -0.6589  0.1594
 6410SOL    HW130866   3.166   0.351   5.576 -0.4496 -1.8027 -1.6105
 6410SOL    HW230867   3.201   0.369   5.438  1.0643 -1.4981 -0.1281
 6411SOL     OW30868   2.448   2.115   7.400 -0.0842 -0.4151  0.3386
 6411SOL    HW130869   2.486   2.198   7.428  0.4431 -0.9834  1.3300
 6411SOL    HW230870   2.451   2.137   7.307 -3.7279  0.1722  0.3696
 6412SOL     OW30871   1.353   3.187   0.284 -0.1845  0.1284 -0.2894
 6412SOL    HW130872   1.385   3.229   0.204 -0.2541 -0.2808 -0.5308
 6412SOL    HW230873   1.273   3.238   0.299  0.3602  0.1028  2.5381
 6413SOL     OW30874   4.145   0.087   6.105 -0.4387  0.0138 -0.7429
 6413SOL    HW130875   4.147   0.180   6.083  0.2908  0.3586  0.7379
 6413SOL    HW230876   4.056   0.066   6.077 -0.6941  0.8226 -0.5451
 6414SOL     OW30877   1.642   4.246  12.819  0.6307 -1.0964 -0.9461
 6414SOL    HW130878   1.736   4.265  12.817  0.8953 -2.2945  0.9490
 6414SOL    HW230879   1.643   4.152  12.801  0.7555 -1.3092  0.2176
 6415SOL     OW30880   0.244   2.904   5.354  0.1425  0.7751  0.4915
 6415SOL    HW130881   0.305   2.978   5.359 -0.4147  1.2067  0.8425
 6415SOL    HW230882   0.290   2.832   5.399 -1.0486 -1.7332 -2.3153
 6416SOL     OW30883   4.689   1.962   0.489  0.1181 -0.0519 -0.1373
 6416SOL    HW130884   0.046   1.940   0.487  0.1478  0.0824 -0.2059
 6416SOL    HW230885   4.688   2.057   0.479  1.6969  0.0524  0.6526
 6417SOL     OW30886   4.434   1.222   2.284 -0.8202  0.2143 -0.4208
 6417SOL    HW130887   4.378   1.163   2.234  2.2116 -1.7931 -1.4604
 6417SOL    HW230888   4.384   1.241   2.364 -0.1959 -0.9626  0.2582
 6418SOL     OW30889   2.008   4.646   8.611  0.0107  0.0366 -0.4189
 6418SOL    HW130890   2.010   4.635   8.516  0.0340 -0.5019 -0.3581
 6418SOL    HW230891   2.002   0.005   8.615  0.2973  0.0825 -1.0607
 6419SOL     OW30892   2.299   4.173   4.684 -0.1955 -0.0362  0.0555
 6419SOL    HW130893   2.234   4.201   4.748 -0.5771  0.7584 -0.6783
 6419SOL    HW230894   2.276   4.236   4.616  0.2864  1.9834  1.7600
 6420SOL     OW30895   3.007   1.333  15.689  0.0042 -0.2579  0.4356
 6420SOL    HW130896   2.964   1.333  15.775 -1.6356 -0.4383 -0.3744
 6420SOL    HW230897   3.094   1.303  15.714  0.2938 -0.4406 -0.8192
 6421SOL     OW30898   1.768   2.516   5.577  0.3365  0.0474  0.3371
 6421SOL    HW130899   1.736   2.450   5.516  2.2868 -0.1166 -0.5113
 6421SOL    HW230900   1.799   2.582   5.515 -3.6025  1.2971 -0.3002
 6422SOL     OW30901   1.681   4.177  10.964  0.1035  0.8503  0.3667
 6422SOL    HW130902   1.609   4.199  11.025  0.5523 -1.8663  1.8716
 6422SOL    HW230903   1.641   4.123  10.896 -0.3419  0.7445  0.7127
 6423SOL     OW30904   2.122   2.243   6.065 -0.0517  0.4825  0.0924
 6423SOL    HW130905   2.055   2.312   6.063 -1.2454 -0.6329  1.7878
 6423SOL    HW230906   2.130   2.231   6.159  1.0758 -0.0315 -0.0669
 6424SOL     OW30907   3.958   1.960  14.560 -0.0208  0.1828 -0.2778
 6424SOL    HW130908   3.951   1.876  14.515 -1.5754 -0.3125  0.9327
 6424SOL    HW230909   3.907   2.022  14.508 -1.4391 -0.4826  0.3405
 6425SOL     OW30910   4.444   0.583  17.589  0.2829 -0.0706  0.1877
 6425SOL    HW130911   4.526   0.631  17.603 -0.2571  0.7226  0.6349
 6425SOL    HW230912   4.473   0.530  17.515  1.2068 -0.9728  1.2051
 6426SOL     OW30913   0.680   2.023   9.975 -0.0572 -0.0204  0.4154
 6426SOL    HW130914   0.619   2.027   9.901  1.2908  0.9511 -0.6297
 6426SOL    HW230915   0.756   2.055   9.928 -1.6711  2.9222 -0.1627
 6427SOL     OW30916   2.741   2.211  12.848  0.3895  0.3126  0.1479
 6427SOL    HW130917   2.711   2.156  12.776  0.8982 -0.2452  0.3639
 6427SOL    HW230918   2.703   2.165  12.923 -2.0643 -0.6933 -1.7041
 6428SOL     OW30919   4.064   1.432  13.648 -0.2047 -0.2811 -0.0177
 6428SOL    HW130920   4.008   1.509  13.641  1.4774  1.0210  0.5997
 6428SOL    HW230921   4.078   1.422  13.554 -1.8142 -1.3945 -0.1317
 6429SOL     OW30922   2.293   4.235   7.150 -0.7614 -0.4517 -0.2733
 6429SOL    HW130923   2.341   4.220   7.231  1.0910  1.3431 -1.0413
 6429SOL    HW230924   2.362   4.286   7.109 -0.1121 -1.4680 -0.4356
 6430SOL     OW30925   1.650   0.633   4.704 -0.2648 -0.2979 -0.3664
 6430SOL    HW130926   1.739   0.642   4.670  0.1904 -0.9956  0.6252
 6430SOL    HW230927   1.651   0.559   4.765 -0.2002 -0.7275 -0.8874
 6431SOL     OW30928   4.637   1.564  14.583  0.2545 -0.2478  0.4278
 6431SOL    HW130929   4.647   1.491  14.521 -0.2656  1.0746 -1.2272
 6431SOL    HW230930   4.552   1.542  14.621  0.0383 -2.1552 -1.1381
 6432SOL     OW30931   1.796   3.019   7.482  0.1678 -0.0055 -0.1980
 6432SOL    HW130932   1.712   3.000   7.522  0.8001 -1.4729  0.4126
 6432SOL    HW230933   1.774   3.080   7.411  1.5499 -0.6011 -1.1458
 6433SOL     OW30934   2.133   3.124   3.159  0.4397 -0.4061 -1.2500
 6433SOL    HW130935   2.047   3.145   3.123 -0.5718  0.4573  1.6852
 6433SOL    HW230936   2.114   3.091   3.247  0.3901  2.9462  0.0155
 6434SOL     OW30937   0.691   1.395   4.706 -0.3705  0.4589 -0.0330
 6434SOL    HW130938   0.686   1.453   4.782 -1.4712  1.1380 -0.6181
 6434SOL    HW230939   0.607   1.351   4.715  0.2981 -1.0557 -1.2122
 6435SOL     OW30940   2.716   3.026  12.337  0.2867 -0.1323  0.3470
 6435SOL    HW130941   2.769   2.947  12.348  0.7914  0.1151 -0.2988
 6435SOL    HW230942   2.680   3.049  12.423  3.9688  1.1016  1.5531
 6436SOL     OW30943   0.616   3.454   8.414  0.1665  0.5424  0.8187
 6436SOL    HW130944   0.592   3.527   8.471 -2.8526 -1.7458  2.4736
 6436SOL    HW230945   0.552   3.465   8.345  1.3157 -0.9569 -0.5118
 6437SOL     OW30946   0.643   4.186   9.480  0.5303  0.4306  0.1418
 6437SOL    HW130947   0.729   4.166   9.443  0.5896 -0.3613  0.7138
 6437SOL    HW230948   0.582   4.151   9.416 -0.7920 -1.6823  2.5878
 6438SOL     OW30949   2.196   2.126   3.334  0.3509  0.1419  0.4212
 6438SOL    HW130950   2.208   2.179   3.413 -1.0794  2.3104 -0.8002
 6438SOL    HW230951   2.287   2.104   3.317  0.5270  1.2144 -0.0596
 6439SOL     OW30952   1.439   4.067   5.935  0.2167 -0.1718  0.1086
 6439SOL    HW130953   1.528   4.042   5.910  0.5583  0.5676  0.5612
 6439SOL    HW230954   1.413   4.133   5.871 -0.5624  1.5248  2.1736
 6440SOL     OW30955   1.454   4.711   8.807 -0.1250  0.7669  0.1541
 6440SOL    HW130956   1.474   0.069   8.801 -0.9053  0.9292  0.1202
 6440SOL    HW230957   1.527   4.674   8.857  0.1975  0.8624 -0.2462
 6441SOL     OW30958   1.809   2.206   5.893 -0.1157 -0.4514  0.1482
 6441SOL    HW130959   1.880   2.199   5.829  0.3006 -0.1314  0.5876
 6441SOL    HW230960   1.859   2.172   5.967 -0.7225 -1.5670  0.0528
 6442SOL     OW30961   1.941   0.403  13.061 -0.4998  0.0202 -0.7483
 6442SOL    HW130962   1.886   0.481  13.058  0.2119  0.6104  2.1166
 6442SOL    HW230963   1.879   0.338  13.026  0.4107 -1.1423 -0.1745
 6443SOL     OW30964   1.072   2.044  11.224  0.3256  0.8403  0.6503
 6443SOL    HW130965   1.048   2.130  11.189 -1.2996 -0.1346 -0.6651
 6443SOL    HW230966   0.984   2.007  11.234  0.1199  0.9823 -0.5143
 6444SOL     OW30967   0.191   0.100   3.948  0.4174  0.3490  0.6297
 6444SOL    HW130968   0.194   0.173   3.886  0.2605  1.2415  1.6707
 6444SOL    HW230969   0.284   0.078   3.955  0.2457 -1.4407 -2.9604
 6445SOL     OW30970   2.747   2.764   1.519 -0.0040 -0.4203 -0.2528
 6445SOL    HW130971   2.695   2.691   1.484  0.8452  0.7538 -3.9543
 6445SOL    HW230972   2.678   2.818   1.559  0.0205 -0.6576  0.1164
 6446SOL     OW30973   1.031   4.427   5.364 -0.9891  0.1528  0.0331
 6446SOL    HW130974   0.947   4.381   5.360 -2.2404  2.6097 -1.5391
 6446SOL    HW230975   1.076   4.370   5.427 -0.0805  1.3245  0.4396
 6447SOL     OW30976   0.141   3.055  14.603 -0.7334 -0.5444 -0.4192
 6447SOL    HW130977   0.103   2.978  14.645 -0.8871  0.6524  1.6351
 6447SOL    HW230978   0.072   3.079  14.541 -0.5416 -3.4174 -1.7336
 6448SOL     OW30979   0.915   0.272  13.184  0.4766 -0.0923  0.7967
 6448SOL    HW130980   0.853   0.340  13.158 -0.5812 -2.2172 -2.1737
 6448SOL    HW230981   0.981   0.319  13.235 -1.9260  1.4051  2.4979
 6449SOL     OW30982   1.232   0.142   2.968  0.3066  0.2355 -0.2171
 6449SOL    HW130983   1.278   0.177   3.044  0.6661 -1.7669  0.4792
 6449SOL    HW230984   1.196   0.062   3.007  0.6634 -0.4505 -1.2923
 6450SOL     OW30985   4.450   2.869  17.287  0.1040  0.7797 -0.0637
 6450SOL    HW130986   4.459   2.818  17.206  0.3702  1.1017 -0.2360
 6450SOL    HW230987   4.455   2.800  17.353  0.6260  1.4927  0.6348
 6451SOL     OW30988   3.171   1.412   4.407 -0.1149 -0.5366 -0.0486
 6451SOL    HW130989   3.263   1.416   4.384  0.2458 -1.3090  1.2264
 6451SOL    HW230990   3.163   1.505   4.428 -2.0064 -1.0389  1.5974
 6452SOL     OW30991   0.303   1.021  17.735 -0.4976 -0.1999 -0.2581
 6452SOL    HW130992   0.294   0.991  17.644  2.5291  0.0853 -0.6576
 6452SOL    HW230993   0.376   1.083  17.731 -1.2216  0.7558  1.2871
 6453SOL     OW30994   3.893   2.295   8.242  0.1445 -0.5303  0.6868
 6453SOL    HW130995   3.831   2.263   8.307 -2.3578  1.0052 -0.9163
 6453SOL    HW230996   3.864   2.252   8.161 -0.2333  0.8956  0.0587
 6454SOL     OW30997   3.028   3.269   6.515  0.8811  0.6391  0.1889
 6454SOL    HW130998   3.013   3.362   6.533 -0.7845  0.2041  1.0481
 6454SOL    HW230999   3.107   3.259   6.568  1.2440 -1.8029 -0.8222
 6455SOL     OW31000   0.833   0.645   5.936  0.0286  0.4712 -0.3443
 6455SOL    HW131001   0.892   0.636   6.011 -1.4157 -1.9298  0.5037
 6455SOL    HW231002   0.744   0.619   5.959 -0.1982  0.0466 -1.6761
 6456SOL     OW31003   0.439   0.343   4.741 -0.6667 -0.0290  0.5073
 6456SOL    HW131004   0.431   0.417   4.681 -1.8365 -2.0970 -1.8600
 6456SOL    HW231005   0.362   0.292   4.719  0.1913 -0.4966 -1.3923
 6457SOL     OW31006   1.136   0.045   5.711 -0.5039  0.1735  0.2054
 6457SOL    HW131007   1.207   4.735   5.667  1.0895  1.8142  1.0326
 6457SOL    HW231008   1.073   4.713   5.687  0.8132 -0.7663 -0.5512
 6458SOL     OW31009   0.526   0.470   2.844 -0.2860  0.3372 -0.7704
 6458SOL    HW131010   0.453   0.420   2.881 -0.1447  1.5808  1.2031
 6458SOL    HW231011   0.487   0.489   2.758 -0.6816  0.8761 -0.4747
 6459SOL     OW31012   0.160   1.406  17.656 -0.8280 -0.3957 -0.0897
 6459SOL    HW131013   0.100   1.446  17.592 -1.9597 -2.0622 -0.0769
 6459SOL    HW231014   0.184   1.326  17.611 -1.2988 -0.6055  0.0295
 6460SOL     OW31015   0.523   0.976   5.463  0.1784  0.2870  0.1716
 6460SOL    HW131016   0.580   0.900   5.458  1.2719  1.0023  1.5956
 6460SOL    HW231017   0.590   1.042   5.448  0.3886 -0.5578 -2.5079
 6461SOL     OW31018   2.556   0.662   9.927 -0.3174 -0.1372 -0.7496
 6461SOL    HW131019   2.620   0.635   9.993 -1.3523  0.4069  0.4776
 6461SOL    HW231020   2.581   0.604   9.855  2.9788 -1.3201  1.3573
 6462SOL     OW31021   2.602   2.932   6.655  0.2598  0.3585 -0.5315
 6462SOL    HW131022   2.672   2.888   6.605  1.0869  1.5178 -0.4059
 6462SOL    HW231023   2.643   3.014   6.682  0.6965  0.4214 -1.3623
 6463SOL     OW31024   3.015   0.127  15.448  0.2915 -0.4756  0.3324
 6463SOL    HW131025   3.056   0.126  15.361 -1.9646  2.7447 -0.7840
 6463SOL    HW231026   2.955   0.199  15.430  0.0071 -0.5750  0.8879
 6464SOL     OW31027   2.452   1.019   2.333  0.1502  0.0176  0.4282
 6464SOL    HW131028   2.459   0.942   2.276 -0.6177  0.4975 -0.3208
 6464SOL    HW231029   2.531   1.071   2.318  0.3915 -0.1980  0.9540
 6465SOL     OW31030   4.323   1.015   6.255 -0.1938  0.4254  0.8357
 6465SOL    HW131031   4.303   1.081   6.322 -0.1671  1.3932 -0.1020
 6465SOL    HW231032   4.417   1.002   6.262 -0.3924 -1.3468  0.2630
 6466SOL     OW31033   1.937   3.120   6.555 -0.6515 -0.0061  0.0173
 6466SOL    HW131034   2.026   3.130   6.589 -0.2245  2.0446 -1.7150
 6466SOL    HW231035   1.894   3.181   6.616 -1.0082  0.3307 -0.5782
 6467SOL     OW31036   2.096   0.403   3.236  0.1700  0.4081 -0.1586
 6467SOL    HW131037   2.151   0.384   3.160  0.6958 -0.3909  0.4228
 6467SOL    HW231038   2.146   0.367   3.308  0.2757 -1.8078 -1.3518
 6468SOL     OW31039   2.898   1.349   4.430  0.2281  0.1663  0.4376
 6468SOL    HW131040   2.905   1.328   4.337  0.3939 -0.2917  0.5566
 6468SOL    HW231041   2.988   1.352   4.463  0.3705 -0.8330  0.1397
 6469SOL     OW31042   0.086   3.245   7.218  0.4334  0.0110  0.3594
 6469SOL    HW131043   0.043   3.327   7.242  3.0528  1.6743 -0.6059
 6469SOL    HW231044   0.055   3.239   7.128  1.5375  0.6488 -0.0668
 6470SOL     OW31045   0.466   2.199   2.514 -0.1803  0.0235 -0.3996
 6470SOL    HW131046   0.557   2.228   2.505 -0.3959  0.6864 -0.4777
 6470SOL    HW231047   0.473   2.124   2.573 -1.5424 -0.0498 -0.3283
 6471SOL     OW31048   2.575   2.028   6.618 -0.1513  0.2012 -0.4313
 6471SOL    HW131049   2.549   2.003   6.529  0.7916 -2.8289  0.1506
 6471SOL    HW231050   2.490   2.014   6.659  0.9268  0.6671  1.9543
 6472SOL     OW31051   0.280   1.535   6.025  0.1197 -0.3925 -0.6105
 6472SOL    HW131052   0.225   1.516   5.949 -0.8069 -1.6812  0.3913
 6472SOL    HW231053   0.347   1.586   5.980  2.8427 -1.0368  2.7822
 6473SOL     OW31054   0.887   2.379   5.851 -0.5928 -0.2232  0.1646
 6473SOL    HW131055   0.896   2.474   5.865  1.0839 -0.4517  0.6270
 6473SOL    HW231056   0.976   2.352   5.827 -0.7701  0.1047 -0.8572
 6474SOL     OW31057   0.837   3.771   1.990 -0.1699 -0.2661 -0.4663
 6474SOL    HW131058   0.828   3.756   2.084  2.2123  1.2381  0.0294
 6474SOL    HW231059   0.919   3.725   1.970 -0.6662 -2.2126  1.9937
 6475SOL     OW31060   3.423   1.702   3.612  0.2841 -0.3413  0.4109
 6475SOL    HW131061   3.517   1.713   3.603  0.2735 -1.3537 -0.9694
 6475SOL    HW231062   3.409   1.744   3.697  1.9482  0.5294  0.2334
 6476SOL     OW31063   0.883   2.625   2.929  0.3105  0.2908  0.3445
 6476SOL    HW131064   0.802   2.603   2.882 -0.2425 -1.2005  1.9663
 6476SOL    HW231065   0.916   2.690   2.867 -2.6150  1.0398 -0.4245
 6477SOL     OW31066   3.670   0.716  13.935  0.5603 -0.1376  0.7436
 6477SOL    HW131067   3.587   0.725  13.982  1.1288 -2.3808  2.2031
 6477SOL    HW231068   3.658   0.785  13.870 -1.1941  0.3466  1.5782
 6478SOL     OW31069   3.497   0.429  14.432  0.0934 -0.6867  0.4557
 6478SOL    HW131070   3.450   0.486  14.493 -0.0908  0.5079 -0.8186
 6478SOL    HW231071   3.566   0.484  14.395 -1.7207 -0.8513 -3.1122
 6479SOL     OW31072   3.157   4.652   0.881  0.2620 -0.2655  0.2588
 6479SOL    HW131073   3.244   4.691   0.882  0.1084  0.1336 -1.4251
 6479SOL    HW231074   3.173   4.587   0.813 -0.1358  1.8072 -1.8441
 6480SOL     OW31075   0.584   4.087   9.850 -0.2771  0.4267 -0.1786
 6480SOL    HW131076   0.596   4.117   9.940  2.5184  2.2689 -1.1566
 6480SOL    HW231077   0.488   4.089   9.847 -0.3047  1.6762  1.3407
 6481SOL     OW31078   3.815   0.436  14.360 -0.9773 -0.5907  0.4177
 6481SOL    HW131079   3.861   0.429  14.443  0.0518  0.2520 -0.0785
 6481SOL    HW231080   3.766   0.518  14.353 -2.0536 -1.1182  1.8446
 6482SOL     OW31081   0.820   3.464  14.302  0.0424 -0.0771 -0.3053
 6482SOL    HW131082   0.862   3.419  14.376 -0.8082 -0.1947  0.1068
 6482SOL    HW231083   0.839   3.556  14.324 -0.8860 -0.6544  2.9075
 6483SOL     OW31084   2.009   0.709   2.587 -0.7040 -0.2684 -0.2941
 6483SOL    HW131085   1.922   0.693   2.550 -1.1202 -1.1227  1.0396
 6483SOL    HW231086   2.037   0.782   2.533 -1.5379 -0.2866 -0.7511
 6484SOL     OW31087   1.673   4.388   2.897  0.0008  0.2465  0.0646
 6484SOL    HW131088   1.663   4.445   2.821 -1.3602  1.2274  0.9851
 6484SOL    HW231089   1.764   4.407   2.921  0.3978 -0.4613 -0.8941
 6485SOL     OW31090   4.004   4.306   7.682 -0.5544  0.4284 -0.7173
 6485SOL    HW131091   4.009   4.339   7.772  1.2851 -2.1847  0.1285
 6485SOL    HW231092   3.942   4.234   7.692  1.9519 -1.5971  0.2667
 6486SOL     OW31093   1.075   4.581   9.325  0.0822 -0.0414  0.4162
 6486SOL    HW131094   1.141   4.581   9.394 -1.0154  0.5922  1.4673
 6486SOL    HW231095   1.066   4.671   9.293  1.6229 -0.0098  0.0750
 6487SOL     OW31096   2.058   0.823   8.675  0.1448 -0.0202  0.2629
 6487SOL    HW131097   1.985   0.838   8.615  0.3492  2.1289  0.5717
 6487SOL    HW231098   2.099   0.908   8.688  0.3724 -0.1315  0.2911
 6488SOL     OW31099   3.123   3.948  17.481 -0.3160 -0.3358 -0.6179
 6488SOL    HW131100   3.044   3.966  17.430  0.4171  0.6775 -1.3915
 6488SOL    HW231101   3.087   3.904  17.559  0.7547  0.2339  0.2069
 6489SOL     OW31102   1.406   1.722  10.936 -0.0268 -0.3510 -0.1602
 6489SOL    HW131103   1.457   1.782  10.881 -1.4388  2.1123  1.2217
 6489SOL    HW231104   1.364   1.788  10.989  1.3490  1.4752 -1.3351
 6490SOL     OW31105   1.215   2.284   3.540  0.9290  0.4558  0.5645
 6490SOL    HW131106   1.147   2.248   3.596  0.8819 -1.1024 -0.5105
 6490SOL    HW231107   1.292   2.247   3.583  1.0962  0.3959  0.2136
 6491SOL     OW31108   4.602   3.977   7.579  0.0358  0.5697 -0.2006
 6491SOL    HW131109   4.518   4.019   7.598  0.3096  1.6046 -1.2816
 6491SOL    HW231110   4.651   4.043   7.530 -1.7927  1.1678 -1.2234
 6492SOL     OW31111   0.521   3.667   5.474  0.1110  0.5369  0.2408
 6492SOL    HW131112   0.441   3.718   5.463 -0.7059 -0.4346  1.7171
 6492SOL    HW231113   0.493   3.609   5.545 -1.3001 -1.3131 -1.8338
 6493SOL     OW31114   0.302   0.678   6.971 -0.7012 -0.1363 -0.5642
 6493SOL    HW131115   0.313   0.709   6.881  0.7918  1.0540  0.0249
 6493SOL    HW231116   0.214   0.643   6.960 -0.6756 -0.3021 -0.2412
 6494SOL     OW31117   2.591   3.989   6.278  0.1435  0.2219  0.7864
 6494SOL    HW131118   2.641   4.036   6.212  0.8000 -1.3931  0.1404
 6494SOL    HW231119   2.509   4.039   6.280 -0.3555 -0.5337 -0.5564
 6495SOL     OW31120   0.366   2.602   9.335  0.3479  0.5804  0.0518
 6495SOL    HW131121   0.451   2.608   9.291 -0.2444 -0.9730 -1.2513
 6495SOL    HW231122   0.371   2.663   9.409  3.0705  2.4588 -1.6946
 6496SOL     OW31123   1.416   3.843   8.607 -0.2932  0.2429  0.6063
 6496SOL    HW131124   1.374   3.787   8.672 -0.7850  1.7382  1.5979
 6496SOL    HW231125   1.496   3.847   8.660  0.3668  2.5889 -0.5562
 6497SOL     OW31126   2.952   2.673   9.184 -0.0351 -0.2390 -0.0601
 6497SOL    HW131127   2.955   2.759   9.224  0.3526 -0.3172  0.0773
 6497SOL    HW231128   2.953   2.688   9.089  0.6703  0.3510  0.0364
 6498SOL     OW31129   3.538   2.483   2.530 -0.2482 -0.6790 -0.0256
 6498SOL    HW131130   3.502   2.395   2.545  1.2468 -1.2799  0.0212
 6498SOL    HW231131   3.597   2.499   2.604  1.0453  0.4485 -1.3002
 6499SOL     OW31132   3.440   3.774   7.296 -0.1178 -0.2951 -0.6013
 6499SOL    HW131133   3.470   3.844   7.354  0.2492 -0.1378 -0.9788
 6499SOL    HW231134   3.354   3.810   7.275 -0.4758 -0.1358  1.0997
 6500SOL     OW31135   2.747   3.354  11.512  0.1567 -0.0566 -0.4976
 6500SOL    HW131136   2.668   3.356  11.457  0.2182  1.4103 -0.5447
 6500SOL    HW231137   2.759   3.259  11.505  1.4176 -0.0399  1.5555
 6501SOL     OW31138   0.137   1.315   7.323  0.3430  0.4987 -0.0178
 6501SOL    HW131139   0.059   1.260   7.313  0.0777  0.6923  0.9300
 6501SOL    HW231140   0.112   1.407   7.319  0.8786  0.7222  1.7113
 6502SOL     OW31141   0.157   2.160   5.187  0.1670 -0.3234 -0.1289
 6502SOL    HW131142   0.119   2.075   5.211  1.2501 -1.3356 -2.0502
 6502SOL    HW231143   0.193   2.186   5.272 -0.8178 -0.2191  0.2604
 6503SOL     OW31144   3.452   3.498  14.508 -0.5498  0.8873 -0.0555
 6503SOL    HW131145   3.364   3.535  14.504 -0.3515  1.6118  1.8450
 6503SOL    HW231146   3.430   3.404  14.510 -0.4928  0.9366  3.2330
 6504SOL     OW31147   3.632   0.410   7.085  0.3383  0.5137  0.4520
 6504SOL    HW131148   3.587   0.326   7.090 -2.9435  2.2015 -0.8241
 6504SOL    HW231149   3.652   0.429   7.177  0.0526  2.3343  0.1480
 6505SOL     OW31150   2.336   2.017   3.955  0.8673 -0.0747  0.0035
 6505SOL    HW131151   2.311   1.929   3.926  0.7418  0.6747 -2.1556
 6505SOL    HW231152   2.431   2.004   3.953  0.9691  0.9440 -1.2874
 6506SOL     OW31153   0.445   2.825   3.268 -0.0413 -0.2313 -0.1079
 6506SOL    HW131154   0.473   2.764   3.201 -0.5569 -2.2323  1.4840
 6506SOL    HW231155   0.499   2.804   3.344 -0.5224 -0.5164  0.1593
 6507SOL     OW31156   2.153   1.708   2.327 -0.1931 -0.7210  0.9569
 6507SOL    HW131157   2.125   1.628   2.282  2.5712 -1.0980 -0.1071
 6507SOL    HW231158   2.071   1.727   2.371 -0.0477  1.0283  0.4906
 6508SOL     OW31159   2.847   3.095   5.393 -0.2040 -0.2752 -0.3751
 6508SOL    HW131160   2.916   3.162   5.396 -1.5949  1.0384  2.8845
 6508SOL    HW231161   2.770   3.146   5.370 -0.1531  0.4888  1.1310
 6509SOL     OW31162   4.719   1.221   6.665  0.5220  0.4961 -0.1059
 6509SOL    HW131163   0.048   1.288   6.686  0.5065  0.5922 -0.3650
 6509SOL    HW231164   0.006   1.212   6.573 -0.0391 -2.7046  0.0944
 6510SOL     OW31165   0.641   2.692   2.563 -0.2575  0.4927  0.4264
 6510SOL    HW131166   0.620   2.616   2.618  2.0753 -0.5830 -0.1768
 6510SOL    HW231167   0.725   2.672   2.524  0.3018 -0.2730  2.0208
 6511SOL     OW31168   1.253   2.825   3.591  0.6272 -0.2223  0.3186
 6511SOL    HW131169   1.313   2.755   3.566  2.4704  1.4077  0.1882
 6511SOL    HW231170   1.186   2.776   3.638  0.5441 -0.6526 -0.2579
 6512SOL     OW31171   3.362   0.527  10.578 -0.6519  0.1774  0.3380
 6512SOL    HW131172   3.351   0.602  10.520  0.8701 -0.1646 -0.3800
 6512SOL    HW231173   3.452   0.544  10.604  0.3152 -1.3857 -2.0562
 6513SOL     OW31174   1.499   0.785   5.045 -0.0779  0.1793  0.4583
 6513SOL    HW131175   1.427   0.805   5.105 -3.0777 -3.8637 -1.8518
 6513SOL    HW231176   1.459   0.712   4.998  0.4013  0.1375  0.1204
 6514SOL     OW31177   2.723   4.037  13.690  0.2462  0.9251 -0.2429
 6514SOL    HW131178   2.767   3.955  13.668 -0.9059  0.9210 -2.5177
 6514SOL    HW231179   2.745   4.061  13.780  2.2912  0.4230 -0.5940
 6515SOL     OW31180   3.766   0.938   2.440 -0.1241  0.4369 -0.4256
 6515SOL    HW131181   3.693   0.876   2.442  0.7201 -0.5781 -0.7542
 6515SOL    HW231182   3.747   0.998   2.368  2.7210  0.3740 -1.2353
 6516SOL     OW31183   4.536   0.146   1.522  0.3902  0.3826  0.1119
 6516SOL    HW131184   4.465   0.191   1.476  2.5794  2.3671 -1.3284
 6516SOL    HW231185   4.609   0.208   1.528 -0.1384  0.7871  2.1485
 6517SOL     OW31186   0.040   3.003   4.770  0.4964 -0.5744  0.2031
 6517SOL    HW131187   0.090   3.005   4.688  0.6518 -1.1516  0.2804
 6517SOL    HW231188   4.693   2.997   4.722  0.4471 -0.6609  0.2974
 6518SOL     OW31189   2.158   3.187   2.191  0.0156  0.5729 -0.3895
 6518SOL    HW131190   2.186   3.133   2.117  2.2907  1.7459 -0.3733
 6518SOL    HW231191   2.072   3.149   2.210  0.6243 -0.0216  1.2382
 6519SOL     OW31192   3.549   4.119  16.299  0.0294 -0.0161  0.5491
 6519SOL    HW131193   3.508   4.193  16.254 -0.7041  0.0600  1.3634
 6519SOL    HW231194   3.595   4.142  16.380  1.9073  0.5682 -0.6863
 6520SOL     OW31195   0.604   0.513   0.436  0.4192  0.3462 -0.6323
 6520SOL    HW131196   0.619   0.497   0.529 -1.5373  1.1377 -0.1829
 6520SOL    HW231197   0.540   0.584   0.439 -0.1696 -0.2916  2.4968
 6521SOL     OW31198   0.059   3.239  17.202 -0.4563  0.0014 -0.2957
 6521SOL    HW131199   0.131   3.191  17.161  0.4772 -0.2608  1.6450
 6521SOL    HW231200   0.026   3.287  17.126  0.4754  1.1554  0.0171
 6522SOL     OW31201   2.986   2.684   1.579  0.4849  0.5915  0.3998
 6522SOL    HW131202   2.968   2.679   1.673 -0.5106  1.7740  0.2809
 6522SOL    HW231203   2.903   2.713   1.540  1.0747  0.8316 -0.6747
 6523SOL     OW31204   4.713   4.017   4.378 -0.1579 -0.5213  0.0623
 6523SOL    HW131205   0.046   4.083   4.379  0.7115 -1.4078 -0.9956
 6523SOL    HW231206   4.656   4.058   4.444  1.8040  2.8976 -0.4005
 6524SOL     OW31207   2.430   3.970   4.555 -0.1801  0.0294  0.3265
 6524SOL    HW131208   2.504   4.031   4.551 -0.2748  0.1547  0.5346
 6524SOL    HW231209   2.365   4.031   4.591 -1.9923 -1.0029 -1.2042
 6525SOL     OW31210   0.373   0.707  10.083  0.2927  0.1682 -0.1215
 6525SOL    HW131211   0.345   0.616  10.090  1.3796  0.1169  3.4308
 6525SOL    HW231212   0.285   0.744  10.085  0.6512  0.9495  1.1936
 6526SOL     OW31213   0.917   0.462   5.411  0.0525 -0.4808  0.4607
 6526SOL    HW131214   0.959   0.382   5.441  1.2159  0.1858  0.5945
 6526SOL    HW231215   0.827   0.457   5.444 -0.9829  0.4667 -2.2231
 6527SOL     OW31216   1.721   2.566   8.841  0.2085 -0.5164  0.3822
 6527SOL    HW131217   1.646   2.626   8.842  1.8576  1.5649 -1.1441
 6527SOL    HW231218   1.673   2.487   8.864 -2.9426  1.4517  0.6490
 6528SOL     OW31219   3.521   4.643   3.823  0.1664 -0.3294 -0.3495
 6528SOL    HW131220   3.430   4.644   3.793 -1.0721  0.2842  3.4341
 6528SOL    HW231221   3.541   4.554   3.797  0.1402 -0.2592 -0.6059
 6529SOL     OW31222   0.817   4.644  12.473  0.2170 -0.2130  0.1379
 6529SOL    HW131223   0.749   4.704  12.504 -0.5509 -0.1269 -1.6738
 6529SOL    HW231224   0.839   4.603  12.556  0.0075 -1.3892 -0.3815
 6530SOL     OW31225   0.073   0.026   0.203 -0.2744 -0.7999 -0.0880
 6530SOL    HW131226   0.111   4.709   0.273  1.3916  0.0298 -0.3733
 6530SOL    HW231227   0.110   4.710   0.132 -1.0366  0.1062 -1.1536
 6531SOL     OW31228   2.831   2.888   1.970  0.0144 -0.5079  0.3119
 6531SOL    HW131229   2.781   2.960   1.931 -0.7626 -1.9903 -1.4235
 6531SOL    HW231230   2.898   2.941   2.013  0.1692 -0.6791  0.2836
 6532SOL     OW31231   2.020   1.650  12.697  0.1191 -0.1947 -0.0610
 6532SOL    HW131232   2.027   1.638  12.791  1.0886 -1.3297 -0.2717
 6532SOL    HW231233   1.940   1.701  12.691 -0.4221 -1.0660 -0.2087
 6533SOL     OW31234   4.237   2.252  14.028  0.4855  0.5239  0.1277
 6533SOL    HW131235   4.295   2.251  14.103  2.5124 -2.8023 -1.4771
 6533SOL    HW231236   4.157   2.284  14.069  0.0545 -0.6206  0.1937
 6534SOL     OW31237   3.628   1.174   2.777  0.5566  0.5016 -0.9908
 6534SOL    HW131238   3.707   1.177   2.722  1.5486  0.1843  0.4104
 6534SOL    HW231239   3.641   1.248   2.836 -0.2843 -0.1235 -0.0068
 6535SOL     OW31240   0.508   1.272   2.736 -0.4059  0.0352  0.0253
 6535SOL    HW131241   0.438   1.268   2.671  0.5490 -0.6305 -0.9496
 6535SOL    HW231242   0.501   1.362   2.770 -2.8182  0.0266 -0.4480
 6536SOL     OW31243   1.884   0.649  13.664  0.2629  0.4043  0.1444
 6536SOL    HW131244   1.823   0.720  13.684 -1.1468 -0.2880 -1.6443
 6536SOL    HW231245   1.906   0.679  13.576 -1.0928 -1.1678 -0.7338
 6537SOL     OW31246   1.453   4.056  10.708 -0.1384 -0.7376  0.0991
 6537SOL    HW131247   1.448   4.035  10.615  2.5405  0.7891 -0.3933
 6537SOL    HW231248   1.444   3.972  10.752  1.2574 -0.2114  1.3973
 6538SOL     OW31249   1.131   0.594   6.924 -0.0096  0.0370  0.6034
 6538SOL    HW131250   1.182   0.653   6.868  0.8857 -1.1373  0.1899
 6538SOL    HW231251   1.085   0.656   6.981 -0.2836 -0.3394  0.7889
 6539SOL     OW31252   4.043   0.977   2.475 -1.1776  0.1339  0.1776
 6539SOL    HW131253   3.950   0.957   2.466 -0.9854  0.0257 -1.4685
 6539SOL    HW231254   4.080   0.891   2.458  0.0953 -0.1498  4.3904
 6540SOL     OW31255   4.725   0.764   4.309  0.2413 -0.1068 -0.0117
 6540SOL    HW131256   0.065   0.786   4.255 -1.7082  1.0819 -2.2382
 6540SOL    HW231257   4.679   0.848   4.305 -1.5706 -1.1334 -0.3143
 6541SOL     OW31258   2.161   3.589  15.909  0.3988  0.3695  0.0793
 6541SOL    HW131259   2.070   3.612  15.890  0.7717  0.0377 -2.1500
 6541SOL    HW231260   2.183   3.549  15.824 -0.9412 -2.1451  0.8991
 6542SOL     OW31261   2.974   2.652   3.288 -0.3725  0.1854  0.2498
 6542SOL    HW131262   2.907   2.649   3.220  1.1396  0.0672 -1.2243
 6542SOL    HW231263   2.992   2.743   3.266 -2.0614  0.5227  0.2450
 6543SOL     OW31264   3.330   3.967  11.500 -0.3303  0.5314  0.2017
 6543SOL    HW131265   3.404   4.017  11.536  0.1585 -1.1031  1.4446
 6543SOL    HW231266   3.304   4.037  11.440 -0.0624  0.8803  0.4932
 6544SOL     OW31267   0.989   0.930   3.097 -0.0085 -0.3015  0.2188
 6544SOL    HW131268   1.018   1.005   3.150 -1.1710 -0.4781  1.1068
 6544SOL    HW231269   0.894   0.937   3.103 -0.0284 -0.5122  0.1275
 6545SOL     OW31270   1.625   1.847  10.770 -0.5960 -0.6423  0.0120
 6545SOL    HW131271   1.591   1.909  10.706  0.6804 -1.5856 -1.5941
 6545SOL    HW231272   1.703   1.810  10.728  0.5212  1.0776  0.5944
 6546SOL     OW31273   0.775   2.425   3.536  0.4708 -0.2903  0.1869
 6546SOL    HW131274   0.744   2.366   3.467 -0.8011  1.4194 -0.6816
 6546SOL    HW231275   0.785   2.365   3.610 -0.1648 -1.4580 -0.6772
 6547SOL     OW31276   2.431   3.436   4.653 -0.1653  0.4362  0.2281
 6547SOL    HW131277   2.464   3.402   4.737 -0.9287  0.9570  0.7424
 6547SOL    HW231278   2.490   3.391   4.593 -0.1320 -0.2154  0.7455
 6548SOL     OW31279   0.052   0.201   6.941  0.0036 -0.3891 -0.5942
 6548SOL    HW131280   0.097   0.237   7.017 -2.4841 -2.9700  2.0929
 6548SOL    HW231281   0.109   0.227   6.868  0.2595 -0.5892 -0.4657
 6549SOL     OW31282   3.898   3.517   7.721 -0.3893  0.1674  0.1751
 6549SOL    HW131283   3.898   3.533   7.815 -1.6498 -2.1292  0.5649
 6549SOL    HW231284   3.949   3.591   7.689 -1.0481  1.1173  1.3535
 6550SOL     OW31285   1.757   3.963   6.434 -0.9635 -0.2308 -0.1121
 6550SOL    HW131286   1.730   3.887   6.383 -1.8299 -2.2271  3.3434
 6550SOL    HW231287   1.843   3.926   6.454 -0.7690  1.0142  1.2997
 6551SOL     OW31288   3.529   0.389   7.782 -0.1267 -0.1013  0.5472
 6551SOL    HW131289   3.601   0.353   7.834  0.1556 -0.9127 -0.4098
 6551SOL    HW231290   3.470   0.317   7.761  0.0895 -0.0076 -0.3867
 6552SOL     OW31291   3.487   1.595   0.865 -0.2237  0.4993 -0.1082
 6552SOL    HW131292   3.441   1.666   0.820 -0.1246  1.0187  0.5959
 6552SOL    HW231293   3.562   1.576   0.808 -1.1274 -0.5156 -0.9441
 6553SOL     OW31294   2.786   1.195   9.313 -0.3855  0.0096 -0.5068
 6553SOL    HW131295   2.864   1.179   9.365  1.0045  0.1741 -2.5713
 6553SOL    HW231296   2.826   1.217   9.229  1.4102  0.5571  0.4888
 6554SOL     OW31297   1.237   3.033   0.076  0.4968 -0.5784  0.0549
 6554SOL    HW131298   1.203   2.987   0.154  0.4293 -0.0270  0.3472
 6554SOL    HW231299   1.300   3.094   0.113  0.3863 -1.6264  1.9976
 6555SOL     OW31300   1.924   1.423   6.425 -0.2049  0.4404  0.1250
 6555SOL    HW131301   1.886   1.350   6.375 -1.1775  0.5212  0.7369
 6555SOL    HW231302   1.956   1.477   6.353 -0.2021  1.4626  0.9130
 6556SOL     OW31303   4.621   0.629   3.670  0.9003 -0.1850  0.5660
 6556SOL    HW131304   4.642   0.554   3.614  1.8155  1.5690 -1.4019
 6556SOL    HW231305   4.603   0.697   3.605  2.1334  0.4482  0.8868
 6557SOL     OW31306   2.084   2.705  15.954  0.3448 -0.2293 -0.2294
 6557SOL    HW131307   2.147   2.770  15.923  0.1335  0.8990  1.6790
 6557SOL    HW231308   2.123   2.625  15.921  0.7821 -1.3432  2.9465
 6558SOL     OW31309   2.126   4.225   8.861 -0.2776  0.7047  0.4167
 6558SOL    HW131310   2.070   4.297   8.890  0.7975  1.5935  0.2655
 6558SOL    HW231311   2.146   4.179   8.943  0.1632  0.0033 -0.0820
 6559SOL     OW31312   1.437   2.508  11.412  0.3241  0.0299  0.3822
 6559SOL    HW131313   1.414   2.545  11.497 -1.6325  0.7814 -0.4732
 6559SOL    HW231314   1.482   2.579  11.366  0.2744 -1.1026 -1.4315
 6560SOL     OW31315   3.079   0.764   6.609 -0.1637  0.0051 -0.1657
 6560SOL    HW131316   3.123   0.834   6.560  0.1875 -0.7364 -0.8990
 6560SOL    HW231317   2.987   0.789   6.598  0.0443  0.7553 -0.2309
 6561SOL     OW31318   2.245   2.061   1.741  0.1092 -0.2957  0.7157
 6561SOL    HW131319   2.307   2.090   1.808  1.5455 -0.5871 -0.4751
 6561SOL    HW231320   2.162   2.086   1.782 -0.5792 -2.2230  0.4861
 6562SOL     OW31321   0.262   0.919   7.342  0.5450 -0.4515 -0.3622
 6562SOL    HW131322   0.322   0.856   7.384  1.2326  0.2765 -0.2469
 6562SOL    HW231323   0.210   0.869   7.279 -1.0813 -2.2581  2.4585
 6563SOL     OW31324   3.922   1.867   9.289  0.6428  0.5712 -0.3641
 6563SOL    HW131325   3.934   1.794   9.350  0.5388 -2.7893 -4.3727
 6563SOL    HW231326   3.922   1.830   9.200  1.5550  0.6099 -0.3837
 6564SOL     OW31327   2.948   1.463   4.765 -0.1453  0.2457  0.1767
 6564SOL    HW131328   2.883   1.499   4.705 -1.4256 -1.7993  0.3385
 6564SOL    HW231329   2.928   1.370   4.756  1.7175 -0.1689  0.2684
 6565SOL     OW31330   0.835   0.263   9.366  0.2586 -0.3468 -0.2086
 6565SOL    HW131331   0.877   0.303   9.442 -0.4600 -0.8016  0.4215
 6565SOL    HW231332   0.772   0.214   9.418  2.2521 -0.3050  2.2631
 6566SOL     OW31333   1.254   0.890   9.549  0.3731  0.0028 -0.1363
 6566SOL    HW131334   1.339   0.878   9.591  0.0866 -3.4099 -0.5139
 6566SOL    HW231335   1.287   0.899   9.460  0.7027 -0.9489 -0.1150
 6567SOL     OW31336   1.947   3.722  12.319 -0.1775 -0.1018 -0.7004
 6567SOL    HW131337   1.869   3.769  12.347 -0.2765 -0.3707 -0.5195
 6567SOL    HW231338   1.919   3.660  12.252 -0.9113 -1.2104  0.6258
 6568SOL     OW31339   3.763   4.629  12.272  0.0905 -0.1816  0.1831
 6568SOL    HW131340   3.831   4.637  12.339  0.5252  0.2407 -0.3088
 6568SOL    HW231341   3.692   4.592  12.324 -0.5449 -0.8261 -1.1471
 6569SOL     OW31342   1.237   1.263   6.068 -0.2654  0.2352  0.2541
 6569SOL    HW131343   1.189   1.185   6.040  0.6069  0.3557 -1.6219
 6569SOL    HW231344   1.326   1.228   6.060  0.6127  2.3951  0.6404
 6570SOL     OW31345   0.061   4.229   8.230  0.2271  0.5472  0.1356
 6570SOL    HW131346   0.024   4.298   8.175 -0.4325 -0.6763 -0.9866
 6570SOL    HW231347   0.099   4.181   8.155 -1.1842 -2.5704  1.3952
 6571SOL     OW31348   2.587   4.225  10.275  0.1301 -0.1123  0.4603
 6571SOL    HW131349   2.513   4.257  10.326  1.8617  1.6311  1.8774
 6571SOL    HW231350   2.651   4.262  10.337 -0.2438  0.4148  0.5257
 6572SOL     OW31351   0.214   1.243   2.120 -0.2843  0.7998 -0.3842
 6572SOL    HW131352   0.296   1.279   2.154 -0.5490  1.4132 -0.3946
 6572SOL    HW231353   0.175   1.325   2.089  1.6713  0.4410 -3.8852
 6573SOL     OW31354   2.845   2.261   6.172  0.2198  0.1124 -0.1989
 6573SOL    HW131355   2.774   2.232   6.114 -0.1241  0.3093  0.1241
 6573SOL    HW231356   2.883   2.176   6.194  2.3969  1.1265 -0.0908
 6574SOL     OW31357   2.184   2.380   8.564  0.5399 -0.1909 -0.1537
 6574SOL    HW131358   2.204   2.458   8.616 -0.9208 -0.2077  0.4275
 6574SOL    HW231359   2.112   2.412   8.510 -0.7614 -1.0349  1.0805
 6575SOL     OW31360   1.334   3.958   6.149  0.0548  0.6226 -0.9040
 6575SOL    HW131361   1.260   4.017   6.134 -1.3166 -0.3488  2.1178
 6575SOL    HW231362   1.386   3.969   6.069  0.5536  1.6520 -0.4338
 6576SOL     OW31363   3.312   2.465  17.013  0.2866  0.1765 -0.0286
 6576SOL    HW131364   3.248   2.406  16.974 -0.5022  0.7946  0.3246
 6576SOL    HW231365   3.303   2.446  17.107  0.6164  1.6072  0.2964
 6577SOL     OW31366   2.552   1.714   9.502 -0.3551  0.6689 -0.4277
 6577SOL    HW131367   2.473   1.661   9.490 -0.1944  0.4493 -0.5055
 6577SOL    HW231368   2.592   1.662   9.571 -0.9552  0.5471 -0.1691
 6578SOL     OW31369   2.783   4.572   7.001  0.1878  0.6681  0.1342
 6578SOL    HW131370   2.840   4.649   7.005  0.9166  0.1342 -0.0134
 6578SOL    HW231371   2.695   4.601   7.026 -0.7340 -0.6386 -1.5731
 6579SOL     OW31372   2.140   3.798   4.278 -0.8164  0.5212 -0.1478
 6579SOL    HW131373   2.158   3.891   4.266 -0.3501  0.4860  0.3097
 6579SOL    HW231374   2.197   3.780   4.352 -0.6722  1.2984 -0.0739
 6580SOL     OW31375   3.584   0.376  10.394  0.1942 -0.8603  0.2398
 6580SOL    HW131376   3.599   0.427  10.474 -0.2869  1.3696 -1.1334
 6580SOL    HW231377   3.630   0.435  10.336 -0.3638  0.7563  1.4315
 6581SOL     OW31378   2.947   2.006   8.938  0.1299 -0.0943 -0.3132
 6581SOL    HW131379   2.952   1.961   9.023  2.2011  0.3041 -0.2155
 6581SOL    HW231380   2.970   2.091   8.977 -1.9619 -0.6523  2.1431
 6582SOL     OW31381   1.087   0.466  13.331  0.0382  0.1497  0.4337
 6582SOL    HW131382   1.021   0.438  13.393 -0.6122  2.0912  0.6284
 6582SOL    HW231383   1.063   0.559  13.333 -2.6080 -0.5043 -0.7252
 6583SOL     OW31384   1.497   3.625   6.836 -0.0492 -0.5819 -0.4252
 6583SOL    HW131385   1.555   3.583   6.899  2.2349 -0.4092 -2.4175
 6583SOL    HW231386   1.519   3.718   6.840  0.5786 -0.6167 -2.9746
 6584SOL     OW31387   1.410   2.641  13.413  0.1464  0.5263 -0.3812
 6584SOL    HW131388   1.501   2.631  13.440  0.4071 -0.4187 -1.5973
 6584SOL    HW231389   1.370   2.588  13.483  2.8802 -0.3694  0.4911
 6585SOL     OW31390   1.367   0.327   3.119  0.1785 -0.2977  0.9531
 6585SOL    HW131391   1.325   0.406   3.085  1.7226  0.6677  1.2780
 6585SOL    HW231392   1.362   0.347   3.213 -4.0995  1.1384  0.4112
 6586SOL     OW31393   2.938   4.095   6.132 -0.4901  0.5311  0.2115
 6586SOL    HW131394   2.900   4.054   6.055  1.9701 -0.7319 -0.3347
 6586SOL    HW231395   3.014   4.140   6.095 -0.1759 -0.6993 -0.6254
 6587SOL     OW31396   2.230   4.118   9.959 -0.6977  0.5162  0.2843
 6587SOL    HW131397   2.314   4.144   9.923 -2.0043  2.1413 -1.5842
 6587SOL    HW231398   2.183   4.198   9.937 -2.8916 -1.3440 -1.8347
 6588SOL     OW31399   1.985   1.918  14.975  0.2526  0.5129  0.2176
 6588SOL    HW131400   1.955   1.830  14.953  1.6224 -0.0919  0.7891
 6588SOL    HW231401   1.896   1.945  14.996  0.5957  0.7872  1.3271
 6589SOL     OW31402   4.239   1.057   8.354 -0.5850 -0.0824 -0.2369
 6589SOL    HW131403   4.159   1.020   8.391 -0.5948  0.8680  0.6876
 6589SOL    HW231404   4.239   1.131   8.413 -1.0966 -0.2321 -0.0519
 6590SOL     OW31405   2.060   3.043   8.721 -0.4004  0.0228 -0.2553
 6590SOL    HW131406   1.982   3.059   8.775 -1.1406 -2.4320 -0.5899
 6590SOL    HW231407   2.091   2.961   8.758  0.3251 -0.9430 -3.0226
 6591SOL     OW31408   2.793   0.098   6.219  0.4244 -0.3657  0.0357
 6591SOL    HW131409   2.803   0.185   6.180 -0.0656  1.0845  3.0782
 6591SOL    HW231410   2.855   0.102   6.292  3.1856 -0.5838 -2.3101
 6592SOL     OW31411   1.360   1.574   2.650 -0.3833 -0.2380  0.0867
 6592SOL    HW131412   1.434   1.515   2.634 -0.3819  0.7784 -3.6765
 6592SOL    HW231413   1.285   1.517   2.669  1.4011 -2.6246  0.0252
 6593SOL     OW31414   0.765   0.504  13.138 -0.2492  0.3308 -0.1716
 6593SOL    HW131415   0.677   0.469  13.129 -0.8877  1.7123  0.8108
 6593SOL    HW231416   0.743   0.584  13.090  0.7353 -0.3738 -1.8326
 6594SOL     OW31417   3.841   0.245   1.961  0.7539  0.4450 -0.7047
 6594SOL    HW131418   3.910   0.264   1.898  1.0709  1.7220  0.0215
 6594SOL    HW231419   3.773   0.219   1.900  1.2469  2.2450 -2.0224
 6595SOL     OW31420   2.192   3.628   2.693 -0.7126 -0.5383 -0.2983
 6595SOL    HW131421   2.189   3.720   2.722 -2.4356 -1.0662  1.1755
 6595SOL    HW231422   2.120   3.626   2.631 -1.1330  1.6779  0.0910
 6596SOL     OW31423   4.285   0.476  15.632  0.2387  0.5751  0.7028
 6596SOL    HW131424   4.353   0.471  15.564 -0.5705  0.3134 -0.0906
 6596SOL    HW231425   4.269   0.384  15.653  2.1394 -0.4523 -2.2994
 6597SOL     OW31426   2.104   3.097  10.826  0.7775 -0.0470 -0.5308
 6597SOL    HW131427   2.046   3.029  10.793  0.0236 -0.9289  2.5478
 6597SOL    HW231428   2.046   3.142  10.888  0.1018 -2.2215  0.4262
 6598SOL     OW31429   4.487   1.998  12.146 -0.0809  0.0776 -0.4320
 6598SOL    HW131430   4.545   1.961  12.079  0.6383  0.9034 -0.2797
 6598SOL    HW231431   4.557   2.058  12.174  1.2749 -2.8295  2.3245
 6599SOL     OW31432   4.666   4.493   8.235  0.3953  0.5359  0.1611
 6599SOL    HW131433   4.644   4.552   8.308 -0.1599 -0.0668  0.4729
 6599SOL    HW231434   4.584   4.445   8.231 -0.1739  1.4592  0.8206
 6600SOL     OW31435   2.225   1.327   4.893 -0.6144 -0.6409  0.1953
 6600SOL    HW131436   2.162   1.275   4.943 -1.3272  0.1103  0.0772
 6600SOL    HW231437   2.242   1.267   4.820 -3.3572 -0.1518 -0.8235
 6601SOL     OW31438   4.285   1.092   4.542  0.6948 -0.3484  0.4547
 6601SOL    HW131439   4.285   1.178   4.586  0.4682 -0.2649  0.2894
 6601SOL    HW231440   4.193   1.089   4.518  1.4935 -1.2654 -2.4747
 6602SOL     OW31441   3.995   3.078  12.435 -0.0414  0.7387 -0.0935
 6602SOL    HW131442   3.916   3.103  12.483  0.8647  1.5134  0.9865
 6602SOL    HW231443   4.057   3.145  12.464  1.9932 -0.2811 -2.1284
 6603SOL     OW31444   1.349   4.632   2.716  0.0128 -0.6508  0.1354
 6603SOL    HW131445   1.253   4.634   2.706  0.1949  2.6597 -1.0426
 6603SOL    HW231446   1.360   4.540   2.742  0.2615 -0.4019  0.8861
 6604SOL     OW31447   1.197   2.463   6.143 -0.3819 -0.2615 -0.6160
 6604SOL    HW131448   1.160   2.549   6.160 -0.6013 -0.9875  2.6178
 6604SOL    HW231449   1.123   2.410   6.172 -1.5119  1.9979  0.5718
 6605SOL     OW31450   2.839   3.453   8.132 -0.1612  0.2604  0.2250
 6605SOL    HW131451   2.929   3.423   8.136  0.3146  1.4870 -1.3052
 6605SOL    HW231452   2.805   3.434   8.220  0.3854 -0.3120  0.3050
 6606SOL     OW31453   3.829   3.903   6.404  0.0333 -0.2807  0.9696
 6606SOL    HW131454   3.846   3.809   6.397 -1.4917 -0.4035 -1.2307
 6606SOL    HW231455   3.733   3.908   6.403  0.0420  0.4432  2.8541
 6607SOL     OW31456   4.537   2.971   5.660 -0.1895 -0.1028 -0.1730
 6607SOL    HW131457   4.488   2.970   5.578 -1.7100  3.2633  0.6723
 6607SOL    HW231458   4.464   2.971   5.722 -0.0278  0.8013  0.0261
 6608SOL     OW31459   1.171   0.187   5.952 -0.1460  0.2799  0.1576
 6608SOL    HW131460   1.092   0.133   5.958  0.6475 -0.9795 -0.7405
 6608SOL    HW231461   1.190   0.167   5.860  0.6850 -1.0192  0.6104
 6609SOL     OW31462   0.399   1.841   5.267 -0.0583  0.2101 -0.6567
 6609SOL    HW131463   0.346   1.782   5.214 -1.8161  0.9669  0.2501
 6609SOL    HW231464   0.375   1.825   5.358  0.2170 -0.8679 -0.7762
 6610SOL     OW31465   4.303   2.751   1.920 -0.1362 -0.0996 -0.1577
 6610SOL    HW131466   4.258   2.790   1.996 -0.4683  0.4970 -0.6608
 6610SOL    HW231467   4.379   2.712   1.963 -0.2856  1.1845  1.2989
 6611SOL     OW31468   4.259   4.396   8.572  0.1309  0.3789 -0.0756
 6611SOL    HW131469   4.252   4.488   8.599  0.7614 -0.0013  1.4088
 6611SOL    HW231470   4.338   4.359   8.611 -2.0826 -1.6081  2.5973
 6612SOL     OW31471   4.719   0.260   6.001 -0.2496 -0.7381  0.1488
 6612SOL    HW131472   4.681   0.237   6.086 -0.0178 -1.2327  0.1139
 6612SOL    HW231473   4.641   0.303   5.965  0.1074 -0.5464 -0.3930
 6613SOL     OW31474   3.023   3.477  17.523 -0.4659 -0.3355  0.1744
 6613SOL    HW131475   2.995   3.462  17.433  1.4453 -1.0402 -0.2886
 6613SOL    HW231476   3.115   3.474  17.499 -0.6148  0.7183 -0.5465
 6614SOL     OW31477   2.837   2.810   3.079 -0.3138 -0.2305 -0.0359
 6614SOL    HW131478   2.920   2.854   3.061 -1.2161  1.1025 -0.9654
 6614SOL    HW231479   2.772   2.880   3.074 -1.1656 -0.8667  1.9115
 6615SOL     OW31480   3.467   4.078   1.797  0.1040  0.0539 -0.2269
 6615SOL    HW131481   3.509   4.008   1.746  5.0714  2.1300  0.9772
 6615SOL    HW231482   3.507   4.158   1.765  0.2137  0.2632  0.4343
 6616SOL     OW31483   1.628   0.877   2.812 -0.5227  0.0133 -0.5948
 6616SOL    HW131484   1.598   0.787   2.826 -0.8943  0.1584 -0.4652
 6616SOL    HW231485   1.626   0.915   2.900  2.8573  2.1436 -1.4356
 6617SOL     OW31486   3.157   0.371   6.817 -0.1956  0.3144  0.2830
 6617SOL    HW131487   3.106   0.289   6.812 -1.0069  0.7582  1.4050
 6617SOL    HW231488   3.224   0.350   6.751 -0.5809 -0.1736  0.0433
 6618SOL     OW31489   2.682   2.845   7.008  0.6141  0.1295  0.8344
 6618SOL    HW131490   2.699   2.938   7.018  2.6572  0.0556 -1.9092
 6618SOL    HW231491   2.717   2.820   7.093  1.0419 -0.5679  0.4590
 6619SOL     OW31492   1.085   2.836   4.097 -0.1370  0.5978 -0.3733
 6619SOL    HW131493   1.046   2.757   4.058 -1.2593  0.7826  0.3723
 6619SOL    HW231494   1.035   2.834   4.179 -0.3844  0.2311 -0.5336
 6620SOL     OW31495   2.284   4.135   3.853  0.2672  0.8210  0.6560
 6620SOL    HW131496   2.201   4.099   3.823  0.0337  2.8803 -1.1694
 6620SOL    HW231497   2.256   4.215   3.898 -2.4125 -0.3669  1.0546
 6621SOL     OW31498   1.134   0.847  15.099 -0.2793  0.4332  0.6416
 6621SOL    HW131499   1.119   0.911  15.029  1.8400 -0.9586 -1.1210
 6621SOL    HW231500   1.180   0.781  15.047 -0.7113  0.9701 -0.4417
 6622SOL     OW31501   1.834   0.610   7.087 -0.3391 -0.3981 -0.2470
 6622SOL    HW131502   1.764   0.549   7.062  1.4862 -2.1967 -0.9214
 6622SOL    HW231503   1.803   0.665   7.015  1.0735  1.5995  0.6772
 6623SOL     OW31504   3.039   2.202   8.470  0.1386 -0.1564 -0.2275
 6623SOL    HW131505   2.978   2.129   8.481  1.1487 -1.1061 -0.9384
 6623SOL    HW231506   3.115   2.155   8.436  0.0886 -2.4167  2.7438
 6624SOL     OW31507   4.041   0.757   5.353 -0.6408 -0.0974 -0.0599
 6624SOL    HW131508   3.958   0.787   5.391 -0.5888 -3.2240  2.4994
 6624SOL    HW231509   4.037   0.795   5.265  1.2231  1.1217  0.3705
 6625SOL     OW31510   0.376   3.116  15.019 -0.0367  0.4065  0.0988
 6625SOL    HW131511   0.354   3.184  15.083  4.3960  1.0930  0.9368
 6625SOL    HW231512   0.311   3.130  14.950 -1.2984 -0.2035  1.1524
 6626SOL     OW31513   0.480   1.054  10.551  0.1763  0.1739 -0.2765
 6626SOL    HW131514   0.408   1.051  10.614  0.4671  1.3321  0.1116
 6626SOL    HW231515   0.428   1.028  10.476 -1.7550 -0.8524  1.4303
 6627SOL     OW31516   2.754   0.818   5.794 -0.2289  0.3312  0.3662
 6627SOL    HW131517   2.821   0.849   5.854  0.1077  0.9795 -0.3472
 6627SOL    HW231518   2.723   0.745   5.848  0.9151 -0.2165  0.2896
 6628SOL     OW31519   0.082   0.826  10.076 -0.4269  0.1302 -0.3263
 6628SOL    HW131520   0.004   0.776  10.101 -0.3798 -0.3644 -1.1799
 6628SOL    HW231521   0.043   0.909  10.049 -0.5526  0.0520 -0.3845
 6629SOL     OW31522   3.218   1.835   4.077  0.3322  0.4196 -0.0557
 6629SOL    HW131523   3.134   1.877   4.061  1.5656  2.4553 -1.1940
 6629SOL    HW231524   3.246   1.892   4.149 -2.0618  0.2871  0.9578
 6630SOL     OW31525   1.360   3.208   9.709  0.2596  0.1833 -0.2078
 6630SOL    HW131526   1.278   3.226   9.754  0.7631 -1.1500  1.2606
 6630SOL    HW231527   1.425   3.253   9.763  1.3259 -4.9051  2.7387
 6631SOL     OW31528   0.807   3.026   4.212  0.4626  0.1541 -0.3043
 6631SOL    HW131529   0.824   3.082   4.136  0.6253  0.6857  0.1253
 6631SOL    HW231530   0.716   2.998   4.196  0.4660  0.7619 -1.3441
 6632SOL     OW31531   2.738   1.889  15.291 -0.4336  0.1729  0.2448
 6632SOL    HW131532   2.775   1.978  15.291 -1.0379  0.4178  1.6941
 6632SOL    HW231533   2.818   1.842  15.316 -0.4959 -0.0233  0.0667
 6633SOL     OW31534   2.194   3.372   1.901 -0.1160 -0.5610  0.1376
 6633SOL    HW131535   2.133   3.424   1.849  1.0216  1.0304  0.3898
 6633SOL    HW231536   2.151   3.387   1.985 -2.0424  1.9094 -1.2861
 6634SOL     OW31537   1.828   1.444   2.081 -0.9944 -0.0726  0.2692
 6634SOL    HW131538   1.916   1.463   2.116 -1.3854  1.7472  0.2450
 6634SOL    HW231539   1.826   1.349   2.069 -0.0939  0.0470 -0.7943
 6635SOL     OW31540   3.182   4.168   6.992 -0.3391  0.2718 -0.3519
 6635SOL    HW131541   3.130   4.201   7.065 -0.3996 -1.8539  0.5531
 6635SOL    HW231542   3.196   4.078   7.021 -1.3426 -0.5053 -2.2825
 6636SOL     OW31543   1.774   3.324  15.224 -0.3810  0.3860 -0.3764
 6636SOL    HW131544   1.683   3.336  15.251 -0.6260 -0.0372 -1.0073
 6636SOL    HW231545   1.785   3.229  15.219  2.1569  0.6747 -0.0230
 6637SOL     OW31546   4.597   3.381   2.879 -0.2149 -0.2621  0.8960
 6637SOL    HW131547   4.521   3.440   2.877 -0.8914 -1.2003 -0.9063
 6637SOL    HW231548   4.660   3.446   2.849 -1.6429 -0.1860 -1.9588
 6638SOL     OW31549   1.432   2.938   6.577 -0.1752  0.7293 -0.2798
 6638SOL    HW131550   1.518   2.898   6.588  0.3217  1.3587 -2.0037
 6638SOL    HW231551   1.432   2.927   6.482  1.2616  0.3982 -0.2403
 6639SOL     OW31552   3.607   1.803   6.717  0.0855  0.1790 -0.3683
 6639SOL    HW131553   3.651   1.861   6.655  0.9142  0.1059  0.1502
 6639SOL    HW231554   3.518   1.836   6.701  0.1708  0.7733  0.3804
 6640SOL     OW31555   3.177   4.547   5.137 -0.1575  0.5481 -0.2335
 6640SOL    HW131556   3.189   4.453   5.122 -0.9540  0.4638 -0.3540
 6640SOL    HW231557   3.087   4.542   5.171 -0.1453  0.8335 -0.1586
 6641SOL     OW31558   1.498   0.807  13.003  0.6065  0.0034  0.3933
 6641SOL    HW131559   1.532   0.808  12.914  2.6879  2.0924  1.2185
 6641SOL    HW231560   1.456   0.893  13.008 -0.9494 -0.5745 -2.7600
 6642SOL     OW31561   4.588   2.142   1.421  0.0549 -0.0402  0.3063
 6642SOL    HW131562   4.638   2.085   1.479 -1.3010 -1.1445  0.3836
 6642SOL    HW231563   4.561   2.075   1.359 -1.1699  2.0297 -1.4186
 6643SOL     OW31564   2.888   2.435   3.450 -0.0172 -0.5799 -0.5371
 6643SOL    HW131565   2.815   2.382   3.416 -1.1348 -0.3685  1.5265
 6643SOL    HW231566   2.908   2.494   3.378  0.1522 -0.5083 -0.4304
 6644SOL     OW31567   0.676   1.669   0.245 -0.1225 -0.5036 -0.1431
 6644SOL    HW131568   0.627   1.620   0.312  0.0426 -0.2492  0.1633
 6644SOL    HW231569   0.614   1.733   0.211 -0.1870  0.1042  1.1079
 6645SOL     OW31570   3.574   3.821   3.917  0.1859 -0.8052  0.1153
 6645SOL    HW131571   3.506   3.879   3.950  0.6038  0.9781 -2.1166
 6645SOL    HW231572   3.522   3.790   3.842 -2.1429  1.1956  0.9050
 6646SOL     OW31573   2.251   2.915   9.592  0.1451 -0.4214 -0.2977
 6646SOL    HW131574   2.341   2.890   9.575  0.3003  0.1821 -0.3592
 6646SOL    HW231575   2.265   2.968   9.671 -0.5877 -0.2695 -0.2695
 6647SOL     OW31576   0.631   4.454   9.230 -0.5661 -0.2686  0.7332
 6647SOL    HW131577   0.713   4.438   9.277  0.3051 -1.4973 -1.2085
 6647SOL    HW231578   0.628   4.549   9.240 -1.6525 -0.1754 -0.3981
 6648SOL     OW31579   2.197   1.245   0.323 -0.7352 -0.2461  0.1509
 6648SOL    HW131580   2.198   1.157   0.285 -0.6153 -0.4091  0.5307
 6648SOL    HW231581   2.134   1.296   0.274  1.3748  0.4516 -1.8283
 6649SOL     OW31582   0.138   1.023   8.278 -0.6340 -0.2032 -0.3819
 6649SOL    HW131583   0.178   0.985   8.200  0.5325 -1.1669  0.6852
 6649SOL    HW231584   0.215   1.065   8.318 -0.1100  0.1514 -1.7635
 6650SOL     OW31585   2.070   4.358   2.636 -0.3933  0.4208  0.1404
 6650SOL    HW131586   2.061   4.450   2.659  1.7986  0.1224  2.1692
 6650SOL    HW231587   1.995   4.357   2.577 -1.0897 -1.8757  1.0305
 6651SOL     OW31588   1.635   4.213   2.639  0.2124 -0.4974 -0.3986
 6651SOL    HW131589   1.645   4.255   2.724  2.2416 -1.5234 -0.1260
 6651SOL    HW231590   1.541   4.227   2.629  0.1601 -0.1579  0.5471
 6652SOL     OW31591   2.266   0.701   7.514  0.4788 -0.2304 -0.2676
 6652SOL    HW131592   2.292   0.726   7.603 -0.6730  0.3588 -0.0946
 6652SOL    HW231593   2.268   0.784   7.467  1.5485 -0.2185 -0.1976
 6653SOL     OW31594   3.018   3.896   5.691  0.0865 -0.2926 -0.0752
 6653SOL    HW131595   3.057   3.810   5.701  0.9363  0.0062 -0.8221
 6653SOL    HW231596   2.928   3.867   5.675  0.7890 -1.4363 -1.8975
 6654SOL     OW31597   4.221   2.158   3.467 -0.6978  0.4746  0.7132
 6654SOL    HW131598   4.225   2.218   3.393 -0.2875 -1.1833 -0.6088
 6654SOL    HW231599   4.154   2.097   3.436  0.5458 -1.9631  2.7651
 6655SOL     OW31600   0.787   0.439   8.619  0.3550  0.0972  0.0247
 6655SOL    HW131601   0.799   0.353   8.658  0.0304  0.9521  2.0070
 6655SOL    HW231602   0.765   0.482   8.702 -2.0625 -1.3165  0.0882
 6656SOL     OW31603   4.178   3.354   8.485 -0.4984  0.0610  0.2906
 6656SOL    HW131604   4.184   3.263   8.454  1.0746  0.3119 -0.1507
 6656SOL    HW231605   4.153   3.335   8.575 -0.6997 -1.3051 -0.0531
 6657SOL     OW31606   4.719   2.552   9.907 -0.5956  0.2291 -0.4904
 6657SOL    HW131607   0.074   2.523   9.909 -0.4641  0.6894  0.7044
 6657SOL    HW231608   4.722   2.586   9.997 -1.8438  2.0399 -1.1424
 6658SOL     OW31609   3.836   2.397   6.497  0.2979  0.6029  0.2141
 6658SOL    HW131610   3.863   2.313   6.535 -1.1973 -0.6303 -1.4342
 6658SOL    HW231611   3.916   2.447   6.512  1.4648 -1.0393 -0.4705
 6659SOL     OW31612   4.626   2.620  14.224 -0.5266 -0.0736  0.4871
 6659SOL    HW131613   4.632   2.666  14.140 -1.5374 -0.9906 -0.0927
 6659SOL    HW231614   4.664   2.684  14.284 -1.9708 -0.5177  1.8621
 6660SOL     OW31615   2.911   2.654   1.852  0.1060 -0.6363 -0.4431
 6660SOL    HW131616   2.819   2.628   1.845 -0.2202  0.8834 -1.6941
 6660SOL    HW231617   2.894   2.731   1.905  2.6986 -0.3996  0.0524
 6661SOL     OW31618   1.223   3.101   7.788 -0.4589  0.4889 -0.2212
 6661SOL    HW131619   1.205   3.007   7.794  0.4324  0.3735  0.6532
 6661SOL    HW231620   1.281   3.114   7.863 -0.8707 -2.1185  0.5467
 6662SOL     OW31621   2.970   0.745  15.064  0.0878 -0.4546 -1.0280
 6662SOL    HW131622   3.015   0.824  15.034 -0.8735  1.2376  2.0174
 6662SOL    HW231623   2.951   0.768  15.155 -1.3346 -0.3692 -1.3425
 6663SOL     OW31624   3.925   1.754   2.655 -0.2281 -0.2006 -0.1283
 6663SOL    HW131625   4.008   1.803   2.655 -0.8424  0.8247 -0.1696
 6663SOL    HW231626   3.870   1.826   2.623  1.2305  0.7076 -0.6163
 6664SOL     OW31627   4.088   2.610   2.259  0.0770  0.3524 -0.3505
 6664SOL    HW131628   4.119   2.691   2.218  0.9310  1.0645  1.7126
 6664SOL    HW231629   4.026   2.591   2.189 -1.5254 -0.0488  1.1682
 6665SOL     OW31630   4.423   4.011   2.357  0.1067 -0.0903  0.0269
 6665SOL    HW131631   4.459   4.099   2.345 -2.2348  0.8427 -0.0273
 6665SOL    HW231632   4.502   3.964   2.383  0.6328  2.4731  3.0348
 6666SOL     OW31633   1.677   2.445   6.708 -0.6066  0.2193  0.1198
 6666SOL    HW131634   1.665   2.372   6.648  0.5536 -1.4653  1.9155
 6666SOL    HW231635   1.743   2.492   6.657 -1.0702  1.5625  0.7567
 6667SOL     OW31636   1.380   1.432  15.334  0.2960 -0.1793  0.5843
 6667SOL    HW131637   1.414   1.344  15.352  0.3985 -0.4473 -0.9061
 6667SOL    HW231638   1.453   1.486  15.304  0.4043 -0.0130  1.1570
 6668SOL     OW31639   1.121   1.396   8.679 -0.4945 -0.1615 -0.0681
 6668SOL    HW131640   1.205   1.442   8.677 -0.6320  0.1544  1.6420
 6668SOL    HW231641   1.116   1.361   8.768 -1.4262  1.8550  0.6862
 6669SOL     OW31642   1.723   0.735   9.284 -0.2669  0.1244  0.0909
 6669SOL    HW131643   1.771   0.675   9.226 -3.4027 -0.6891 -1.6473
 6669SOL    HW231644   1.788   0.786   9.333 -0.1099  2.1187 -2.2302
 6670SOL     OW31645   1.980   0.823   5.173 -0.3293 -0.4701  0.5185
 6670SOL    HW131646   2.066   0.844   5.137 -1.2260  0.0668 -1.3298
 6670SOL    HW231647   1.922   0.862   5.108 -1.3326  1.4030  2.5368
 6671SOL     OW31648   1.818   3.435   2.202  0.0187 -0.2774 -0.2677
 6671SOL    HW131649   1.758   3.363   2.183 -1.6487  1.3719 -1.3160
 6671SOL    HW231650   1.766   3.477   2.271 -0.9202 -0.7484 -0.6878
 6672SOL     OW31651   0.012   1.442  10.425  0.2151 -0.1974 -0.5635
 6672SOL    HW131652   0.075   1.459  10.495 -1.2275 -1.2415  0.9556
 6672SOL    HW231653   4.730   1.350  10.442  1.3530 -0.2238  0.4664
 6673SOL     OW31654   2.202   0.824   1.041 -0.1590 -0.3115 -0.1878
 6673SOL    HW131655   2.220   0.846   1.132  1.0338 -0.8234 -0.3102
 6673SOL    HW231656   2.130   0.882   1.016 -2.2002 -1.8765  2.0140
 6674SOL     OW31657   0.856   0.514   4.025  0.1579  0.0331  0.3291
 6674SOL    HW131658   0.859   0.604   4.056  1.0508 -0.2802  1.1809
 6674SOL    HW231659   0.912   0.464   4.085  1.7011  1.4062  0.0497
 6675SOL     OW31660   4.057   3.768   7.644  0.9244  0.0383 -0.6441
 6675SOL    HW131661   4.128   3.729   7.696 -0.1485 -1.8691 -0.5886
 6675SOL    HW231662   4.107   3.840   7.607  0.5818 -0.3628 -1.8914
 6676SOL     OW31663   0.858   3.321   1.012 -0.3440 -0.2315  0.1906
 6676SOL    HW131664   0.864   3.247   0.951 -0.6494  1.2806 -1.6507
 6676SOL    HW231665   0.945   3.360   1.010  0.3866 -1.9510 -1.3330
 6677SOL     OW31666   0.356   4.675   5.549  0.2691  0.1373 -0.0619
 6677SOL    HW131667   0.280   4.625   5.578 -0.5911 -0.0526 -2.6937
 6677SOL    HW231668   0.423   4.653   5.615 -0.1419  0.6320  0.5197
 6678SOL     OW31669   1.447   2.305   2.880  0.0872  0.5729 -1.0854
 6678SOL    HW131670   1.540   2.294   2.860 -0.2038  0.6527 -2.4690
 6678SOL    HW231671   1.414   2.317   2.791 -3.5215 -0.5294  0.1096
 6679SOL     OW31672   2.083   4.678  15.849 -0.6688 -0.0247 -1.1377
 6679SOL    HW131673   2.094   4.660  15.942  1.0557  1.0517 -1.1254
 6679SOL    HW231674   2.134   4.604  15.816 -0.7135 -0.1348 -0.9559
 6680SOL     OW31675   3.368   1.010   1.180 -0.0706 -0.1540  0.6069
 6680SOL    HW131676   3.371   0.915   1.171  1.4452 -0.0309 -0.2231
 6680SOL    HW231677   3.397   1.037   1.093  1.0376 -1.1846  0.6485
 6681SOL     OW31678   2.366   1.824   1.679 -0.2354  0.3221 -0.1560
 6681SOL    HW131679   2.328   1.912   1.666 -0.3087  0.7258  2.8020
 6681SOL    HW231680   2.312   1.794   1.752  0.0038 -0.6807 -0.3951
 6682SOL     OW31681   3.241   1.316   1.993 -0.1311 -0.8670  0.1193
 6682SOL    HW131682   3.201   1.375   2.058  3.9281  2.2156 -0.1940
 6682SOL    HW231683   3.177   1.297   1.925  0.1840 -2.6144  0.3181
 6683SOL     OW31684   4.208   3.551   5.538  0.2323 -0.1808 -0.3841
 6683SOL    HW131685   4.276   3.618   5.543 -0.9959  1.1365 -1.5016
 6683SOL    HW231686   4.134   3.609   5.522  0.7101  0.9043  1.3849
 6684SOL     OW31687   0.279   0.847   2.715  0.1440  0.5003  0.4314
 6684SOL    HW131688   0.354   0.899   2.687 -0.1666 -0.8735 -2.9546
 6684SOL    HW231689   0.308   0.755   2.712  0.3350  0.6025 -0.7884
 6685SOL     OW31690   4.597   3.664   3.561 -0.0501 -0.2583 -0.4059
 6685SOL    HW131691   4.612   3.730   3.629  1.1941  0.4783 -1.3875
 6685SOL    HW231692   4.602   3.721   3.484  0.4964  0.5469  0.2226
 6686SOL     OW31693   4.255   1.245   7.041  0.1907  0.1661 -0.0301
 6686SOL    HW131694   4.199   1.181   6.997  1.1517 -0.7469  0.0873
 6686SOL    HW231695   4.208   1.254   7.124 -2.0113 -1.0097 -1.1467
 6687SOL     OW31696   3.838   1.723  16.183  0.4271 -0.0485 -0.2911
 6687SOL    HW131697   3.803   1.808  16.156  0.0978 -0.3026 -0.6651
 6687SOL    HW231698   3.862   1.739  16.274 -1.4043 -0.5601  0.2707
 6688SOL     OW31699   3.063   2.050  14.133  0.4034  0.3365  0.3001
 6688SOL    HW131700   3.017   2.122  14.089  0.1172  0.7098  1.1923
 6688SOL    HW231701   2.991   2.013  14.185  0.4493 -2.2017 -1.4599
 6689SOL     OW31702   0.136   0.874   3.049 -0.2699  0.4379 -0.8821
 6689SOL    HW131703   0.113   0.792   3.006 -0.1878 -1.2950  2.3474
 6689SOL    HW231704   0.132   0.929   2.971  0.9221  0.6320 -0.7981
 6690SOL     OW31705   2.776   2.244  15.405 -0.1013  0.2629  0.9725
 6690SOL    HW131706   2.727   2.237  15.323 -0.5263 -0.3115  1.2795
 6690SOL    HW231707   2.840   2.174  15.391  0.4571  0.5626  1.9940
 6691SOL     OW31708   3.044   1.771  13.275 -0.6814 -0.0016  0.2183
 6691SOL    HW131709   2.973   1.793  13.334  0.7939 -0.6186  2.2155
 6691SOL    HW231710   3.100   1.848  13.286  1.4069 -1.3800 -0.6612
 6692SOL     OW31711   2.103   2.068   1.165 -0.8914  0.1826  0.5338
 6692SOL    HW131712   2.100   2.120   1.084  0.9944  0.6133  0.7443
 6692SOL    HW231713   2.132   2.135   1.228  0.3076 -2.1362  2.4408
 6693SOL     OW31714   2.071   4.186   6.869  0.2154 -0.3880  0.2187
 6693SOL    HW131715   2.050   4.249   6.800  1.2745  0.8181  1.0166
 6693SOL    HW231716   2.109   4.244   6.935  1.3152 -0.1609 -0.6051
 6694SOL     OW31717   4.285   0.799   8.261 -0.0461  0.5909  0.4301
 6694SOL    HW131718   4.274   0.893   8.274 -0.4042  0.0692  3.9662
 6694SOL    HW231719   4.197   0.772   8.289  0.8511 -0.9168  1.8059
 6695SOL     OW31720   1.535   3.395   4.704  0.9564  0.1341  0.4482
 6695SOL    HW131721   1.506   3.486   4.697 -0.7448 -0.5892 -1.9719
 6695SOL    HW231722   1.510   3.358   4.619  0.6776  1.9043 -0.2517
 6696SOL     OW31723   2.354   1.532   1.705  0.2218  0.2062 -0.3032
 6696SOL    HW131724   2.395   1.608   1.664 -0.1359  0.6626  0.2003
 6696SOL    HW231725   2.340   1.473   1.631 -0.0140  0.4419 -0.4452
 6697SOL     OW31726   2.358   3.068   1.597 -0.2970  0.2796  0.0952
 6697SOL    HW131727   2.373   3.150   1.644 -0.3085  0.4657 -0.2232
 6697SOL    HW231728   2.267   3.049   1.622  0.2609  0.9056  2.6229
 6698SOL     OW31729   2.538   4.215   4.292  0.1037  0.2251  0.2847
 6698SOL    HW131730   2.603   4.145   4.301 -0.1894 -0.0314  0.4476
 6698SOL    HW231731   2.571   4.275   4.358  0.4933 -0.6271  0.8658
 6699SOL     OW31732   3.453   1.518   8.615 -0.1120  0.2530  0.2430
 6699SOL    HW131733   3.547   1.522   8.633 -0.3969  0.2185  1.6955
 6699SOL    HW231734   3.429   1.526   8.707 -0.0085  0.2295  0.2722
 6700SOL     OW31735   3.184   2.770   6.560 -0.2417 -0.1996  0.4804
 6700SOL    HW131736   3.192   2.812   6.474  1.3247 -1.1257  0.1750
 6700SOL    HW231737   3.093   2.746   6.578  0.7788 -3.3344  1.4439
 6701SOL     OW31738   2.842   3.665  12.242 -0.4565 -0.4833  0.3417
 6701SOL    HW131739   2.782   3.637  12.172 -0.6973 -0.4423  0.5316
 6701SOL    HW231740   2.809   3.623  12.321 -0.9836 -0.7011  0.0074
 6702SOL     OW31741   1.608   0.447  13.159  0.0189 -0.2086  0.7350
 6702SOL    HW131742   1.560   0.529  13.148  2.2323  1.2059  1.6031
 6702SOL    HW231743   1.609   0.418  13.067  0.6906 -2.7311  1.5381
 6703SOL     OW31744   0.010   3.407  10.614  0.4876 -0.5962  0.3636
 6703SOL    HW131745   4.684   3.412  10.687  1.1710  1.0137  0.8332
 6703SOL    HW231746   0.097   3.413  10.653  0.4693 -1.6314  0.5642
 6704SOL     OW31747   1.281   1.708   2.922 -0.2696 -0.4278 -0.3098
 6704SOL    HW131748   1.217   1.696   2.992  0.7786 -1.0662  0.5335
 6704SOL    HW231749   1.359   1.671   2.965 -0.7859  1.5457  2.2863
 6705SOL     OW31750   1.756   2.751   5.066 -0.0676  0.2131 -0.4186
 6705SOL    HW131751   1.799   2.667   5.050  0.4228 -0.1202  2.6298
 6705SOL    HW231752   1.784   2.816   5.002 -1.2130 -1.3303 -2.5113
 6706SOL     OW31753   4.108   3.635   4.794  0.3730 -0.4752 -0.4632
 6706SOL    HW131754   4.149   3.571   4.736  1.8303  0.0253  0.0131
 6706SOL    HW231755   4.177   3.642   4.861 -2.0035  2.3565  1.7064
 6707SOL     OW31756   3.536   2.968   0.825  0.2492 -0.0433 -0.1054
 6707SOL    HW131757   3.481   2.891   0.838  0.1442  0.3100  1.5582
 6707SOL    HW231758   3.478   3.034   0.865 -0.5791 -0.8121 -0.0413
 6708SOL     OW31759   2.039   0.005   7.297 -0.5290  0.0087  1.3713
 6708SOL    HW131760   2.074   4.736   7.386 -0.5282  2.0118  1.4922
 6708SOL    HW231761   2.030   0.100   7.283  3.0571  0.3438  1.4371
 6709SOL     OW31762   1.771   3.431   1.569 -0.1794  0.1877 -0.6249
 6709SOL    HW131763   1.835   3.361   1.581 -0.1132  0.4167  0.3132
 6709SOL    HW231764   1.720   3.400   1.494 -2.5710  0.8475  0.7168
 6710SOL     OW31765   2.286   2.372   8.250  0.2828 -0.2982 -0.3229
 6710SOL    HW131766   2.312   2.451   8.297 -0.0326 -0.8061  0.6960
 6710SOL    HW231767   2.209   2.354   8.304 -0.1127  0.4866 -0.6291
 6711SOL     OW31768   4.536   2.971   0.396 -0.2161  0.4516  0.2705
 6711SOL    HW131769   4.518   3.006   0.309  1.6237  0.0248 -0.2695
 6711SOL    HW231770   4.630   2.975   0.382 -0.6918 -1.1221 -3.1991
 6712SOL     OW31771   0.238   1.472   4.234  0.1639 -0.3626  0.6701
 6712SOL    HW131772   0.330   1.477   4.259  0.4905  1.1612 -0.8191
 6712SOL    HW231773   0.199   1.472   4.321  1.6286  1.3256  1.3232
 6713SOL     OW31774   0.071   2.759   6.261  0.4142 -0.1886 -0.6238
 6713SOL    HW131775   0.098   2.737   6.172 -0.9283  0.5733 -1.2107
 6713SOL    HW231776   0.079   2.672   6.299  1.0533 -0.5638 -1.5945
 6714SOL     OW31777   0.855   1.897  11.304 -0.4498 -0.0597 -0.0549
 6714SOL    HW131778   0.930   1.858  11.348  0.7296 -0.2621 -2.2251
 6714SOL    HW231779   0.825   1.829  11.243 -0.9693  1.6472 -1.7098
 6715SOL     OW31780   0.254   1.228  17.464  0.1097  0.2503 -0.0209
 6715SOL    HW131781   0.257   1.134  17.481  0.4329 -0.1266 -2.2050
 6715SOL    HW231782   0.312   1.229  17.388  1.2510  0.8579  0.8663
 6716SOL     OW31783   2.310   3.393  15.395  0.4366 -0.3742  0.4108
 6716SOL    HW131784   2.376   3.361  15.456  0.7331  0.4691  0.5311
 6716SOL    HW231785   2.294   3.314  15.343 -1.5733 -0.9828  1.9158
 6717SOL     OW31786   4.403   3.432  15.691 -0.0833  0.5251  0.1072
 6717SOL    HW131787   4.449   3.397  15.768  0.6456 -0.4145 -0.7542
 6717SOL    HW231788   4.399   3.353  15.637 -0.7172  2.5840 -2.8563
 6718SOL     OW31789   2.471   1.425   9.721 -0.1555 -1.0163  0.0529
 6718SOL    HW131790   2.439   1.359   9.659 -1.9002  0.6412 -0.7960
 6718SOL    HW231791   2.559   1.449   9.693  1.5038 -5.0236  1.8641
 6719SOL     OW31792   4.136   2.714   7.012 -0.1440  0.2592 -0.5778
 6719SOL    HW131793   4.123   2.636   6.960 -0.3746  0.1508 -0.3569
 6719SOL    HW231794   4.113   2.682   7.099  0.6504 -1.0842 -0.8749
 6720SOL     OW31795   2.630   2.105   3.595  0.0979  0.4619 -0.0571
 6720SOL    HW131796   2.638   2.096   3.690  3.4478 -0.1767 -0.4039
 6720SOL    HW231797   2.574   2.028   3.581  0.9001 -0.0430 -0.4880
 6721SOL     OW31798   0.242   2.765   3.012 -0.4682 -0.1472 -0.4555
 6721SOL    HW131799   0.219   2.794   3.100  0.8474 -0.7242  0.0774
 6721SOL    HW231800   0.168   2.790   2.956  1.0872  0.7909 -2.1166
 6722SOL     OW31801   0.803   0.884   5.831 -0.2866 -0.0528 -0.2205
 6722SOL    HW131802   0.887   0.886   5.786 -1.1510  1.2865 -1.7751
 6722SOL    HW231803   0.813   0.806   5.886 -2.0790 -0.1822 -0.0869
 6723SOL     OW31804   3.590   1.586   4.611  0.0658 -0.1654 -0.0413
 6723SOL    HW131805   3.504   1.627   4.622 -0.5832 -1.6820  0.5468
 6723SOL    HW231806   3.649   1.660   4.594 -1.2626  0.6247 -1.2811
 6724SOL     OW31807   0.459   0.059   5.121 -0.6220  0.0810  0.7548
 6724SOL    HW131808   0.441   0.035   5.030 -0.5090 -1.9548  1.2780
 6724SOL    HW231809   0.388   0.014   5.165 -0.8567  1.4607  1.7701
 6725SOL     OW31810   0.386   4.414  17.614 -0.1224  0.4318 -0.4682
 6725SOL    HW131811   0.444   4.412  17.690  2.7447 -0.2677 -2.6795
 6725SOL    HW231812   0.304   4.375  17.644  0.1952  0.6804  0.7351
 6726SOL     OW31813   2.369   1.629  15.556  0.1517 -0.2908  0.1226
 6726SOL    HW131814   2.387   1.716  15.591 -1.3282  0.3325 -0.6604
 6726SOL    HW231815   2.432   1.582  15.609 -0.1273 -0.6388  0.1441
 6727SOL     OW31816   3.650   1.044   9.043 -0.4781  0.0202 -0.0809
 6727SOL    HW131817   3.701   1.124   9.039  0.1693 -0.3285  1.0092
 6727SOL    HW231818   3.709   0.989   8.992  0.0253  0.8823 -0.4119
 6728SOL     OW31819   0.289   2.340   2.155 -0.7324  0.5467  0.2868
 6728SOL    HW131820   0.194   2.333   2.149 -0.7170  1.2265 -0.7815
 6728SOL    HW231821   0.303   2.356   2.248 -0.7503  1.8360  0.0662
 6729SOL     OW31822   0.581   4.718   7.271  0.2134  0.4066 -0.0774
 6729SOL    HW131823   0.532   4.636   7.274  0.5635  0.1845 -0.4207
 6729SOL    HW231824   0.641   4.706   7.198  2.4085  1.9353  1.4647
 6730SOL     OW31825   0.806   1.249  12.706 -0.3581 -0.3615  0.7623
 6730SOL    HW131826   0.790   1.158  12.730  0.2291 -1.4000 -2.7761
 6730SOL    HW231827   0.900   1.248  12.685 -0.8280 -1.9153 -1.2754
 6731SOL     OW31828   2.823   4.433   2.387  0.1508  0.5026  0.6396
 6731SOL    HW131829   2.881   4.363   2.357 -1.4438 -1.2910  1.7184
 6731SOL    HW231830   2.815   4.422   2.482 -1.6284  2.1828  0.6948
 6732SOL     OW31831   0.325   0.860   5.599 -0.0451  0.1444 -0.0272
 6732SOL    HW131832   0.386   0.906   5.542  0.8183 -0.5693  0.3023
 6732SOL    HW231833   0.377   0.857   5.680  1.4113  0.0948 -0.9637
 6733SOL     OW31834   3.949   1.230   9.930  0.0206  0.4431 -0.1824
 6733SOL    HW131835   3.925   1.220  10.022  0.0550 -0.9776 -0.3188
 6733SOL    HW231836   4.044   1.233   9.942  0.2792 -2.5699 -1.2150
 6734SOL     OW31837   2.846   3.137   8.434 -0.3675  0.2059 -0.2542
 6734SOL    HW131838   2.790   3.147   8.357 -0.4731  0.6594 -0.1165
 6734SOL    HW231839   2.913   3.077   8.402  0.9255  1.4023  0.2186
 6735SOL     OW31840   4.405   3.396  10.676 -0.4540  0.0796  0.5389
 6735SOL    HW131841   4.338   3.457  10.706  0.3143  1.2462 -0.1112
 6735SOL    HW231842   4.400   3.411  10.581 -1.2250  0.1036  0.5803
 6736SOL     OW31843   2.912   3.470   7.133  0.0685 -0.4122  0.2089
 6736SOL    HW131844   2.844   3.528   7.101 -0.3709 -0.0847  1.7506
 6736SOL    HW231845   2.950   3.436   7.052  0.0394 -1.4463  0.6319
 6737SOL     OW31846   1.761   2.112   7.034  0.3563  0.3357 -0.1452
 6737SOL    HW131847   1.769   2.137   6.942  2.0146 -0.8044 -0.3136
 6737SOL    HW231848   1.812   2.031   7.031  2.1065  1.4129  0.7527
 6738SOL     OW31849   4.559   2.745   9.405  0.1956 -0.3049  0.4406
 6738SOL    HW131850   4.528   2.784   9.323 -0.1821 -0.8078  0.3434
 6738SOL    HW231851   4.566   2.815   9.469  2.4372 -0.5986  0.5186
 6739SOL     OW31852   3.838   3.695   2.107 -0.5590 -0.2329  1.0659
 6739SOL    HW131853   3.773   3.679   2.039 -1.8526 -0.0926  2.2511
 6739SOL    HW231854   3.820   3.609   2.145 -2.6049  0.0610  0.7862
 6740SOL     OW31855   2.630   1.475  17.716 -0.5292 -0.4952 -0.5032
 6740SOL    HW131856   2.651   1.384  17.737 -0.2064 -0.4411 -0.5915
 6740SOL    HW231857   2.704   1.514   0.020 -2.4100  1.5338  0.7851
 6741SOL     OW31858   2.946   2.262  14.002  0.0059  0.0282 -0.2071
 6741SOL    HW131859   2.914   2.252  13.912 -1.3419 -1.0976  0.3920
 6741SOL    HW231860   2.914   2.348  14.028 -2.3686 -0.2694 -2.0640
 6742SOL     OW31861   3.823   0.583   2.044  0.3327 -0.0980  0.4956
 6742SOL    HW131862   3.877   0.638   1.986 -1.2822 -1.1529 -2.0251
 6742SOL    HW231863   3.875   0.502   2.038  0.9395  0.4640 -2.2026
 6743SOL     OW31864   1.536   3.221   9.419 -0.6219 -0.1592 -0.6441
 6743SOL    HW131865   1.448   3.258   9.408 -1.0360 -0.8944  0.1415
 6743SOL    HW231866   1.568   3.199   9.331 -2.1740  1.8244 -1.7034
 6744SOL     OW31867   1.030   3.220  15.136 -0.3142  0.0200  0.1659
 6744SOL    HW131868   1.047   3.218  15.230  0.4459  0.7020  0.0469
 6744SOL    HW231869   1.062   3.306  15.108  1.6417 -0.7403  0.0576
 6745SOL     OW31870   1.816   4.594   6.844  0.0648  0.5899  0.1174
 6745SOL    HW131871   1.781   4.550   6.766  0.3804 -1.4658  1.1351
 6745SOL    HW231872   1.732   4.617   6.884 -0.0493 -2.1056  1.4180
 6746SOL     OW31873   3.518   0.264  14.640  0.0338  0.7079 -0.2214
 6746SOL    HW131874   3.424   0.251  14.630  0.5464 -0.7416 -3.4396
 6746SOL    HW231875   3.531   0.305  14.554 -1.2628  0.8727 -0.3386
 6747SOL     OW31876   2.189   4.661  14.978  0.0730 -0.4523  0.2133
 6747SOL    HW131877   2.208   4.702  15.062 -1.6253  1.0300 -0.1360
 6747SOL    HW231878   2.205   4.735  14.919 -1.6802  2.6965  3.7614
 6748SOL     OW31879   1.090   4.157   8.617  0.2603  0.2589 -0.1596
 6748SOL    HW131880   1.031   4.099   8.570 -1.1149  0.3255  1.4833
 6748SOL    HW231881   1.169   4.126   8.572 -0.0782 -1.1667  0.2296
 6749SOL     OW31882   3.504   4.005   5.253 -0.5836  0.0530 -0.2085
 6749SOL    HW131883   3.493   4.098   5.271  1.3505  0.1853  0.3119
 6749SOL    HW231884   3.480   3.964   5.336  0.4798 -0.7639 -0.3072
 6750SOL     OW31885   1.259   2.553   3.494  0.6392 -0.0379  0.2833
 6750SOL    HW131886   1.173   2.582   3.527  1.3227  0.1022  1.9590
 6750SOL    HW231887   1.244   2.460   3.506  0.5279 -0.0803 -0.1945
 6751SOL     OW31888   3.198   0.646   4.589 -0.5445 -0.5649 -0.4050
 6751SOL    HW131889   3.187   0.638   4.684 -0.1724 -0.2015 -0.3308
 6751SOL    HW231890   3.269   0.710   4.589 -1.0664  0.0233  0.6872
 6752SOL     OW31891   0.013   3.116  11.812 -0.3730 -0.0475 -0.4097
 6752SOL    HW131892   4.676   3.175  11.792 -0.9335 -0.8074 -0.5933
 6752SOL    HW231893   0.023   3.124  11.907 -1.5090  0.3940 -0.3170
 6753SOL     OW31894   2.557   2.816   2.628 -0.3035  0.6923 -0.4205
 6753SOL    HW131895   2.548   2.910   2.614 -1.4725  0.2834 -2.4011
 6753SOL    HW231896   2.469   2.813   2.666 -0.2376 -4.1119 -0.6115
 6754SOL     OW31897   1.244   2.503   2.740 -0.5201  0.4364 -0.4917
 6754SOL    HW131898   1.153   2.477   2.726 -0.2063 -0.5674 -0.6474
 6754SOL    HW231899   1.253   2.510   2.835 -0.0736  2.3028 -0.6705
 6755SOL     OW31900   0.394   3.367   0.504  0.3279 -0.2515  0.6554
 6755SOL    HW131901   0.448   3.347   0.581  1.0669 -2.7366 -0.5005
 6755SOL    HW231902   0.374   3.460   0.514 -0.5917 -0.1921 -1.7733
 6756SOL     OW31903   4.447   3.610  14.998  0.4789 -0.4385  0.4278
 6756SOL    HW131904   4.417   3.645  14.913 -0.9246 -0.4236  0.9277
 6756SOL    HW231905   4.537   3.588  14.976 -0.2592 -3.5233  0.4485
 6757SOL     OW31906   4.621   4.454   7.424  0.0605 -0.1624  0.5223
 6757SOL    HW131907   4.610   4.447   7.329  1.7064  0.1526  0.3064
 6757SOL    HW231908   4.574   4.534   7.445 -0.5388 -0.9517  2.2357
 6758SOL     OW31909   2.261   4.584   3.776 -0.5319  0.4695 -0.3269
 6758SOL    HW131910   2.193   4.630   3.727  0.1815  1.7483 -0.1365
 6758SOL    HW231911   2.289   4.660   3.828  0.6293  0.2783 -0.6566
 6759SOL     OW31912   2.509   3.059   2.554 -0.2515 -0.5161  0.3187
 6759SOL    HW131913   2.574   3.130   2.552 -1.5206  0.6588  0.2857
 6759SOL    HW231914   2.428   3.093   2.515 -0.4031  0.2653  1.3158
 6760SOL     OW31915   0.417   1.221   5.302 -0.2818  0.7054 -0.4281
 6760SOL    HW131916   0.472   1.258   5.370  0.1598 -0.7849  0.0102
 6760SOL    HW231917   0.345   1.188   5.355  0.5359  1.5360  1.1809
 6761SOL     OW31918   3.362   4.205   4.107  0.8447  0.1543  0.1907
 6761SOL    HW131919   3.315   4.171   4.030  2.0879 -1.8895  0.3312
 6761SOL    HW231920   3.412   4.129   4.134 -1.3293 -0.2522  3.0549
 6762SOL     OW31921   0.589   0.643  12.819  0.1026 -0.2609 -0.2893
 6762SOL    HW131922   0.513   0.693  12.848  0.4975  1.5533 -2.3210
 6762SOL    HW231923   0.551   0.565  12.779 -2.1408  0.6523  0.0637
 6763SOL     OW31924   4.387   0.246   3.279  0.3155 -0.2443 -0.0577
 6763SOL    HW131925   4.292   0.245   3.267  0.4963  1.1380 -1.5370
 6763SOL    HW231926   4.400   0.151   3.271  2.3041  0.2091 -2.3007
 6764SOL     OW31927   0.361   0.589   8.505  0.6885  0.0890 -0.4426
 6764SOL    HW131928   0.281   0.630   8.539 -0.8361 -1.7765 -1.7386
 6764SOL    HW231929   0.432   0.643   8.539 -0.7959  1.1895  0.9284
 6765SOL     OW31930   2.334   3.127   5.349  0.0106 -0.4426  0.2282
 6765SOL    HW131931   2.361   3.184   5.277 -1.1441 -2.6137 -1.9105
 6765SOL    HW231932   2.313   3.187   5.421  2.2626  0.6696 -0.0404
 6766SOL     OW31933   4.458   3.888  15.405 -0.1537  0.0966  0.2637
 6766SOL    HW131934   4.416   3.888  15.319 -0.4472  0.5624  0.4112
 6766SOL    HW231935   4.475   3.795  15.419 -1.6189 -0.3502 -0.9211
 6767SOL     OW31936   4.478   0.210   1.883  0.0707  0.3035  0.3358
 6767SOL    HW131937   4.454   0.266   1.810 -0.1249 -3.3520 -2.3800
 6767SOL    HW231938   4.459   0.124   1.845  2.1155  0.5616 -1.2687
 6768SOL     OW31939   0.181   3.504   6.337 -0.3564  0.0497 -0.1300
 6768SOL    HW131940   0.154   3.538   6.422  2.7565 -3.5658  2.2899
 6768SOL    HW231941   0.158   3.412   6.348  2.8623 -0.8739 -1.2023
 6769SOL     OW31942   3.223   4.664   3.818 -0.5893  0.6871 -0.2245
 6769SOL    HW131943   3.192   4.670   3.728  2.3262  0.1319 -1.2717
 6769SOL    HW231944   3.244   0.020   3.838 -1.1883  0.3043  2.2266
 6770SOL     OW31945   1.392   1.196   9.586  0.0815 -0.1401 -0.0193
 6770SOL    HW131946   1.339   1.235   9.656  2.0316  1.7661  0.3836
 6770SOL    HW231947   1.420   1.113   9.625 -0.3438 -0.8139 -1.1474
 6771SOL     OW31948   3.965   4.564  10.560  0.3668  0.0954  0.2769
 6771SOL    HW131949   3.968   4.610  10.644  2.5323 -0.2423  0.3873
 6771SOL    HW231950   3.892   4.508  10.585  0.1500  0.1084 -0.3263
 6772SOL     OW31951   2.082   4.348   7.278 -0.0074  0.6453  0.0936
 6772SOL    HW131952   2.036   4.399   7.211 -1.9867 -0.5746  0.5325
 6772SOL    HW231953   2.162   4.314   7.239  0.4458  0.8835  0.8318
 6773SOL     OW31954   4.194   3.740   8.178  0.4572 -0.2955 -1.0709
 6773SOL    HW131955   4.285   3.760   8.201 -0.5197  1.4193  1.2794
 6773SOL    HW231956   4.164   3.711   8.264 -0.2466  1.0228 -0.8712
 6774SOL     OW31957   4.149   1.991   5.827 -0.1939 -0.0282 -0.2115
 6774SOL    HW131958   4.095   2.011   5.904 -1.3579  0.2998 -1.1124
 6774SOL    HW231959   4.231   1.956   5.861  0.9208  1.2903 -1.5256
 6775SOL     OW31960   0.076   0.581   7.826 -0.5734 -0.2228  0.0948
 6775SOL    HW131961   0.028   0.623   7.754  2.5904  0.4396 -1.6250
 6775SOL    HW231962   0.161   0.582   7.783 -0.4586  2.3633  0.3336
 6776SOL     OW31963   0.269   1.606   3.643 -0.1087 -0.0574 -0.3444
 6776SOL    HW131964   0.314   1.605   3.728 -1.8940  1.1463  0.6084
 6776SOL    HW231965   0.228   1.691   3.652  0.4700  0.0472  1.2923
 6777SOL     OW31966   4.598   2.538   6.998  0.0888 -0.3197  0.2359
 6777SOL    HW131967   4.679   2.578   6.968 -0.2868  0.4919  0.2860
 6777SOL    HW231968   4.545   2.544   6.918  1.3525 -1.0857 -0.6474
 6778SOL     OW31969   1.274   3.154  16.118  0.1457  0.2313  0.9472
 6778SOL    HW131970   1.315   3.120  16.039 -2.3639 -0.1033 -0.2206
 6778SOL    HW231971   1.346   3.187  16.172  0.5519  0.4049  0.2904
 6779SOL     OW31972   0.374   1.179  13.089 -0.0337  0.3009 -0.3493
 6779SOL    HW131973   0.453   1.157  13.040 -0.1958 -0.1276 -0.4160
 6779SOL    HW231974   0.373   1.274  13.103  0.4330  0.7456 -3.4399
 6780SOL     OW31975   0.014   0.517   3.409  0.2235  0.2964  0.3450
 6780SOL    HW131976   4.658   0.493   3.413  0.1050  0.6219 -0.5985
 6780SOL    HW231977   0.005   0.609   3.387 -1.9455 -0.1636 -0.6160
 6781SOL     OW31978   1.007   3.894   7.154  0.3531  0.2776  0.5591
 6781SOL    HW131979   0.985   3.803   7.172  0.5389 -0.2796 -1.9727
 6781SOL    HW231980   1.031   3.885   7.062  1.0394  1.5648  0.6028
 6782SOL     OW31981   4.574   3.245   0.756  0.1482  0.8113  0.3747
 6782SOL    HW131982   4.481   3.237   0.738 -0.4216  2.1155  2.8108
 6782SOL    HW231983   4.572   3.240   0.851  1.9090 -1.7024  0.2890
 6783SOL     OW31984   2.615   1.429   2.065 -0.8553 -0.1524 -0.7998
 6783SOL    HW131985   2.601   1.508   2.117 -1.4737 -2.4858  2.6398
 6783SOL    HW231986   2.699   1.435   2.020  0.0839 -0.6906  0.8666
 6784SOL     OW31987   3.270   4.140   3.725 -0.2304 -0.4180  0.1519
 6784SOL    HW131988   3.226   4.069   3.679 -0.1327 -1.2305  1.3212
 6784SOL    HW231989   3.350   4.090   3.736 -1.5102 -3.0167 -2.2750
 6785SOL     OW31990   3.034   0.583   8.676 -0.7293 -0.5871 -0.1390
 6785SOL    HW131991   3.093   0.570   8.750 -0.0033  0.5979 -0.5158
 6785SOL    HW231992   3.095   0.636   8.624 -0.8418 -1.1904 -0.8833
 6786SOL     OW31993   3.591   3.244   1.967 -0.0523 -0.4517 -0.8437
 6786SOL    HW131994   3.580   3.339   1.980  1.0284 -0.7273  2.2462
 6786SOL    HW231995   3.520   3.210   2.021 -1.5517  1.7731 -1.4023
 6787SOL     OW31996   0.822   3.280   4.538  0.3005  0.3206 -0.4925
 6787SOL    HW131997   0.838   3.327   4.457  0.7867  1.1469  0.0724
 6787SOL    HW231998   0.853   3.192   4.517  0.8502  0.1375  1.0492
 6788SOL     OW31999   3.444   0.767   4.663  0.5722  0.3406  0.2580
 6788SOL    HW132000   3.469   0.818   4.740 -0.7633  2.8130 -0.9665
 6788SOL    HW232001   3.469   0.823   4.590  1.8658 -0.1241  0.3456
 6789SOL     OW32002   2.452   2.045   4.695  0.2010 -0.0030  0.5636
 6789SOL    HW132003   2.380   2.047   4.633 -1.6019 -1.0714  2.6042
 6789SOL    HW232004   2.513   2.113   4.668 -3.0217  2.4058 -0.6859
 6790SOL     OW32005   1.975   2.880   2.117 -0.1260  0.0421  0.3252
 6790SOL    HW132006   1.991   2.854   2.026 -0.1364 -0.5674  0.4942
 6790SOL    HW232007   1.919   2.956   2.100  0.2284 -0.0428 -1.1855
 6791SOL     OW32008   3.142   2.798   5.314  0.0568 -0.0899 -0.0691
 6791SOL    HW132009   3.181   2.733   5.373  3.1513  2.9762  1.2665
 6791SOL    HW232010   3.190   2.873   5.348 -2.6899  2.5324 -2.0678
 6792SOL     OW32011   0.055   1.916   7.881  0.1004 -0.8441 -0.1507
 6792SOL    HW132012   0.097   1.832   7.865  0.1493 -0.5791 -1.4193
 6792SOL    HW232013   4.704   1.915   7.840  0.7363  1.9231 -1.5780
 6793SOL     OW32014   2.697   4.494   3.132  0.1992 -0.1433 -0.0839
 6793SOL    HW132015   2.675   4.447   3.051 -1.6964 -0.1191  0.4306
 6793SOL    HW232016   2.636   4.443   3.185  1.1180 -0.5758  0.5570
 6794SOL     OW32017   3.521   0.986   9.280 -0.5402  0.2304  0.1003
 6794SOL    HW132018   3.589   0.928   9.316 -1.9732 -0.6317  1.4195
 6794SOL    HW232019   3.563   1.017   9.199  0.6070 -0.8098  0.2942
 6795SOL     OW32020   1.241   0.751   3.185 -0.1044  0.0495 -0.5612
 6795SOL    HW132021   1.174   0.819   3.185  0.4722  0.6127 -0.2355
 6795SOL    HW232022   1.308   0.801   3.231 -1.5279 -0.4985  2.1014
 6796SOL     OW32023   3.806   2.330   0.962 -0.1257 -0.3485  0.1526
 6796SOL    HW132024   3.882   2.372   0.924  1.1251 -1.0424  1.9077
 6796SOL    HW232025   3.795   2.391   1.035 -2.2829 -0.3041 -0.2044
 6797SOL     OW32026   1.902   3.057  15.203 -0.3498  0.3119 -0.5186
 6797SOL    HW132027   1.897   3.028  15.294 -0.6283  1.0932 -0.2877
 6797SOL    HW232028   1.977   3.002  15.179 -1.1562  0.1092 -2.5580
 6798SOL     OW32029   4.160   4.595   3.096 -0.1239  0.3524  0.0706
 6798SOL    HW132030   4.220   4.521   3.084  0.6421  0.6903  1.7420
 6798SOL    HW232031   4.116   4.586   3.012 -0.8670 -1.6738  0.6853
 6799SOL     OW32032   1.446   2.141  17.031 -0.2807  0.0514  0.2625
 6799SOL    HW132033   1.447   2.213  17.094  1.2935 -0.8521  1.2650
 6799SOL    HW232034   1.361   2.162  16.991  0.4907 -1.0223 -1.9245
 6800SOL     OW32035   3.042   1.389   8.917 -0.2415  0.2425 -0.1346
 6800SOL    HW132036   3.063   1.327   8.986  1.6113  0.9060 -0.1193
 6800SOL    HW232037   3.026   1.335   8.839 -0.2117  1.3264 -0.8929
 6801SOL     OW32038   2.855   4.086  14.928 -0.1972 -0.1913  0.5708
 6801SOL    HW132039   2.837   4.113  15.018 -1.2095  1.7702 -0.2105
 6801SOL    HW232040   2.944   4.051  14.930  0.5169  1.5798 -0.8697
 6802SOL     OW32041   4.211   3.761   7.044  0.0712 -0.2798 -0.1938
 6802SOL    HW132042   4.208   3.818   7.121 -0.3265  0.9649 -1.1380
 6802SOL    HW232043   4.156   3.811   6.984 -2.4617  1.0030  3.2037
 6803SOL     OW32044   3.463   3.907   5.004 -0.4103 -1.1084  0.0400
 6803SOL    HW132045   3.474   3.995   4.966  0.0306 -0.4219  1.7509
 6803SOL    HW232046   3.472   3.920   5.099 -1.6257  0.6264 -0.0743
 6804SOL     OW32047   2.628   3.018   9.322  0.5241  0.0859  0.0375
 6804SOL    HW132048   2.649   2.927   9.345  1.1570 -0.1291 -1.4109
 6804SOL    HW232049   2.572   3.047   9.394  2.7227  1.7531  1.0739
 6805SOL     OW32050   4.249   4.515   9.177 -0.4057 -0.3539 -0.2328
 6805SOL    HW132051   4.304   4.569   9.235  0.3203 -2.6723  1.2308
 6805SOL    HW232052   4.311   4.477   9.115  2.1394 -0.1997  2.1971
 6806SOL     OW32053   3.978   4.532   3.853 -0.6189 -0.4151 -0.1729
 6806SOL    HW132054   3.914   4.602   3.870  1.3822  1.3370  0.0557
 6806SOL    HW232055   4.054   4.589   3.860  0.5306 -2.0221  0.1646
 6807SOL     OW32056   3.967   2.978   8.297 -0.1297  0.1051  0.5323
 6807SOL    HW132057   3.889   3.028   8.320  0.4127  1.5236 -0.6901
 6807SOL    HW232058   3.954   2.906   8.358 -5.1297 -0.3546 -1.0183
 6808SOL     OW32059   1.197   0.771  16.817  0.0951 -0.1497  0.4428
 6808SOL    HW132060   1.259   0.836  16.849  0.0661  0.8175 -1.5036
 6808SOL    HW232061   1.260   0.701  16.802  0.4630  0.5207 -1.1780
 6809SOL     OW32062   1.827   1.225   1.938 -0.1501 -0.0869 -0.4124
 6809SOL    HW132063   1.755   1.240   1.876 -0.3350 -0.5418 -0.3099
 6809SOL    HW232064   1.807   1.133   1.957  0.4725 -0.4237 -1.3937
 6810SOL     OW32065   2.350   4.210   8.342 -0.0281  0.0322 -0.5309
 6810SOL    HW132066   2.288   4.138   8.330 -2.4036  2.1955 -1.0980
 6810SOL    HW232067   2.418   4.181   8.404 -1.1734  2.2829  1.7666
 6811SOL     OW32068   2.164   1.442   4.045 -0.0463 -0.2974  0.4218
 6811SOL    HW132069   2.088   1.385   4.039 -0.6816  0.4949  1.0423
 6811SOL    HW232070   2.135   1.510   4.105 -1.1472 -0.8092  0.4702
 6812SOL     OW32071   3.598   3.340  15.564  0.2834  0.3212  0.3439
 6812SOL    HW132072   3.562   3.324  15.651  1.9299 -1.1687  0.7309
 6812SOL    HW232073   3.687   3.371  15.580  0.9686 -1.2595 -0.4122
 6813SOL     OW32074   3.986   0.739   1.866 -0.1897  0.1716  0.5713
 6813SOL    HW132075   3.962   0.830   1.887 -1.4405  0.2874 -1.3745
 6813SOL    HW232076   4.080   0.740   1.882 -0.0085  0.5982 -0.5525
 6814SOL     OW32077   0.938   1.836  10.145 -0.5985  0.7488  0.2559
 6814SOL    HW132078   0.976   1.798  10.224  0.9843  2.0498  0.1002
 6814SOL    HW232079   0.966   1.925  10.165  1.3785  0.0450  0.6097
 6815SOL     OW32080   0.135   0.162   6.323 -0.3228 -0.3948  0.4060
 6815SOL    HW132081   0.140   0.197   6.234  1.0317 -0.1779  0.5708
 6815SOL    HW232082   0.131   0.071   6.292  4.4491 -0.4091 -0.2562
 6816SOL     OW32083   4.110   3.173   5.735 -0.6452  0.5822  0.2358
 6816SOL    HW132084   4.148   3.193   5.649  4.1641  0.7414  2.3997
 6816SOL    HW232085   4.167   3.217   5.797 -1.8460  1.8463  0.4385
 6817SOL     OW32086   2.013   2.425   7.916  0.0554 -0.0360 -0.0874
 6817SOL    HW132087   2.083   2.462   7.970 -1.5580  2.4025  0.3426
 6817SOL    HW232088   2.012   2.479   7.837 -0.7838  1.0701  0.6770
 6818SOL     OW32089   4.045   1.362   5.517  0.5648 -0.2552  0.0073
 6818SOL    HW132090   4.095   1.311   5.452 -0.5324 -2.6316  1.0448
 6818SOL    HW232091   4.097   1.368   5.597 -0.4633 -0.0300  0.6548
 6819SOL     OW32092   1.725   4.510  13.474  0.3684  0.1536  0.0221
 6819SOL    HW132093   1.801   4.474  13.428 -1.8656 -3.8621 -0.4841
 6819SOL    HW232094   1.654   4.461  13.433 -1.0172  1.8411  0.3673
 6820SOL     OW32095   0.038   3.094   5.455  0.2948 -0.4320 -0.2199
 6820SOL    HW132096   4.724   3.106   5.536 -0.2117 -0.6846 -0.4949
 6820SOL    HW232097   0.102   3.034   5.493 -0.7489 -1.1971  0.3192
 6821SOL     OW32098   3.992   2.621   4.625  0.3998 -0.4752  0.2776
 6821SOL    HW132099   4.072   2.570   4.607 -0.2909 -1.3383 -0.3127
 6821SOL    HW232100   3.996   2.694   4.564 -0.4430 -0.9928 -0.3948
 6822SOL     OW32101   3.115   0.140   9.569 -0.1330  0.1450 -0.3552
 6822SOL    HW132102   3.180   0.210   9.560  0.1999 -0.2692 -1.1985
 6822SOL    HW232103   3.039   0.196   9.554  1.0491  1.4609 -1.4293
 6823SOL     OW32104   2.243   0.452   5.810 -0.3398  0.9407  0.5810
 6823SOL    HW132105   2.259   0.418   5.898  0.1085  2.6355  1.1570
 6823SOL    HW232106   2.295   0.532   5.802 -0.6725  1.0868 -0.1649
 6824SOL     OW32107   1.892   4.567   4.864  0.9405  0.8018 -0.1236
 6824SOL    HW132108   1.875   4.657   4.891 -0.9473  0.4825 -0.2434
 6824SOL    HW232109   1.816   4.529   4.909  0.3830  1.5331 -0.4361
 6825SOL     OW32110   0.188   3.996   4.136  0.8023  0.1257 -0.2972
 6825SOL    HW132111   0.167   3.947   4.215 -0.9018  1.1587 -0.1124
 6825SOL    HW232112   0.200   3.927   4.071  1.5856  0.3835 -0.4225
 6826SOL     OW32113   3.381   3.647   5.351 -0.1813  0.0050  0.7061
 6826SOL    HW132114   3.372   3.558   5.383  2.3853 -0.2397  0.7497
 6826SOL    HW232115   3.318   3.658   5.280  0.6720  3.7516  0.5307
 6827SOL     OW32116   1.739   0.917   4.294 -0.7505  0.2224 -0.7238
 6827SOL    HW132117   1.689   0.846   4.332 -1.1081  0.9971  0.2624
 6827SOL    HW232118   1.747   0.881   4.206  1.7259 -0.8529 -0.0756
 6828SOL     OW32119   2.423   0.707   4.314  0.1657 -0.3807  0.1028
 6828SOL    HW132120   2.480   0.665   4.378 -1.1910 -3.5204 -0.7641
 6828SOL    HW232121   2.382   0.625   4.287  1.5999  0.3521 -4.1987
 6829SOL     OW32122   3.973   2.019   0.702 -0.1630 -0.1302  0.2188
 6829SOL    HW132123   3.950   1.947   0.643  2.7542 -1.6247  0.9287
 6829SOL    HW232124   3.972   1.965   0.781  1.5252  0.7267  0.8094
 6830SOL     OW32125   0.194   2.114   8.024 -0.2979  0.5470 -0.4677
 6830SOL    HW132126   0.172   2.053   7.953  0.4534  1.8868 -1.8732
 6830SOL    HW232127   0.188   2.204   7.991  0.6842  0.3772 -1.1279
 6831SOL     OW32128   4.653   3.833  17.000  0.2749  0.0786 -0.2354
 6831SOL    HW132129   4.716   3.893  17.039 -0.4557  0.2833  0.6114
 6831SOL    HW232130   4.595   3.815  17.073  1.1708  1.4738  0.8093
 6832SOL     OW32131   1.188   1.480   7.322  0.0207 -0.0595 -0.4614
 6832SOL    HW132132   1.131   1.519   7.388  1.7149  2.8005 -0.6917
 6832SOL    HW232133   1.122   1.441   7.265  1.8260 -2.5108 -0.8736
 6833SOL     OW32134   1.579   2.403   9.420 -0.0341  0.1414  0.1624
 6833SOL    HW132135   1.521   2.473   9.446 -0.6500 -0.4956  0.5065
 6833SOL    HW232136   1.613   2.370   9.503 -0.5207 -1.6651 -0.3421
 6834SOL     OW32137   0.526   1.459   7.089  0.5269  0.2574 -0.2457
 6834SOL    HW132138   0.579   1.379   7.088 -0.4693 -0.4012  1.0392
 6834SOL    HW232139   0.439   1.423   7.069  0.7034  0.2782 -1.0522
 6835SOL     OW32140   0.055   0.384   7.434 -0.2314 -0.3132  0.1889
 6835SOL    HW132141   0.133   0.329   7.431  1.1722  1.5593  2.7312
 6835SOL    HW232142   0.082   0.474   7.452 -1.5964  0.3455 -1.0037
 6836SOL     OW32143   0.399   2.234   7.561  0.2721 -0.2591  0.3033
 6836SOL    HW132144   0.372   2.270   7.476 -1.1264 -0.4027  0.6881
 6836SOL    HW232145   0.337   2.283   7.615  0.2405 -0.3460  0.3448
 6837SOL     OW32146   4.305   3.029   4.934  0.1552 -0.0008 -0.4099
 6837SOL    HW132147   4.326   3.120   4.912  0.3371 -0.2108 -1.0992
 6837SOL    HW232148   4.229   3.012   4.878 -1.4488 -2.9757  2.6625
 6838SOL     OW32149   2.128   2.055  11.866 -0.6982  0.1757  0.6305
 6838SOL    HW132150   2.197   2.077  11.802 -0.8431  0.6378  0.6349
 6838SOL    HW232151   2.044   2.062  11.820  0.3442 -0.0655 -1.3324
 6839SOL     OW32152   1.982   3.130   5.596 -0.0049  0.0917 -0.2223
 6839SOL    HW132153   1.895   3.145   5.633  0.9491 -0.5751  2.2739
 6839SOL    HW232154   1.969   3.037   5.577 -2.6628  0.4844 -0.4322
 6840SOL     OW32155   0.998   1.578   5.385 -0.2264 -0.1573  0.1036
 6840SOL    HW132156   0.994   1.670   5.411  1.6107 -0.9025  2.9615
 6840SOL    HW232157   1.054   1.542   5.453  0.2483  0.1626 -0.1096
 6841SOL     OW32158   1.222   1.828   8.301 -0.4481  0.0032 -0.4877
 6841SOL    HW132159   1.141   1.868   8.270 -0.5960  0.6649  0.7517
 6841SOL    HW232160   1.279   1.904   8.297 -0.3130 -0.0944 -0.4069
 6842SOL     OW32161   2.593   0.287   3.031 -0.5487  0.4577 -0.3738
 6842SOL    HW132162   2.526   0.277   2.964 -0.0093  1.4869 -1.0710
 6842SOL    HW232163   2.672   0.270   2.980  0.2779  0.6710  0.8244
 6843SOL     OW32164   4.661   3.634   4.880  0.0440  0.2676 -0.0071
 6843SOL    HW132165   4.586   3.596   4.835 -0.1049  1.6730 -0.9578
 6843SOL    HW232166   4.732   3.582   4.842  1.0144  0.6449  1.2740
 6844SOL     OW32167   3.672   0.454   4.190  0.1667  0.1731 -0.3557
 6844SOL    HW132168   3.636   0.426   4.106  0.0996  0.3179 -0.3752
 6844SOL    HW232169   3.766   0.439   4.176  0.6442  2.7041  0.0547
 6845SOL     OW32170   0.075   1.354   2.862  0.2747  0.3677 -0.2568
 6845SOL    HW132171   0.049   1.428   2.806 -0.1123  0.5188  0.1199
 6845SOL    HW232172   0.078   1.279   2.802 -1.2882  1.1441 -1.3433
 6846SOL     OW32173   4.701   1.527   6.061  0.2030  0.1973 -0.1713
 6846SOL    HW132174   4.668   1.616   6.045  0.9120  0.4482 -0.2190
 6846SOL    HW232175   0.014   1.534   6.143 -0.4181 -0.3871  0.2565
 6847SOL     OW32176   2.544   4.600   9.071 -0.2373 -0.5965 -0.2687
 6847SOL    HW132177   2.638   4.618   9.071 -0.0317 -1.6637 -0.1492
 6847SOL    HW232178   2.514   4.586   8.982  1.0247  3.5352 -1.3351
 6848SOL     OW32179   0.794   0.177   5.334 -0.1517 -0.2727 -0.0536
 6848SOL    HW132180   0.703   0.154   5.315 -0.8085  1.7467  0.7273
 6848SOL    HW232181   0.809   0.236   5.260  0.4776  0.1354  0.3988
 6849SOL     OW32182   4.462   4.324   8.196  0.4824 -0.0936  0.0214
 6849SOL    HW132183   4.373   4.325   8.233  0.1679 -4.4100 -0.5181
 6849SOL    HW232184   4.459   4.237   8.156 -2.5830 -0.9293  1.9887
 6850SOL     OW32185   1.118   0.618  17.530 -0.1400  0.3972  0.2606
 6850SOL    HW132186   1.154   0.659  17.608 -1.3493 -1.8473  2.0242
 6850SOL    HW232187   1.202   0.607  17.485  0.1393 -0.5480  0.9950
 6851SOL     OW32188   0.097   4.379   4.164 -0.7780 -0.0118 -0.0927
 6851SOL    HW132189   0.078   4.462   4.120  1.6043  0.3263 -0.4623
 6851SOL    HW232190   0.105   4.321   4.088 -1.2950  0.5517 -0.5806
 6852SOL     OW32191   1.182   0.460   2.671 -0.8951 -0.0419  0.8756
 6852SOL    HW132192   1.203   0.389   2.731  0.5320  2.2030  3.0473
 6852SOL    HW232193   1.262   0.461   2.617 -1.5136 -0.7132 -0.0441
 6853SOL     OW32194   2.224   1.224   5.943 -0.0115 -0.6747 -0.4753
 6853SOL    HW132195   2.276   1.224   5.862 -2.2644 -1.9091 -1.9193
 6853SOL    HW232196   2.210   1.318   5.953 -1.3512 -1.0033  0.6237
 6854SOL     OW32197   0.701   0.137   2.644 -0.1878  0.4362  0.0072
 6854SOL    HW132198   0.694   0.150   2.738 -1.0679 -1.3876  0.1855
 6854SOL    HW232199   0.704   0.042   2.641  0.9933  0.5018 -1.0900
 6855SOL     OW32200   2.032   0.890  11.711 -0.2243 -0.1776  0.3052
 6855SOL    HW132201   2.111   0.865  11.662  0.1200 -0.5883  1.0741
 6855SOL    HW232202   2.059   0.878  11.802 -0.5764 -0.5974  0.3520
 6856SOL     OW32203   1.872   1.646   7.455  0.1328 -0.0573  0.0049
 6856SOL    HW132204   1.925   1.717   7.419 -0.6145  1.0852  1.1769
 6856SOL    HW232205   1.813   1.702   7.505 -1.5989 -0.5145 -1.5368
 6857SOL     OW32206   0.189   4.598   0.035 -0.8442 -0.0328 -0.0962
 6857SOL    HW132207   0.142   4.522   0.002 -0.1269  0.3143 -1.9417
 6857SOL    HW232208   0.248   4.617  17.704 -2.3550  0.7446 -1.1162
 6858SOL     OW32209   2.686   2.145   5.959 -0.9078  0.2016  0.1121
 6858SOL    HW132210   2.718   2.182   5.877  0.7635 -0.9762  0.2458
 6858SOL    HW232211   2.593   2.161   5.943 -0.5552  3.2268  1.1104
 6859SOL     OW32212   4.493   2.027   3.639  0.8025 -0.2068  0.3324
 6859SOL    HW132213   4.545   1.978   3.576 -0.0618 -3.5376  2.1847
 6859SOL    HW232214   4.552   2.098   3.664  1.6259  0.2615 -3.0114
 6860SOL     OW32215   3.753   4.255   7.410 -0.5159  0.5453  0.6324
 6860SOL    HW132216   3.752   4.252   7.314 -0.3104 -0.3958  0.6557
 6860SOL    HW232217   3.727   4.347   7.419 -2.7282  0.0941 -1.0731
 6861SOL     OW32218   4.419   3.109   8.650  0.3713  0.2271  0.1972
 6861SOL    HW132219   4.348   3.072   8.703  1.5538  2.8002  3.5842
 6861SOL    HW232220   4.378   3.117   8.564 -1.3313  1.7342  1.1467
 6862SOL     OW32221   2.418   3.931   2.287 -0.0363  0.3995 -0.1234
 6862SOL    HW132222   2.440   3.843   2.256  1.9403  0.8308  0.0765
 6862SOL    HW232223   2.500   3.979   2.293  0.7776 -0.8225 -1.4798
 6863SOL     OW32224   2.514   2.713   8.136 -0.1031  0.0154  0.1760
 6863SOL    HW132225   2.548   2.623   8.138  0.5110  0.2702  1.4697
 6863SOL    HW232226   2.592   2.763   8.111 -0.0209  0.7299  1.8641
 6864SOL     OW32227   0.640   0.365   8.399  0.1961  0.1318  0.2294
 6864SOL    HW132228   0.702   0.368   8.326  1.4417 -2.2882  1.1768
 6864SOL    HW232229   0.691   0.397   8.474 -0.5238 -0.0197  0.7823
 6865SOL     OW32230   1.277   4.039   0.034 -0.3793 -0.5667 -0.4562
 6865SOL    HW132231   1.190   4.077   0.023  0.0513  1.0763  1.7501
 6865SOL    HW232232   1.269   3.996  17.692 -1.0689  0.8755 -1.1036
 6866SOL     OW32233   4.194   2.111   6.707  0.1462  0.1944 -0.3847
 6866SOL    HW132234   4.188   2.162   6.789  1.1317  0.3400 -0.3963
 6866SOL    HW232235   4.189   2.020   6.736 -0.6634 -0.1489 -1.6598
 6867SOL     OW32236   0.809   2.613  10.575 -0.2752 -0.3037  0.1012
 6867SOL    HW132237   0.775   2.701  10.589  1.8656  0.5554  0.0176
 6867SOL    HW232238   0.771   2.598  10.488 -1.7988  0.7231  0.6010
 6868SOL     OW32239   3.158   0.044   1.203 -0.1815  0.2529  0.3398
 6868SOL    HW132240   3.173   4.705   1.260  2.1672  2.2113  2.2987
 6868SOL    HW232241   3.068   0.055   1.231 -0.7778 -0.2247 -1.3865
 6869SOL     OW32242   2.365   2.496   3.146  0.2779  0.1180  0.3987
 6869SOL    HW132243   2.282   2.504   3.100 -0.6346 -0.8008  1.8685
 6869SOL    HW232244   2.399   2.585   3.138  2.8904 -0.7135  2.0651
 6870SOL     OW32245   1.322   2.355   5.484 -0.2917  0.1501 -0.0610
 6870SOL    HW132246   1.363   2.436   5.452  1.1283  0.4611  2.5323
 6870SOL    HW232247   1.236   2.392   5.504 -0.2382  1.1836 -1.7886
 6871SOL     OW32248   0.183   3.730   3.042 -0.3183  0.3551  0.2329
 6871SOL    HW132249   0.195   3.797   3.110  1.9893 -0.4783  0.6422
 6871SOL    HW232250   0.185   3.782   2.962 -0.5267  1.7179  1.1046
 6872SOL     OW32251   4.661   2.397   4.177 -0.6883 -0.3747  0.8887
 6872SOL    HW132252   4.576   2.382   4.135 -0.0128  1.6534 -1.1854
 6872SOL    HW232253   4.675   2.304   4.195 -1.4973 -0.4032  1.3500
 6873SOL     OW32254   4.675   2.012   8.193  0.0890 -0.0557 -0.1289
 6873SOL    HW132255   0.013   2.036   8.136  1.9189 -1.4242  1.6893
 6873SOL    HW232256   4.641   1.944   8.136 -2.5133  0.8665  0.3346
 6874SOL     OW32257   2.373   0.607  14.708 -0.5210 -0.4907 -0.9934
 6874SOL    HW132258   2.408   0.528  14.749  1.4044 -0.1281 -1.9621
 6874SOL    HW232259   2.418   0.610  14.624  1.5771  2.5469  0.2208
 6875SOL     OW32260   0.362   4.622   2.403  0.5732  0.4267 -0.1494
 6875SOL    HW132261   0.314   4.551   2.446  0.1238  1.9037  1.7730
 6875SOL    HW232262   0.306   4.700   2.405 -1.7532 -1.2891  1.1473
 6876SOL     OW32263   3.901   0.631   9.456 -0.5697 -0.5156  0.4758
 6876SOL    HW132264   3.961   0.605   9.386  0.1230 -1.0844  1.2624
 6876SOL    HW232265   3.836   0.562   9.443  0.5075 -1.2096 -1.2744
 6877SOL     OW32266   2.224   4.229   9.521  0.0939  0.6738  0.4618
 6877SOL    HW132267   2.231   4.180   9.603 -0.6383 -4.3852 -2.4994
 6877SOL    HW232268   2.189   4.163   9.461  1.5089 -0.2338  0.6505
 6878SOL     OW32269   2.521   1.256   9.947  0.3617 -0.0734 -0.2342
 6878SOL    HW132270   2.513   1.306   9.865  2.2893 -1.1069 -1.0580
 6878SOL    HW232271   2.602   1.209   9.930  1.4268  1.6795 -0.0126
 6879SOL     OW32272   0.880   0.690  10.540  0.2728 -0.3429 -0.1840
 6879SOL    HW132273   0.952   0.752  10.549 -1.9699  1.9838  1.6739
 6879SOL    HW232274   0.862   0.706  10.448  0.2651  0.1049 -0.1052
 6880SOL     OW32275   4.256   3.643   3.289 -0.3022  0.3745 -0.0794
 6880SOL    HW132276   4.234   3.723   3.335  3.1068  0.8009  0.8384
 6880SOL    HW232277   4.257   3.576   3.357 -2.1378 -0.6686 -1.0634
 6881SOL     OW32278   3.187   0.931  11.225  0.1133  0.0712  0.0717
 6881SOL    HW132279   3.249   0.978  11.281  1.2485 -0.8935 -0.3808
 6881SOL    HW232280   3.155   0.864  11.285  1.6372  1.0847  1.9741
 6882SOL     OW32281   3.395   3.422   8.020 -0.7159  0.1206 -0.6034
 6882SOL    HW132282   3.417   3.481   8.092 -0.7005 -1.2198  0.4771
 6882SOL    HW232283   3.468   3.433   7.959  0.0469  1.5171  0.5575
 6883SOL     OW32284   0.042   2.307  15.069  0.2623 -0.2083 -0.1822
 6883SOL    HW132285   0.089   2.277  15.147  1.6188 -3.2668 -2.1663
 6883SOL    HW232286   0.118   2.328  15.015  0.4144  1.5766  0.7209
 6884SOL     OW32287   2.153   4.554  16.763  0.1896  0.0791 -0.3076
 6884SOL    HW132288   2.191   4.640  16.782 -1.8103  1.1582 -1.2306
 6884SOL    HW232289   2.103   4.538  16.843  0.6345 -4.4552 -0.9207
 6885SOL     OW32290   1.939   4.014   4.047  0.0543  0.1048 -0.0325
 6885SOL    HW132291   1.952   4.084   4.111 -2.0027 -0.6799  1.2296
 6885SOL    HW232292   1.889   3.957   4.105  0.1494 -1.0975 -1.1421
 6886SOL     OW32293   3.314   1.598   4.153  1.1353 -0.0451 -0.1016
 6886SOL    HW132294   3.280   1.683   4.125  0.4314 -0.5418 -0.7575
 6886SOL    HW232295   3.340   1.613   4.244 -0.7478 -1.0773  0.5977
 6887SOL     OW32296   1.080   2.941   8.665 -0.0532  0.0257 -0.3237
 6887SOL    HW132297   1.155   2.900   8.709  1.1903 -0.2105 -2.6392
 6887SOL    HW232298   1.064   3.021   8.716  1.9474 -1.3202  2.4566
 6888SOL     OW32299   4.521   3.598   8.073 -0.4363 -1.0343 -0.3175
 6888SOL    HW132300   4.488   3.650   8.146 -1.1617 -0.0487 -1.3446
 6888SOL    HW232301   4.481   3.513   8.092  0.7365 -1.6660 -0.6601
 6889SOL     OW32302   2.052   1.372   8.161 -0.8915  0.4581  0.2984
 6889SOL    HW132303   2.067   1.398   8.070 -0.9981 -0.3292  0.0495
 6889SOL    HW232304   2.048   1.460   8.198  1.6275  0.2025  1.1859
 6890SOL     OW32305   2.978   4.211   3.985  0.2805  0.0924 -0.0437
 6890SOL    HW132306   2.897   4.248   4.019 -0.0772 -0.3464 -0.4249
 6890SOL    HW232307   2.995   4.293   3.940  0.8825  0.5146  0.9472
 6891SOL     OW32308   3.975   2.160   6.546 -0.2020  0.9267  0.2293
 6891SOL    HW132309   4.042   2.153   6.614  0.1044 -2.3156 -0.3973
 6891SOL    HW232310   3.924   2.081   6.562  0.1358  0.9592  1.4778
 6892SOL     OW32311   0.450   0.744  17.130 -0.1587 -0.4263 -0.4280
 6892SOL    HW132312   0.529   0.721  17.180 -0.2738 -0.1876 -0.1385
 6892SOL    HW232313   0.385   0.734  17.199 -1.0082  2.5929 -0.8167
 6893SOL     OW32314   4.408   3.893  15.140  0.3219  0.3422 -0.0911
 6893SOL    HW132315   4.381   3.981  15.117  1.7178  1.4415  2.4725
 6893SOL    HW232316   4.387   3.846  15.059 -0.2071  1.4164 -0.5751
 6894SOL     OW32317   0.962   4.186   0.996 -0.2890 -0.1992 -0.0030
 6894SOL    HW132318   0.894   4.121   1.017 -0.6326  1.1535  3.1554
 6894SOL    HW232319   0.957   4.192   0.901  0.9538 -0.3275 -0.0706
 6895SOL     OW32320   3.926   4.557   2.258  0.4109 -0.0934 -0.2552
 6895SOL    HW132321   3.985   4.542   2.184 -0.7174  0.1146 -1.2037
 6895SOL    HW232322   3.964   4.638   2.291  0.4600 -0.3002  0.1888
 6896SOL     OW32323   0.266   4.475   2.598  0.0823  0.2168  0.2268
 6896SOL    HW132324   0.216   4.394   2.607 -0.1525  0.1344 -1.6851
 6896SOL    HW232325   0.352   4.450   2.633 -1.0743 -2.6873  0.9895
 6897SOL     OW32326   3.123   1.439   7.386  0.0351 -0.3928  0.2779
 6897SOL    HW132327   3.051   1.470   7.440  0.2355 -0.1005  0.3724
 6897SOL    HW232328   3.192   1.470   7.444  1.2832 -0.8331 -0.9719
 6898SOL     OW32329   2.132   3.593   6.758  0.5568  0.2372  0.8038
 6898SOL    HW132330   2.113   3.630   6.672  0.4255 -1.5124  0.0958
 6898SOL    HW232331   2.076   3.646   6.815  0.0459  1.7125 -1.0406
 6899SOL     OW32332   1.139   1.046   6.812 -0.8623 -0.7262  0.0388
 6899SOL    HW132333   1.072   1.056   6.744 -1.0341  2.6822  0.7260
 6899SOL    HW232334   1.134   1.125   6.865  0.1499 -1.3715  1.1041
 6900SOL     OW32335   4.216   1.049   5.990  0.6214  0.2842 -0.7356
 6900SOL    HW132336   4.265   1.035   6.071 -3.4491  2.2547  2.0651
 6900SOL    HW232337   4.265   1.120   5.949  0.5316  1.8045  1.7947
 6901SOL     OW32338   2.084   1.187   3.220 -0.3105 -0.2932  0.5110
 6901SOL    HW132339   2.028   1.110   3.215 -1.4653  0.4728  1.3357
 6901SOL    HW232340   2.101   1.187   3.126 -0.9908  1.4833  0.3718
 6902SOL     OW32341   2.397   0.330   6.310 -0.3846  0.2669 -0.0213
 6902SOL    HW132342   2.329   0.271   6.344 -1.8102  0.8849 -1.7878
 6902SOL    HW232343   2.474   0.303   6.359 -1.5672 -3.1082 -0.0330
 6903SOL     OW32344   3.691   3.805   0.647 -0.0841  0.0509 -0.6208
 6903SOL    HW132345   3.737   3.889   0.640  0.2257 -0.0334  0.3261
 6903SOL    HW232346   3.762   3.764   0.696 -1.2387  0.3447  1.3156
 6904SOL     OW32347   2.669   2.679   4.816 -0.6904  0.3254  0.1716
 6904SOL    HW132348   2.755   2.721   4.809 -1.1452  1.2063 -0.1393
 6904SOL    HW232349   2.637   2.697   4.727  1.5301 -1.6320 -1.0009
 6905SOL     OW32350   3.263   4.154   1.621 -0.3606 -0.0421 -0.0844
 6905SOL    HW132351   3.316   4.130   1.697 -0.8907  1.6279  0.8266
 6905SOL    HW232352   3.315   4.130   1.544 -0.2672 -0.3552  0.0761
 6906SOL     OW32353   2.810   3.117   3.306  0.4751 -0.0818 -0.2081
 6906SOL    HW132354   2.794   3.061   3.382 -1.7830  1.9849  0.8428
 6906SOL    HW232355   2.741   3.080   3.252  1.6131 -1.7570 -0.5133
 6907SOL     OW32356   1.016   0.423   0.817  0.0701  0.0892  0.4707
 6907SOL    HW132357   0.990   0.363   0.747  0.6429 -1.2289  1.4015
 6907SOL    HW232358   0.946   0.488   0.812 -2.3289 -2.5019  0.7319
 6908SOL     OW32359   4.116   0.822  17.477  0.1996  0.4635  0.2620
 6908SOL    HW132360   4.146   0.731  17.486  0.7280  0.8794  2.8522
 6908SOL    HW232361   4.098   0.854  17.565  0.7358 -0.6052  0.7667
 6909SOL     OW32362   0.595   1.189  13.329  0.0519  0.0397  0.1932
 6909SOL    HW132363   0.557   1.190  13.241  2.7147  3.1842 -0.8974
 6909SOL    HW232364   0.675   1.140  13.312 -0.1220 -1.3012  3.1518
 6910SOL     OW32365   1.771   2.014   7.392 -0.2397 -0.1752  0.0952
 6910SOL    HW132366   1.834   1.961   7.345 -0.4058  0.0036 -0.3259
 6910SOL    HW232367   1.791   1.997   7.484 -0.4326 -1.2624 -0.0659
 6911SOL     OW32368   0.634   3.452   5.101  0.3083  0.1154 -0.0510
 6911SOL    HW132369   0.706   3.407   5.145 -0.3453 -0.6713  0.2031
 6911SOL    HW232370   0.664   3.480   5.015  0.0944  0.6787  0.0557
 6912SOL     OW32371   2.110   0.039   2.949  0.9032 -0.1916  0.5285
 6912SOL    HW132372   2.178   0.090   2.993  1.0999  0.3839 -0.4337
 6912SOL    HW232373   2.036   0.100   2.946 -0.0430 -1.4897 -3.3881
 6913SOL     OW32374   2.343   1.804   0.871 -0.1213 -0.4728 -0.0481
 6913SOL    HW132375   2.346   1.714   0.841 -0.1979  0.3161 -2.4415
 6913SOL    HW232376   2.436   1.812   0.893 -0.4712  2.4239  0.4902
 6914SOL     OW32377   4.277   2.052   4.145 -0.0836  0.2878  0.5802
 6914SOL    HW132378   4.185   2.035   4.123 -0.3051  1.0908  0.8687
 6914SOL    HW232379   4.317   2.006   4.072 -1.3634  0.7118 -0.3892
 6915SOL     OW32380   3.544   0.717  12.776  0.6710 -0.0402 -0.2892
 6915SOL    HW132381   3.592   0.738  12.855 -1.5815  0.3493  0.9935
 6915SOL    HW232382   3.453   0.729  12.805  0.1912 -0.0757 -1.7468
 6916SOL     OW32383   1.918   2.649   8.057  0.2748 -0.1024  0.0777
 6916SOL    HW132384   1.840   2.700   8.034  0.1062 -1.4278 -2.3022
 6916SOL    HW232385   1.963   2.662   7.974  0.8156  1.4574  0.6254
 6917SOL     OW32386   2.089   4.677  12.612 -0.0874  0.3162  0.0936
 6917SOL    HW132387   2.070   4.735  12.685  0.7462 -0.2681  0.7835
 6917SOL    HW232388   2.008   4.626  12.606 -1.1278  1.9366  0.2503
 6918SOL     OW32389   3.238   2.708  14.690  0.2525 -0.5771 -0.1867
 6918SOL    HW132390   3.321   2.663  14.674  1.1937  0.8780  0.6303
 6918SOL    HW232391   3.234   2.718  14.785  2.0476 -1.6463  0.0072
 6919SOL     OW32392   2.982   3.909  11.323 -0.5730  0.2715 -0.7289
 6919SOL    HW132393   2.958   3.824  11.288 -0.5134  0.4665 -1.2423
 6919SOL    HW232394   2.901   3.944  11.360  0.0447 -0.9702  1.8020
 6920SOL     OW32395   1.193   2.188   2.009 -0.0810  0.0224 -0.1584
 6920SOL    HW132396   1.279   2.230   2.016  0.0826 -0.7487  2.5539
 6920SOL    HW232397   1.201   2.121   2.077 -1.1974  0.4127  0.3558
 6921SOL     OW32398   3.672   0.959   3.186  0.2833  0.1012  0.1855
 6921SOL    HW132399   3.690   0.987   3.096  0.4601 -1.5553 -0.2970
 6921SOL    HW232400   3.591   0.908   3.187  2.2137 -3.0070 -2.2663
 6922SOL     OW32401   0.486   0.618   4.390 -0.3424  0.3051 -0.4637
 6922SOL    HW132402   0.464   0.696   4.443  1.1184 -0.1195  0.7659
 6922SOL    HW232403   0.432   0.551   4.432  0.7837  0.5471  1.3718
 6923SOL     OW32404   3.894   0.159  14.894 -0.3331  0.4900 -0.3898
 6923SOL    HW132405   3.822   0.112  14.852  0.7736 -0.6926 -0.9691
 6923SOL    HW232406   3.965   0.096  14.889 -0.2589  0.5765 -0.4374
 6924SOL     OW32407   1.115   3.099   8.423 -0.0481 -0.4399 -0.1715
 6924SOL    HW132408   1.046   3.161   8.447 -0.1711  0.2714 -2.3403
 6924SOL    HW232409   1.107   3.034   8.493 -0.3918 -2.1337 -1.7931
 6925SOL     OW32410   0.113   1.152  10.875  0.1466 -0.0159 -1.0676
 6925SOL    HW132411   0.078   1.066  10.895  1.8916 -0.2230  1.1749
 6925SOL    HW232412   0.102   1.186  10.964 -0.0679 -0.0573 -1.0796
 6926SOL     OW32413   4.577   0.405   4.081 -0.6292  0.6026  0.9731
 6926SOL    HW132414   4.668   0.427   4.102  0.0702 -1.4063 -0.0293
 6926SOL    HW232415   4.541   0.494   4.072 -2.3868 -0.2458 -0.2906
 6927SOL     OW32416   2.986   3.724  14.282  0.0218  0.3590 -0.2844
 6927SOL    HW132417   2.896   3.693  14.297  0.4757 -0.1081  1.4349
 6927SOL    HW232418   3.034   3.683  14.353 -1.1786  1.5350  1.2145
 6928SOL     OW32419   4.075   3.735   6.496  0.0280  0.3911  0.0067
 6928SOL    HW132420   4.004   3.675   6.519 -0.3684 -0.3189 -3.0131
 6928SOL    HW232421   4.141   3.680   6.454  0.2625  1.0640 -0.5094
 6929SOL     OW32422   3.432   4.736   5.833  0.3479 -1.1697 -0.4064
 6929SOL    HW132423   3.386   0.043   5.905  2.1903  1.0919 -0.5932
 6929SOL    HW232424   3.375   0.027   5.761 -1.2810  0.1193  1.3603
 6930SOL     OW32425   1.828   3.685  13.914  0.3991  0.1174 -0.2267
 6930SOL    HW132426   1.917   3.656  13.936  0.2661 -0.4047 -0.3664
 6930SOL    HW232427   1.830   3.775  13.882  2.0432  0.6548  1.3957
 6931SOL     OW32428   1.993   4.037   2.094 -0.0192 -0.3007  0.8059
 6931SOL    HW132429   1.914   4.048   2.148 -1.1683  0.3344 -1.0070
 6931SOL    HW232430   2.036   3.958   2.127 -0.0026 -0.8003 -0.4330
 6932SOL     OW32431   1.974   4.404   8.978 -0.0659 -0.0481 -0.6160
 6932SOL    HW132432   1.942   4.424   9.066  1.1690 -2.1632  0.3176
 6932SOL    HW232433   1.919   4.459   8.923  0.8174  2.2650  0.8055
 6933SOL     OW32434   0.090   1.827  10.222  0.6338 -0.5452 -0.2399
 6933SOL    HW132435   0.001   1.841  10.189  1.0698  1.2520 -0.6929
 6933SOL    HW232436   0.140   1.850  10.144  1.1231 -0.4175  0.1145
 6934SOL     OW32437   3.944   0.475   7.509 -0.3750 -0.7001  0.3610
 6934SOL    HW132438   4.034   0.479   7.542  0.1545 -0.0528 -1.1604
 6934SOL    HW232439   3.908   0.557   7.541  2.2406  0.3926  0.5626
 6935SOL     OW32440   1.005   3.223   9.553  0.2223  0.8611  0.3048
 6935SOL    HW132441   0.996   3.216   9.648  0.5722  1.1312  0.3594
 6935SOL    HW232442   0.917   3.253   9.530 -0.5658 -2.1757 -0.6279
 6936SOL     OW32443   2.619   4.580   1.281  0.3837  0.0939  0.7148
 6936SOL    HW132444   2.552   4.620   1.336  1.3950  0.5757  1.5780
 6936SOL    HW232445   2.564   4.523   1.226  3.2279 -0.6370 -1.3603
 6937SOL     OW32446   3.396   1.156   5.822 -0.4196 -0.2238  0.9891
 6937SOL    HW132447   3.324   1.093   5.826 -0.6664  0.0391  0.6956
 6937SOL    HW232448   3.352   1.227   5.868  0.6718  0.9184  0.2673
 6938SOL     OW32449   0.517   0.126   2.060  0.2596  0.4526  0.6334
 6938SOL    HW132450   0.480   0.142   1.973 -2.0928 -0.9153  1.3698
 6938SOL    HW232451   0.448   0.165   2.114 -2.8927 -0.9865 -2.2975
 6939SOL     OW32452   3.565   0.311   8.282  0.2954 -0.5067  0.2940
 6939SOL    HW132453   3.642   0.254   8.283 -0.2392 -1.1842  1.8691
 6939SOL    HW232454   3.584   0.377   8.214 -0.4982 -0.2285  0.3482
 6940SOL     OW32455   1.528   1.150   5.348 -0.2568 -0.0251  0.0722
 6940SOL    HW132456   1.554   1.125   5.259 -1.7960  0.3314 -0.4652
 6940SOL    HW232457   1.592   1.093   5.393  0.6628  0.3032 -0.8140
 6941SOL     OW32458   2.990   0.023   4.071  0.4598  0.1794 -0.6616
 6941SOL    HW132459   3.054   4.699   4.035 -0.6429 -0.6730 -1.2073
 6941SOL    HW232460   2.927   4.696   4.105  1.2097 -1.2431 -1.9266
 6942SOL     OW32461   0.158   1.880   3.652 -0.1105 -0.2471  0.3658
 6942SOL    HW132462   0.182   1.969   3.626 -2.6109 -0.0038 -1.0898
 6942SOL    HW232463   0.170   1.882   3.747 -1.1729 -2.3819  0.5326
 6943SOL     OW32464   1.324   1.884  10.485  0.1165 -0.1252  0.5332
 6943SOL    HW132465   1.228   1.879  10.488  0.1073 -1.0434 -1.4907
 6943SOL    HW232466   1.335   1.968  10.440  2.1821 -0.8577 -0.3231
 6944SOL     OW32467   3.811   3.541   1.631 -0.4200  0.2366 -0.2025
 6944SOL    HW132468   3.870   3.471   1.657 -1.8930 -1.7653 -2.2898
 6944SOL    HW232469   3.856   3.621   1.660 -2.3111  1.3456 -0.3078
 6945SOL     OW32470   4.706   0.650  17.345 -0.2921  0.0135 -0.0056
 6945SOL    HW132471   4.691   0.735  17.387  1.7192 -0.5717  1.8973
 6945SOL    HW232472   4.711   0.661  17.250  0.8016  0.1244  0.0632
 6946SOL     OW32473   1.162   0.746   8.977 -0.1590 -0.3528  0.1321
 6946SOL    HW132474   1.112   0.828   8.977  0.6030  0.1078  0.1767
 6946SOL    HW232475   1.086   0.687   8.980  0.0081 -0.5669  0.1908
 6947SOL     OW32476   3.915   4.097   2.579  0.3065 -0.3682 -0.3643
 6947SOL    HW132477   3.950   4.186   2.586  2.1710 -1.1223 -0.0932
 6947SOL    HW232478   3.970   4.065   2.508  2.4531  2.6805 -0.0728
 6948SOL     OW32479   1.541   0.548   4.025 -0.4473  0.5804 -0.3789
 6948SOL    HW132480   1.574   0.636   4.044 -0.1705  0.0386  1.6530
 6948SOL    HW232481   1.470   0.545   4.090 -1.3793 -2.1568 -1.5138
 6949SOL     OW32482   4.211   1.805   7.095  0.1880 -0.3720  0.3964
 6949SOL    HW132483   4.256   1.889   7.089 -1.6228  0.5327 -0.4768
 6949SOL    HW232484   4.248   1.769   7.176 -2.9033 -0.5568  1.7378
 6950SOL     OW32485   0.696   3.610  10.984 -0.3239  0.2288 -0.1981
 6950SOL    HW132486   0.713   3.582  11.074  0.2031 -1.0532 -0.6905
 6950SOL    HW232487   0.765   3.676  10.984  0.3422 -0.4755 -2.3155
 6951SOL     OW32488   0.078   3.759  17.369  0.2771 -0.4630  0.0711
 6951SOL    HW132489   0.070   3.665  17.357 -0.9411 -0.1330 -1.6615
 6951SOL    HW232490   0.041   3.798  17.290  0.1633  0.1978  0.4436
 6952SOL     OW32491   0.264   3.166  15.907  0.1895 -0.5764 -0.5015
 6952SOL    HW132492   0.179   3.122  15.895 -0.8355  1.5219 -0.9254
 6952SOL    HW232493   0.231   3.253  15.930 -0.0462 -1.1254  1.2458
 6953SOL     OW32494   4.718   2.247   7.415  0.1673 -0.0818  0.2780
 6953SOL    HW132495   4.641   2.229   7.468  0.5305 -1.9169  0.1705
 6953SOL    HW232496   4.678   2.250   7.328  0.1010 -2.8097  0.1993
 6954SOL     OW32497   3.798   2.238  15.921 -0.4415 -0.8913  0.1134
 6954SOL    HW132498   3.787   2.145  15.898  1.7406 -0.7561 -1.4576
 6954SOL    HW232499   3.738   2.275  15.856  0.3907  0.5265  0.1674
 6955SOL     OW32500   0.137   3.400   8.306  0.2838 -0.0342  0.3030
 6955SOL    HW132501   0.226   3.381   8.279  0.4676  1.3310 -0.0379
 6955SOL    HW232502   0.094   3.371   8.226 -0.4137 -2.4387  1.5261
 6956SOL     OW32503   1.119   2.902  17.592 -0.1105  0.2732 -0.2114
 6956SOL    HW132504   1.148   2.936  17.676  3.6983 -3.1951 -0.1301
 6956SOL    HW232505   1.195   2.883  17.537  0.4569  1.9469 -0.0004
 6957SOL     OW32506   4.619   4.218   8.440  0.2333  0.2706  0.3286
 6957SOL    HW132507   4.684   4.225   8.371  0.7567 -1.1417  0.6802
 6957SOL    HW232508   4.539   4.182   8.401  0.6214 -0.9941  0.6935
 6958SOL     OW32509   0.003   0.602   8.148 -0.6328  0.2791  0.0963
 6958SOL    HW132510   0.090   0.570   8.172 -0.7625  0.4418  0.7770
 6958SOL    HW232511   0.001   0.594   8.053 -1.5950 -1.6592  0.2567
 6959SOL     OW32512   3.406   4.230  15.150  0.1487 -0.1950 -0.8214
 6959SOL    HW132513   3.487   4.267  15.114  0.9671  1.4144  2.7146
 6959SOL    HW232514   3.362   4.221  15.065  1.9754  1.2888 -1.9316
 6960SOL     OW32515   4.397   4.391   3.335 -0.0563 -0.2308 -0.2286
 6960SOL    HW132516   4.460   4.463   3.340 -0.9518  0.5301  0.1977
 6960SOL    HW232517   4.334   4.402   3.407  1.3181  0.5491  0.8642
 6961SOL     OW32518   1.542   3.889   8.376  0.2707 -0.1182 -0.1199
 6961SOL    HW132519   1.633   3.912   8.394  0.0493  0.6089  0.0876
 6961SOL    HW232520   1.516   3.874   8.467 -2.5468 -1.5711 -1.1619
 6962SOL     OW32521   3.608   0.587   8.543  0.3744 -0.5721 -0.5389
 6962SOL    HW132522   3.637   0.646   8.612  1.5436 -2.0428  0.2242
 6962SOL    HW232523   3.668   0.608   8.471  2.1570 -0.6980  0.8980
 6963SOL     OW32524   1.741   0.763  11.004 -0.0626  0.6502  0.2748
 6963SOL    HW132525   1.835   0.751  10.988 -0.2228 -0.7406  0.3317
 6963SOL    HW232526   1.701   0.766  10.917  0.1962 -0.6145  0.1147
 6964SOL     OW32527   2.064   2.827   5.836 -0.1146 -0.0961 -0.2090
 6964SOL    HW132528   2.153   2.843   5.867 -0.5178  0.5928  0.5674
 6964SOL    HW232529   2.075   2.770   5.760  0.9989 -0.0734 -0.0622
 6965SOL     OW32530   1.374   3.862   3.935  0.5012  0.1905  0.3047
 6965SOL    HW132531   1.321   3.927   3.981 -1.4512  0.3656 -2.1786
 6965SOL    HW232532   1.453   3.913   3.918  1.0352 -0.5904  0.4728
 6966SOL     OW32533   1.141   4.569   2.254  0.3201 -0.3677  0.5479
 6966SOL    HW132534   1.118   4.498   2.195  1.6624  0.3041 -0.7733
 6966SOL    HW232535   1.176   4.630   2.189 -0.0139 -0.2092  0.5210
 6967SOL     OW32536   3.304   1.474   5.842  0.2665 -0.0110 -0.1431
 6967SOL    HW132537   3.214   1.454   5.869  0.4981 -0.8325  0.0358
 6967SOL    HW232538   3.293   1.453   5.749  1.1263  2.1966 -0.7273
 6968SOL     OW32539   2.738   1.426   7.973  0.0288  0.3185  0.2503
 6968SOL    HW132540   2.817   1.408   7.923 -0.2707 -0.6716  0.1209
 6968SOL    HW232541   2.717   1.342   8.015 -2.2323  0.3567 -0.8231
 6969SOL     OW32542   2.069   2.359   4.667 -0.2429 -0.6292  0.4342
 6969SOL    HW132543   2.117   2.277   4.659  0.2043 -0.3126 -0.1350
 6969SOL    HW232544   2.048   2.373   4.574  0.6730 -0.8260  0.2062
 6970SOL     OW32545   0.901   4.645  11.404  0.1188  0.1121 -0.2737
 6970SOL    HW132546   0.838   4.601  11.347  0.0051  1.4343 -1.1661
 6970SOL    HW232547   0.904   4.735  11.372  2.0583 -0.8026 -2.6995
 6971SOL     OW32548   2.380   2.130   2.928  0.5532 -0.0403 -0.5288
 6971SOL    HW132549   2.381   2.034   2.936  1.6617  0.0356  0.3513
 6971SOL    HW232550   2.291   2.135   2.894  0.1420 -2.7683  0.1075
 6972SOL     OW32551   4.079   2.917   7.816 -0.4471 -0.2816  0.4145
 6972SOL    HW132552   4.124   2.848   7.865 -0.4924 -1.2736 -0.9637
 6972SOL    HW232553   4.022   2.949   7.886 -1.4261  0.2744 -0.6534
 6973SOL     OW32554   4.086   2.103   5.589  0.3086 -0.2457  0.0504
 6973SOL    HW132555   4.109   2.074   5.678  0.8619  2.9558  0.9549
 6973SOL    HW232556   4.112   2.195   5.583 -0.3001  0.0689  2.1907
 6974SOL     OW32557   0.660   2.951   8.562  0.4016  0.0749  0.0704
 6974SOL    HW132558   0.575   2.972   8.601  0.8799  1.9263  0.0787
 6974SOL    HW232559   0.672   3.018   8.496 -0.9834 -1.3185 -1.5932
 6975SOL     OW32560   1.836   2.032   3.284 -0.4853  0.0521 -0.0216
 6975SOL    HW132561   1.812   2.100   3.221  0.8644  1.3650  0.8898
 6975SOL    HW232562   1.925   2.009   3.259 -0.7476 -2.2843  1.1802
 6976SOL     OW32563   2.397   0.578  16.635 -0.2867 -0.7479 -0.1771
 6976SOL    HW132564   2.453   0.615  16.566 -3.3271  2.2134 -1.0940
 6976SOL    HW232565   2.461   0.517  16.671  0.8016  1.8153  2.1712
 6977SOL     OW32566   1.142   2.616   5.244  0.4657  0.3914  0.3863
 6977SOL    HW132567   1.183   2.556   5.182  0.9801  0.1784  0.9392
 6977SOL    HW232568   1.087   2.554   5.291 -0.7845  2.6950  1.9952
 6978SOL     OW32569   2.316   1.562   3.832 -0.2566  0.2342  0.0975
 6978SOL    HW132570   2.312   1.648   3.790  0.3917 -2.0290 -4.5383
 6978SOL    HW232571   2.229   1.552   3.870  0.2036  0.6985  1.2998
 6979SOL     OW32572   1.483   4.509  12.750  0.0588 -0.4481  0.1349
 6979SOL    HW132573   1.480   4.456  12.829  2.0521 -0.8776 -0.0848
 6979SOL    HW232574   1.395   4.495  12.713 -0.6969  1.1011  1.3189
 6980SOL     OW32575   3.644   0.882  15.826  0.4372  0.6202 -0.3049
 6980SOL    HW132576   3.561   0.896  15.780  0.6808  1.2324 -0.5543
 6980SOL    HW232577   3.627   0.938  15.901  4.8648  0.8118  0.5378
 6981SOL     OW32578   2.810   0.974   3.142 -0.0548  0.3575 -0.8240
 6981SOL    HW132579   2.861   0.893   3.136 -0.6894 -0.1104  0.1435
 6981SOL    HW232580   2.767   0.959   3.226 -3.6133 -0.7271 -2.8855
 6982SOL     OW32581   2.099   2.684   7.385  0.3225  0.2886  0.0612
 6982SOL    HW132582   2.034   2.669   7.316  0.1448 -0.9510  0.5155
 6982SOL    HW232583   2.060   2.759   7.430 -3.6658 -2.3798  1.0136
 6983SOL     OW32584   3.802   3.764   7.564  0.1879  0.8657 -0.1632
 6983SOL    HW132585   3.890   3.727   7.562 -0.0029  0.5002 -1.5076
 6983SOL    HW232586   3.799   3.819   7.486 -1.9839 -0.7222 -1.2214
 6984SOL     OW32587   1.581   1.394   5.436  0.4217 -0.2248  0.6887
 6984SOL    HW132588   1.538   1.309   5.428 -1.9502  1.2213 -2.0890
 6984SOL    HW232589   1.641   1.389   5.362  0.2258  1.6741  0.3911
 6985SOL     OW32590   3.510   1.941   5.970  0.8796 -0.5756 -0.0040
 6985SOL    HW132591   3.445   2.006   5.998 -0.3142 -0.8142 -2.2062
 6985SOL    HW232592   3.456   1.892   5.908  2.5598 -0.3469 -1.6464
 6986SOL     OW32593   4.325   2.730   8.454 -0.0107 -0.6922 -0.1515
 6986SOL    HW132594   4.411   2.748   8.416  0.2785  0.6943  1.1696
 6986SOL    HW232595   4.313   2.637   8.438  2.2078 -1.3063  1.6994
 6987SOL     OW32596   2.703   4.090   8.055  0.2915  0.4213  0.3196
 6987SOL    HW132597   2.674   4.178   8.029 -2.7890 -0.9392 -0.9117
 6987SOL    HW232598   2.627   4.068   8.109  0.4368  0.8354  0.6873
 6988SOL     OW32599   0.927   2.832   3.147 -0.3079  0.5491 -0.6970
 6988SOL    HW132600   0.844   2.852   3.104 -0.0347 -1.3218 -2.1071
 6988SOL    HW232601   0.945   2.744   3.112 -0.4444 -0.9498  2.9102
 6989SOL     OW32602   0.933   0.335  15.839 -0.3137 -0.2061 -0.3147
 6989SOL    HW132603   0.863   0.388  15.801  0.3302  0.8981  0.0342
 6989SOL    HW232604   0.999   0.346  15.771 -0.6621 -0.3062 -0.6646
 6990SOL     OW32605   2.798   0.470  13.193  0.2093  0.9916  0.0751
 6990SOL    HW132606   2.822   0.525  13.119 -2.5258  0.6215 -1.1171
 6990SOL    HW232607   2.887   0.443  13.212 -0.6448 -1.3958  0.7064
 6991SOL     OW32608   3.820   3.694   3.892  0.2763  0.2681  0.8080
 6991SOL    HW132609   3.791   3.604   3.906  0.0851 -0.3471 -3.4839
 6991SOL    HW232610   3.741   3.742   3.914  0.4738  1.1953 -0.4715
 6992SOL     OW32611   2.254   1.573  17.602 -0.3719 -0.4710  0.2917
 6992SOL    HW132612   2.231   1.546  17.513  1.5245  0.2514 -0.4165
 6992SOL    HW232613   2.174   1.621  17.623 -1.8731 -2.6648 -0.3540
 6993SOL     OW32614   2.138   2.856   3.309 -0.5186 -0.2175  0.2895
 6993SOL    HW132615   2.049   2.885   3.292 -0.5730  0.0715  1.0931
 6993SOL    HW232616   2.120   2.766   3.338 -0.2373 -0.6268 -0.7891
 6994SOL     OW32617   1.726   3.561   5.508 -0.2352 -0.3494 -0.0450
 6994SOL    HW132618   1.702   3.485   5.454  1.6069 -0.5405 -0.6076
 6994SOL    HW232619   1.775   3.510   5.572  0.5628 -0.6060 -0.8617
 6995SOL     OW32620   4.217   1.774   6.134 -0.1507  0.7521 -0.0833
 6995SOL    HW132621   4.264   1.726   6.202  0.5486  0.7979 -0.5336
 6995SOL    HW232622   4.293   1.810   6.088  1.0027 -1.2564  0.2216
 6996SOL     OW32623   4.121   3.261   3.507 -0.4061 -0.1374  0.2477
 6996SOL    HW132624   4.152   3.332   3.563 -0.8679  1.0278 -0.9702
 6996SOL    HW232625   4.031   3.248   3.536  0.0572 -0.9318  1.3526
 6997SOL     OW32626   1.315   2.265   9.438  0.7670  0.3035  0.0770
 6997SOL    HW132627   1.274   2.283   9.353  1.5902 -0.4059 -0.4665
 6997SOL    HW232628   1.406   2.261   9.408  0.1664 -0.7317 -1.6273
 6998SOL     OW32629   2.892   4.373   1.191 -0.4723  0.0365 -0.4155
 6998SOL    HW132630   2.879   4.464   1.164 -0.9760 -0.4669 -1.8562
 6998SOL    HW232631   2.913   4.393   1.282  1.0597 -2.8334 -0.1247
 6999SOL     OW32632   0.417   4.359   6.845  0.0615 -0.0323 -0.0857
 6999SOL    HW132633   0.482   4.320   6.788  0.8238  1.1402 -0.0173
 6999SOL    HW232634   0.354   4.289   6.865 -0.7139  1.2888  2.1210
 7000SOL     OW32635   4.514   1.476  11.228 -0.0041 -0.2208  0.3002
 7000SOL    HW132636   4.437   1.427  11.198 -1.5829  1.9068  0.8761
 7000SOL    HW232637   4.572   1.412  11.269 -0.6496 -0.5087  0.7597
 7001SOL     OW32638   4.609   2.814   5.048 -0.1667  0.3051  0.1582
 7001SOL    HW132639   4.659   2.810   5.130  2.2802 -2.7323 -1.4909
 7001SOL    HW232640   4.586   2.905   5.067 -0.8987  0.5547 -1.9209
 7002SOL     OW32641   4.307   2.054   7.129  0.8623  1.0738  0.3710
 7002SOL    HW132642   4.268   2.141   7.137 -0.3030  1.0236 -4.9947
 7002SOL    HW232643   4.357   2.066   7.049 -1.6509 -2.6395 -1.7237
 7003SOL     OW32644   4.695   4.632   3.730 -0.2425  0.4760 -0.4473
 7003SOL    HW132645   0.026   4.609   3.794  0.1278  2.2146 -0.2111
 7003SOL    HW232646   4.678   4.724   3.749 -1.8542  0.4985 -2.0104
 7004SOL     OW32647   2.210   1.321   0.905 -0.4225 -0.2420  0.0239
 7004SOL    HW132648   2.121   1.320   0.871  0.2281  1.9761 -1.7201
 7004SOL    HW232649   2.198   1.279   0.990  0.3742 -0.0451  0.2359
 7005SOL     OW32650   2.230   1.769  15.824 -0.6126  0.1489  0.0316
 7005SOL    HW132651   2.302   1.831  15.817  1.0807 -2.0907 -2.0630
 7005SOL    HW232652   2.164   1.838  15.829  0.0897  0.8298 -0.0633
 7006SOL     OW32653   0.823   3.184   0.560 -0.4643  0.3063  0.0089
 7006SOL    HW132654   0.774   3.210   0.638 -0.4767 -1.5547  0.6015
 7006SOL    HW232655   0.869   3.266   0.541  0.4909 -0.0241  0.8975
 7007SOL     OW32656   4.515   0.686   1.282  0.4103 -0.1733  0.2827
 7007SOL    HW132657   4.480   0.758   1.229  1.7578 -0.2619 -0.7362
 7007SOL    HW232658   4.559   0.729   1.356 -2.6313  1.0877  1.3552
 7008SOL     OW32659   0.429   4.448   4.936 -0.2459 -0.4136 -0.0694
 7008SOL    HW132660   0.453   4.536   4.908  1.7399 -1.3582 -1.3394
 7008SOL    HW232661   0.397   4.403   4.858 -0.8188 -0.9681  0.4751
 7009SOL     OW32662   1.598   2.512   6.109 -0.2916  0.1233  0.3483
 7009SOL    HW132663   1.540   2.436   6.117 -1.4156  1.0825  1.2768
 7009SOL    HW232664   1.653   2.500   6.187  0.7750 -0.9645 -0.5625
 7010SOL     OW32665   0.617   3.982  10.292 -0.0879 -0.0274  0.1885
 7010SOL    HW132666   0.638   3.905  10.239  1.3307 -1.1263  2.3951
 7010SOL    HW232667   0.621   4.058  10.233  1.7670 -0.2857  0.0068
 7011SOL     OW32668   1.417   0.946   8.954 -0.3217  0.2241  0.6852
 7011SOL    HW132669   1.446   1.004   8.883 -1.0814  0.1993  0.3592
 7011SOL    HW232670   1.324   0.958   8.937 -0.5003 -2.8475 -0.5523
 7012SOL     OW32671   1.446   3.435   7.928  0.3752  0.4077  0.1273
 7012SOL    HW132672   1.363   3.435   7.881  0.0603  1.8576  0.6887
 7012SOL    HW232673   1.449   3.515   7.980 -1.4366 -0.7208  1.9694
 7013SOL     OW32674   2.704   0.665   1.173 -0.0319 -0.2096  0.0318
 7013SOL    HW132675   2.611   0.665   1.193 -0.0246  0.7813  0.0636
 7013SOL    HW232676   2.701   0.714   1.090 -0.3925  1.6628  1.1420
 7014SOL     OW32677   3.157   0.357   4.677  0.0441  0.4253  0.2771
 7014SOL    HW132678   3.207   0.393   4.604  1.7167  0.4486  1.4503
 7014SOL    HW232679   3.192   0.408   4.750 -1.2138  0.5902  0.7653
 7015SOL     OW32680   4.076   4.041   2.354  0.0799 -0.4433 -0.3884
 7015SOL    HW132681   4.123   4.124   2.348 -1.7393  0.5754 -0.4049
 7015SOL    HW232682   4.086   4.005   2.266 -1.3499  1.0089 -1.1424
 7016SOL     OW32683   2.434   2.178  15.124  0.4981 -0.2412  0.3942
 7016SOL    HW132684   2.440   2.114  15.194  1.2034  0.4683  0.9807
 7016SOL    HW232685   2.491   2.126  15.067 -0.8679 -0.5311 -0.7269
 7017SOL     OW32686   1.994   0.135   7.739  0.9038  0.5232  0.7060
 7017SOL    HW132687   2.031   0.218   7.772  3.0633  0.3659 -1.2747
 7017SOL    HW232688   1.940   0.169   7.668  0.2904 -1.5099  0.2060
 7018SOL     OW32689   0.044   3.486  17.615 -0.8409 -0.1480  0.0430
 7018SOL    HW132690   4.695   3.512  17.581 -0.7379 -1.7973 -1.5093
 7018SOL    HW232691   0.093   3.500  17.534 -0.5623  0.8477  0.3903
 7019SOL     OW32692   4.339   0.576   1.947  0.0353 -0.2005 -0.0103
 7019SOL    HW132693   4.315   0.666   1.923  0.2230 -0.5476 -1.5346
 7019SOL    HW232694   4.414   0.556   1.890  1.0670  0.3672  1.1373
 7020SOL     OW32695   1.205   1.661   7.032  1.4009  0.3552 -0.6613
 7020SOL    HW132696   1.261   1.677   6.956  3.1421 -0.8808  0.3598
 7020SOL    HW232697   1.262   1.610   7.090  2.1095  0.5801 -1.1560
 7021SOL     OW32698   4.303   0.772   3.550  0.8357 -0.2765  0.1971
 7021SOL    HW132699   4.231   0.802   3.495 -0.7508 -3.0456  0.7301
 7021SOL    HW232700   4.295   0.677   3.563  1.1997 -0.1518  1.2916
 7022SOL     OW32701   0.256   2.050  12.662 -0.2636 -0.2074  0.3148
 7022SOL    HW132702   0.259   2.070  12.755 -1.2397  1.9093 -0.1025
 7022SOL    HW232703   0.303   2.127  12.628  0.7381 -1.0677 -0.2672
 7023SOL     OW32704   2.175   2.868  16.418 -0.4603 -0.6438  0.4959
 7023SOL    HW132705   2.194   2.783  16.457 -1.2431 -1.2810 -0.5149
 7023SOL    HW232706   2.215   2.864  16.331 -1.5377  1.1244 -0.0880
 7024SOL     OW32707   1.796   3.623   3.641 -0.6120  0.3101 -0.2918
 7024SOL    HW132708   1.797   3.529   3.661 -1.6776  0.9012  2.5601
 7024SOL    HW232709   1.891   3.626   3.630 -0.4887 -0.4565  0.6004
 7025SOL     OW32710   0.117   0.978  11.809 -0.6678  0.5578 -0.4873
 7025SOL    HW132711   0.026   0.948  11.817 -0.2030 -0.2825  1.5009
 7025SOL    HW232712   0.165   0.925  11.872  2.7413  4.4250  0.1749
 7026SOL     OW32713   1.456   1.778   5.894  0.1901  0.3294  0.0671
 7026SOL    HW132714   1.402   1.740   5.825  1.6793 -0.4265 -0.6781
 7026SOL    HW232715   1.529   1.812   5.842  0.5182  0.4208  0.5812
 7027SOL     OW32716   1.473   1.940  14.629 -0.4308 -0.3211  0.0549
 7027SOL    HW132717   1.415   1.871  14.599  2.1780 -1.9811 -1.1918
 7027SOL    HW232718   1.484   1.916  14.721  0.8513  2.0792  0.5495
 7028SOL     OW32719   3.242   4.722  15.904 -0.2892  0.0612 -0.0770
 7028SOL    HW132720   3.228   4.736  15.810  1.1580 -0.9382 -0.4345
 7028SOL    HW232721   3.149   4.735  15.927 -0.9283 -2.5156 -1.2238
 7029SOL     OW32722   2.106   1.820   1.269  0.2304 -0.2141  0.2616
 7029SOL    HW132723   2.162   1.831   1.346  0.5827  0.7241 -0.1227
 7029SOL    HW232724   2.102   1.912   1.243  1.1968 -0.3643 -0.4415
 7030SOL     OW32725   0.138   4.481   6.655  0.1477 -0.0791 -0.1629
 7030SOL    HW132726   0.218   4.437   6.684  0.4482  1.6403  1.5571
 7030SOL    HW232727   0.093   4.428   6.589  0.6671 -1.2091  0.3888
 7031SOL     OW32728   2.479   0.501   3.495  0.1441  0.5737 -0.2530
 7031SOL    HW132729   2.527   0.434   3.447  0.4557  0.2599  0.4955
 7031SOL    HW232730   2.387   0.475   3.483  0.5489 -1.3211  0.7451
 7032SOL     OW32731   1.487   3.177   5.805  0.3785 -0.3174 -0.0461
 7032SOL    HW132732   1.392   3.164   5.807  0.1735  1.3640  0.8369
 7032SOL    HW232733   1.499   3.260   5.850  1.1000 -0.1731 -0.5068
 7033SOL     OW32734   2.799   3.579   1.856 -0.2863 -0.0031  0.1029
 7033SOL    HW132735   2.876   3.636   1.853  0.9887 -1.6443  0.9720
 7033SOL    HW232736   2.847   3.496   1.844 -1.2239 -0.6015  0.4781
 7034SOL     OW32737   3.480   3.952  10.658  0.8097 -0.1504 -0.2414
 7034SOL    HW132738   3.418   3.989  10.721 -2.1933  0.2887 -3.4288
 7034SOL    HW232739   3.454   3.994  10.576  0.4853  0.8567  0.3752
 7035SOL     OW32740   2.207   1.671   3.047  0.0331 -0.1346 -0.1362
 7035SOL    HW132741   2.144   1.609   3.083 -0.2655 -0.7207 -1.6529
 7035SOL    HW232742   2.171   1.688   2.960  0.8446 -0.5159 -0.5491
 7036SOL     OW32743   3.106   3.929   3.133 -0.3016  0.6042  0.4576
 7036SOL    HW132744   3.173   3.974   3.185  0.3551 -2.0476  1.9013
 7036SOL    HW232745   3.027   3.943   3.186 -0.2043 -1.7034  1.1812
 7037SOL     OW32746   1.886   3.223  13.975 -0.3348 -0.0122  0.0257
 7037SOL    HW132747   1.887   3.275  13.895  1.1072  0.4087  0.3164
 7037SOL    HW232748   1.918   3.140  13.939 -0.4917 -1.1233  2.4594
 7038SOL     OW32749   3.328   0.408   0.541 -0.1250  0.4242  0.4490
 7038SOL    HW132750   3.381   0.370   0.471 -1.2229 -1.2631  0.5311
 7038SOL    HW232751   3.377   0.475   0.589  1.3912 -1.1435  1.1071
 7039SOL     OW32752   3.371   1.864   3.132  0.0315  0.4217  0.7126
 7039SOL    HW132753   3.462   1.872   3.103  0.1281  1.5330  1.3121
 7039SOL    HW232754   3.361   1.940   3.189 -0.0297 -0.2014  1.5274
 7040SOL     OW32755   3.004   2.577   0.856  0.1580 -0.2484 -0.1441
 7040SOL    HW132756   2.946   2.653   0.851  1.1539  0.4941 -0.4643
 7040SOL    HW232757   2.953   2.519   0.913  1.2857  0.4555  1.5768
 7041SOL     OW32758   2.261   1.095   4.388  0.4851 -0.2288  0.3966
 7041SOL    HW132759   2.171   1.068   4.373  0.5104  1.2674 -2.4896
 7041SOL    HW232760   2.275   1.152   4.312  1.2822 -1.0084 -0.0539
 7042SOL     OW32761   2.609   0.598   4.939 -0.7759 -0.5097  0.4312
 7042SOL    HW132762   2.563   0.631   5.016 -0.0892  2.3319 -0.3620
 7042SOL    HW232763   2.702   0.612   4.956 -1.2078 -0.4292  2.6416
 7043SOL     OW32764   1.607   2.589   8.292  0.1412 -0.3772  0.6945
 7043SOL    HW132765   1.524   2.633   8.274  1.6908  1.5719 -1.5330
 7043SOL    HW232766   1.655   2.669   8.308 -0.0884 -0.0912 -0.0432
 7044SOL     OW32767   0.219   3.077   4.449  0.5052 -0.0934  0.0676
 7044SOL    HW132768   0.162   3.049   4.378 -0.7220 -0.1964  1.0983
 7044SOL    HW232769   0.264   3.158   4.426  0.3350 -0.3144 -1.0540
 7045SOL     OW32770   0.946   0.416   2.589 -0.9269  0.3563 -0.3541
 7045SOL    HW132771   0.971   0.483   2.526  0.3943 -0.4240 -0.6542
 7045SOL    HW232772   1.031   0.409   2.632 -1.3632 -2.2643  0.1056
 7046SOL     OW32773   2.018   4.555   5.643  0.3551  0.1936  0.4620
 7046SOL    HW132774   2.000   4.463   5.663  0.7486  0.2943  1.3032
 7046SOL    HW232775   1.934   4.572   5.601  0.1483 -1.4685  0.2108
 7047SOL     OW32776   2.671   2.371   7.388  0.4363  0.5329 -0.6317
 7047SOL    HW132777   2.688   2.465   7.389 -2.9941  1.1284 -0.1064
 7047SOL    HW232778   2.712   2.351   7.473  0.3410 -2.3925 -1.2779
 7048SOL     OW32779   1.608   3.922   9.740  0.2513  0.1984 -0.6718
 7048SOL    HW132780   1.533   3.881   9.698 -1.4782  0.6916  1.9257
 7048SOL    HW232781   1.677   3.916   9.673  0.3778  0.0205 -0.5252
 7049SOL     OW32782   1.942   3.970  15.695  0.1907 -0.1872 -0.2368
 7049SOL    HW132783   1.909   4.003  15.612  2.7000 -0.2154 -1.2361
 7049SOL    HW232784   2.029   4.005  15.675  0.1304  1.0809  1.6649
 7050SOL     OW32785   3.565   4.227   4.405 -0.3259 -0.4669 -0.4347
 7050SOL    HW132786   3.613   4.181   4.474 -0.6339  1.7216  1.2300
 7050SOL    HW232787   3.590   4.319   4.396 -0.4079 -0.3594  0.4187
 7051SOL     OW32788   1.468   4.320   4.887  0.3405 -0.1287 -0.4248
 7051SOL    HW132789   1.395   4.287   4.939 -0.0582  0.0144 -0.8910
 7051SOL    HW232790   1.424   4.315   4.802 -0.3606 -2.2522  0.0728
 7052SOL     OW32791   0.747   2.608  10.943 -0.5223  0.2387 -0.0629
 7052SOL    HW132792   0.665   2.595  10.895 -1.2053  1.2514  0.8271
 7052SOL    HW232793   0.797   2.535  10.908  0.3559  1.4622 -1.3356
 7053SOL     OW32794   2.454   2.361   9.492 -0.0290  0.9865 -0.2626
 7053SOL    HW132795   2.534   2.341   9.444  0.6000 -0.6335  1.4626
 7053SOL    HW232796   2.477   2.305   9.566 -2.0919  1.2177  0.5431
 7054SOL     OW32797   0.589   4.705   4.064  0.1380 -0.1378 -0.0997
 7054SOL    HW132798   0.522   4.658   4.113 -1.1780  0.4970 -1.3114
 7054SOL    HW232799   0.660   4.708   4.129  1.5924  0.3250 -1.6956
 7055SOL     OW32800   0.014   0.500   6.601  0.4622  0.6203 -0.2297
 7055SOL    HW132801   4.688   0.443   6.556  0.1945 -0.0772  1.0234
 7055SOL    HW232802   4.711   0.586   6.586  0.5446  0.3017 -2.2535
 7056SOL     OW32803   0.526   1.859   2.204 -0.3439  0.1423 -0.7959
 7056SOL    HW132804   0.615   1.889   2.221 -0.8734  0.2453  1.7338
 7056SOL    HW232805   0.484   1.939   2.173 -1.9944  1.0190  3.7165
 7057SOL     OW32806   1.795   4.418   5.471  0.1259 -0.1190  0.3335
 7057SOL    HW132807   1.812   4.330   5.438 -1.1855 -0.1352 -0.2966
 7057SOL    HW232808   1.788   4.466   5.389 -2.3993 -0.6922  0.2233
 7058SOL     OW32809   4.539   1.907  10.543 -0.7550 -0.0836 -0.0427
 7058SOL    HW132810   4.523   1.974  10.476 -1.1259 -0.2965 -0.1686
 7058SOL    HW232811   4.522   1.828  10.492  1.3885  1.2913 -2.8926
 7059SOL     OW32812   0.057   4.369   6.105  0.4753  0.1669  0.4809
 7059SOL    HW132813   0.118   4.360   6.032 -0.8359  2.2849 -0.8806
 7059SOL    HW232814   4.727   4.311   6.067 -1.2253  2.6569 -0.3957
 7060SOL     OW32815   0.961   3.161   5.012 -0.0596  0.2559  0.3461
 7060SOL    HW132816   0.920   3.096   4.955  1.9151  0.8829 -1.7877
 7060SOL    HW232817   1.028   3.204   4.959  1.6315 -1.4058  1.1262
 7061SOL     OW32818   3.703   4.239  12.455  0.0357  0.2173  0.1135
 7061SOL    HW132819   3.714   4.185  12.377  0.3305  3.0038 -1.7978
 7061SOL    HW232820   3.610   4.262  12.454  0.1376  0.6804  1.3612
 7062SOL     OW32821   2.506   2.011   2.089  0.2230  0.2519  0.1292
 7062SOL    HW132822   2.511   1.929   2.041 -1.0802 -0.0090  0.4316
 7062SOL    HW232823   2.466   2.072   2.026 -0.6145  1.1556  1.5352
 7063SOL     OW32824   2.613   0.447   1.478 -0.3005  0.1927 -0.2276
 7063SOL    HW132825   2.545   0.505   1.514  2.3196  2.7642  0.5022
 7063SOL    HW232826   2.564   0.420   1.400 -0.4261  1.6260 -0.6510
 7064SOL     OW32827   3.838   0.049   2.661  0.3107  0.8434  0.0483
 7064SOL    HW132828   3.771   4.716   2.667 -0.2884  1.5958  2.0802
 7064SOL    HW232829   3.910   0.001   2.621 -0.9143 -1.3566  0.4527
 7065SOL     OW32830   1.719   0.993   2.038  0.1871 -0.4298  0.7637
 7065SOL    HW132831   1.793   0.940   2.008 -0.0027 -0.1382 -0.2195
 7065SOL    HW232832   1.743   0.993   2.131  3.2615  0.1868 -0.0396
 7066SOL     OW32833   0.043   4.432   6.377 -0.0462 -0.1310  0.1274
 7066SOL    HW132834   4.692   4.406   6.408 -0.7873  1.7435 -0.3801
 7066SOL    HW232835   0.039   4.405   6.285 -4.0597  0.0861  0.2572
 7067SOL     OW32836   3.956   1.858  14.196  0.2220  0.4457 -0.2016
 7067SOL    HW132837   4.012   1.888  14.124 -0.8449 -0.1438 -1.2809
 7067SOL    HW232838   3.940   1.941  14.241  0.6467 -0.3371  1.3914
 7068SOL     OW32839   1.078   1.783  11.467  0.2584 -0.1676  0.1260
 7068SOL    HW132840   1.023   1.705  11.469  0.3842 -0.1905  4.5253
 7068SOL    HW232841   1.158   1.750  11.427  1.9089  0.6746  2.6746
 7069SOL     OW32842   2.609   0.708   9.581  0.1339 -0.6165  0.7814
 7069SOL    HW132843   2.693   0.700   9.535  0.1509  0.3143  0.6511
 7069SOL    HW232844   2.603   0.616   9.607 -1.5004 -0.3250  1.4000
 7070SOL     OW32845   2.671   1.593   4.744 -0.3481 -0.8743  0.3786
 7070SOL    HW132846   2.622   1.663   4.701  1.1307 -0.6551 -0.9456
 7070SOL    HW232847   2.648   1.610   4.835 -0.6838  0.9733 -0.0592
 7071SOL     OW32848   2.577   0.900  13.740  0.4770  0.5918 -0.9938
 7071SOL    HW132849   2.653   0.917  13.684 -0.3082  1.3773 -1.8280
 7071SOL    HW232850   2.567   0.806  13.754 -0.6207  0.7346 -0.8184
 7072SOL     OW32851   1.136   4.271  12.975  0.2992  0.5822 -0.1407
 7072SOL    HW132852   1.117   4.329  12.901  0.4082  2.1785  1.0865
 7072SOL    HW232853   1.207   4.219  12.936  0.4738  0.1493  0.7495
 7073SOL     OW32854   3.657   3.753   2.736 -0.0013  0.0970  0.4927
 7073SOL    HW132855   3.706   3.672   2.748  0.9628  0.5801 -0.1429
 7073SOL    HW232856   3.720   3.820   2.762 -0.5768  0.4713  0.9283
 7074SOL     OW32857   2.303   0.996   5.572  0.4746  0.4265  0.2095
 7074SOL    HW132858   2.365   0.981   5.643  0.7597 -1.5419 -0.4681
 7074SOL    HW232859   2.317   1.091   5.569 -1.0205  0.6181 -1.0709
 7075SOL     OW32860   3.048   3.298   5.655  0.6355 -0.7311 -0.0814
 7075SOL    HW132861   3.078   3.308   5.564 -1.2770  0.0167 -0.6320
 7075SOL    HW232862   2.963   3.340   5.670  0.9218 -0.3185  0.3830
 7076SOL     OW32863   2.043   0.503   7.221 -0.0839  0.3624  0.0863
 7076SOL    HW132864   1.974   0.539   7.166 -1.3994 -0.2087  1.3415
 7076SOL    HW232865   2.049   0.569   7.291  0.9062 -0.1457  0.4926
 7077SOL     OW32866   0.068   2.033   6.071  0.2220  0.2579  0.0150
 7077SOL    HW132867   4.721   2.046   6.116  0.3771  0.3752  0.2663
 7077SOL    HW232868   0.077   1.937   6.071 -0.1311  0.2282  2.8806
 7078SOL     OW32869   4.541   1.784   6.123  0.2222 -0.4177 -0.2646
 7078SOL    HW132870   4.527   1.861   6.177 -1.6515 -0.6422 -0.4549
 7078SOL    HW232871   4.503   1.813   6.040  0.8680  0.3646 -0.2875
 7079SOL     OW32872   2.922   3.713   5.015  0.1928  0.0149  0.1743
 7079SOL    HW132873   2.941   3.768   4.940 -0.0823 -0.6354 -0.3689
 7079SOL    HW232874   2.846   3.663   4.985 -0.3520  1.7025 -1.2448
 7080SOL     OW32875   0.172   3.601   7.378  0.4471  0.4274 -0.5398
 7080SOL    HW132876   0.265   3.606   7.400  0.0252  1.4599  1.0035
 7080SOL    HW232877   0.176   3.600   7.282 -2.1535  0.4718 -0.6376
 7081SOL     OW32878   4.167   2.830   0.612  0.1781  0.1074  0.3645
 7081SOL    HW132879   4.204   2.916   0.589 -1.3157  0.6972  0.1747
 7081SOL    HW232880   4.184   2.786   0.529  0.8626 -0.1676  0.6549
 7082SOL     OW32881   3.116   1.099   6.590  0.0725 -0.0260 -0.1052
 7082SOL    HW132882   3.171   1.040   6.539 -0.8918 -0.6761 -0.3995
 7082SOL    HW232883   3.157   1.111   6.676 -0.8830  2.0135  0.0624
 7083SOL     OW32884   4.388   2.832   7.465 -0.0763 -0.0036  0.6218
 7083SOL    HW132885   4.351   2.809   7.380 -3.4024  0.2471  1.9686
 7083SOL    HW232886   4.445   2.904   7.437 -0.2032  0.2244  0.9454
 7084SOL     OW32887   4.087   4.690  14.892 -0.2830 -0.1230 -0.0946
 7084SOL    HW132888   4.148   4.641  14.946  1.4940 -1.1175 -3.0323
 7084SOL    HW232889   4.057   4.624  14.829  1.2407  0.9135 -1.9139
 7085SOL     OW32890   4.386   1.727   5.282  0.1207  0.0936  0.4131
 7085SOL    HW132891   4.411   1.776   5.203 -1.7660  1.7285  0.8393
 7085SOL    HW232892   4.291   1.726   5.264  0.0338  2.7450  0.7943
 7086SOL     OW32893   1.724   1.843   2.132  0.0326 -0.4407 -0.0385
 7086SOL    HW132894   1.638   1.840   2.174  0.4756 -1.4865  0.7824
 7086SOL    HW232895   1.777   1.826   2.210  1.8529  1.5241 -0.8473
 7087SOL     OW32896   3.985   3.506  10.621  0.5391  0.0267  0.8207
 7087SOL    HW132897   4.069   3.490  10.663  0.3564 -3.6060 -0.1430
 7087SOL    HW232898   3.977   3.590  10.665 -1.9182  0.0460  0.3654
 7088SOL     OW32899   1.256   0.983   5.020  0.4973  0.4397 -0.3003
 7088SOL    HW132900   1.257   0.931   5.100  1.0224  1.3355  0.2642
 7088SOL    HW232901   1.167   1.018   5.029  0.7655  1.0512 -0.0101
 7089SOL     OW32902   2.501   0.319  10.572 -0.2698  0.5102 -0.6654
 7089SOL    HW132903   2.540   0.274  10.498 -2.8840 -1.2435 -0.9658
 7089SOL    HW232904   2.577   0.347  10.623  0.3413 -2.2630 -0.0721
 7090SOL     OW32905   0.547   3.704   7.174 -0.2437 -0.2837 -0.3835
 7090SOL    HW132906   0.642   3.692   7.178 -0.0025  1.2039 -1.4870
 7090SOL    HW232907   0.526   3.708   7.267 -1.2673 -1.6317 -0.5530
 7091SOL     OW32908   0.765   2.255   5.618 -0.1879 -0.5802  0.6423
 7091SOL    HW132909   0.843   2.204   5.641 -0.1652 -0.7267  0.2396
 7091SOL    HW232910   0.773   2.334   5.671 -2.4651  0.9970 -1.3623
 7092SOL     OW32911   2.987   1.801   2.633  0.3855  0.8978 -0.8300
 7092SOL    HW132912   2.985   1.804   2.538  0.3570  1.9307 -0.7959
 7092SOL    HW232913   3.032   1.717   2.644  1.4838  1.6303  0.3168
 7093SOL     OW32914   2.957   3.839  10.945 -0.5676 -0.5288  1.0000
 7093SOL    HW132915   2.992   3.874  10.863 -1.4602  1.0451  1.2865
 7093SOL    HW232916   3.026   3.855  11.010  0.6721 -2.8410  0.2536
 7094SOL     OW32917   3.822   4.407   8.558  0.0422  0.4702 -0.7432
 7094SOL    HW132918   3.896   4.352   8.584 -1.1073  0.0162  1.5493
 7094SOL    HW232919   3.821   4.372   8.469 -0.3988 -0.2061 -0.4655
 7095SOL     OW32920   0.962   1.926   5.971  0.0937  0.1030  0.2745
 7095SOL    HW132921   1.003   1.865   5.909  2.3806  0.7911  1.1045
 7095SOL    HW232922   1.040   1.979   5.987  0.3230 -0.0267 -0.3915
 7096SOL     OW32923   0.045   4.426  15.464  0.3981 -0.1185  0.6374
 7096SOL    HW132924   0.043   4.336  15.432  0.9480  0.1124 -0.0265
 7096SOL    HW232925   0.139   4.439  15.476  0.3507 -0.1923  1.0753
 7097SOL     OW32926   3.553   3.034   6.531 -0.6509 -0.2865 -0.0651
 7097SOL    HW132927   3.533   3.099   6.599  0.2271  1.7678 -1.7687
 7097SOL    HW232928   3.509   3.080   6.459 -3.4543 -1.9034  0.6025
 7098SOL     OW32929   0.472   1.752   4.647 -0.0030  0.4073  0.3941
 7098SOL    HW132930   0.485   1.826   4.707  2.2570 -0.2515  0.7221
 7098SOL    HW232931   0.406   1.706   4.699  0.3083 -0.8361 -0.3290
 7099SOL     OW32932   0.428   0.079   6.326 -0.4235 -0.0312 -0.0045
 7099SOL    HW132933   0.417   0.126   6.409  1.0184  0.3459 -0.0332
 7099SOL    HW232934   0.378   4.734   6.337  0.9752 -0.7971  0.6023
 7100SOL     OW32935   0.236   4.072   8.055  0.2993  0.0763  0.0616
 7100SOL    HW132936   0.327   4.098   8.039  1.4829 -2.5736  2.3643
 7100SOL    HW232937   0.242   3.984   8.018 -1.2015  0.0321 -0.0890
 7101SOL     OW32938   0.685   4.643   6.747 -0.7498 -0.2521 -0.5250
 7101SOL    HW132939   0.749   4.713   6.733  0.0773 -0.7176  0.9881
 7101SOL    HW232940   0.672   4.608   6.659  0.2963 -0.5119 -0.5758
 7102SOL     OW32941   1.043   1.082   7.199 -0.2850 -0.1843  0.3802
 7102SOL    HW132942   1.063   1.153   7.261  1.4849 -0.8877  0.6183
 7102SOL    HW232943   1.064   1.131   7.120 -3.2558 -2.2838 -1.6880
 7103SOL     OW32944   3.631   1.641   5.233  0.3160  0.0353  0.2726
 7103SOL    HW132945   3.661   1.728   5.207  0.4615 -0.0563  0.1300
 7103SOL    HW232946   3.646   1.591   5.153  0.5244  0.4609  0.0427
 7104SOL     OW32947   0.164   0.311   6.732 -0.3414  0.2628 -0.8044
 7104SOL    HW132948   0.131   0.397   6.706  0.1839  0.0709 -2.1190
 7104SOL    HW232949   0.240   0.319   6.674  1.5119  1.9482  1.8768
 7105SOL     OW32950   2.242   0.339   1.987 -0.1753 -0.1124  0.3183
 7105SOL    HW132951   2.213   0.323   2.077 -1.4369 -0.7147 -0.1937
 7105SOL    HW232952   2.237   0.435   1.981  0.8562 -0.0575  0.3559
 7106SOL     OW32953   0.866   2.940   3.425 -0.1462  0.3086  0.0573
 7106SOL    HW132954   0.804   2.878   3.463  0.1067 -1.2909 -2.2024
 7106SOL    HW232955   0.911   2.883   3.363  0.4332  2.5997 -1.6033
 7107SOL     OW32956   1.066   2.885   0.269  0.0669  0.7717  0.0016
 7107SOL    HW132957   0.979   2.850   0.254  0.8156 -0.6046 -1.0572
 7107SOL    HW232958   1.038   2.976   0.281  0.4811  0.5948  2.3664
 7108SOL     OW32959   0.366   4.474   8.083  0.3471 -0.0348 -0.3352
 7108SOL    HW132960   0.306   4.483   8.156  0.8429  1.8817 -0.1803
 7108SOL    HW232961   0.302   4.474   8.012 -0.5253  0.8159  0.4458
 7109SOL     OW32962   0.945   0.893  13.103  0.3740  0.4587  0.1275
 7109SOL    HW132963   0.994   0.904  13.021  0.7299 -0.1267  0.2604
 7109SOL    HW232964   0.865   0.852  13.070 -0.4101  1.4868  0.7507
 7110SOL     OW32965   3.359   3.203   6.362  0.0362  0.1204  0.1467
 7110SOL    HW132966   3.328   3.293   6.362 -1.0463 -0.2553 -1.0801
 7110SOL    HW232967   3.361   3.200   6.267 -3.7996  1.5252 -0.0065
 7111SOL     OW32968   1.010   2.042  17.114 -0.4206  0.6105 -0.1656
 7111SOL    HW132969   0.990   1.972  17.177  0.0506  1.2875  0.7393
 7111SOL    HW232970   1.021   1.985  17.038  1.9218  1.0698 -0.1757
 7112SOL     OW32971   1.022   3.388   8.945 -0.2135 -0.1425 -0.0081
 7112SOL    HW132972   1.005   3.330   9.019 -0.1652 -0.5050 -0.2757
 7112SOL    HW232973   0.986   3.473   8.971  1.5305  0.2876  0.9434
 7113SOL     OW32974   2.410   4.697   1.726 -0.0965  0.2995 -0.1817
 7113SOL    HW132975   2.403   4.629   1.793  1.4427  0.6731  0.3714
 7113SOL    HW232976   2.430   0.041   1.774 -0.1096  1.3731 -1.9886
 7114SOL     OW32977   0.740   0.580   3.026  0.1006 -0.0780 -0.1957
 7114SOL    HW132978   0.738   0.493   3.067  0.2708  0.6559  1.3728
 7114SOL    HW232979   0.654   0.573   2.985  0.5840  0.2095 -1.2433
 7115SOL     OW32980   3.605   3.858   1.698  0.0095  0.0212  0.3045
 7115SOL    HW132981   3.699   3.843   1.693  0.1085  0.1151  1.9787
 7115SOL    HW232982   3.584   3.867   1.604  2.9863  1.8142 -0.1768
 7116SOL     OW32983   2.999   3.101   0.491 -0.4929  0.2317  0.0263
 7116SOL    HW132984   2.938   3.174   0.504 -0.1981  0.7347 -1.3696
 7116SOL    HW232985   3.044   3.137   0.414 -1.6274 -1.4504 -1.4169
 7117SOL     OW32986   2.775   4.636   0.334  0.0842  0.3857  0.5897
 7117SOL    HW132987   2.823   4.569   0.382 -0.8636 -0.7679 -0.0740
 7117SOL    HW232988   2.806   4.625   0.244  0.6770  0.2686  0.8090
 7118SOL     OW32989   3.200   3.581   7.665 -0.1404 -0.0258  0.0619
 7118SOL    HW132990   3.162   3.612   7.583 -0.1951  1.7116  0.7408
 7118SOL    HW232991   3.216   3.662   7.715 -0.5199 -0.0621  0.2408
 7119SOL     OW32992   1.002   4.070   7.599  0.6300 -0.2986  0.0225
 7119SOL    HW132993   1.062   4.126   7.647  0.6054  0.5117 -0.8972
 7119SOL    HW232994   1.011   4.106   7.511 -0.5611 -0.9762 -0.3778
 7120SOL     OW32995   2.164   0.573  13.168 -0.2453  0.3190  0.3287
 7120SOL    HW132996   2.152   0.588  13.074 -1.3554 -2.9563 -0.0424
 7120SOL    HW232997   2.188   0.663  13.191 -3.1909  0.4436  2.8328
 7121SOL     OW32998   4.660   4.649   4.645 -0.1521  0.1777  0.1816
 7121SOL    HW132999   4.576   4.692   4.656 -0.0820  0.2992  0.2362
 7121SOL    HW233000   4.673   4.627   4.553 -2.2299  0.0248 -0.0679
 7122SOL     OW33001   3.177   2.017  16.525 -0.9006  0.2661  0.0314
 7122SOL    HW133002   3.207   2.092  16.474  1.3780  0.2114  1.3012
 7122SOL    HW233003   3.198   2.046  16.614  1.3195  3.0409 -1.4188
 7123SOL     OW33004   3.588   2.615   3.706  0.9697 -0.1705 -0.2516
 7123SOL    HW133005   3.633   2.635   3.624  2.2311 -3.0003 -0.2251
 7123SOL    HW233006   3.576   2.701   3.746  1.3537  1.2558 -3.1458
 7124SOL     OW33007   2.246   0.295   5.415  0.3431 -0.0166  0.2134
 7124SOL    HW133008   2.312   0.273   5.481 -0.1299  0.0015  0.6933
 7124SOL    HW233009   2.275   0.242   5.340 -0.6077  2.3987 -1.8600
 7125SOL     OW33010   1.465   2.681  13.832  0.0236 -0.0151  0.3046
 7125SOL    HW133011   1.444   2.742  13.903  2.1992  0.3725  0.6034
 7125SOL    HW233012   1.545   2.718  13.794 -0.0728  0.8598  0.9594
 7126SOL     OW33013   0.429   4.336   2.219  0.1095  0.0020 -0.3900
 7126SOL    HW133014   0.356   4.278   2.242 -0.5076  1.2198  0.6714
 7126SOL    HW233015   0.399   4.424   2.199  2.1848  1.2200  1.8807
 7127SOL     OW33016   0.832   3.934   4.618  0.1672  0.1492  0.2311
 7127SOL    HW133017   0.849   4.028   4.611  0.5616  0.0346 -0.3637
 7127SOL    HW233018   0.871   3.895   4.540 -0.9757 -0.8847  0.1804
 7128SOL     OW33019   0.505   1.021   8.595 -0.0275 -0.1341 -0.3218
 7128SOL    HW133020   0.410   1.025   8.607  0.2124  1.2903  1.1487
 7128SOL    HW233021   0.528   1.095   8.651 -1.7636  2.0269 -2.4215
 7129SOL     OW33022   0.457   1.103   9.257 -0.1020  0.1991 -0.1754
 7129SOL    HW133023   0.467   1.035   9.323 -0.4056 -0.2395 -0.5808
 7129SOL    HW233024   0.538   1.100   9.206  0.1154  1.1049  0.1124
 7130SOL     OW33025   0.978   3.852   7.890 -0.4918 -0.0111 -0.1083
 7130SOL    HW133026   1.022   3.840   7.805 -0.0482  0.6001  0.0349
 7130SOL    HW233027   0.968   3.945   7.908  1.5242  0.3037 -0.5925
 7131SOL     OW33028   4.294   2.998   4.528  0.3950 -0.1354 -0.0823
 7131SOL    HW133029   4.337   2.972   4.609  2.5783  1.1548 -0.8255
 7131SOL    HW233030   4.282   2.915   4.482  1.7089 -1.2464  1.6240
 7132SOL     OW33031   0.193   4.576  15.134  0.0110  0.2916 -0.6685
 7132SOL    HW133032   0.279   4.582  15.175 -0.7766 -0.2110  1.0690
 7132SOL    HW233033   0.199   4.488  15.098  0.3694 -0.4550  1.1990
 7133SOL     OW33034   4.280   3.343  12.597  0.5423  0.0424  0.3383
 7133SOL    HW133035   4.339   3.357  12.523 -0.0363 -1.9496 -0.4943
 7133SOL    HW233036   4.238   3.429  12.603 -0.1328 -0.3789  1.5388
 7134SOL     OW33037   4.563   4.513  15.606  0.2837 -0.2119  0.0089
 7134SOL    HW133038   4.635   4.486  15.549 -0.9133 -1.3876 -0.9521
 7134SOL    HW233039   4.606   4.568  15.671  0.7131 -0.4654 -0.0640
 7135SOL     OW33040   0.963   2.401  13.519  0.0292 -0.0190  0.1082
 7135SOL    HW133041   0.920   2.315  13.524  2.9731 -1.5812 -1.5155
 7135SOL    HW233042   1.049   2.378  13.485 -0.0513  0.4340 -0.3968
 7136SOL     OW33043   4.676   1.721   2.458 -0.6641 -0.8157  0.8136
 7136SOL    HW133044   4.584   1.716   2.432 -0.8620  1.1369  1.1305
 7136SOL    HW233045   4.714   1.664   2.391  1.1855  1.2373  0.1535
 7137SOL     OW33046   4.140   0.895  15.409  0.0514  0.3947  0.5341
 7137SOL    HW133047   4.193   0.919  15.333 -1.5850  1.5647 -0.2130
 7137SOL    HW233048   4.199   0.896  15.485  1.4891 -0.1323 -0.5695
 7138SOL     OW33049   4.701   0.381   5.692  0.6778  0.3392  0.7039
 7138SOL    HW133050   4.606   0.372   5.703  0.5703  1.3592  0.6359
 7138SOL    HW233051   4.712   0.439   5.616  0.0927  0.0891  0.4278
 7139SOL     OW33052   1.743   0.734   6.866  0.1166  0.7926  0.3822
 7139SOL    HW133053   1.721   0.826   6.882  0.7159  0.9042  0.5588
 7139SOL    HW233054   1.837   0.746   6.862  0.5129 -2.2765  0.4355
 7140SOL     OW33055   3.444   1.944   4.197  0.2926  0.3163  0.1204
 7140SOL    HW133056   3.503   1.931   4.122  0.5815 -0.1654  0.4281
 7140SOL    HW233057   3.504   1.991   4.255 -0.6738 -0.5588  1.8076
 7141SOL     OW33058   0.650   4.320   4.983 -0.4051  0.6542 -0.4662
 7141SOL    HW133059   0.580   4.385   4.975 -2.5835 -1.5534  0.5737
 7141SOL    HW233060   0.621   4.273   5.061  0.1751 -0.1461 -0.7349
 7142SOL     OW33061   1.982   1.702   5.366 -0.1640 -0.4615 -0.5901
 7142SOL    HW133062   1.940   1.769   5.312  0.0441  0.9687  1.0489
 7142SOL    HW233063   1.905   1.661   5.407 -0.1543 -0.3513 -0.4619
 7143SOL     OW33064   3.831   3.507   0.335 -0.2186 -0.4137  0.0140
 7143SOL    HW133065   3.770   3.472   0.270  0.4033 -0.3440 -0.6157
 7143SOL    HW233066   3.784   3.509   0.418  0.7091  1.0276  0.4907
 7144SOL     OW33067   3.602   1.361  11.684 -0.2306  0.2792  0.1756
 7144SOL    HW133068   3.566   1.332  11.768  1.2438 -0.6980  0.4539
 7144SOL    HW233069   3.697   1.362  11.694  0.0260 -2.0157 -2.2021
 7145SOL     OW33070   4.011   3.030   8.901  0.3956  0.0655  0.6604
 7145SOL    HW133071   3.944   2.977   8.944 -1.0634 -0.6468 -2.5116
 7145SOL    HW233072   4.094   2.986   8.920  0.9835  1.8060  2.1098
 7146SOL     OW33073   0.309   0.814   1.811 -0.5581 -0.1178 -0.2071
 7146SOL    HW133074   0.389   0.827   1.862 -0.8751 -0.8434  0.4600
 7146SOL    HW233075   0.270   0.748   1.868 -1.5616 -0.8129 -1.7092
 7147SOL     OW33076   3.513   1.462   5.381 -0.0896 -0.0288  0.1446
 7147SOL    HW133077   3.573   1.438   5.451  0.9733 -0.7804 -1.0245
 7147SOL    HW233078   3.554   1.536   5.336 -0.1808 -1.2457 -1.9622
 7148SOL     OW33079   2.359   0.436   3.119  0.3170 -0.0898 -0.0481
 7148SOL    HW133080   2.371   0.503   3.052 -2.2393  2.3999  1.9842
 7148SOL    HW233081   2.437   0.437   3.175 -0.0159 -1.7549  0.4540
 7149SOL     OW33082   4.301   0.780   6.525  0.2434  0.3139  0.0970
 7149SOL    HW133083   4.268   0.789   6.615 -2.0544  3.3307 -1.0212
 7149SOL    HW233084   4.269   0.865   6.493  0.0343  0.0926 -0.2782
 7150SOL     OW33085   0.665   4.273  15.608 -0.7175 -0.3131 -0.3458
 7150SOL    HW133086   0.679   4.361  15.642  0.2078  0.1391 -1.8795
 7150SOL    HW233087   0.752   4.233  15.611 -1.2325 -1.4606 -0.4971
 7151SOL     OW33088   0.146   3.948  11.338 -0.3160 -0.1209 -0.2368
 7151SOL    HW133089   0.167   3.888  11.410  1.3651 -0.3377 -0.9035
 7151SOL    HW233090   0.122   3.889  11.267 -1.0972  0.6792 -0.6347
 7152SOL     OW33091   3.119   1.806   3.015  0.4415  0.5003  0.2728
 7152SOL    HW133092   3.108   1.893   2.977 -0.8576  0.3552  0.3285
 7152SOL    HW233093   3.207   1.814   3.053  0.7452 -1.2401 -0.0705
 7153SOL     OW33094   1.438   0.061  10.976  0.5349  0.3052 -0.2709
 7153SOL    HW133095   1.434   0.151  11.008 -3.1077  0.3451 -0.8436
 7153SOL    HW233096   1.513   0.063  10.917  0.3432 -0.2905 -0.5403
 7154SOL     OW33097   1.647   3.653   9.015  0.2772  0.1694 -0.4336
 7154SOL    HW133098   1.735   3.663   9.052 -0.9564  1.6823  2.1582
 7154SOL    HW233099   1.593   3.705   9.074  1.7766 -0.0144  1.1157
 7155SOL     OW33100   3.970   1.545   2.063 -0.3173 -0.0440 -0.3232
 7155SOL    HW133101   3.948   1.526   1.972 -0.7212 -0.0986 -0.2174
 7155SOL    HW233102   3.952   1.639   2.070 -1.3160 -0.2410 -0.2752
 7156SOL     OW33103   4.062   0.045   7.517  0.2299 -0.4492 -0.3125
 7156SOL    HW133104   3.995   0.091   7.467 -0.2786 -0.3476  0.4593
 7156SOL    HW233105   4.082   4.704   7.463  1.0361 -1.5523  1.5375
 7157SOL     OW33106   1.146   3.371   5.573  0.0076  0.2498  0.3271
 7157SOL    HW133107   1.231   3.328   5.570 -0.6325 -0.9875  0.1304
 7157SOL    HW233108   1.083   3.300   5.585  0.9116 -0.6530 -0.2709
 7158SOL     OW33109   3.328   0.473   7.026 -0.4034 -1.0913 -0.0074
 7158SOL    HW133110   3.367   0.393   7.063 -0.5220 -1.3078 -0.3455
 7158SOL    HW233111   3.292   0.435   6.946 -2.0579  1.9216 -0.6875
 7159SOL     OW33112   1.001   1.065   5.027  0.3172  0.1962 -0.6158
 7159SOL    HW133113   0.949   1.008   5.084 -0.6977  0.6828 -1.0550
 7159SOL    HW233114   0.935   1.123   4.989  0.1908  0.2134 -0.3706
 7160SOL     OW33115   2.010   2.301   1.544 -0.0130 -0.2446  0.7713
 7160SOL    HW133116   1.919   2.274   1.543 -0.5644  1.6161  0.9479
 7160SOL    HW233117   2.037   2.294   1.636  0.4769  1.4111  0.7518
 7161SOL     OW33118   1.403   2.628   8.016 -0.2622  0.3402 -0.3765
 7161SOL    HW133119   1.358   2.609   8.098  0.7112  1.0974  0.3343
 7161SOL    HW233120   1.361   2.560   7.963 -0.7443  0.3777 -0.0376
 7162SOL     OW33121   3.666   0.037  14.707  0.6033  0.6536  0.5361
 7162SOL    HW133122   3.638   0.128  14.718 -0.9483  0.2702 -0.1290
 7162SOL    HW233123   3.723   0.055  14.632  1.0832  2.6174  1.3832
 7163SOL     OW33124   1.853   3.754  16.787  0.0073 -0.2375  0.1848
 7163SOL    HW133125   1.793   3.680  16.785 -0.3713  0.0592  0.7091
 7163SOL    HW233126   1.925   3.731  16.846 -0.2115 -1.3291  0.0247
 7164SOL     OW33127   3.067   0.113   7.317  0.4863  0.1891  0.0867
 7164SOL    HW133128   3.160   0.089   7.320  1.0990  2.4451 -0.8304
 7164SOL    HW233129   3.085   0.204   7.294  2.0969 -0.8189 -2.5509
 7165SOL     OW33130   2.473   2.312   1.268  0.0026  0.4621  0.4233
 7165SOL    HW133131   2.439   2.377   1.207  2.2905 -1.1146 -2.5355
 7165SOL    HW233132   2.442   2.231   1.228  0.4932 -0.0520  1.0813
 7166SOL     OW33133   0.305   0.530   3.684 -0.1338  0.0443 -0.1807
 7166SOL    HW133134   0.293   0.508   3.592  0.3310  0.1275 -0.2645
 7166SOL    HW233135   0.398   0.508   3.694  0.6970  2.3678 -2.8456
 7167SOL     OW33136   0.060   2.851   2.795  0.5051 -0.0681 -0.0999
 7167SOL    HW133137   4.719   2.799   2.815 -0.1530  0.5551 -0.9703
 7167SOL    HW233138   0.028   2.941   2.788 -1.2150 -0.8081 -1.6489
 7168SOL     OW33139   1.020   3.577   6.358 -0.2232 -0.4229  0.5511
 7168SOL    HW133140   1.085   3.552   6.424  2.9160  0.2829 -2.2831
 7168SOL    HW233141   1.074   3.621   6.293 -0.2817  1.0623  1.4972
 7169SOL     OW33142   0.428   0.367   8.647  0.5193 -0.3311  0.4921
 7169SOL    HW133143   0.391   0.445   8.607  1.0155  0.6690  1.9971
 7169SOL    HW233144   0.488   0.342   8.576  0.1278 -1.2353  0.4782
 7170SOL     OW33145   0.566   0.472   3.695  0.1433 -0.7116 -0.2313
 7170SOL    HW133146   0.656   0.459   3.723  0.3192  1.7038  0.2770
 7170SOL    HW233147   0.592   0.493   3.606  0.7617 -0.3624  0.0378
 7171SOL     OW33148   2.141   0.451   1.486  0.3844 -0.6774  0.5040
 7171SOL    HW133149   2.097   0.481   1.406  2.6942  1.2410 -0.0370
 7171SOL    HW233150   2.226   0.437   1.445  0.0752  1.8506 -1.0515
 7172SOL     OW33151   4.554   0.779  14.323 -0.3694  0.1031 -0.0327
 7172SOL    HW133152   4.513   0.748  14.404 -0.0901 -3.0202 -1.0879
 7172SOL    HW233153   4.487   0.845  14.305  0.0294  0.2488 -1.0013
 7173SOL     OW33154   0.045   2.937   7.129  0.1075 -0.1543 -0.0470
 7173SOL    HW133155   0.046   3.025   7.168 -0.4511 -1.1328  2.2186
 7173SOL    HW233156   4.689   2.909   7.128  0.1388 -0.3553  1.5712
 7174SOL     OW33157   1.338   3.524  14.891  0.4773  0.2033  0.5607
 7174SOL    HW133158   1.398   3.571  14.949  0.9440  2.1397 -1.5067
 7174SOL    HW233159   1.257   3.531  14.943 -0.8302  1.1189 -1.5853
 7175SOL     OW33160   4.376   3.428   6.945  0.2319  0.3147  0.3368
 7175SOL    HW133161   4.389   3.480   7.025  1.0499 -1.6141  1.4644
 7175SOL    HW233162   4.285   3.400   6.956 -0.8427  3.2281 -1.3242
 7176SOL     OW33163   3.168   0.011   6.560  0.4992  0.2761  0.5411
 7176SOL    HW133164   3.255   4.716   6.537  0.3090  1.4743 -1.7724
 7176SOL    HW233165   3.133   4.658   6.570 -2.7250  1.2252 -2.5111
 7177SOL     OW33166   0.113   2.043   6.985  0.0197 -0.1980 -0.0246
 7177SOL    HW133167   0.129   2.024   6.893  0.3946  0.7821 -0.1665
 7177SOL    HW233168   0.154   2.129   6.998  0.4891 -0.1937 -1.5889
 7178SOL     OW33169   3.536   0.856  10.598  0.0020 -0.2250  0.2334
 7178SOL    HW133170   3.467   0.849  10.664  0.7288 -0.6059  0.9542
 7178SOL    HW233171   3.591   0.782  10.623  0.9156  1.2829  2.6414
 7179SOL     OW33172   0.954   4.257   2.376  0.3910  0.1604  0.5743
 7179SOL    HW133173   1.024   4.245   2.311  1.0521 -1.2734  1.5511
 7179SOL    HW233174   0.990   4.319   2.439  1.0274  0.8709 -0.4892
 7180SOL     OW33175   3.762   4.021   5.044  0.1073  0.2255  0.7721
 7180SOL    HW133176   3.727   4.100   5.002 -1.8439 -0.6826  0.6821
 7180SOL    HW233177   3.677   4.003   5.084  0.2439 -0.1316  0.8968
 7181SOL     OW33178   3.134   3.791   2.628  0.3444  0.0232  0.2560
 7181SOL    HW133179   3.116   3.844   2.706 -3.2938 -1.6867  0.5643
 7181SOL    HW233180   3.042   3.787   2.604 -0.0988  0.7978  1.8705
 7182SOL     OW33181   3.728   0.647   0.847 -0.5063 -0.4758 -0.0052
 7182SOL    HW133182   3.791   0.719   0.852 -0.5472 -0.4936  0.7556
 7182SOL    HW233183   3.785   0.575   0.818  0.7470  0.7288 -0.5161
 7183SOL     OW33184   4.325   3.032  13.238 -0.2065  0.1730 -0.3467
 7183SOL    HW133185   4.267   3.087  13.291 -2.4378 -2.0090 -0.5161
 7183SOL    HW233186   4.264   2.977  13.187 -1.0746  1.6627 -0.9191
 7184SOL     OW33187   2.871   2.828   5.317 -0.0029 -0.2952 -0.4665
 7184SOL    HW133188   2.878   2.919   5.345 -1.8007 -0.4623  0.5295
 7184SOL    HW233189   2.962   2.812   5.294 -0.0004  1.9312 -1.9343
 7185SOL     OW33190   1.049   3.138  16.679 -0.4266 -0.1383  0.5799
 7185SOL    HW133191   1.097   3.191  16.741 -2.7521  0.8760  1.5241
 7185SOL    HW233192   1.040   3.057  16.729 -2.3777 -1.0039 -1.1148
 7186SOL     OW33193   4.070   3.894   0.604  0.2728 -0.3169 -0.7532
 7186SOL    HW133194   4.032   3.981   0.596  0.4872 -0.2361 -0.8854
 7186SOL    HW233195   4.032   3.838   0.536 -1.0045 -0.3104 -0.0370
 7187SOL     OW33196   1.242   2.568  14.413  0.0172 -0.6280  0.3376
 7187SOL    HW133197   1.263   2.483  14.375 -0.2303 -0.7675  0.5088
 7187SOL    HW233198   1.156   2.592  14.377  0.5296  0.4123 -0.1874
 7188SOL     OW33199   3.693   1.515   4.951  0.3252 -0.6394  0.0620
 7188SOL    HW133200   3.693   1.440   4.892 -0.5172  0.3542 -1.2094
 7188SOL    HW233201   3.601   1.538   4.960  0.6304  0.6894 -0.1021
 7189SOL     OW33202   2.312   0.300   9.682  0.0588 -0.4343  0.3209
 7189SOL    HW133203   2.231   0.274   9.638  0.0335 -1.0535  0.7240
 7189SOL    HW233204   2.372   0.293   9.608  0.9671  1.4074  0.8949
 7190SOL     OW33205   4.514   1.839   5.554 -0.1730 -0.8827  0.1920
 7190SOL    HW133206   4.444   1.816   5.493  0.2688 -0.7901 -0.3515
 7190SOL    HW233207   4.479   1.922   5.588  0.9573  0.9218 -3.0987
 7191SOL     OW33208   3.214   4.536   8.827 -0.2202  0.2930  0.1574
 7191SOL    HW133209   3.258   4.492   8.754 -1.1370 -1.8776  0.9253
 7191SOL    HW233210   3.292   4.570   8.871 -0.2372  1.8695 -1.0190
 7192SOL     OW33211   3.168   3.834   8.055 -0.1544 -0.2883 -0.0994
 7192SOL    HW133212   3.212   3.829   8.139  1.5516 -0.5329 -1.0119
 7192SOL    HW233213   3.098   3.770   8.068  0.8644 -0.7233  3.2946
 7193SOL     OW33214   2.505   0.750   8.502  0.1044  0.4832  0.1549
 7193SOL    HW133215   2.459   0.704   8.431 -1.9104 -0.0693  1.8286
 7193SOL    HW233216   2.438   0.817   8.516  0.4810  1.3224 -2.0366
 7194SOL     OW33217   2.522   1.713   5.010 -0.3681 -0.0616 -0.1765
 7194SOL    HW133218   2.493   1.754   5.092  1.2059 -0.1707  0.4473
 7194SOL    HW233219   2.596   1.656   5.033  2.1761  2.7631 -1.4543
 7195SOL     OW33220   4.277   3.385   7.825 -0.1461  0.2924 -0.0773
 7195SOL    HW133221   4.228   3.324   7.770 -1.1995  0.3536  0.8075
 7195SOL    HW233222   4.208   3.405   7.888  1.5300  1.5222  1.3666
 7196SOL     OW33223   4.098   4.355   4.044  0.2803 -0.2746  0.1232
 7196SOL    HW133224   4.085   4.432   4.100 -1.4090  1.0822 -2.1025
 7196SOL    HW233225   4.022   4.361   3.986  0.9364  0.7309 -0.6363
 7197SOL     OW33226   0.197   1.394   6.698 -0.5072  0.4610 -0.2855
 7197SOL    HW133227   0.175   1.480   6.732  0.6595  0.1132  1.3315
 7197SOL    HW233228   0.275   1.420   6.649 -1.1448  1.1849 -0.9227
 7198SOL     OW33229   1.908   2.237   2.273  0.4978  0.0564 -0.4587
 7198SOL    HW133230   1.935   2.149   2.300  0.0272  0.5533  1.5933
 7198SOL    HW233231   1.984   2.264   2.221 -0.2727  1.6169 -0.7609
 7199SOL     OW33232   1.175   2.141   9.009 -0.2777  0.5784 -0.1029
 7199SOL    HW133233   1.146   2.054   8.984 -1.3924  1.0814 -0.5932
 7199SOL    HW233234   1.172   2.140   9.105 -0.6576  2.8547 -0.0847
 7200SOL     OW33235   2.782   4.536  12.424  0.2765 -0.1839  0.0887
 7200SOL    HW133236   2.790   4.454  12.375 -3.2793  0.6176 -1.8177
 7200SOL    HW233237   2.687   4.532  12.440  0.2534 -1.4340 -0.3357
 7201SOL     OW33238   1.503   4.699   5.470  0.3112  0.2423 -0.1355
 7201SOL    HW133239   1.431   4.655   5.515  0.4149 -2.4322 -2.5219
 7201SOL    HW233240   1.574   4.687   5.534 -0.7002  0.8575  1.0805
 7202SOL     OW33241   1.973   3.688   9.533  0.0650 -0.3976 -0.3607
 7202SOL    HW133242   1.989   3.741   9.611  2.4635  1.2492 -1.9644
 7202SOL    HW233243   1.896   3.639   9.561 -0.1905  1.2772  1.8486
 7203SOL     OW33244   4.647   2.814   8.506  0.1512 -0.2481  0.2863
 7203SOL    HW133245   4.635   2.752   8.578  1.0977 -0.8507 -0.0573
 7203SOL    HW233246   4.716   2.770   8.456  0.6785 -0.0743  0.8504
 7204SOL     OW33247   2.437   0.768   5.123 -0.1186 -0.1871  0.3480
 7204SOL    HW133248   2.346   0.799   5.122 -0.1059 -0.2229 -1.6178
 7204SOL    HW233249   2.480   0.851   5.141 -0.1522 -0.3551  1.2310
 7205SOL     OW33250   0.430   0.957  10.000  0.1391  0.9585 -0.2166
 7205SOL    HW133251   0.426   0.866  10.027 -1.4530  1.1717  0.2648
 7205SOL    HW233252   0.423   1.000  10.085  2.0205 -0.5312  0.6701
 7206SOL     OW33253   3.096   3.471   2.720  0.3648  0.2271 -0.3070
 7206SOL    HW133254   3.091   3.398   2.782 -0.0193 -0.8543 -1.6197
 7206SOL    HW233255   3.078   3.546   2.777 -2.2829  0.2411 -1.1494
 7207SOL     OW33256   0.497   1.007  17.309 -0.2359  0.6694 -0.3191
 7207SOL    HW133257   0.498   1.017  17.214  1.7545  1.6736 -0.1851
 7207SOL    HW233258   0.590   1.004  17.331 -0.0894  2.6613 -0.6493
 7208SOL     OW33259   1.253   0.233   9.227  0.1949  0.3678  0.6528
 7208SOL    HW133260   1.243   0.264   9.317  2.8264 -0.9765  1.4136
 7208SOL    HW233261   1.165   0.208   9.201  0.0178  0.5446  1.0785
 7209SOL     OW33262   1.077   3.315  16.188 -0.0397 -0.1089 -0.8581
 7209SOL    HW133263   1.051   3.264  16.265  0.3850 -0.8394 -1.1973
 7209SOL    HW233264   1.156   3.267  16.162  2.8251  3.2825  1.5347
 7210SOL     OW33265   3.734   2.060   3.662 -0.0753 -0.3511  0.2243
 7210SOL    HW133266   3.701   2.067   3.572 -1.6832 -0.3342  0.8125
 7210SOL    HW233267   3.801   1.992   3.650  0.0124 -0.1982 -0.1586
 7211SOL     OW33268   1.205   4.279  14.108 -0.1859  0.5284  0.0517
 7211SOL    HW133269   1.275   4.332  14.070  0.4040 -2.0477 -2.5138
 7211SOL    HW233270   1.235   4.191  14.084 -0.1259  0.7799 -0.8111
 7212SOL     OW33271   3.614   3.437   9.123 -0.5674 -0.1582 -0.7126
 7212SOL    HW133272   3.545   3.451   9.058 -0.5719 -2.8812 -1.2892
 7212SOL    HW233273   3.652   3.355   9.091 -1.1569 -0.4758 -0.6112
 7213SOL     OW33274   2.429   4.043   3.293  0.3212  1.0311  0.5812
 7213SOL    HW133275   2.380   3.963   3.311 -0.5621  0.8182 -2.7781
 7213SOL    HW233276   2.494   4.047   3.363  1.9127  1.1868 -0.9172
 7214SOL     OW33277   1.044   3.901   1.612  0.2526 -0.0170  0.0054
 7214SOL    HW133278   1.114   3.840   1.589  1.2463  0.7746  0.9600
 7214SOL    HW233279   1.087   3.986   1.623 -0.3114  0.3349 -0.5019
 7215SOL     OW33280   2.075   3.628   3.676  0.0946 -0.2565 -0.3982
 7215SOL    HW133281   2.164   3.659   3.661 -0.4146  0.9623 -0.9095
 7215SOL    HW233282   2.047   3.698   3.736  3.5467 -0.0772  1.0193
 7216SOL     OW33283   4.329   2.182   5.233  0.5396  0.4498 -1.2962
 7216SOL    HW133284   4.372   2.160   5.316 -1.3119  1.2888 -0.1229
 7216SOL    HW233285   4.356   2.274   5.230  0.2973  0.6230  1.5460
 7217SOL     OW33286   4.390   1.410  14.663  0.7082 -0.2496  0.2718
 7217SOL    HW133287   4.360   1.361  14.739 -1.1954  1.4300  0.5895
 7217SOL    HW233288   4.407   1.341  14.599 -2.4941 -0.9129  0.1357
 7218SOL     OW33289   1.202   0.308   0.493  0.3322  0.2548 -0.5244
 7218SOL    HW133290   1.193   0.397   0.458 -1.9599 -0.2409 -1.1568
 7218SOL    HW233291   1.251   0.259   0.427  0.3926  1.5146 -1.4082
 7219SOL     OW33292   0.505   1.556   4.288 -0.2582  0.1308  0.0135
 7219SOL    HW133293   0.549   1.574   4.372 -0.1530  1.8881 -0.4156
 7219SOL    HW233294   0.573   1.509   4.241  0.0975 -0.5340  1.1806
 7220SOL     OW33295   1.224   0.925   2.938 -0.1323  0.2219  0.2224
 7220SOL    HW133296   1.152   0.960   2.991 -0.8447  1.0867 -1.3465
 7220SOL    HW233297   1.296   0.957   2.993  0.8394 -0.9766 -0.3786
 7221SOL     OW33298   3.173   1.118  16.052  0.5043 -0.0778  0.1298
 7221SOL    HW133299   3.218   1.033  16.055  1.9624  0.7218  1.0714
 7221SOL    HW233300   3.239   1.180  16.085  0.2768  0.1643  0.1266
 7222SOL     OW33301   2.321   1.126   0.757  0.0762 -0.0535  0.1817
 7222SOL    HW133302   2.304   1.209   0.801 -1.8857  0.5718 -1.7719
 7222SOL    HW233303   2.239   1.121   0.708 -0.1578 -1.3632  0.6979
 7223SOL     OW33304   1.348   3.254   6.645 -0.0468 -0.3613 -0.8038
 7223SOL    HW133305   1.321   3.189   6.710  0.4968  0.6484  0.4593
 7223SOL    HW233306   1.345   3.206   6.563 -0.8691  1.1214 -1.6355
 7224SOL     OW33307   2.425   3.774   6.955  0.2804  0.6833  0.0161
 7224SOL    HW133308   2.504   3.787   7.007 -0.7187 -0.2765  1.7760
 7224SOL    HW233309   2.358   3.820   7.006  0.7493  1.0288  0.3251
 7225SOL     OW33310   2.664   1.105   1.020  0.2196 -0.6678 -0.2997
 7225SOL    HW133311   2.634   1.015   1.005 -0.2657 -0.8948  1.9473
 7225SOL    HW233312   2.650   1.130   0.929 -0.1501 -1.2506 -0.4011
 7226SOL     OW33313   1.628   3.690   4.087 -0.1111  0.4878  0.2276
 7226SOL    HW133314   1.631   3.736   4.003 -0.0064  1.3768  0.7148
 7226SOL    HW233315   1.720   3.668   4.101  0.2704 -0.2571 -3.5793
 7227SOL     OW33316   2.582   1.238   5.400 -0.1504 -0.0047  0.4433
 7227SOL    HW133317   2.664   1.252   5.447  0.3313  0.1562 -0.4586
 7227SOL    HW233318   2.575   1.326   5.362 -0.3023  0.3021  1.1703
 7228SOL     OW33319   1.769   0.545   7.699 -0.3245 -0.2535  0.3448
 7228SOL    HW133320   1.858   0.512   7.712 -0.1346  0.9605  2.1594
 7228SOL    HW233321   1.716   0.465   7.696  0.4011 -0.6853 -1.0612
 7229SOL     OW33322   2.044   4.016   8.700  0.7608  0.0399 -0.3614
 7229SOL    HW133323   2.121   4.068   8.725 -0.5511  1.2050  1.2898
 7229SOL    HW233324   1.976   4.083   8.711  2.0951  1.4500 -0.6669
 7230SOL     OW33325   2.059   0.156   4.985  0.2101 -0.0462 -0.0304
 7230SOL    HW133326   2.055   0.246   4.952  0.2325  0.2031  0.6425
 7230SOL    HW233327   1.966   0.138   4.999  0.7137 -2.8697 -0.4117
 7231SOL     OW33328   0.443   3.123  11.917 -0.0749  0.2071 -0.2719
 7231SOL    HW133329   0.386   3.146  11.843 -1.5666 -1.6878  0.2820
 7231SOL    HW233330   0.450   3.211  11.954  2.4240  0.7323 -2.0075
 7232SOL     OW33331   3.293   2.405   3.000  0.2992  0.2736 -0.5980
 7232SOL    HW133332   3.224   2.400   2.934 -1.3153  1.5552  1.0029
 7232SOL    HW233333   3.248   2.406   3.084  0.2423  0.5047 -0.6323
 7233SOL     OW33334   2.797   0.816   6.681  0.0914 -0.6942 -0.0957
 7233SOL    HW133335   2.730   0.824   6.749  0.7758 -1.7647  0.7035
 7233SOL    HW233336   2.741   0.775   6.616 -2.1029  0.1690  1.2464
 7234SOL     OW33337   1.415   3.923   2.493 -0.0460  0.0662  0.5187
 7234SOL    HW133338   1.470   3.900   2.417 -0.8640 -2.0662  0.5689
 7234SOL    HW233339   1.405   4.018   2.486 -0.1691 -0.0403 -0.8412
 7235SOL     OW33340   3.894   3.235   4.348  0.0167  0.1583 -0.2824
 7235SOL    HW133341   3.949   3.238   4.427 -1.5132 -0.8833  0.8129
 7235SOL    HW233342   3.844   3.317   4.356  0.1919 -0.0086  2.6649
 7236SOL     OW33343   4.299   0.091   8.344  0.4325 -0.1612  0.0693
 7236SOL    HW133344   4.334   0.174   8.312  0.9473 -0.1509  0.6481
 7236SOL    HW233345   4.330   0.019   8.290  1.8453  0.7836 -0.3815
 7237SOL     OW33346   2.705   2.109   1.470 -0.0986 -0.1148  0.4995
 7237SOL    HW133347   2.786   2.104   1.522 -0.5508 -2.3305  0.9926
 7237SOL    HW233348   2.671   2.020   1.484  0.1974 -0.5328 -1.5063
 7238SOL     OW33349   0.018   0.157   4.386  0.0642  0.0555 -0.5559
 7238SOL    HW133350   4.717   0.155   4.474 -1.1790  0.7428 -1.0817
 7238SOL    HW233351   4.703   0.090   4.340 -1.3506 -0.9253  2.4608
 7239SOL     OW33352   2.586   2.863   3.882 -0.3538 -0.3045 -0.4243
 7239SOL    HW133353   2.502   2.847   3.924 -1.0595  0.0504 -1.6819
 7239SOL    HW233354   2.621   2.776   3.864 -0.5694 -0.5615  0.4486
 7240SOL     OW33355   2.470   2.610   4.553  0.0011 -0.0946  0.1001
 7240SOL    HW133356   2.438   2.594   4.642  0.7520  0.6045  0.4908
 7240SOL    HW233357   2.526   2.535   4.534 -2.1979 -1.6058 -0.4811
 7241SOL     OW33358   1.215   0.563   9.912 -0.1811  0.1592  0.2371
 7241SOL    HW133359   1.228   0.528   9.824  0.7480  2.2604 -0.4602
 7241SOL    HW233360   1.174   0.648   9.894  0.3969  0.2168 -0.7943
 7242SOL     OW33361   4.204   4.659  12.601 -0.3018  0.7878  0.3455
 7242SOL    HW133362   4.157   4.584  12.636  0.6548 -1.0281 -2.2528
 7242SOL    HW233363   4.289   4.646  12.643  0.7212  1.2796 -1.5948
 7243SOL     OW33364   2.495   2.427   4.768  0.0875 -0.4033 -0.3517
 7243SOL    HW133365   2.411   2.401   4.806 -0.2951  0.3019 -0.7135
 7243SOL    HW233366   2.546   2.424   4.849  0.3216  1.8639 -0.4190
 7244SOL     OW33367   1.613   3.687   9.326 -0.2602 -0.0482  0.0371
 7244SOL    HW133368   1.699   3.729   9.328 -0.8561  1.0411  2.8201
 7244SOL    HW233369   1.564   3.760   9.287 -0.8805 -1.0592 -1.0762
 7245SOL     OW33370   4.605   0.788   8.983  0.1528  0.1843  0.3268
 7245SOL    HW133371   4.609   0.692   8.993  2.9464  0.0680 -1.9657
 7245SOL    HW233372   4.618   0.819   9.072  0.7199  1.6167 -0.2691
 7246SOL     OW33373   0.541   2.579  10.112 -0.0720 -0.1020  0.8910
 7246SOL    HW133374   0.556   2.523  10.036  1.6354  2.2861 -0.5351
 7246SOL    HW233375   0.476   2.519  10.149 -1.8261  2.0797  1.3815
 7247SOL     OW33376   2.783   1.224  13.323 -0.1036 -0.5500 -0.0931
 7247SOL    HW133377   2.730   1.249  13.248 -0.1453  1.0004  0.4606
 7247SOL    HW233378   2.715   1.232  13.390  2.8611 -0.8788  2.9635
 7248SOL     OW33379   3.100   1.244  16.461 -0.1679  0.3969 -0.2592
 7248SOL    HW133380   3.007   1.269  16.457 -0.9905 -2.3815  1.0625
 7248SOL    HW233381   3.144   1.328  16.469  0.1410  0.2631 -0.5558
 7249SOL     OW33382   0.317   2.193  17.622  0.0742 -0.1559 -0.3194
 7249SOL    HW133383   0.371   2.272  17.623 -3.5987  2.3713 -2.3712
 7249SOL    HW233384   0.267   2.196  17.704  1.1009 -2.0937  0.3860
 7250SOL     OW33385   3.507   3.489   5.033  0.3704  0.1910  0.5466
 7250SOL    HW133386   3.509   3.576   5.073 -1.7417  0.5386 -0.0894
 7250SOL    HW233387   3.596   3.460   5.053 -0.0814 -1.0293  0.7765
 7251SOL     OW33388   2.049   2.118   1.937 -0.4173 -0.0790  0.5705
 7251SOL    HW133389   2.024   2.035   1.978  0.9556 -0.6928  0.1548
 7251SOL    HW233390   2.078   2.163   2.017 -0.6928  1.5753 -0.2465
 7252SOL     OW33391   1.514   2.293   8.733 -0.4427 -0.3371  0.9507
 7252SOL    HW133392   1.580   2.232   8.766  0.4033 -0.2793 -0.6410
 7252SOL    HW233393   1.536   2.281   8.640  2.1764 -3.6199  1.9775
 7253SOL     OW33394   3.872   3.940   2.779  0.5027  0.0287 -0.2533
 7253SOL    HW133395   3.882   3.993   2.700  1.2129 -2.3743 -1.7897
 7253SOL    HW233396   3.846   4.002   2.846 -0.9221 -2.0069  1.0908
 7254SOL     OW33397   2.172   0.538   3.707  0.1667 -0.3601 -0.2485
 7254SOL    HW133398   2.207   0.551   3.796 -0.7994 -0.6613  0.1798
 7254SOL    HW233399   2.202   0.618   3.665 -1.7488  0.7409  0.4584
 7255SOL     OW33400   2.918   0.321   9.946 -0.1676  0.7063 -0.1560
 7255SOL    HW133401   2.851   0.380   9.981  0.0949  0.3607  0.9538
 7255SOL    HW233402   2.874   0.238   9.927 -0.1704  0.5320  0.6130
 7256SOL     OW33403   3.538   3.732  15.508  0.2016  0.0464  0.0812
 7256SOL    HW133404   3.556   3.738  15.415 -0.9320 -0.9430 -0.2078
 7256SOL    HW233405   3.510   3.818  15.539  0.0416  0.9684 -2.6388
 7257SOL     OW33406   4.239   3.107   7.195 -0.0439 -0.2914  0.1003
 7257SOL    HW133407   4.276   3.019   7.186 -0.6782 -0.3880 -1.5303
 7257SOL    HW233408   4.258   3.122   7.288  0.1064 -1.2903  0.2370
 7258SOL     OW33409   0.490   0.863   2.966  0.0749  0.1591 -0.5245
 7258SOL    HW133410   0.469   0.796   3.031  0.9402 -0.1451 -0.5686
 7258SOL    HW233411   0.438   0.938   2.994  0.6670  0.4372 -0.1845
 7259SOL     OW33412   1.362   0.923   5.499  0.2678 -0.0450 -0.3930
 7259SOL    HW133413   1.346   0.937   5.406  1.6504  0.6284 -0.5364
 7259SOL    HW233414   1.394   0.833   5.491 -1.5822 -0.5318 -2.1505
 7260SOL     OW33415   1.523   1.955   7.435  0.3298 -0.0665 -0.0463
 7260SOL    HW133416   1.515   1.874   7.485 -2.1056 -0.4013 -0.9615
 7260SOL    HW233417   1.617   1.962   7.419  0.0493 -0.0081 -1.6542
 7261SOL     OW33418   0.354   2.385  16.947  0.1603 -0.1984 -0.5730
 7261SOL    HW133419   0.419   2.342  17.003 -0.1179  0.7406  0.4713
 7261SOL    HW233420   0.388   2.475  16.944  0.3698 -0.3323 -2.0311
 7262SOL     OW33421   3.683   3.288   1.468  0.5046 -0.3905 -0.3426
 7262SOL    HW133422   3.591   3.276   1.491  0.7897 -1.0302  0.4214
 7262SOL    HW233423   3.735   3.281   1.548  0.0739 -0.2923 -0.0586
 7263SOL     OW33424   3.951   1.770   5.813 -0.0743  0.1312 -0.7859
 7263SOL    HW133425   3.998   1.842   5.853  1.3248 -0.8568 -0.6624
 7263SOL    HW233426   4.017   1.702   5.828  0.6360  0.5902 -1.8246
 7264SOL     OW33427   2.582   1.402  14.225  0.1250  0.2053 -0.6034
 7264SOL    HW133428   2.624   1.484  14.251  2.5310 -0.0431 -3.6854
 7264SOL    HW233429   2.504   1.409  14.280  1.6754 -1.0579  1.7349
 7265SOL     OW33430   4.285   4.417  14.700 -0.2682  0.3695 -0.0964
 7265SOL    HW133431   4.226   4.389  14.769  0.4151 -1.0309 -0.0900
 7265SOL    HW233432   4.335   4.482  14.750 -1.6569  1.9756 -0.8123
 7266SOL     OW33433   0.159   4.541  14.595  0.4653 -0.5628 -0.8673
 7266SOL    HW133434   0.187   4.633  14.589 -0.1471 -0.1457  2.5313
 7266SOL    HW233435   0.211   4.499  14.527 -0.6229 -0.2273 -1.9147
 7267SOL     OW33436   3.052   1.746   7.603  0.9546  0.3798 -0.2985
 7267SOL    HW133437   2.958   1.749   7.622  0.9738  0.0381 -0.1566
 7267SOL    HW233438   3.079   1.813   7.666 -2.1602 -0.3054  1.7378
 7268SOL     OW33439   1.020   4.248   3.183 -0.3693 -0.3830  0.3248
 7268SOL    HW133440   1.003   4.334   3.145  0.3029 -0.4285 -0.0773
 7268SOL    HW233441   1.078   4.269   3.256  0.2121 -0.8977  0.0124
 7269SOL     OW33442   3.788   2.338   8.539  0.1451 -0.4892  0.2554
 7269SOL    HW133443   3.836   2.260   8.567  2.3302  1.1664  1.2082
 7269SOL    HW233444   3.732   2.298   8.473  1.4844 -1.8324 -0.0704
 7270SOL     OW33445   2.678   0.590   6.062  0.4498 -0.4646  0.3364
 7270SOL    HW133446   2.619   0.525   6.100  0.7251 -1.1763 -0.4536
 7270SOL    HW233447   2.721   0.634   6.135 -0.1029  1.5811 -0.5483
 7271SOL     OW33448   2.425   2.585   2.430  0.7108 -0.3537  0.8671
 7271SOL    HW133449   2.389   2.652   2.487 -0.5672 -2.8677  3.0178
 7271SOL    HW233450   2.504   2.555   2.476  1.6195 -1.1277 -1.1830
 7272SOL     OW33451   3.323   1.249   3.928  0.5449 -0.6322  0.4172
 7272SOL    HW133452   3.322   1.336   3.889  0.0598 -0.6748  0.3336
 7272SOL    HW233453   3.252   1.275   3.988  0.3748  1.1727 -0.5567
 7273SOL     OW33454   3.324   1.744  16.443  0.6044 -0.0756  0.0952
 7273SOL    HW133455   3.396   1.766  16.502  2.1123 -1.0428 -1.3814
 7273SOL    HW233456   3.263   1.710  16.508  1.5263 -0.6937  0.6235
 7274SOL     OW33457   1.383   0.993  16.724 -0.0829 -0.4228 -0.5255
 7274SOL    HW133458   1.429   1.063  16.770  1.7459 -1.0622 -1.3846
 7274SOL    HW233459   1.366   1.029  16.637 -1.0372  2.6877  0.9379
 7275SOL     OW33460   4.030   4.366   3.252  0.0094  0.3759 -0.2948
 7275SOL    HW133461   3.960   4.308   3.282  0.8055  0.1356  1.0881
 7275SOL    HW233462   3.991   4.414   3.179 -0.0104  2.5616  1.1367
 7276SOL     OW33463   0.316   2.029  12.247  0.9571  0.0342  0.2182
 7276SOL    HW133464   0.366   2.107  12.222 -0.5651  0.8103 -0.4484
 7276SOL    HW233465   0.377   1.960  12.222  0.1433 -0.0766 -1.4856
 7277SOL     OW33466   2.075   0.842   6.275  0.2576 -0.2272  0.8560
 7277SOL    HW133467   2.152   0.822   6.221  0.5757  1.8867  0.4930
 7277SOL    HW233468   2.013   0.780   6.237  2.0951 -0.4814 -1.7645
 7278SOL     OW33469   1.374   0.599   7.098  0.2362  0.0421  0.0116
 7278SOL    HW133470   1.333   0.515   7.077 -1.5749  0.8309  0.4480
 7278SOL    HW233471   1.416   0.609   7.012  0.8848 -0.9382  0.2174
 7279SOL     OW33472   4.676   2.847  11.888  0.2972  0.5391 -0.4150
 7279SOL    HW133473   4.600   2.893  11.924  0.9690  1.3427 -0.0268
 7279SOL    HW233474   4.711   2.922  11.841  2.4570 -1.2443 -1.6654
 7280SOL     OW33475   1.159   3.556   0.480 -0.0516  0.2331 -0.1096
 7280SOL    HW133476   1.157   3.607   0.561  0.3610 -2.3677  1.5527
 7280SOL    HW233477   1.184   3.621   0.414 -1.3463  1.0924  0.2542
 7281SOL     OW33478   3.736   2.593   3.496 -0.1509  0.0280  0.6821
 7281SOL    HW133479   3.809   2.647   3.467 -0.0705 -0.2497  0.3730
 7281SOL    HW233480   3.773   2.505   3.505 -2.8789 -1.1696  0.1485
 7282SOL     OW33481   2.558   3.149   3.805  0.4303  0.9755 -0.4922
 7282SOL    HW133482   2.550   3.128   3.711  0.9684 -0.5676 -0.2060
 7282SOL    HW233483   2.551   3.061   3.842 -0.3360  2.1134  2.0658
 7283SOL     OW33484   3.106   3.142   7.618 -0.9270 -0.1635  0.3417
 7283SOL    HW133485   3.067   3.213   7.567  1.5633  0.9734  0.0192
 7283SOL    HW233486   3.127   3.186   7.701  3.2306 -2.3386  0.3947
 7284SOL     OW33487   1.160   3.008  17.137 -0.3104 -0.0388  0.5338
 7284SOL    HW133488   1.149   3.001  17.042 -0.8507  0.4461  0.5629
 7284SOL    HW233489   1.250   3.037  17.120 -0.2973  0.6625  1.8419
 7285SOL     OW33490   3.789   4.680   8.875  0.0474  0.1556  0.6250
 7285SOL    HW133491   3.801   4.591   8.909  0.9768 -0.3323 -0.9822
 7285SOL    HW233492   3.863   4.730   8.909 -0.1764 -0.0669  1.4428
 7286SOL     OW33493   2.212   4.021   5.190  0.1208  0.0691 -0.1482
 7286SOL    HW133494   2.289   4.078   5.192  0.8028 -0.8962  1.1496
 7286SOL    HW233495   2.209   3.994   5.282 -0.4966 -0.2096 -0.2515
 7287SOL     OW33496   3.188   0.325  14.353  0.3475 -0.2746 -0.7697
 7287SOL    HW133497   3.148   0.313  14.439  1.0486  1.6946 -0.1592
 7287SOL    HW233498   3.280   0.308  14.374  0.0738 -0.7239  0.0655
 7288SOL     OW33499   3.445   1.545   5.029 -0.4497 -0.7541 -0.5910
 7288SOL    HW133500   3.433   1.640   5.019  1.3616 -0.4329  0.3496
 7288SOL    HW233501   3.362   1.514   4.993 -1.0518 -2.3459  2.2173
 7289SOL     OW33502   1.983   2.478  12.073 -0.1687  0.1105 -0.2670
 7289SOL    HW133503   1.926   2.491  12.149  0.5541  3.0652 -0.2406
 7289SOL    HW233504   2.006   2.569  12.055 -0.0352  0.3945  1.2711
 7290SOL     OW33505   2.870   1.851  14.516  0.1776 -0.2631  0.4300
 7290SOL    HW133506   2.941   1.906  14.549 -0.4016  3.5896 -4.8349
 7290SOL    HW233507   2.897   1.766  14.551 -0.0560 -0.3252  0.4547
 7291SOL     OW33508   2.853   4.222   6.694  0.1920  0.4050 -0.0121
 7291SOL    HW133509   2.820   4.177   6.617 -0.5428 -0.9319  1.0789
 7291SOL    HW233510   2.944   4.194   6.708  0.5076  1.3018 -0.2880
 7292SOL     OW33511   2.779   2.278   1.259 -0.0099  0.2700 -0.2889
 7292SOL    HW133512   2.819   2.268   1.345  0.2866 -2.8028 -0.7766
 7292SOL    HW233513   2.686   2.264   1.277  0.2114 -1.1613 -0.2274
 7293SOL     OW33514   0.604   3.136   9.337  0.2233  0.5768 -1.0034
 7293SOL    HW133515   0.636   3.142   9.247 -1.0146  1.2031 -1.4078
 7293SOL    HW233516   0.614   3.043   9.358 -1.7015  0.7370  0.6192
 7294SOL     OW33517   2.487   2.321  10.246 -0.5068  0.2458  0.0175
 7294SOL    HW133518   2.508   2.413  10.233 -0.3125  0.1925 -0.0654
 7294SOL    HW233519   2.553   2.287  10.184  0.3674  1.0601  0.5064
 7295SOL     OW33520   2.509   1.725   5.719 -0.7491 -0.2953 -0.3680
 7295SOL    HW133521   2.536   1.760   5.635  0.4770 -1.4674 -0.4679
 7295SOL    HW233522   2.592   1.707   5.764 -0.9227 -3.0542 -1.1113
 7296SOL     OW33523   3.134   3.283   0.314 -0.1632 -0.2270  0.0453
 7296SOL    HW133524   3.059   3.342   0.316 -1.2037 -1.5486 -0.3842
 7296SOL    HW233525   3.140   3.291   0.219 -2.5311  3.3447  0.2151
 7297SOL     OW33526   2.204   0.150   6.425  0.1350 -0.3397  0.5101
 7297SOL    HW133527   2.266   0.100   6.479  0.9355  0.3989  0.2711
 7297SOL    HW233528   2.121   0.106   6.439  0.3662 -0.7834  0.4957
 7298SOL     OW33529   1.158   4.575   6.947 -0.5653 -0.0626 -0.6878
 7298SOL    HW133530   1.121   4.626   7.019 -1.0582  0.9324 -1.6633
 7298SOL    HW233531   1.170   4.649   6.887  1.6392 -0.9416 -1.3386
 7299SOL     OW33532   2.588   0.456   8.018 -0.2265 -0.1405 -0.4429
 7299SOL    HW133533   2.533   0.422   8.088  0.9799  0.8077  0.9889
 7299SOL    HW233534   2.667   0.447   8.072  0.4825  1.9842 -1.1069
 7300SOL     OW33535   0.064   3.679  10.417  0.0491  0.1663  0.2175
 7300SOL    HW133536   0.029   3.668  10.328 -0.0234  0.1615  0.2470
 7300SOL    HW233537   0.001   3.631  10.470  1.7061 -2.7005 -0.3872
 7301SOL     OW33538   3.357   0.053  13.173  0.3049 -0.2655 -0.6339
 7301SOL    HW133539   3.423   4.723  13.150  0.4233 -0.2495 -0.3369
 7301SOL    HW233540   3.281   4.731  13.183  0.7872 -0.9543 -0.8988
 7302SOL     OW33541   4.067   0.378  14.930  1.0653  0.3100 -0.1777
 7302SOL    HW133542   3.992   0.318  14.932  1.4871 -0.1742  1.3917
 7302SOL    HW233543   4.116   0.346  14.854  0.5803  0.2908 -0.4816
 7303SOL     OW33544   4.343   4.244   4.043  0.1940  0.0780  0.4123
 7303SOL    HW133545   4.390   4.327   4.056 -0.8945  0.7335  0.1786
 7303SOL    HW233546   4.255   4.281   4.051  0.0769  0.2810 -1.6981
 7304SOL     OW33547   3.717   2.829  11.508  0.0123  0.0749  0.3148
 7304SOL    HW133548   3.690   2.737  11.504  1.4922 -0.3025 -1.2978
 7304SOL    HW233549   3.787   2.840  11.444  0.0932  1.7592  0.6955
 7305SOL     OW33550   4.265   2.733   3.254 -0.5493 -0.1201  0.4679
 7305SOL    HW133551   4.353   2.710   3.226 -0.4402 -0.4527  1.0758
 7305SOL    HW233552   4.215   2.676   3.196 -0.3788  0.6793 -0.4656
 7306SOL     OW33553   4.548   4.627   8.445  0.5515 -0.1489  0.8194
 7306SOL    HW133554   4.544   4.718   8.416 -0.1242  0.1536  1.8643
 7306SOL    HW233555   4.469   4.616   8.498 -0.2315 -2.8908 -0.9014
 7307SOL     OW33556   1.027   3.452   7.032 -0.4827 -0.1468  0.1849
 7307SOL    HW133557   1.081   3.372   7.038 -0.2831  0.0905  1.6045
 7307SOL    HW233558   0.947   3.417   6.991 -1.5093 -0.1564  2.1818
 7308SOL     OW33559   0.952   1.915   4.265  0.0075  0.0627  0.3241
 7308SOL    HW133560   1.013   1.845   4.287  1.2368  1.2129  0.5929
 7308SOL    HW233561   0.997   1.982   4.213 -0.3796  0.5996  0.6800
 7309SOL     OW33562   0.159   3.427   9.010 -0.0565 -0.4263  0.6382
 7309SOL    HW133563   0.092   3.408   8.944 -0.4456  1.1566  0.5833
 7309SOL    HW233564   0.206   3.343   9.011  0.3827 -0.1936 -0.1119
 7310SOL     OW33565   0.761   1.061  16.626  0.3400  0.7569 -0.6164
 7310SOL    HW133566   0.761   0.988  16.564  0.4368 -0.3113  0.6238
 7310SOL    HW233567   0.794   1.022  16.707  1.0648  0.1898 -1.1926
 7311SOL     OW33568   4.535   0.831  11.913  0.0708 -0.3239 -0.3136
 7311SOL    HW133569   4.624   0.796  11.909  0.7715  1.1715  2.0661
 7311SOL    HW233570   4.517   0.868  11.827 -0.2962  0.9441  0.3040
 7312SOL     OW33571   0.653   1.031   7.811 -0.3931 -0.3357 -0.7758
 7312SOL    HW133572   0.621   0.941   7.819 -1.5140  0.1395  0.2468
 7312SOL    HW233573   0.611   1.076   7.885  0.4577 -0.0921 -0.4370
 7313SOL     OW33574   1.015   4.127   7.317  0.1788 -0.1218 -0.5875
 7313SOL    HW133575   0.950   4.188   7.281  2.1679  1.4667 -1.5381
 7313SOL    HW233576   1.034   4.066   7.246  0.6067 -1.7237  0.9068
 7314SOL     OW33577   2.501   2.698   6.449 -0.6167 -0.0598  1.0900
 7314SOL    HW133578   2.452   2.737   6.521 -0.6328 -0.1535  1.1290
 7314SOL    HW233579   2.481   2.766   6.384 -0.0415 -0.5721  0.3796
 7315SOL     OW33580   0.650   3.500   8.725 -0.0341 -0.3113  0.4786
 7315SOL    HW133581   0.720   3.478   8.663 -0.0693 -2.5924  1.2522
 7315SOL    HW233582   0.680   3.583   8.762  0.2762 -1.1087  2.0042
 7316SOL     OW33583   2.477   1.088   9.091  0.1681 -0.4789 -0.0148
 7316SOL    HW133584   2.521   1.107   9.008 -1.5475  0.8961 -0.6088
 7316SOL    HW233585   2.444   1.000   9.075  1.9135 -1.4320  1.5452
 7317SOL     OW33586   1.706   2.638   7.672 -0.1551  0.0799  0.1696
 7317SOL    HW133587   1.677   2.548   7.657 -0.5273 -0.1273  2.1314
 7317SOL    HW233588   1.745   2.647   7.584  1.4601  2.1425  1.0779
 7318SOL     OW33589   0.086   2.963  14.257  0.2971  0.4888 -0.7117
 7318SOL    HW133590   0.050   2.918  14.181  0.1589 -1.8641  0.7263
 7318SOL    HW233591   0.014   3.008  14.301 -0.8358  0.2571 -2.3528
 7319SOL     OW33592   1.047   0.799   3.760 -0.2754  0.3459  0.4920
 7319SOL    HW133593   1.024   0.706   3.750 -0.8730  0.3385  2.0241
 7319SOL    HW233594   1.139   0.787   3.784 -0.9366 -0.9496  2.4197
 7320SOL     OW33595   3.187   3.538  14.489 -0.8468 -0.4447 -0.0638
 7320SOL    HW133596   3.120   3.563  14.553 -0.2019 -0.8211  0.7683
 7320SOL    HW233597   3.139   3.479  14.431 -2.7455  0.1199  0.9378
 7321SOL     OW33598   1.428   1.700   6.218  0.4742  0.3996 -0.8194
 7321SOL    HW133599   1.374   1.637   6.266 -0.0092  1.9102  0.6303
 7321SOL    HW233600   1.483   1.647   6.161 -2.5081 -2.7348 -0.8251
 7322SOL     OW33601   4.164   0.873   1.020 -0.3786 -0.3256  0.3294
 7322SOL    HW133602   4.137   0.961   0.996  0.7270 -0.6276 -2.0674
 7322SOL    HW233603   4.176   0.826   0.937 -1.6113  1.0245 -0.6119
 7323SOL     OW33604   2.784   2.227  15.126  0.6718 -0.2455 -0.5794
 7323SOL    HW133605   2.835   2.300  15.092  0.8257 -0.5894 -1.0908
 7323SOL    HW233606   2.732   2.195  15.053 -1.7369 -0.6396  1.3146
 7324SOL     OW33607   4.413   4.429  15.210 -0.0123  0.5549 -0.4245
 7324SOL    HW133608   4.489   4.485  15.203  0.6763 -0.2712  0.3271
 7324SOL    HW233609   4.400   4.443  15.304 -0.6086  1.0556 -0.5814
 7325SOL     OW33610   3.447   3.103   3.251  0.2782  0.5433 -0.7638
 7325SOL    HW133611   3.513   3.121   3.319 -1.2701 -1.6200  1.3102
 7325SOL    HW233612   3.450   3.172   3.186 -0.3622  2.5545  1.3607
 7326SOL     OW33613   2.321   0.062   5.902 -0.1900 -0.1760 -0.1654
 7326SOL    HW133614   2.414   0.085   5.910  0.1806 -1.2259 -1.3770
 7326SOL    HW233615   2.288   0.099   5.983  1.7151 -0.4092  0.7258
 7327SOL     OW33616   3.508   3.540   1.964 -0.0196  0.5636  0.0055
 7327SOL    HW133617   3.512   3.532   1.868 -2.1765 -0.3050 -0.0175
 7327SOL    HW233618   3.541   3.627   1.987  2.6221 -0.5653  0.4055
 7328SOL     OW33619   2.752   4.014   6.948 -0.3805  0.2412 -0.6210
 7328SOL    HW133620   2.746   4.014   6.852 -1.4601 -1.9380 -0.5638
 7328SOL    HW233621   2.768   4.106   6.969  1.5314 -0.3390  0.4241
 7329SOL     OW33622   3.520   2.902   0.055  0.1987  0.1956  0.1873
 7329SOL    HW133623   3.454   2.949   0.106 -0.7287  1.3580 -2.0734
 7329SOL    HW233624   3.567   2.848   0.118  1.4176  1.5656  0.4530
 7330SOL     OW33625   1.821   4.526   9.492 -0.0524  0.7631  0.2132
 7330SOL    HW133626   1.744   4.583   9.494  1.0046  2.2151 -0.7759
 7330SOL    HW233627   1.843   4.556   9.581  0.3305 -0.0698  0.4054
 7331SOL     OW33628   2.441   3.274   1.763  0.0657 -0.0196  0.3811
 7331SOL    HW133629   2.436   3.348   1.702 -0.4788 -1.0159 -0.8065
 7331SOL    HW233630   2.398   3.312   1.839 -0.7561 -2.2556  1.0303
 7332SOL     OW33631   0.274   0.073  14.597 -0.6051 -0.5225  0.6629
 7332SOL    HW133632   0.307   0.087  14.508  1.3860 -0.1751  1.4606
 7332SOL    HW233633   0.294   0.152  14.647 -0.1284  0.1801 -0.6477
 7333SOL     OW33634   3.226   3.521   8.765  0.2156 -0.4771 -0.2473
 7333SOL    HW133635   3.195   3.511   8.675 -1.2194  1.5200  0.0179
 7333SOL    HW233636   3.227   3.617   8.776  0.9175 -0.4935 -0.1681
 7334SOL     OW33637   4.605   2.736   3.838 -0.0885 -0.4230 -0.0185
 7334SOL    HW133638   4.552   2.791   3.897  0.1550  0.0772 -0.2695
 7334SOL    HW233639   4.530   2.683   3.812 -0.3043 -1.0842  1.9525
 7335SOL     OW33640   2.115   2.351   3.981 -0.0732 -0.2607  0.1694
 7335SOL    HW133641   2.048   2.282   3.976  0.7183 -0.8630 -2.4694
 7335SOL    HW233642   2.072   2.404   3.914 -2.8183 -2.0824  0.4864
 7336SOL     OW33643   0.628   4.390   8.204  0.5416  0.3010  0.4375
 7336SOL    HW133644   0.566   4.411   8.134  0.5252  0.7070  0.5769
 7336SOL    HW233645   0.577   4.340   8.267  0.6317  0.2249  0.4493
 7337SOL     OW33646   4.029   4.318  13.689  0.1317 -0.1500  0.0071
 7337SOL    HW133647   4.103   4.271  13.727  0.7591  1.0526  0.2823
 7337SOL    HW233648   4.008   4.260  13.617  3.7326 -1.2119 -0.1457
 7338SOL     OW33649   1.641   0.034   2.079 -0.0404 -0.0062 -0.7564
 7338SOL    HW133650   1.608   0.043   1.990 -0.1808  1.3942 -0.5553
 7338SOL    HW233651   1.724   4.726   2.058  0.4426  1.5911 -2.2356
 7339SOL     OW33652   1.700   1.867   8.335 -0.4140 -0.4774 -0.0349
 7339SOL    HW133653   1.688   1.804   8.406 -0.2976 -0.4118  0.0415
 7339SOL    HW233654   1.711   1.947   8.385 -1.4610 -1.0597  1.1274
 7340SOL     OW33655   1.624   0.865   6.191  0.3758  0.3804  0.2746
 7340SOL    HW133656   1.607   0.777   6.159 -0.6023  1.0643 -1.0944
 7340SOL    HW233657   1.667   0.900   6.113 -2.0381  2.2494 -0.2152
 7341SOL     OW33658   1.623   4.702   1.569 -0.4449  0.4950 -0.1487
 7341SOL    HW133659   1.617   0.029   1.497  2.0562 -0.7171 -1.4293
 7341SOL    HW233660   1.706   4.656   1.554  0.4780  1.2739  2.6143
 7342SOL     OW33661   3.215   1.520   7.128  0.7708 -0.7461 -0.3773
 7342SOL    HW133662   3.302   1.487   7.149  0.5259  0.4943  2.6539
 7342SOL    HW233663   3.178   1.497   7.213  0.2891  0.2878 -0.3012
 7343SOL     OW33664   3.389   0.153   8.753  0.3083  0.4710  0.3335
 7343SOL    HW133665   3.426   0.241   8.738 -1.9116  1.3264 -0.0909
 7343SOL    HW233666   3.466   0.096   8.744  0.4924  1.0203 -1.6589
 7344SOL     OW33667   3.897   0.921   3.878 -0.4184 -0.0806 -0.4978
 7344SOL    HW133668   3.824   0.951   3.823 -0.8200 -1.2560 -0.6247
 7344SOL    HW233669   3.924   0.842   3.831 -2.4821 -0.9762 -0.2104
 7345SOL     OW33670   1.707   2.142   5.587  0.0322  0.3448  0.4178
 7345SOL    HW133671   1.794   2.129   5.625 -1.0140 -2.5309  1.7683
 7345SOL    HW233672   1.728   2.184   5.503  0.5129 -0.9560 -0.1140
 7346SOL     OW33673   4.452   0.342   4.382 -0.0122 -0.0037 -0.1627
 7346SOL    HW133674   4.538   0.383   4.372  0.5010 -0.5383  2.0835
 7346SOL    HW233675   4.397   0.420   4.370 -1.8680 -1.2442  0.3429
 7347SOL     OW33676   4.276   4.683   3.711 -0.1290 -0.2607  0.5026
 7347SOL    HW133677   4.321   4.678   3.796 -0.1011  0.6694  0.5519
 7347SOL    HW233678   4.345   4.653   3.652  0.3393 -0.3821  1.1036
 7348SOL     OW33679   2.588   3.963  11.631  0.3954 -0.1533 -0.5376
 7348SOL    HW133680   2.510   3.908  11.620 -0.2469  1.0042 -1.6532
 7348SOL    HW233681   2.627   3.927  11.712  0.3326  1.2534  0.1061
 7349SOL     OW33682   1.503   2.248  12.096 -0.0498  0.4904 -0.5694
 7349SOL    HW133683   1.504   2.268  12.002  0.4720 -5.2587 -1.7946
 7349SOL    HW233684   1.597   2.246  12.116 -0.6966 -1.1927  2.2272
 7350SOL     OW33685   1.598   3.437   1.031  0.5086  0.2477 -0.6380
 7350SOL    HW133686   1.668   3.435   0.966 -0.2192 -0.8812 -1.3758
 7350SOL    HW233687   1.566   3.349   1.011  2.5211 -0.8210  0.8426
 7351SOL     OW33688   2.436   0.714   0.833 -0.1453 -0.0410 -0.1004
 7351SOL    HW133689   2.357   0.768   0.839 -0.2461 -0.3715  1.6511
 7351SOL    HW233690   2.420   0.670   0.749  1.1966 -1.6096  0.4578
 7352SOL     OW33691   1.786   2.494  12.277  0.1190  0.1141  0.2229
 7352SOL    HW133692   1.723   2.530  12.214  1.9820  0.2935 -1.5358
 7352SOL    HW233693   1.800   2.557  12.348  2.3205 -0.3602  0.1932
 7353SOL     OW33694   2.390   3.402   2.661 -0.3278 -0.1457 -0.3975
 7353SOL    HW133695   2.322   3.462   2.691  0.5915  0.0831  1.2313
 7353SOL    HW233696   2.369   3.407   2.568  1.3677 -2.4605 -0.9177
 7354SOL     OW33697   2.127   3.624  13.696 -0.6975  0.0873 -0.4780
 7354SOL    HW133698   2.201   3.562  13.692 -1.9563 -1.4668  0.1770
 7354SOL    HW233699   2.125   3.642  13.790 -2.8175  2.3912 -0.9980
 7355SOL     OW33700   2.812   2.957   8.807  0.2054 -0.3921 -0.5733
 7355SOL    HW133701   2.848   3.043   8.832  1.0787 -1.0096  0.3243
 7355SOL    HW233702   2.759   2.977   8.730 -0.3123  1.0544  0.1700
 7356SOL     OW33703   4.421   4.409   6.187  0.3774 -0.5148  0.1743
 7356SOL    HW133704   4.451   4.454   6.108  0.3331 -0.4161  0.2127
 7356SOL    HW233705   4.446   4.475   6.252 -1.4373  0.1784  0.1722
 7357SOL     OW33706   3.604   3.866   8.256  0.0551  0.4504 -0.1875
 7357SOL    HW133707   3.679   3.807   8.262 -1.7441 -1.3884  3.6053
 7357SOL    HW233708   3.629   3.905   8.172  0.5555 -1.2597 -0.8379
 7358SOL     OW33709   2.680   3.094   1.775  0.5132  0.0922  0.1861
 7358SOL    HW133710   2.740   3.130   1.709 -1.1079 -1.1015 -1.9536
 7358SOL    HW233711   2.603   3.150   1.777  0.3135 -0.1830  0.1557
 7359SOL     OW33712   2.101   0.717  16.958 -0.1960 -0.0792 -0.2807
 7359SOL    HW133713   2.150   0.733  16.878 -0.9633  1.7455 -0.3882
 7359SOL    HW233714   2.018   0.674  16.935 -0.8899  1.2259 -0.2424
 7360SOL     OW33715   4.343   4.268   0.400 -0.1045  0.1435  0.3751
 7360SOL    HW133716   4.248   4.263   0.408 -0.0502  0.1235  1.0151
 7360SOL    HW233717   4.354   4.330   0.327  0.8184 -1.0413 -0.5005
 7361SOL     OW33718   1.316   0.350   5.424  0.2549 -0.5191  0.0444
 7361SOL    HW133719   1.306   0.256   5.412  0.8115 -0.6981  0.9218
 7361SOL    HW233720   1.258   0.369   5.498  2.3662  0.2058  1.5239
 7362SOL     OW33721   2.015   3.881  11.182  0.0281 -0.3570 -0.2946
 7362SOL    HW133722   2.006   3.970  11.150  1.8150 -0.2691 -0.5840
 7362SOL    HW233723   2.075   3.875  11.256  0.1838  0.1029 -0.3868
 7363SOL     OW33724   2.241   2.810   4.659 -0.0285 -0.2507 -0.4619
 7363SOL    HW133725   2.331   2.806   4.626  0.5170 -0.8565  1.0993
 7363SOL    HW233726   2.209   2.724   4.632  1.5767 -0.2754 -2.3046
 7364SOL     OW33727   0.525   0.903   1.475  0.0032  0.0898  0.2089
 7364SOL    HW133728   0.605   0.912   1.422 -0.8627  0.8106 -0.9847
 7364SOL    HW233729   0.570   0.848   1.539  0.4287  1.1039  0.7796
 7365SOL     OW33730   2.576   0.350   3.282  0.0782  0.2054  0.0687
 7365SOL    HW133731   2.570   0.321   3.190 -0.8209  0.0970  0.1653
 7365SOL    HW233732   2.669   0.333   3.297  0.3978  0.2616 -1.8160
 7366SOL     OW33733   1.099   0.733  13.270 -0.5400 -0.0434  0.3399
 7366SOL    HW133734   1.014   0.767  13.241 -2.0037 -1.5198  2.8757
 7366SOL    HW233735   1.106   0.785  13.350 -3.8174  3.4353 -1.6359
 7367SOL     OW33736   0.804   1.346   2.705 -0.3167 -0.5132 -0.0482
 7367SOL    HW133737   0.848   1.272   2.747 -1.1671  0.3147  2.3014
 7367SOL    HW233738   0.728   1.294   2.681 -0.5774 -0.0089 -0.3111
 7368SOL     OW33739   0.419   3.893  15.223 -0.7652  0.4597 -0.1050
 7368SOL    HW133740   0.420   3.869  15.131 -1.4397 -1.3982  0.3635
 7368SOL    HW233741   0.355   3.964  15.219 -2.8954 -1.6084 -2.3974
 7369SOL     OW33742   3.181   4.412   1.075 -0.1717  0.0092  0.1990
 7369SOL    HW133743   3.179   4.455   1.160 -0.9307  0.8788 -0.2572
 7369SOL    HW233744   3.180   4.488   1.016 -0.9745  0.7021  1.1115
 7370SOL     OW33745   4.495   1.267  14.443 -0.1323  0.2061 -0.2262
 7370SOL    HW133746   4.585   1.256  14.413 -0.1610 -0.6875  0.0241
 7370SOL    HW233747   4.470   1.355  14.414  1.6379  0.5963 -0.5843
 7371SOL     OW33748   1.730   1.022  11.350 -0.3098 -0.7773  0.2385
 7371SOL    HW133749   1.749   0.939  11.394  2.4295 -0.0436  0.4270
 7371SOL    HW233750   1.652   1.046  11.401 -2.7345 -0.0613 -3.7896
 7372SOL     OW33751   3.857   4.438   9.009 -0.4439 -0.6558 -0.3881
 7372SOL    HW133752   3.803   4.401   8.939 -0.7990 -0.6690 -0.1075
 7372SOL    HW233753   3.935   4.395   8.976  0.9845  3.1571 -2.0343
 7373SOL     OW33754   0.574   3.889   3.456 -0.3935 -0.5280 -0.0836
 7373SOL    HW133755   0.621   3.820   3.503  0.7766  0.5811  0.3577
 7373SOL    HW233756   0.650   3.944   3.439 -0.2826 -0.8634 -0.6868
 7374SOL     OW33757   1.751   0.367   5.677  0.3968 -0.4278  0.2290
 7374SOL    HW133758   1.708   0.356   5.762 -1.4921 -0.7950 -0.7812
 7374SOL    HW233759   1.842   0.339   5.693  0.6725  0.4041  0.1081
 7375SOL     OW33760   1.421   2.439  12.502  0.2568  0.2256 -0.1247
 7375SOL    HW133761   1.509   2.404  12.521 -0.1038 -0.2937  0.5677
 7375SOL    HW233762   1.438   2.522  12.547 -0.3910  0.5859 -0.5478
 7376SOL     OW33763   4.398   4.173   7.457  0.0435 -0.2590 -0.2554
 7376SOL    HW133764   4.400   4.218   7.372 -1.6254  1.9288  0.8683
 7376SOL    HW233765   4.385   4.243   7.521  2.6035  2.1333 -2.3458
 7377SOL     OW33766   3.846   0.632   7.933  0.3335 -0.5054 -0.1647
 7377SOL    HW133767   3.799   0.637   7.849 -0.2220  1.2525  0.2483
 7377SOL    HW233768   3.931   0.669   7.911  0.5623 -0.0600  1.5033
 7378SOL     OW33769   2.846   2.397   6.963 -0.1531 -0.2074  0.7997
 7378SOL    HW133770   2.834   2.352   6.879  1.1486 -1.8093  1.4483
 7378SOL    HW233771   2.865   2.485   6.931  0.3383 -0.9908 -1.0798
 7379SOL     OW33772   0.967   1.433   7.166  0.1053  0.4447  0.2828
 7379SOL    HW133773   0.938   1.524   7.156  0.9035  0.3353 -2.9786
 7379SOL    HW233774   0.896   1.388   7.213 -0.2029  1.0369  0.3870
 7380SOL     OW33775   4.531   2.388   6.391  1.0831  0.7994  0.5050
 7380SOL    HW133776   4.496   2.382   6.303  0.8794 -0.3994  0.6579
 7380SOL    HW233777   4.454   2.352   6.436 -0.5858  2.3103 -1.1759
 7381SOL     OW33778   0.290   2.072   4.355  0.0808  0.1251  0.0399
 7381SOL    HW133779   0.274   2.018   4.277 -0.7977 -0.2650  0.4867
 7381SOL    HW233780   0.260   2.016   4.427  0.1634 -0.3853 -0.3203
 7382SOL     OW33781   4.229   4.188   3.235 -0.1572 -0.6041 -0.1123
 7382SOL    HW133782   4.290   4.240   3.288 -1.6351  1.5943 -0.5583
 7382SOL    HW233783   4.146   4.236   3.233  0.6869  1.0087  3.3252
 7383SOL     OW33784   4.402   1.011   3.099  0.2296  0.4661 -0.2187
 7383SOL    HW133785   4.428   1.031   3.189  0.6633  0.7835 -0.4192
 7383SOL    HW233786   4.478   0.989   3.046 -0.3636  1.3295 -1.4310
 7384SOL     OW33787   1.509   3.191   4.253 -0.0163  0.8048 -0.4796
 7384SOL    HW133788   1.512   3.284   4.228  1.9116  0.9382  0.2423
 7384SOL    HW233789   1.420   3.185   4.287  0.4235 -0.0248  0.5043
 7385SOL     OW33790   0.096   3.238   6.368  0.2582 -0.4420  0.1354
 7385SOL    HW133791   0.157   3.165   6.377  0.6053 -0.3801 -1.6621
 7385SOL    HW233792   0.027   3.207   6.426  0.8851 -0.6250  0.7748
 7386SOL     OW33793   4.115   1.318   4.305  0.0216 -0.1265  0.3537
 7386SOL    HW133794   4.191   1.373   4.325  0.7124 -0.4488 -1.3577
 7386SOL    HW233795   4.115   1.256   4.378 -1.3928 -1.4272 -0.7702
 7387SOL     OW33796   3.374   0.402   1.462 -0.0392 -0.2293  0.0060
 7387SOL    HW133797   3.316   0.478   1.460 -2.6390 -2.2560 -1.0134
 7387SOL    HW233798   3.402   0.396   1.554 -0.8966 -0.0538  0.2823
 7388SOL     OW33799   1.842   1.060   3.665  0.0137 -0.3073 -0.0841
 7388SOL    HW133800   1.878   1.045   3.753 -0.1052 -1.7088 -0.2651
 7388SOL    HW233801   1.783   0.985   3.663 -1.2995  0.7147  0.3519
 7389SOL     OW33802   3.660   4.521   7.365 -0.0079  0.3759 -0.1555
 7389SOL    HW133803   3.687   4.534   7.275  1.0143  0.2723  0.1339
 7389SOL    HW233804   3.707   4.591   7.411  0.1671 -0.8373  1.5059
 7390SOL     OW33805   1.772   3.017   6.337  0.1725  0.6603  0.7932
 7390SOL    HW133806   1.781   3.089   6.399 -0.0878 -0.5345  2.1997
 7390SOL    HW233807   1.814   2.945   6.385  0.4843  0.8891  0.8626
 7391SOL     OW33808   0.116   2.574   4.186 -0.3483 -0.1096  0.5800
 7391SOL    HW133809   0.032   2.528   4.191 -0.3967 -0.0571  0.2330
 7391SOL    HW233810   0.141   2.562   4.278  2.8156  1.9756 -0.0178
 7392SOL     OW33811   4.114   4.481   5.764  0.6344  0.1674  0.3372
 7392SOL    HW133812   4.070   4.556   5.724  0.0450  0.6660  1.8811
 7392SOL    HW233813   4.144   4.523   5.845  2.0373  1.1668 -0.7025
 7393SOL     OW33814   2.649   0.632  13.727 -0.1925 -0.5356 -0.1885
 7393SOL    HW133815   2.662   0.582  13.646  3.6586 -0.0229  0.0962
 7393SOL    HW233816   2.572   0.585  13.757 -1.2964  1.0648 -0.5129
 7394SOL     OW33817   2.865   2.065   1.086 -0.0198  0.3580  0.1916
 7394SOL    HW133818   2.840   2.145   1.133 -2.8483 -0.9682  0.9153
 7394SOL    HW233819   2.812   2.004   1.137  0.9245 -0.0285  0.7133
 7395SOL     OW33820   4.653   2.693   4.461 -0.0284  0.1870 -0.3692
 7395SOL    HW133821   0.003   2.687   4.419  0.4273  0.0057  0.5922
 7395SOL    HW233822   4.609   2.615   4.427 -2.9471  1.6230  0.1209
 7396SOL     OW33823   1.771   2.869   7.048  0.7628  0.6037 -0.2366
 7396SOL    HW133824   1.751   2.789   6.999 -1.7853  0.7649  0.5094
 7396SOL    HW233825   1.759   2.840   7.138 -0.6894 -0.4272 -0.7592
 7397SOL     OW33826   1.248   4.336  13.221  0.4213  0.4096  0.2976
 7397SOL    HW133827   1.232   4.280  13.145  2.5298 -1.7036  1.4087
 7397SOL    HW233828   1.182   4.402  13.201  0.0770  0.4730  1.6810
 7398SOL     OW33829   4.344   3.513   2.805 -0.4301 -0.5202 -0.2764
 7398SOL    HW133830   4.354   3.585   2.868 -0.4615 -1.3516  0.6851
 7398SOL    HW233831   4.250   3.520   2.787 -0.4673 -0.7419 -0.1670
 7399SOL     OW33832   1.015   2.853   7.149  0.2215  0.1208 -0.1139
 7399SOL    HW133833   1.006   2.931   7.205  0.0570  1.0510 -1.4383
 7399SOL    HW233834   1.016   2.787   7.219 -2.2520 -0.7987 -0.9625
 7400SOL     OW33835   1.902   4.392   4.653 -0.1842 -0.0851 -0.4748
 7400SOL    HW133836   1.824   4.349   4.687 -0.5330 -0.5115 -1.8157
 7400SOL    HW233837   1.917   4.466   4.713 -2.9937 -0.2609  0.4587
 7401SOL     OW33838   0.673   1.841  10.161 -0.0336  0.4532 -0.2733
 7401SOL    HW133839   0.757   1.800  10.139 -0.0314  1.6831 -2.4528
 7401SOL    HW233840   0.680   1.908  10.093  1.9117  1.2187  0.6632
 7402SOL     OW33841   4.593   1.863   6.675 -0.2588  0.2925  0.7363
 7402SOL    HW133842   4.592   1.811   6.755 -0.3521  0.1472  0.6409
 7402SOL    HW233843   4.501   1.850   6.651  0.1373 -1.5893  0.2483
 7403SOL     OW33844   0.761   3.323   9.477  0.1905 -0.0877 -0.1677
 7403SOL    HW133845   0.695   3.367   9.532 -0.3296 -1.0386 -0.0320
 7403SOL    HW233846   0.704   3.290   9.407  0.1358 -0.2942 -0.0263
 7404SOL     OW33847   4.561   4.736   7.164 -0.2153  0.5216 -0.0369
 7404SOL    HW133848   4.582   0.093   7.171  1.9767  0.0317 -0.0775
 7404SOL    HW233849   4.621   4.696   7.101  0.3987  0.7965  0.3721
 7405SOL     OW33850   4.046   3.246   4.592 -0.7570  0.7820 -0.3088
 7405SOL    HW133851   4.030   3.244   4.686  1.7958  1.2657  0.1528
 7405SOL    HW233852   4.136   3.277   4.598 -0.8214  1.0764 -0.8794
 7406SOL     OW33853   0.978   0.408   9.561  0.9906 -0.5737 -0.2760
 7406SOL    HW133854   1.031   0.349   9.615 -0.2620 -0.9168  0.5975
 7406SOL    HW233855   0.954   0.461   9.638  1.4906 -1.4399  0.4696
 7407SOL     OW33856   4.574   4.281   3.660  0.5702  0.3684  1.0377
 7407SOL    HW133857   4.613   4.321   3.582  2.3039 -2.2873  0.5388
 7407SOL    HW233858   4.484   4.311   3.654  0.7310  0.9670  1.6467
 7408SOL     OW33859   4.717   1.003   3.287 -0.5765  0.3417  0.4198
 7408SOL    HW133860   4.733   0.973   3.198  2.6712 -1.7545  1.7237
 7408SOL    HW233861   0.063   1.020   3.334  0.2204  0.7407 -1.1206
 7409SOL     OW33862   2.728   2.463   2.758  0.3858 -0.2461 -0.6270
 7409SOL    HW133863   2.670   2.420   2.821  0.8987 -0.8359 -0.5599
 7409SOL    HW233864   2.678   2.448   2.677  2.2006 -0.2928 -1.7445
 7410SOL     OW33865   2.938   2.279   7.251 -0.1684 -0.0160  0.4311
 7410SOL    HW133866   2.988   2.214   7.300 -0.0976 -0.9936 -0.9238
 7410SOL    HW233867   3.008   2.325   7.206  1.4606 -4.5766 -1.7753
 7411SOL     OW33868   0.223   2.181   5.852  0.4960  0.5925 -0.3234
 7411SOL    HW133869   0.189   2.209   5.937  0.7585 -0.3215  0.0847
 7411SOL    HW233870   0.248   2.097   5.891 -1.2304 -0.0877 -0.6942
 7412SOL     OW33871   1.764   1.533   8.283 -0.6683  0.5801 -0.2321
 7412SOL    HW133872   1.729   1.463   8.228 -2.9175 -2.3621  4.8769
 7412SOL    HW233873   1.767   1.603   8.219  0.0435  0.9666  0.2236
 7413SOL     OW33874   0.499   1.437   5.634  0.2106  0.2287  0.5669
 7413SOL    HW133875   0.545   1.353   5.642 -0.2976 -0.1635 -0.6890
 7413SOL    HW233876   0.424   1.425   5.692 -1.6837 -0.6999 -2.1244
 7414SOL     OW33877   0.878   0.961   9.906 -0.4572 -0.2894 -0.0936
 7414SOL    HW133878   0.863   0.902   9.832  0.4975  0.4612 -0.8845
 7414SOL    HW233879   0.849   0.908   9.981 -0.5418  0.6536  0.5315
 7415SOL     OW33880   4.181   1.182   3.682  0.4518 -0.0534  0.0030
 7415SOL    HW133881   4.198   1.139   3.598 -1.7984 -2.0405  0.5558
 7415SOL    HW233882   4.220   1.268   3.668  0.0035  0.1208 -0.1836
 7416SOL     OW33883   2.183   2.084   9.614  0.2525 -0.4879 -0.3337
 7416SOL    HW133884   2.169   2.079   9.709 -0.5022 -1.9928 -0.5246
 7416SOL    HW233885   2.268   2.041   9.605  1.1169  1.2722 -0.5869
 7417SOL     OW33886   3.674   0.037   3.454 -0.9080  0.0096  0.2161
 7417SOL    HW133887   3.674   4.680   3.475  3.6310  0.3209  1.3539
 7417SOL    HW233888   3.662   0.033   3.359  1.8402 -2.9223  0.0009
 7418SOL     OW33889   3.259   0.072   0.174  0.2465  0.0247 -0.4626
 7418SOL    HW133890   3.340   0.117   0.151  0.5748  0.7187  1.9837
 7418SOL    HW233891   3.194   0.134   0.140  0.6826  0.2654 -0.8527
 7419SOL     OW33892   3.377   2.914   6.750  0.3122  0.6677 -0.1026
 7419SOL    HW133893   3.299   2.867   6.723 -0.8651  1.4012  2.0378
 7419SOL    HW233894   3.444   2.870   6.698  3.0502  3.0726  1.3834
 7420SOL     OW33895   0.478   3.707   4.784 -0.0685  0.5891  0.0460
 7420SOL    HW133896   0.422   3.635   4.811  1.1020 -0.4577 -0.3500
 7420SOL    HW233897   0.544   3.678   4.721 -0.2659 -0.7875  0.4884
 7421SOL     OW33898   4.673   3.938  15.729  0.1882  0.1716 -0.2517
 7421SOL    HW133899   0.027   3.961  15.704  0.0247  3.0330  1.7103
 7421SOL    HW233900   4.616   3.999  15.682 -0.9105  0.1978  1.1157
 7422SOL     OW33901   2.275   0.164   8.059  0.5148 -0.6140 -0.5124
 7422SOL    HW133902   2.278   0.144   7.965  0.4680 -0.0529 -0.6353
 7422SOL    HW233903   2.184   0.196   8.055  1.0300  1.0639  1.3390
 7423SOL     OW33904   1.848   1.475   4.850 -0.2969 -0.2206  0.2705
 7423SOL    HW133905   1.876   1.466   4.942  0.5871 -1.0700 -0.0856
 7423SOL    HW233906   1.759   1.508   4.864 -0.4363 -0.6209  0.3151
 7424SOL     OW33907   3.587   4.691   8.675 -0.1563  0.6972 -0.1781
 7424SOL    HW133908   3.627   4.697   8.588 -0.9317 -1.4668 -0.6652
 7424SOL    HW233909   3.667   4.715   8.722  0.0175 -0.2752  0.0238
 7425SOL     OW33910   3.424   4.566  10.148  0.2163  0.5464  0.2319
 7425SOL    HW133911   3.485   4.639  10.135  0.8916  0.7411  4.5903
 7425SOL    HW233912   3.376   4.601  10.223  1.6051 -0.5441  1.6227
 7426SOL     OW33913   0.296   3.819   3.483  0.1369 -0.4681  0.2724
 7426SOL    HW133914   0.304   3.725   3.473  0.1728 -0.7187  2.6887
 7426SOL    HW233915   0.386   3.850   3.474 -0.2673  1.4646  2.6813
 7427SOL     OW33916   0.424   4.535   7.389 -0.3087  0.6070  0.1125
 7427SOL    HW133917   0.421   4.630   7.403 -1.8744  0.9561 -2.5666
 7427SOL    HW233918   0.348   4.506   7.439  1.1704 -0.3375  1.8303
 7428SOL     OW33919   2.219   3.554   6.232 -0.2706  0.0159 -0.5528
 7428SOL    HW133920   2.243   3.635   6.277  1.1650 -0.3164 -0.7247
 7428SOL    HW233921   2.185   3.510   6.310 -0.7965  1.6560  0.1426
 7429SOL     OW33922   0.599   4.434   4.502 -0.2099 -0.6763 -0.3030
 7429SOL    HW133923   0.671   4.434   4.564 -1.5260 -0.5110  1.2323
 7429SOL    HW233924   0.571   4.526   4.499  1.3898 -0.1973 -0.1063
 7430SOL     OW33925   2.688   4.287   5.252 -0.4723 -0.6342  0.4714
 7430SOL    HW133926   2.732   4.210   5.218  2.9606  0.7486  1.7468
 7430SOL    HW233927   2.717   4.365   5.205  0.7610 -1.6458 -0.4440
 7431SOL     OW33928   0.014   0.252  17.599 -0.1539 -0.3207  0.3618
 7431SOL    HW133929   4.715   0.266  17.687 -0.8781 -1.5568  0.2782
 7431SOL    HW233930   4.697   0.312  17.548 -1.5883  1.7139  4.2638
 7432SOL     OW33931   1.949   0.096   3.934  0.1763 -0.1179  0.0752
 7432SOL    HW133932   1.967   0.043   3.856  0.5328 -0.2961  0.2825
 7432SOL    HW233933   1.914   0.173   3.888 -0.6545 -2.8283 -3.8241
 7433SOL     OW33934   4.189   4.399   8.311  0.6184  0.0506 -0.1750
 7433SOL    HW133935   4.215   4.398   8.403 -0.0248 -1.7901 -0.0146
 7433SOL    HW233936   4.119   4.334   8.301  2.8094 -2.5204  1.2600
 7434SOL     OW33937   3.515   3.606   3.457  0.0307 -0.4732 -0.4664
 7434SOL    HW133938   3.438   3.569   3.414 -1.2555  0.9857  0.5873
 7434SOL    HW233939   3.585   3.556   3.414  0.6193 -0.7742  0.8483
 7435SOL     OW33940   1.577   1.212  14.448  0.2745  0.2119 -0.0355
 7435SOL    HW133941   1.665   1.249  14.459 -0.1272  1.0765  0.3225
 7435SOL    HW233942   1.599   1.139  14.390 -0.7233 -1.4544  1.7132
 7436SOL     OW33943   3.671   3.781   6.953 -0.0973  0.1421  0.1482
 7436SOL    HW133944   3.713   3.781   6.867 -0.6285  2.9265 -0.1059
 7436SOL    HW233945   3.732   3.839   6.997  2.0799 -1.6045 -0.5389
 7437SOL     OW33946   4.388   0.306   2.650 -0.3402 -0.2576  0.0663
 7437SOL    HW133947   4.321   0.358   2.606 -2.1738 -1.8453  0.9827
 7437SOL    HW233948   4.403   0.366   2.723  1.7204  0.4697 -0.9435
 7438SOL     OW33949   4.189   3.106   2.115 -0.2089  0.3415 -0.2454
 7438SOL    HW133950   4.128   3.118   2.188  1.3368 -0.3997  1.1583
 7438SOL    HW233951   4.270   3.146   2.146 -0.5327 -0.0714  1.1212
 7439SOL     OW33952   3.322   3.299   6.954  0.1341  0.1775  0.0567
 7439SOL    HW133953   3.368   3.355   7.017 -0.8947  2.8528 -1.5780
 7439SOL    HW233954   3.302   3.231   7.018  0.6175 -0.6143 -0.6348
 7440SOL     OW33955   2.164   2.500   2.069  0.3055  0.3686  0.1896
 7440SOL    HW133956   2.178   2.543   2.153 -2.4713 -1.9342  1.8360
 7440SOL    HW233957   2.186   2.408   2.086  0.3459 -0.1746 -2.8312
 7441SOL     OW33958   2.077   3.225  16.361  0.1082 -0.3701 -0.4028
 7441SOL    HW133959   1.986   3.250  16.375  0.1544 -0.7958  0.6954
 7441SOL    HW233960   2.095   3.276  16.282  0.9310  0.8901  0.5932
 7442SOL     OW33961   3.652   1.067   7.132 -0.3527  0.3858 -0.0739
 7442SOL    HW133962   3.562   1.036   7.142  0.7345 -2.0553  2.0372
 7442SOL    HW233963   3.668   1.071   7.037 -0.2712  0.7688 -0.0471
 7443SOL     OW33964   0.733   1.906   0.566  0.7856 -0.3185 -0.1730
 7443SOL    HW133965   0.647   1.934   0.598  0.7311 -0.2117 -0.4125
 7443SOL    HW233966   0.801   1.963   0.602 -0.2974  2.5399 -2.5798
 7444SOL     OW33967   3.788   0.657   8.344  0.2358 -0.3289 -0.2686
 7444SOL    HW133968   3.728   0.673   8.272 -1.1661  0.5242  1.0811
 7444SOL    HW233969   3.805   0.750   8.356  0.1777 -0.3871  0.2772
 7445SOL     OW33970   3.080   4.490   6.622  0.0212  0.4381 -0.4080
 7445SOL    HW133971   3.118   4.513   6.707 -0.7502  0.4410 -0.0684
 7445SOL    HW233972   3.043   4.405   6.647 -1.2840  1.6218  1.7042
 7446SOL     OW33973   0.398   2.385   5.755 -0.1275 -0.2631  0.1367
 7446SOL    HW133974   0.326   2.321   5.753 -1.5326  1.3089  1.0782
 7446SOL    HW233975   0.450   2.374   5.676 -0.1983 -1.5377  0.2522
 7447SOL     OW33976   2.815   0.271   1.299 -0.1952 -0.2916 -0.2455
 7447SOL    HW133977   2.756   0.321   1.243  0.3631 -1.2290 -1.6579
 7447SOL    HW233978   2.785   0.295   1.386  0.8341 -1.4455  0.4374
 7448SOL     OW33979   1.446   0.340  15.963 -0.4932  0.0319  0.1259
 7448SOL    HW133980   1.379   0.406  15.947  0.5264  1.6016  2.3896
 7448SOL    HW233981   1.464   0.324  15.870 -0.3308 -1.9366  0.5005
 7449SOL     OW33982   1.932   3.309   7.975 -0.6755 -0.2332  0.5694
 7449SOL    HW133983   1.963   3.399   7.988  1.2436 -0.8352  0.0232
 7449SOL    HW233984   1.859   3.316   7.913  1.7989 -1.1075 -2.3833
 7450SOL     OW33985   1.323   1.300   2.899 -0.2161  0.1107  0.4758
 7450SOL    HW133986   1.376   1.376   2.922  2.0847 -1.1874 -0.5480
 7450SOL    HW233987   1.296   1.259   2.981 -0.5686 -0.3342  0.1346
 7451SOL     OW33988   2.165   3.670   4.051 -0.1308 -0.1709 -0.2422
 7451SOL    HW133989   2.137   3.704   4.135 -0.0951  1.1980 -0.7737
 7451SOL    HW233990   2.100   3.702   3.988  1.7902  0.9770 -1.6639
 7452SOL     OW33991   0.653   4.020   4.355  0.8579  0.0034 -0.0748
 7452SOL    HW133992   0.741   4.040   4.323  0.7442 -0.2480 -0.5383
 7452SOL    HW233993   0.616   4.107   4.346  3.4457  1.1036 -0.0957
 7453SOL     OW33994   4.370   2.456  17.568  0.3218  0.1018  0.0664
 7453SOL    HW133995   4.380   2.545  17.601  1.3589  0.5397 -1.4142
 7453SOL    HW233996   4.349   2.414  17.651 -0.8917  0.8728  0.1540
 7454SOL     OW33997   2.516   1.312   8.646  0.5900  0.1153  0.2872
 7454SOL    HW133998   2.475   1.241   8.696 -0.4934  0.5279 -0.0147
 7454SOL    HW233999   2.445   1.349   8.595 -0.0421 -1.1272  0.2472
 7455SOL     OW34000   0.640   3.254  17.436 -0.1110 -0.8344 -0.3259
 7455SOL    HW134001   0.663   3.220  17.350  1.4701 -0.7657  0.0638
 7455SOL    HW234002   0.637   3.347  17.414 -2.1088 -1.5404 -2.9431
 7456SOL     OW34003   2.671   2.501  13.093 -0.2790  0.2723  0.1276
 7456SOL    HW134004   2.598   2.487  13.032  1.6415  1.1664 -2.3427
 7456SOL    HW234005   2.746   2.488  13.036  0.6013  1.3742  1.0387
 7457SOL     OW34006   0.699   2.281   4.711 -0.0738  0.0254  0.0357
 7457SOL    HW134007   0.656   2.229   4.643 -1.2517  0.4885  0.4244
 7457SOL    HW234008   0.655   2.253   4.791 -0.7767  0.8834 -0.0509
 7458SOL     OW34009   1.894   1.285   6.164  0.0185  0.7320 -0.0080
 7458SOL    HW134010   1.975   1.336   6.156  1.3684 -1.0436  2.0513
 7458SOL    HW234011   1.919   1.208   6.113 -1.3173  0.7615 -0.6912
 7459SOL     OW34012   1.839   2.147  12.984 -0.3843 -0.0848 -0.9411
 7459SOL    HW134013   1.853   2.237  12.955  3.7427  0.1438  1.7063
 7459SOL    HW234014   1.884   2.155  13.068  0.8669  0.2253 -1.6279
 7460SOL     OW34015   1.406   3.678   8.254 -0.3078  0.7171  0.3744
 7460SOL    HW134016   1.449   3.757   8.284  0.0131  0.7827 -0.2487
 7460SOL    HW234017   1.408   3.616   8.327  0.4878  1.5650  1.0619
 7461SOL     OW34018   2.002   2.162   3.584  0.0614 -0.0349  0.0224
 7461SOL    HW134019   2.076   2.223   3.581 -0.8805  1.0519 -1.1605
 7461SOL    HW234020   2.056   2.085   3.563  0.4735  0.2059  0.2006
 7462SOL     OW34021   0.341   1.696   2.116 -0.0535  0.1099 -0.0358
 7462SOL    HW134022   0.273   1.756   2.084 -0.0087  0.7803  1.1177
 7462SOL    HW234023   0.400   1.754   2.163  1.5495  0.3990 -2.4256
 7463SOL     OW34024   2.923   3.055   2.446  0.0626  0.7768  0.2329
 7463SOL    HW134025   2.963   3.097   2.369  1.4925  0.1359  0.6182
 7463SOL    HW234026   2.850   3.007   2.407  0.7935  1.2623 -1.7575
 7464SOL     OW34027   3.526   0.117   9.892  0.5691 -0.1878  0.0831
 7464SOL    HW134028   3.573   0.033   9.890  1.0079  0.0503  0.4762
 7464SOL    HW234029   3.487   0.125   9.805 -0.7802  0.4365  0.7540
 7465SOL     OW34030   3.628   0.352  12.753 -0.3893  0.0422  0.2951
 7465SOL    HW134031   3.564   0.302  12.802 -1.6682  0.0592 -1.3418
 7465SOL    HW234032   3.669   0.400  12.825  1.9162 -2.5640  0.7109
 7466SOL     OW34033   2.029   2.557   8.316  0.5502  0.2277 -0.2298
 7466SOL    HW134034   2.006   2.594   8.231  2.9600  1.1980 -0.4586
 7466SOL    HW234035   1.950   2.506   8.331  0.7293 -0.4142 -1.4756
 7467SOL     OW34036   3.666   2.184   8.373 -0.3014  0.0695 -0.4196
 7467SOL    HW134037   3.660   2.089   8.385 -1.2327  0.3837  1.6805
 7467SOL    HW234038   3.621   2.188   8.289 -0.0377  0.5434 -0.5345
 7468SOL     OW34039   1.031   1.095   1.158 -0.3899 -0.2563  0.5912
 7468SOL    HW134040   0.987   1.055   1.233 -2.0118 -1.6167 -1.1227
 7468SOL    HW234041   0.986   1.180   1.154  1.0947  0.3966 -2.0096
 7469SOL     OW34042   4.308   2.742   4.468  0.3803  0.0183 -0.3715
 7469SOL    HW134043   4.328   2.659   4.426  1.6874  0.1953 -0.1111
 7469SOL    HW234044   4.386   2.754   4.523  0.8796  3.3341 -1.7723
 7470SOL     OW34045   1.125   1.947   2.997 -0.1754 -0.5256 -1.0527
 7470SOL    HW134046   1.033   1.965   2.977 -0.8240  0.3078  2.6674
 7470SOL    HW234047   1.119   1.929   3.090 -1.4587  1.0067 -0.8256
 7471SOL     OW34048   0.396   2.893  12.164 -0.3601 -0.3168  0.8296
 7471SOL    HW134049   0.327   2.847  12.115  0.7341 -1.5475  0.4561
 7471SOL    HW234050   0.423   2.951  12.093 -1.1785 -2.3347 -1.1607
 7472SOL     OW34051   1.190   2.190   4.315  0.3723  0.3320  0.4429
 7472SOL    HW134052   1.209   2.141   4.236  0.9571 -1.4448  1.6894
 7472SOL    HW234053   1.279   2.203   4.349 -0.4374  0.0249  2.7230
 7473SOL     OW34054   4.035   2.955  13.215  0.2036 -0.5849 -0.2810
 7473SOL    HW134055   3.988   2.916  13.288  1.7813 -0.4461  0.8019
 7473SOL    HW234056   4.085   2.878  13.189  0.5130  0.1309 -1.8058
 7474SOL     OW34057   0.000   3.021  17.653 -0.7351  0.1884 -0.4201
 7474SOL    HW134058   0.030   3.112  17.657  5.3598 -1.7962 -1.0740
 7474SOL    HW234059   4.648   3.030  17.617 -0.1903  1.9380 -1.2987
 7475SOL     OW34060   0.556   3.794   1.937 -0.1008  0.5499  0.4787
 7475SOL    HW134061   0.554   3.816   1.844 -1.6519  0.8772  0.5758
 7475SOL    HW234062   0.649   3.809   1.954 -0.2730 -0.2228  2.0592
 7476SOL     OW34063   4.464   0.168   7.823 -0.1359 -1.3474 -0.5893
 7476SOL    HW134064   4.501   0.216   7.749 -0.9166  1.4758  0.8631
 7476SOL    HW234065   4.406   0.240   7.848  1.2547 -0.4001 -0.0780
 7477SOL     OW34066   2.496   0.891   6.065  0.0448 -0.1915 -0.2105
 7477SOL    HW134067   2.433   0.959   6.089  0.3531 -0.5377  1.6067
 7477SOL    HW234068   2.441   0.825   6.023 -0.2599 -0.8829  1.2695
 7478SOL     OW34069   4.486   4.298   8.652  0.1401 -0.1175  0.0069
 7478SOL    HW134070   4.521   4.243   8.582  0.8515 -1.2128  1.2429
 7478SOL    HW234071   4.470   4.239   8.725  0.3752 -0.3701 -0.1475
 7479SOL     OW34072   4.731   3.393  16.996 -0.7255  0.8455  0.0027
 7479SOL    HW134073   4.714   3.309  16.954 -0.7729  0.8573 -0.0021
 7479SOL    HW234074   4.702   3.444  16.920 -2.1609 -0.0501 -0.0522
 7480SOL     OW34075   0.761   4.730   4.257  0.3402  0.6874  0.1723
 7480SOL    HW134076   0.795   0.082   4.244  1.2427  0.3515  0.2792
 7480SOL    HW234077   0.821   4.693   4.323 -0.7636 -0.1326  0.7207
 7481SOL     OW34078   2.568   3.038  15.735 -0.1529 -0.2415  0.7929
 7481SOL    HW134079   2.660   3.060  15.727 -0.6803  1.3871 -0.7076
 7481SOL    HW234080   2.571   2.970  15.802  0.9834  1.7222  2.7167
 7482SOL     OW34081   3.290   0.260   5.065  0.2749  0.1595 -0.5465
 7482SOL    HW134082   3.279   0.213   5.147 -1.5955  1.2038 -0.1895
 7482SOL    HW234083   3.292   0.185   5.006 -0.6640  0.3474 -0.8230
 7483SOL     OW34084   1.654   0.855   8.755 -0.5555 -0.9064 -0.0051
 7483SOL    HW134085   1.592   0.814   8.815 -0.2642 -2.6721 -0.9116
 7483SOL    HW234086   1.679   0.934   8.804 -1.6486 -0.0383 -0.8397
 7484SOL     OW34087   0.779   2.442   8.064  0.0620 -0.4661 -0.2185
 7484SOL    HW134088   0.838   2.395   8.005 -0.2971 -0.1708 -0.8182
 7484SOL    HW234089   0.831   2.467   8.140  1.7672 -1.5002 -1.0612
 7485SOL     OW34090   2.966   3.845   2.225  0.4730  0.7165  0.0287
 7485SOL    HW134091   2.924   3.918   2.179  0.9155  0.6820 -0.4318
 7485SOL    HW234092   3.057   3.862   2.198 -0.1338  1.3631 -1.5936
 7486SOL     OW34093   4.365   0.179   7.496 -0.0762 -0.8185 -0.1624
 7486SOL    HW134094   4.272   0.161   7.487 -0.4033 -0.1914  2.0958
 7486SOL    HW234095   4.374   0.274   7.492  1.6910 -1.0468 -1.6157
 7487SOL     OW34096   2.886   0.994   6.853 -0.7616  0.0078  0.2801
 7487SOL    HW134097   2.886   0.924   6.918 -0.1767 -0.5604 -0.3337
 7487SOL    HW234098   2.880   0.946   6.770  2.8258 -3.0358  1.7877
 7488SOL     OW34099   3.061   1.443   5.467  0.1638  0.1800 -0.6203
 7488SOL    HW134100   3.120   1.515   5.442  0.2758  0.9711  1.9097
 7488SOL    HW234101   3.123   1.377   5.497 -0.6482 -0.5169 -0.4918
 7489SOL     OW34102   3.697   4.617  13.214 -0.4010  0.3175  0.4932
 7489SOL    HW134103   3.623   4.575  13.171  2.5657 -3.5417 -0.8560
 7489SOL    HW234104   3.704   4.554  13.286  1.4358 -0.9210 -0.7483
 7490SOL     OW34105   2.354   0.406   7.816  0.1080 -0.2957 -0.2920
 7490SOL    HW134106   2.420   0.456   7.865 -0.0222 -0.0824 -0.3331
 7490SOL    HW234107   2.405   0.341   7.768 -1.2634 -1.4514 -0.1689
 7491SOL     OW34108   3.648   4.295   1.193  0.4097  0.2197 -0.0862
 7491SOL    HW134109   3.673   4.321   1.104  1.5795  0.9626  0.4570
 7491SOL    HW234110   3.553   4.290   1.195  0.4304 -0.4531 -0.8671
 7492SOL     OW34111   4.085   3.875   5.643  0.3415  0.2174  0.3296
 7492SOL    HW134112   4.042   3.928   5.710  0.3661 -0.6263  1.0141
 7492SOL    HW234113   4.130   3.822   5.708 -0.5166  0.3331  1.0096
 7493SOL     OW34114   1.228   2.330  14.235  0.0765  0.5881  0.5114
 7493SOL    HW134115   1.159   2.270  14.207  1.4778 -0.6468 -0.2781
 7493SOL    HW234116   1.290   2.310  14.166 -1.4033 -0.3556 -0.5350
 7494SOL     OW34117   0.484   4.394   5.600  0.2019 -0.0927 -0.0744
 7494SOL    HW134118   0.501   4.305   5.573 -0.6740 -0.5462  0.8429
 7494SOL    HW234119   0.416   4.366   5.662  2.0577 -0.5225  1.7646
 7495SOL     OW34120   3.381   4.233   1.166  0.3756  0.1337 -0.6941
 7495SOL    HW134121   3.322   4.305   1.146  1.9121  1.6785  0.2867
 7495SOL    HW234122   3.363   4.180   1.089 -0.8759 -1.3403  0.5949
 7496SOL     OW34123   2.873   2.789  10.415 -0.0193 -0.4550 -0.5134
 7496SOL    HW134124   2.906   2.745  10.337 -0.3157  0.3032 -1.0657
 7496SOL    HW234125   2.834   2.868  10.379 -0.6202 -0.5164  0.0053
 7497SOL     OW34126   4.340   2.971   2.369 -0.0671  0.0818  0.5680
 7497SOL    HW134127   4.433   2.974   2.390  1.1381 -1.0496 -4.6032
 7497SOL    HW234128   4.313   3.061   2.385 -1.5992 -0.2460 -0.1864
 7498SOL     OW34129   3.222   0.386   7.302 -0.4636 -0.1167 -0.7221
 7498SOL    HW134130   3.246   0.479   7.302 -0.9558  0.0114 -0.6212
 7498SOL    HW234131   3.306   0.351   7.331 -0.5603  0.7223  0.6022
 7499SOL     OW34132   2.562   0.420  14.412  0.2945 -0.0523 -0.0094
 7499SOL    HW134133   2.648   0.449  14.384  0.5240 -0.6821  0.0308
 7499SOL    HW234134   2.522   0.497  14.452  2.3153  0.6536  0.6164
 7500SOL     OW34135   3.611   1.864   7.309 -0.0223  0.4822  0.4187
 7500SOL    HW134136   3.568   1.779   7.302 -1.4938  1.3454 -1.0602
 7500SOL    HW234137   3.530   1.915   7.307 -2.1784 -2.9977  0.3001
 7501SOL     OW34138   1.020   3.519  15.035 -0.0399 -0.2318  0.6219
 7501SOL    HW134139   1.075   3.591  15.065 -0.3078  0.0013  0.5557
 7501SOL    HW234140   0.976   3.568  14.966  1.2298 -1.5872 -1.1674
 7502SOL     OW34141   3.691   1.177   5.829  0.3856 -0.3664 -0.0430
 7502SOL    HW134142   3.596   1.177   5.818  0.4313 -5.6795 -0.2764
 7502SOL    HW234143   3.722   1.137   5.748  1.5391  1.5594 -0.5499
 7503SOL     OW34144   0.576   4.416  17.441  0.7730  0.0620 -0.0855
 7503SOL    HW134145   0.509   4.402  17.508 -0.4270  1.1333 -1.0754
 7503SOL    HW234146   0.537   4.480  17.382 -1.9194 -1.2259  0.2857
 7504SOL     OW34147   0.043   4.150  15.421  0.3585 -0.1893  0.3188
 7504SOL    HW134148   4.700   4.150  15.475  0.5910  1.0731  0.6562
 7504SOL    HW234149   0.028   4.081  15.357 -0.4293 -0.1366  0.4485
 7505SOL     OW34150   3.530   1.698  11.865  0.1543  0.3877 -0.1744
 7505SOL    HW134151   3.537   1.783  11.907 -1.7805 -0.4246  1.7500
 7505SOL    HW234152   3.461   1.711  11.800 -0.2636 -1.5809 -0.1150
 7506SOL     OW34153   2.869   2.707  16.279  0.0027 -0.0088 -0.0648
 7506SOL    HW134154   2.808   2.644  16.317 -2.4605  0.2132 -3.7498
 7506SOL    HW234155   2.826   2.792  16.276  0.2221  0.1008 -0.1658
 7507SOL     OW34156   0.352   4.731  17.589  0.0742  0.3153  0.1816
 7507SOL    HW134157   0.447   4.736  17.584  0.2850 -2.9181  1.0107
 7507SOL    HW234158   0.333   4.680  17.510 -0.6096  0.4511  0.2541
 7508SOL     OW34159   3.461   0.702  13.140 -0.3516  0.1580  0.0811
 7508SOL    HW134160   3.399   0.734  13.076 -0.9492 -1.1698 -0.0059
 7508SOL    HW234161   3.409   0.633  13.182  2.5513 -0.2683  2.9951
 7509SOL     OW34162   2.439   0.576  13.335  0.0550 -0.4344  0.4094
 7509SOL    HW134163   2.388   0.618  13.267 -0.3701 -2.1152 -0.3274
 7509SOL    HW234164   2.379   0.509  13.369 -2.7702  0.8080 -2.0891
 7510SOL     OW34165   0.157   4.467  12.774 -0.0791 -0.1882 -0.0390
 7510SOL    HW134166   0.236   4.512  12.806  0.4926 -2.0611  1.1659
 7510SOL    HW234167   0.084   4.529  12.780  0.9606  0.9226  1.1203
 7511SOL     OW34168   2.752   4.066   0.620  0.4314  0.3732 -0.0764
 7511SOL    HW134169   2.713   4.139   0.572  0.9501  1.0215  0.4865
 7511SOL    HW234170   2.702   3.990   0.589  0.1950  0.3751  0.2965
 7512SOL     OW34171   1.357   1.694   6.811 -0.0932 -0.4734 -0.1642
 7512SOL    HW134172   1.439   1.721   6.851  0.5860  0.5663 -2.2923
 7512SOL    HW234173   1.384   1.686   6.720 -0.1945  0.1571 -0.2521
 7513SOL     OW34174   2.413   4.582   4.661  0.0923 -0.5629  0.3590
 7513SOL    HW134175   2.341   4.594   4.723 -0.0188 -2.4850  0.5972
 7513SOL    HW234176   2.485   4.607   4.719 -0.3913  0.2590  0.5989
 7514SOL     OW34177   0.198   4.415   8.477 -0.5986  1.2719 -0.1539
 7514SOL    HW134178   0.241   4.478   8.534  0.0869  0.5226  0.1602
 7514SOL    HW234179   0.196   4.474   8.402  1.6495  1.9051  0.2718
 7515SOL     OW34180   1.078   1.137   9.820  0.8963  0.1699 -0.1262
 7515SOL    HW134181   1.005   1.094   9.865  0.6847  0.0517 -0.5915
 7515SOL    HW234182   1.114   1.210   9.870  0.7382 -0.8151  1.4507
 7516SOL     OW34183   3.611   0.749  13.377  0.4514 -0.3429 -0.0460
 7516SOL    HW134184   3.689   0.797  13.348 -0.2040 -0.5152 -2.0754
 7516SOL    HW234185   3.545   0.766  13.310 -0.9771 -1.9683  0.9427
 7517SOL     OW34186   3.457   1.113   6.480  0.3338  0.0214  0.5332
 7517SOL    HW134187   3.444   1.205   6.457  1.9439 -0.2826 -1.5883
 7517SOL    HW234188   3.536   1.104   6.426  0.6288  1.9863  0.6231
 7518SOL     OW34189   3.388   3.458  13.523 -0.4398 -0.5356 -0.0495
 7518SOL    HW134190   3.437   3.455  13.605 -0.1942 -2.3471 -0.2634
 7518SOL    HW234191   3.435   3.527  13.475 -0.7012 -0.1069  0.3169
 7519SOL     OW34192   4.727   2.000   3.206  0.1091 -0.2525 -0.1280
 7519SOL    HW134193   4.672   2.021   3.131  2.0817  0.3633 -1.3846
 7519SOL    HW234194   4.668   2.041   3.270 -0.1143 -2.0435  0.8103
 7520SOL     OW34195   0.680   3.522   2.147  0.1016 -0.3741  0.3010
 7520SOL    HW134196   0.755   3.531   2.088 -0.4636 -2.6551 -0.7583
 7520SOL    HW234197   0.725   3.496   2.227  1.0224 -1.9106 -0.7251
 7521SOL     OW34198   2.182   3.837   2.830 -0.0688  0.3459 -0.7258
 7521SOL    HW134199   2.238   3.914   2.816  0.8647  0.3044  2.7199
 7521SOL    HW234200   2.183   3.840   2.926 -0.1794  0.7514 -0.7337
 7522SOL     OW34201   1.143   3.722   4.607  0.2002  0.4696 -0.1554
 7522SOL    HW134202   1.080   3.723   4.679  2.3040  0.7745  1.6858
 7522SOL    HW234203   1.104   3.677   4.532  2.0070 -0.7611 -0.3569
 7523SOL     OW34204   1.183   2.534   7.168 -0.3455 -0.0793  0.1732
 7523SOL    HW134205   1.151   2.460   7.221 -0.4511  0.2337  0.5433
 7523SOL    HW234206   1.151   2.604   7.224 -0.8061 -1.0001  1.0793
 7524SOL     OW34207   3.226   4.397   7.822 -0.0757 -0.0705 -0.5600
 7524SOL    HW134208   3.247   4.477   7.772 -0.1071 -0.0894 -0.6030
 7524SOL    HW234209   3.189   4.339   7.755  0.5582  2.5688 -3.2106
 7525SOL     OW34210   2.000   0.780   8.172 -0.5808  0.1510 -0.4736
 7525SOL    HW134211   1.921   0.816   8.213  0.1265 -0.0783  1.1001
 7525SOL    HW234212   2.054   0.854   8.197  0.0896 -0.0990 -1.1825
 7526SOL     OW34213   3.151   3.455   4.665  0.6192 -0.2452 -0.7281
 7526SOL    HW134214   3.211   3.460   4.739  1.1417  1.9302 -1.3166
 7526SOL    HW234215   3.072   3.502   4.691  1.2239  0.3891 -0.0377
 7527SOL     OW34216   3.995   2.520   7.644  0.3418 -0.4365 -0.3403
 7527SOL    HW134217   3.913   2.567   7.659  0.6113 -0.1190  0.1357
 7527SOL    HW234218   4.063   2.586   7.630  2.3675 -2.2509  0.9483
 7528SOL     OW34219   0.713   4.614  14.793 -0.0142 -0.2309 -0.0663
 7528SOL    HW134220   0.755   4.536  14.756 -0.3266 -0.6384  0.4440
 7528SOL    HW234221   0.671   4.656  14.718 -1.6213 -2.0379 -0.1666
 7529SOL     OW34222   3.712   3.904   5.681  0.1558  0.0096  0.5714
 7529SOL    HW134223   3.650   3.920   5.753 -2.4065 -1.5787 -1.2706
 7529SOL    HW234224   3.789   3.949   5.713  0.2839  2.0896 -2.7005
 7530SOL     OW34225   3.397   4.475   5.889 -0.0110  0.1034 -0.5211
 7530SOL    HW134226   3.400   4.569   5.876  1.1875  0.0924 -0.3304
 7530SOL    HW234227   3.331   4.466   5.958  0.3259 -1.0897 -0.3481
 7531SOL     OW34228   0.142   4.012   7.315 -0.6915  0.0504  0.4648
 7531SOL    HW134229   0.154   4.106   7.299  0.5545 -0.1703  0.0922
 7531SOL    HW234230   0.179   4.009   7.403  1.6514 -2.1849 -0.5774
 7532SOL     OW34231   0.525   3.799   2.447 -0.1440 -0.1622  0.7298
 7532SOL    HW134232   0.553   3.882   2.410  4.0753 -2.5638 -1.4546
 7532SOL    HW234233   0.439   3.782   2.409 -0.2344  0.1294  0.8089
 7533SOL     OW34234   1.376   4.069  10.326  0.2317  0.1998 -0.3351
 7533SOL    HW134235   1.393   3.976  10.340  1.6374  0.2762 -1.5310
 7533SOL    HW234236   1.465   4.104  10.325  0.0945  0.5573 -0.1374
 7534SOL     OW34237   1.152   0.502   7.478  0.1897  0.6323  0.2483
 7534SOL    HW134238   1.071   0.534   7.438 -0.7836 -0.6976  1.1520
 7534SOL    HW234239   1.171   0.425   7.425  1.1844  1.6322 -0.8708
 7535SOL     OW34240   2.111   2.976   1.667 -0.0025  0.5419 -0.0983
 7535SOL    HW134241   2.075   2.919   1.734 -2.3328  0.2894 -1.5573
 7535SOL    HW234242   2.088   2.930   1.586 -0.6894  1.7718 -0.5923
 7536SOL     OW34243   2.542   3.410   7.203  0.1016  0.0656 -0.5056
 7536SOL    HW134244   2.496   3.327   7.217 -1.0460  0.9350  0.8089
 7536SOL    HW234245   2.554   3.423   7.108 -0.0560 -1.7676 -0.7700
 7537SOL     OW34246   0.693   2.233  10.608 -0.0892  0.0925 -0.2038
 7537SOL    HW134247   0.728   2.276  10.530 -0.4007 -0.5829 -0.7116
 7537SOL    HW234248   0.601   2.221  10.585 -0.2436 -0.0762  0.4807
 7538SOL     OW34249   4.110   3.548   9.204  0.1596  0.5549 -0.0298
 7538SOL    HW134250   4.100   3.641   9.228 -0.3879  0.3459  0.5398
 7538SOL    HW234251   4.098   3.548   9.109 -0.2879  1.2367  0.0270
 7539SOL     OW34252   2.393   0.247   4.303  0.3642 -1.1680  0.5690
 7539SOL    HW134253   2.459   0.179   4.313 -0.7429 -2.3483 -0.1798
 7539SOL    HW234254   2.446   0.310   4.254 -0.8175  0.6535  1.6289
 7540SOL     OW34255   2.057   4.275  11.362 -0.6293 -0.4541  0.5729
 7540SOL    HW134256   1.996   4.320  11.304 -0.3083 -0.4067  0.2642
 7540SOL    HW234257   2.130   4.336  11.374  0.6495 -2.0271  0.9248
 7541SOL     OW34258   3.310   4.458  17.538  0.3683 -0.2438 -0.0131
 7541SOL    HW134259   3.285   4.549  17.555  1.7497 -0.2187  1.8354
 7541SOL    HW234260   3.306   4.412  17.622  0.7611 -0.2504 -0.0005
 7542SOL     OW34261   2.640   3.547   4.990 -0.3092 -0.2115 -0.1668
 7542SOL    HW134262   2.601   3.474   4.941 -1.2474  0.8061 -0.9410
 7542SOL    HW234263   2.571   3.613   4.991  0.0153  0.1161  0.9198
 7543SOL     OW34264   3.698   2.530   2.811 -0.3140 -0.0703  0.0954
 7543SOL    HW134265   3.607   2.555   2.831 -0.5054 -0.5587 -0.1596
 7543SOL    HW234266   3.746   2.582   2.875 -1.3214  0.3642  0.4974
 7544SOL     OW34267   0.707   0.730   2.109  0.0057 -0.4254  0.3426
 7544SOL    HW134268   0.713   0.697   2.198 -1.7389  0.9913  0.9965
 7544SOL    HW234269   0.686   0.645   2.072 -0.7056  0.2513 -0.8264
 7545SOL     OW34270   2.718   4.250   7.725 -0.3931  0.4201  0.5142
 7545SOL    HW134271   2.668   4.309   7.781 -1.4090  0.3400 -0.2996
 7545SOL    HW234272   2.786   4.229   7.788  0.8173  1.1668 -0.5487
 7546SOL     OW34273   4.610   1.033  16.414  0.3703  0.4218 -0.0279
 7546SOL    HW134274   4.544   1.003  16.477 -0.1264  1.6098  0.0058
 7546SOL    HW234275   4.567   1.097  16.359 -1.4452 -2.2040 -1.6872
 7547SOL     OW34276   2.257   2.718  16.189 -0.4539 -0.5233  0.5645
 7547SOL    HW134277   2.320   2.647  16.197 -0.4166 -0.5619 -0.0372
 7547SOL    HW234278   2.248   2.732  16.095  0.4368  0.2426  0.5957
 7548SOL     OW34279   1.009   3.573  14.653  0.4349  0.2119 -0.1748
 7548SOL    HW134280   1.001   3.481  14.629 -1.2828  0.6208 -1.2122
 7548SOL    HW234281   1.001   3.621  14.570  0.7470  3.7695  1.8150
 7549SOL     OW34282   3.789   0.172   8.153 -0.1085  0.0971  0.3133
 7549SOL    HW134283   3.834   0.178   8.237 -0.6426 -0.8761  0.6725
 7549SOL    HW234284   3.784   0.077   8.141 -0.0051 -0.0515  1.4097
 7550SOL     OW34285   3.901   0.147   8.409  0.2511  0.0245 -0.3443
 7550SOL    HW134286   3.864   0.060   8.427  0.9784 -0.1392  0.3502
 7550SOL    HW234287   3.884   0.192   8.492  2.4862 -0.4033  0.3609
 7551SOL     OW34288   1.354   3.098   0.892  0.1092  0.1726  0.7205
 7551SOL    HW134289   1.431   3.099   0.834 -0.4449 -1.8554 -0.0438
 7551SOL    HW234290   1.389   3.144   0.968 -2.2200  1.6910  0.8713
 7552SOL     OW34291   0.831   1.097  15.325 -0.5610 -0.8418 -1.0168
 7552SOL    HW134292   0.850   1.089  15.232  0.2528  1.7778 -1.0777
 7552SOL    HW234293   0.919   1.092  15.364 -1.3106 -1.0916  0.6406
 7553SOL     OW34294   2.363   4.261   5.213  0.1259 -0.2037  0.1403
 7553SOL    HW134295   2.419   4.226   5.283  1.7818 -1.5617 -1.8793
 7553SOL    HW234296   2.392   4.352   5.213 -0.0523 -0.1504 -0.3911
 7554SOL     OW34297   3.962   1.068   7.448 -0.5459 -0.6826  0.1174
 7554SOL    HW134298   4.035   1.110   7.493 -1.3040  0.7289 -0.0012
 7554SOL    HW234299   4.002   0.985   7.420 -0.2914  0.0205 -1.5909
 7555SOL     OW34300   1.944   2.864   6.477  0.0855 -0.5720 -0.2005
 7555SOL    HW134301   2.028   2.879   6.434 -0.0309  2.0669  0.4933
 7555SOL    HW234302   1.939   2.950   6.519  0.1802 -0.7542  0.1799
 7556SOL     OW34303   0.697   4.402   2.162  0.1705  0.4538 -0.2292
 7556SOL    HW134304   0.612   4.364   2.184  0.5788 -0.7760 -0.7756
 7556SOL    HW234305   0.686   4.430   2.072  0.1937 -0.5602 -0.5517
 7557SOL     OW34306   0.852   4.372  17.457  0.3017 -0.2167  0.2961
 7557SOL    HW134307   0.864   4.341  17.547  0.1955  1.6428  0.9655
 7557SOL    HW234308   0.760   4.396  17.456  0.5197  0.6422  0.0009
 7558SOL     OW34309   0.918   2.624   2.459 -0.5131  0.6008  0.0984
 7558SOL    HW134310   0.913   2.531   2.439  0.4416  0.3002  1.2578
 7558SOL    HW234311   0.961   2.669   2.386 -1.2889  2.2497  0.6461
 7559SOL     OW34312   0.865   4.431   9.342  0.7798 -0.2374 -0.6462
 7559SOL    HW134313   0.891   4.339   9.346  1.0219 -0.1713 -0.7472
 7559SOL    HW234314   0.946   4.480   9.349 -0.4895  1.6974  0.5114
 7560SOL     OW34315   3.088   0.421   2.852  0.1325 -0.1051 -0.2186
 7560SOL    HW134316   3.146   0.359   2.808 -1.8529 -1.1682 -1.3504
 7560SOL    HW234317   3.136   0.438   2.933 -1.2348  2.8288 -0.0256
 7561SOL     OW34318   2.515   2.386   6.457  0.6846  0.4472  0.3764
 7561SOL    HW134319   2.521   2.481   6.445  2.2603  0.2481 -0.5039
 7561SOL    HW234320   2.605   2.379   6.489  0.5480 -0.2050  0.6224
 7562SOL     OW34321   1.421   3.684  11.216  0.5138  0.3947 -0.2666
 7562SOL    HW134322   1.481   3.757  11.200 -0.9993  1.7141  0.0943
 7562SOL    HW234323   1.432   3.681  11.311 -0.1266 -0.4789 -0.2212
 7563SOL     OW34324   2.596   1.856  13.171  1.0352 -0.4060 -0.1484
 7563SOL    HW134325   2.646   1.827  13.246  0.4349  0.1884  0.4869
 7563SOL    HW234326   2.643   1.933  13.138  0.6278 -0.0676  0.0496
 7564SOL     OW34327   4.049   1.071   4.429 -0.6910 -0.1657  0.4418
 7564SOL    HW134328   4.015   1.067   4.340 -1.7468 -0.0948  0.8289
 7564SOL    HW234329   4.024   0.984   4.461 -0.4988 -0.2250  0.4279
 7565SOL     OW34330   2.540   3.325   0.234 -0.2913 -0.4465  0.1749
 7565SOL    HW134331   2.509   3.241   0.267 -0.9303  0.4128  1.7683
 7565SOL    HW234332   2.513   3.306   0.144  1.0745 -1.3443 -0.0510
 7566SOL     OW34333   2.687   3.131  13.440 -0.1687  0.2909 -0.0066
 7566SOL    HW134334   2.749   3.163  13.505 -0.6626  0.4373  0.3967
 7566SOL    HW234335   2.615   3.092  13.490 -0.1570 -2.3956 -2.0511
 7567SOL     OW34336   1.368   2.626   3.873 -0.0093 -0.3182  0.1359
 7567SOL    HW134337   1.458   2.617   3.905 -0.0250 -2.7864 -0.4945
 7567SOL    HW234338   1.354   2.719   3.858  2.8803 -0.1023 -1.1314
 7568SOL     OW34339   1.602   2.984   3.096  0.4312 -0.3693 -0.1852
 7568SOL    HW134340   1.684   3.031   3.088 -1.2397  2.2071 -1.9555
 7568SOL    HW234341   1.545   3.017   3.026  0.0504 -2.7296 -0.9898
 7569SOL     OW34342   0.300   2.002   3.991  0.6799  0.3315  0.2362
 7569SOL    HW134343   0.318   1.909   3.988 -0.9407  0.0481 -0.5829
 7569SOL    HW234344   0.211   1.981   4.019 -0.0162  3.1123  0.1306
 7570SOL     OW34345   2.183   3.214   6.576  0.2694  0.4359  0.1070
 7570SOL    HW134346   2.205   3.227   6.668 -2.0211  2.5050  0.3609
 7570SOL    HW234347   2.264   3.175   6.543 -0.4006 -1.5761  0.8339
 7571SOL     OW34348   4.444   1.873   2.861 -0.0951  0.2540 -0.4135
 7571SOL    HW134349   4.376   1.807   2.872  0.9755 -0.7427  0.2203
 7571SOL    HW234350   4.450   1.879   2.766  1.5048 -2.5064 -0.4855
 7572SOL     OW34351   2.640   4.714   4.498  0.8223  0.4133  0.0339
 7572SOL    HW134352   2.566   4.661   4.526  2.2779 -1.0180  1.1490
 7572SOL    HW234353   2.625   4.712   4.404 -3.3555 -1.1641  0.7150
 7573SOL     OW34354   1.288   0.571  15.924  0.3034 -0.4710 -0.1682
 7573SOL    HW134355   1.199   0.607  15.928  1.2027  1.8529 -0.9251
 7573SOL    HW234356   1.331   0.640  15.973  0.9736  0.3269 -1.8852
 7574SOL     OW34357   4.169   3.078  11.182 -0.0669 -0.0064  0.4110
 7574SOL    HW134358   4.165   2.983  11.195  0.3540  0.0675  1.1262
 7574SOL    HW234359   4.264   3.091  11.181 -0.0996  0.2761  0.8684
 7575SOL     OW34360   3.920   2.768   5.790  0.3687  0.1599 -0.5796
 7575SOL    HW134361   3.889   2.681   5.816  0.8447 -0.9208 -3.6082
 7575SOL    HW234362   3.837   2.817   5.795  0.8261  0.6845  1.7957
 7576SOL     OW34363   4.382   3.029   5.860 -0.1181 -0.6573  0.5936
 7576SOL    HW134364   4.314   2.996   5.919 -1.2594 -0.0760 -0.3826
 7576SOL    HW234365   4.419   3.106   5.903 -1.7172 -0.1446  1.0570
 7577SOL     OW34366   1.318   4.023  14.087 -0.1849  0.0319  0.3075
 7577SOL    HW134367   1.320   4.000  13.994  0.4658  1.1198  0.0429
 7577SOL    HW234368   1.342   3.935  14.115  0.0741 -0.0751 -0.2573
 7578SOL     OW34369   1.778   1.864   4.973  0.0890 -0.1975  0.3906
 7578SOL    HW134370   1.861   1.819   4.955  2.1548  3.8611 -0.3817
 7578SOL    HW234371   1.788   1.925   4.899  0.4925 -0.3512  0.3143
 7579SOL     OW34372   1.317   3.077  12.750 -0.3555 -0.9252 -0.5448
 7579SOL    HW134373   1.246   3.138  12.731 -0.8274 -1.5883 -0.8696
 7579SOL    HW234374   1.276   3.014  12.809 -0.6803  0.2977  0.5314
 7580SOL     OW34375   2.607   3.464   2.287 -0.0840 -0.3225 -0.2405
 7580SOL    HW134376   2.535   3.508   2.332  1.2045  0.8746  0.6448
 7580SOL    HW234377   2.677   3.529   2.284 -1.0491  0.7804  1.4374
 7581SOL     OW34378   1.947   0.210   9.810  0.2055  0.4584 -0.5840
 7581SOL    HW134379   1.964   0.295   9.771  0.4002  2.0452  2.9321
 7581SOL    HW234380   1.897   0.185   9.732  0.4077  0.8875 -0.8483
 7582SOL     OW34381   2.239   0.586   5.360 -0.3614  0.3648  0.3229
 7582SOL    HW134382   2.241   0.512   5.420  0.1662 -0.3078 -0.5273
 7582SOL    HW234383   2.183   0.547   5.293  2.6959 -0.5737 -1.6567
 7583SOL     OW34384   4.250   1.719   4.299 -0.2861 -0.0471  0.2829
 7583SOL    HW134385   4.296   1.693   4.379  1.0207  0.7407 -0.2043
 7583SOL    HW234386   4.219   1.803   4.335 -1.3290  0.1802 -1.1712
 7584SOL     OW34387   1.498   0.579   6.857 -0.0581 -0.3248 -0.0026
 7584SOL    HW134388   1.584   0.606   6.824  0.5070 -3.7757 -1.3352
 7584SOL    HW234389   1.486   0.493   6.816  0.3470 -0.0271 -0.7397
 7585SOL     OW34390   1.209   2.189   1.495  0.4922  0.3180  0.0832
 7585SOL    HW134391   1.237   2.097   1.488 -0.4242 -0.1346  2.3525
 7585SOL    HW234392   1.140   2.163   1.557 -1.1334 -2.5420 -2.9269
 7586SOL     OW34393   2.107   4.383   1.191 -0.0286  0.0999 -0.1982
 7586SOL    HW134394   2.111   4.322   1.117  0.3506  0.2422 -0.2912
 7586SOL    HW234395   2.193   4.424   1.190 -0.6939  1.4936 -0.0926
 7587SOL     OW34396   3.137   2.816   0.182  0.1144  0.6367  0.2457
 7587SOL    HW134397   3.104   2.832   0.270 -1.4773  0.5027 -0.3216
 7587SOL    HW234398   3.179   2.734   0.208 -1.9179 -0.4263  0.2202
 7588SOL     OW34399   0.696   4.504   6.514  0.4681 -0.5559  0.1514
 7588SOL    HW134400   0.677   4.410   6.516  0.3529 -0.4950  2.0101
 7588SOL    HW234401   0.640   4.525   6.439  1.2113 -0.4091 -0.3622
 7589SOL     OW34402   0.219   1.885  14.055 -0.6423  0.0235 -0.1991
 7589SOL    HW134403   0.297   1.873  14.109 -1.3417 -1.5128  0.4734
 7589SOL    HW234404   0.141   1.913  14.103 -0.0822  0.5078  0.4206
 7590SOL     OW34405   3.106   3.311   8.273  0.5202  0.5464 -0.6759
 7590SOL    HW134406   3.195   3.290   8.301 -0.3371 -2.5407 -0.3162
 7590SOL    HW234407   3.121   3.315   8.178  1.4446 -0.1722 -0.5550
 7591SOL     OW34408   0.404   2.748   6.009  0.3957 -0.1940 -0.1540
 7591SOL    HW134409   0.453   2.735   6.090 -0.7801 -0.3555  0.5349
 7591SOL    HW234410   0.462   2.715   5.940 -1.5682 -1.4357 -1.2123
 7592SOL     OW34411   1.688   2.069   1.910  0.2527  0.5754 -0.0090
 7592SOL    HW134412   1.654   2.052   1.997  0.7023  1.0949  0.2642
 7592SOL    HW234413   1.607   2.077   1.859  0.0819  2.2313  0.5397
 7593SOL     OW34414   3.481   3.141   2.737  0.6202  0.5106  0.0375
 7593SOL    HW134415   3.529   3.058   2.742 -0.8396 -0.3947 -0.6903
 7593SOL    HW234416   3.394   3.119   2.771  0.8888  0.7590  0.8796
 7594SOL     OW34417   1.871   3.239  12.245 -0.3013 -0.3113  0.4252
 7594SOL    HW134418   1.835   3.196  12.168  0.6678 -1.3526  0.5370
 7594SOL    HW234419   1.832   3.181  12.311  0.3282  1.1490  2.1036
 7595SOL     OW34420   2.748   3.223  13.192  0.9582 -0.3832  0.1147
 7595SOL    HW134421   2.823   3.280  13.210  0.4705  0.5568 -0.8344
 7595SOL    HW234422   2.737   3.195  13.283 -2.9303 -0.3220 -0.3373
 7596SOL     OW34423   2.675   1.131   8.498  0.5202 -0.3404  0.2169
 7596SOL    HW134424   2.665   1.190   8.423  1.6780  1.0561  1.1724
 7596SOL    HW234425   2.617   1.174   8.561 -0.1332 -0.6235 -0.1907
 7597SOL     OW34426   4.466   3.430  12.424  0.8227  0.8349  0.3009
 7597SOL    HW134427   4.435   3.476  12.346  0.8018  1.2768  0.5729
 7597SOL    HW234428   4.559   3.428  12.403  0.8860 -0.4916  0.7181
 7598SOL     OW34429   2.896   0.430   4.701  0.5298 -0.0332  0.3815
 7598SOL    HW134430   2.913   0.523   4.716 -0.5176  0.4254 -1.2391
 7598SOL    HW234431   2.983   0.407   4.668  1.5268  1.8251  1.7205
 7599SOL     OW34432   2.544   1.223   6.263 -0.5307 -0.3703 -0.7138
 7599SOL    HW134433   2.624   1.171   6.255 -0.6802 -0.7203  0.0290
 7599SOL    HW234434   2.549   1.261   6.351  0.9535 -0.9535 -0.5479
 7600SOL     OW34435   0.650   3.308   7.977 -0.2448  0.6972  0.4442
 7600SOL    HW134436   0.705   3.235   8.004 -0.7902  0.4261  0.8327
 7600SOL    HW234437   0.598   3.255   7.917 -0.7064  2.1063 -0.3898
 7601SOL     OW34438   0.167   0.950  15.347 -0.1823  0.9234 -0.9107
 7601SOL    HW134439   0.218   0.966  15.268 -1.3058  0.9752 -1.6300
 7601SOL    HW234440   0.220   0.878  15.379 -1.3819  0.1423 -0.6710
 7602SOL     OW34441   1.772   0.407   6.120  0.5237  0.0438  0.7601
 7602SOL    HW134442   1.832   0.341   6.084  1.3876  2.2685 -1.8870
 7602SOL    HW234443   1.765   0.384   6.213 -1.3478 -1.8503  0.1460
 7603SOL     OW34444   2.053   2.324   3.152  0.1351 -0.1230  0.3591
 7603SOL    HW134445   1.987   2.333   3.220 -0.5624 -2.0460 -0.0724
 7603SOL    HW234446   2.126   2.299   3.208 -0.6634 -0.2288  1.3453
 7604SOL     OW34447   0.679   4.435   7.875  0.1605 -0.1627  0.5464
 7604SOL    HW134448   0.656   4.468   7.788  1.5434 -1.1769 -0.2197
 7604SOL    HW234449   0.772   4.411   7.865  0.4620  1.3549 -0.2925
 7605SOL     OW34450   3.614   3.868   2.486  0.0031 -0.4935  0.0599
 7605SOL    HW134451   3.672   3.807   2.531 -0.4499 -0.7386  0.3112
 7605SOL    HW234452   3.598   3.813   2.409  1.1163  2.2730 -2.1407
 7606SOL     OW34453   3.444   3.572   8.978 -0.1815 -0.2430 -0.3303
 7606SOL    HW134454   3.367   3.591   8.923  0.0333  0.2367 -0.4652
 7606SOL    HW234455   3.426   3.629   9.053  1.0204 -1.1867  0.6675
 7607SOL     OW34456   3.495   1.162  17.029 -0.1404  0.0273  0.1133
 7607SOL    HW134457   3.504   1.233  16.966 -0.0740  1.8252  2.1290
 7607SOL    HW234458   3.399   1.164  17.023 -0.3250 -1.9146  2.4593
 7608SOL     OW34459   1.667   0.203   3.416 -0.2468  0.4449 -0.0979
 7608SOL    HW134460   1.652   0.117   3.376 -3.9616  0.5682  0.9798
 7608SOL    HW234461   1.689   0.253   3.338 -2.9212 -0.0136 -1.1728
 7609SOL     OW34462   4.587   1.733   3.768  0.6778  0.3506 -0.3023
 7609SOL    HW134463   4.657   1.689   3.816  2.9378  1.5009 -2.5575
 7609SOL    HW234464   4.635   1.745   3.686  2.5174 -1.1013  0.5683
 7610SOL     OW34465   4.655   0.577   1.844 -0.0146 -0.6627  0.0436
 7610SOL    HW134466   4.591   0.549   1.778 -1.1076  1.9232  0.0347
 7610SOL    HW234467   4.698   0.647   1.796 -1.3878  0.6980  0.8128
 7611SOL     OW34468   1.079   2.190   5.049 -0.0903 -0.0111  0.6060
 7611SOL    HW134469   1.163   2.152   5.024 -1.2937 -1.2551 -1.5522
 7611SOL    HW234470   1.029   2.194   4.967  0.0075 -0.0185  0.5453
 7612SOL     OW34471   1.008   3.682   9.892 -0.3411 -0.1638 -0.0888
 7612SOL    HW134472   0.994   3.763   9.941  0.3093 -1.2711  1.9070
 7612SOL    HW234473   1.009   3.614   9.959  0.7863 -0.4890 -0.4297
 7613SOL     OW34474   1.591   0.956  11.105 -0.4851 -0.0683 -0.0611
 7613SOL    HW134475   1.635   0.986  11.184 -1.0800  1.7055 -0.3991
 7613SOL    HW234476   1.653   0.892  11.070  0.9268  1.3679 -0.2102
 7614SOL     OW34477   1.296   4.493   5.276  0.3630 -0.5375  0.1656
 7614SOL    HW134478   1.300   4.397   5.272  1.7098 -0.2821 -3.9602
 7614SOL    HW234479   1.205   4.505   5.306 -0.0796 -0.8918 -1.0258
 7615SOL     OW34480   3.938   0.952  15.663  0.0397 -0.0690 -0.4925
 7615SOL    HW134481   3.960   0.913  15.578 -0.0241 -0.1339 -0.4792
 7615SOL    HW234482   3.864   0.899  15.691 -0.6078 -1.1500 -4.2247
 7616SOL     OW34483   1.302   0.087  10.547 -0.0080 -0.3316 -0.1374
 7616SOL    HW134484   1.299   0.021  10.616  0.3359 -0.6459 -0.4250
 7616SOL    HW234485   1.397   0.098  10.540 -0.0006  0.7636  1.7465
 7617SOL     OW34486   1.481   2.652  12.637 -0.0814 -0.0948  0.2663
 7617SOL    HW134487   1.522   2.738  12.633 -0.7265  0.1136 -1.7173
 7617SOL    HW234488   1.463   2.637  12.730 -0.5087  3.2760  0.7160
 7618SOL     OW34489   2.534   2.734  15.089 -0.4825  0.0103 -0.3041
 7618SOL    HW134490   2.496   2.821  15.075  1.8515  1.0800  0.0665
 7618SOL    HW234491   2.479   2.697  15.019 -0.0186 -2.2179  0.5140
 7619SOL     OW34492   1.865   1.565   3.746  0.5549 -0.6639 -0.4378
 7619SOL    HW134493   1.919   1.511   3.688 -0.6737 -2.0704 -0.2915
 7619SOL    HW234494   1.848   1.636   3.685  0.8330 -0.0738  0.1792
 7620SOL     OW34495   4.558   0.666  15.323  0.1589  0.0711  0.0206
 7620SOL    HW134496   4.491   0.604  15.353 -0.8448  1.3413  0.4145
 7620SOL    HW234497   4.639   0.626  15.353 -0.5681 -0.5331  1.1764
 7621SOL     OW34498   3.097   0.376   1.302 -0.5392 -0.0260 -0.1032
 7621SOL    HW134499   3.029   0.311   1.286  1.1594 -1.0371 -3.1401
 7621SOL    HW234500   3.099   0.383   1.397  0.3002 -1.0867 -0.0513
 7622SOL     OW34501   4.125   2.944  14.497 -0.8994  0.0898  0.2653
 7622SOL    HW134502   4.110   2.908  14.585 -0.8282 -0.3159  0.1125
 7622SOL    HW234503   4.041   2.915  14.462 -0.1666 -0.7593 -0.7814
 7623SOL     OW34504   3.462   2.057   3.802 -0.0025 -0.1831 -0.2975
 7623SOL    HW134505   3.544   2.038   3.757  0.2878  1.2958 -0.3776
 7623SOL    HW234506   3.466   2.149   3.827 -1.6334  0.7107 -3.3695
 7624SOL     OW34507   1.977   4.579   2.772 -0.0809 -0.4781  0.0007
 7624SOL    HW134508   2.013   4.650   2.825  0.4467 -1.2742  0.7131
 7624SOL    HW234509   1.937   4.528   2.843 -1.3057 -0.4824 -0.6986
 7625SOL     OW34510   0.542   2.412   3.216 -0.0249 -0.4590  0.6740
 7625SOL    HW134511   0.561   2.501   3.188 -0.2040 -0.7308 -0.3331
 7625SOL    HW234512   0.630   2.388   3.246  0.2705  1.3702  1.2450
 7626SOL     OW34513   3.493   3.002  15.644  0.1877  0.0445  0.8466
 7626SOL    HW134514   3.419   3.064  15.638  1.0766  0.8858 -1.1090
 7626SOL    HW234515   3.543   3.026  15.567 -2.0916  1.3600 -0.2503
 7627SOL     OW34516   1.507   2.780   6.890  0.4368 -0.0442 -0.0340
 7627SOL    HW134517   1.467   2.844   6.950 -0.4297 -0.6502  0.0379
 7627SOL    HW234518   1.481   2.692   6.915  0.3076  0.2459  0.8642
 7628SOL     OW34519   1.925   2.136   3.982  0.0928  0.0670  0.2729
 7628SOL    HW134520   1.984   2.062   3.997 -3.4702 -3.4422 -3.0274
 7628SOL    HW234521   1.860   2.109   3.917 -0.5963 -2.5217  2.0343
 7629SOL     OW34522   0.652   0.479   5.533  0.4108  0.6085  0.6524
 7629SOL    HW134523   0.612   0.477   5.621 -0.8268 -1.7182  0.0387
 7629SOL    HW234524   0.580   0.461   5.473  2.0975 -1.3594 -0.7553
 7630SOL     OW34525   3.000   1.800   2.341  0.2370  0.4396  0.4638
 7630SOL    HW134526   3.012   1.785   2.247 -0.0070  0.7810  0.3791
 7630SOL    HW234527   3.028   1.891   2.355 -2.7461  1.3832  0.3450
 7631SOL     OW34528   2.421   2.041  10.316 -0.0091 -0.5461 -0.0250
 7631SOL    HW134529   2.458   2.058  10.403  1.4153 -0.5957 -0.6252
 7631SOL    HW234530   2.449   2.115  10.262 -1.0043 -0.6004 -0.6045
 7632SOL     OW34531   1.449   3.287   1.754 -0.4106 -0.4799 -0.1498
 7632SOL    HW134532   1.408   3.230   1.819  0.4884 -3.0389 -1.8506
 7632SOL    HW234533   1.407   3.246   1.679 -1.4053 -1.0635  0.7113
 7633SOL     OW34534   0.342   2.772  10.637 -0.1361  0.2770 -0.5016
 7633SOL    HW134535   0.281   2.705  10.669  0.7203 -0.6042 -0.7289
 7633SOL    HW234536   0.287   2.849  10.655 -0.1239  0.7958 -2.6730
 7634SOL     OW34537   0.578   0.800   8.186 -0.5142  0.0183 -0.6597
 7634SOL    HW134538   0.503   0.744   8.203  0.1174 -0.6441 -0.0479
 7634SOL    HW234539   0.542   0.886   8.165 -2.0185 -0.3390  0.5063
 7635SOL     OW34540   4.611   4.720   3.087 -0.2059 -0.2158  0.1348
 7635SOL    HW134541   4.586   0.054   3.026 -0.9577 -0.2231  0.4261
 7635SOL    HW234542   4.647   4.657   3.025  0.7165 -0.0036  0.4601
 7636SOL     OW34543   2.124   4.269   4.857  0.0030  0.8677 -0.4998
 7636SOL    HW134544   2.029   4.283   4.860 -0.0824 -0.1478  1.3867
 7636SOL    HW234545   2.154   4.353   4.890  0.4748  0.1815  0.8217
 7637SOL     OW34546   0.860   1.898   2.941  0.6458 -0.0507 -0.5158
 7637SOL    HW134547   0.880   1.859   2.856  2.8893 -0.9715  0.4329
 7637SOL    HW234548   0.797   1.835   2.976  1.3393 -0.3348  0.2108
 7638SOL     OW34549   1.897   4.686   0.708 -0.3671  0.3550  0.0581
 7638SOL    HW134550   1.953   4.616   0.742  1.4004  1.8785  0.2710
 7638SOL    HW234551   1.913   0.023   0.768  1.3689 -1.8644  2.3276
 7639SOL     OW34552   1.435   4.288  17.674  0.4828 -0.3768 -0.2415
 7639SOL    HW134553   1.371   4.270   0.001  0.6276  0.6742  0.1532
 7639SOL    HW234554   1.424   4.381  17.654 -1.1364 -0.6261 -0.5222
 7640SOL     OW34555   2.531   4.140   1.987 -0.5796 -0.2926 -0.3704
 7640SOL    HW134556   2.515   4.175   2.075  1.7505 -1.5609  0.5625
 7640SOL    HW234557   2.545   4.216   1.930 -0.1728 -0.6320 -0.7175
 7641SOL     OW34558   4.662   2.239   7.138 -0.2780 -1.1912  0.2434
 7641SOL    HW134559   4.599   2.296   7.095  1.5097 -0.9025 -1.9738
 7641SOL    HW234560   0.006   2.246   7.086 -1.3764 -0.8073 -1.3915
 7642SOL     OW34561   2.667   1.595  17.112  0.4812  0.3949  0.3906
 7642SOL    HW134562   2.584   1.548  17.115  0.4846  0.3406 -0.5071
 7642SOL    HW234563   2.697   1.579  17.023  0.7156 -2.7564  1.0427
 7643SOL     OW34564   0.081   0.388   2.012 -0.1967  0.0149 -0.1396
 7643SOL    HW134565   4.735   0.419   2.049  0.6100 -1.0315  2.5121
 7643SOL    HW234566   0.101   0.458   1.950  1.0817 -0.2615 -0.0437
 7644SOL     OW34567   4.606   1.971   7.214 -0.2275 -0.0423  0.7401
 7644SOL    HW134568   4.607   2.051   7.162  0.2394 -0.4450  0.1325
 7644SOL    HW234569   4.632   1.906   7.149 -0.0376  3.9090 -3.0746
 7645SOL     OW34570   3.411   3.786   6.693  0.3924 -0.3089  0.0023
 7645SOL    HW134571   3.321   3.796   6.722  0.4429  2.0952 -0.7028
 7645SOL    HW234572   3.441   3.715   6.751  0.2486  1.0560  1.7372
 7646SOL     OW34573   4.233   1.203  15.156  0.2640 -0.3872  0.0258
 7646SOL    HW134574   4.196   1.238  15.237  2.0670  2.7588 -0.5093
 7646SOL    HW234575   4.279   1.125  15.188 -0.5645 -1.2022 -0.7588
 7647SOL     OW34576   1.457   1.964   3.372 -0.1677  0.1248 -0.5268
 7647SOL    HW134577   1.394   1.999   3.309  0.1367 -0.0695 -0.9371
 7647SOL    HW234578   1.395   1.939   3.441  1.0150  0.8044  0.7795
 7648SOL     OW34579   1.296   2.155   7.468 -0.2166 -0.5917  0.0353
 7648SOL    HW134580   1.307   2.142   7.562 -2.7284 -0.3154  0.3521
 7648SOL    HW234581   1.384   2.147   7.430 -0.2895  1.2300 -0.4825
 7649SOL     OW34582   3.109   2.590   4.740 -0.9116  0.3251 -0.0139
 7649SOL    HW134583   3.138   2.647   4.811  3.6194  1.0486 -2.3752
 7649SOL    HW234584   3.192   2.598   4.692 -0.2127 -1.8347  0.8326
 7650SOL     OW34585   2.259   1.221   3.538  0.4210  0.1780 -0.6669
 7650SOL    HW134586   2.350   1.211   3.566  0.2334 -1.4445 -0.6624
 7650SOL    HW234587   2.273   1.298   3.483 -0.6778  1.5559  0.9748
 7651SOL     OW34588   2.828   1.672   3.946 -0.3066 -0.1098  0.1625
 7651SOL    HW134589   2.911   1.674   3.899 -0.7290  0.9218 -0.5269
 7651SOL    HW234590   2.797   1.584   3.925 -0.1993 -0.1308  0.0948
 7652SOL     OW34591   0.428   2.825  15.315 -0.0445  0.3757 -0.2801
 7652SOL    HW134592   0.461   2.908  15.281 -1.3985  1.0132 -0.0324
 7652SOL    HW234593   0.444   2.778  15.233  0.0306 -0.2676  0.1041
 7653SOL     OW34594   3.139   4.733   3.570  0.2117 -0.3306 -0.3909
 7653SOL    HW134595   3.049   0.025   3.559 -0.5438 -2.3711  0.5012
 7653SOL    HW234596   3.148   4.658   3.511 -1.3703 -0.5071 -0.3930
 7654SOL     OW34597   2.645   3.797  16.146  0.2853  0.6633 -0.4478
 7654SOL    HW134598   2.558   3.828  16.123  1.0454  1.7325 -1.9163
 7654SOL    HW234599   2.696   3.862  16.097  1.3224  0.4114  0.2845
 7655SOL     OW34600   3.909   0.851   0.858 -0.1731 -0.2609 -0.0588
 7655SOL    HW134601   3.896   0.918   0.925 -1.6718 -0.3172 -0.3130
 7655SOL    HW234602   4.002   0.870   0.840  0.1834 -1.4250  0.5484
 7656SOL     OW34603   4.168   1.342   2.096 -0.3238 -0.3537  0.0333
 7656SOL    HW134604   4.131   1.301   2.173 -0.3440  0.6276  0.5473
 7656SOL    HW234605   4.094   1.400   2.077 -0.9655 -1.1705  0.0704
 7657SOL     OW34606   4.378   3.313  17.529 -0.3802  0.0048  0.6392
 7657SOL    HW134607   4.287   3.329  17.505  0.2629  0.8311 -1.2788
 7657SOL    HW234608   4.406   3.231  17.487  2.2177 -0.0185  2.4243
 7658SOL     OW34609   0.360   3.183  16.193 -0.3467 -0.3162  0.2061
 7658SOL    HW134610   0.369   3.108  16.134 -1.9470 -0.2839 -0.0806
 7658SOL    HW234611   0.296   3.233  16.143  0.3905 -0.8186 -1.2354
 7659SOL     OW34612   1.803   2.386   8.319 -0.3454  0.0488  0.0049
 7659SOL    HW134613   1.801   2.405   8.413 -1.0224 -0.8515  0.1680
 7659SOL    HW234614   1.740   2.454   8.297  1.1932  1.1695 -0.9922
 7660SOL     OW34615   4.287   1.550   6.606  0.3249  0.2565 -0.4668
 7660SOL    HW134616   4.209   1.547   6.661  0.3683  0.3377 -0.3994
 7660SOL    HW234617   4.306   1.456   6.609  2.6315  0.6923 -1.6118
 7661SOL     OW34618   1.921   2.757   4.467 -0.1702  0.2080  0.1489
 7661SOL    HW134619   1.876   2.675   4.490  0.4328 -0.7853 -2.2121
 7661SOL    HW234620   2.008   2.724   4.446 -0.3785  0.7167 -1.5498
 7662SOL     OW34621   0.615   3.544   6.557  0.5989  0.5976 -0.4211
 7662SOL    HW134622   0.644   3.486   6.487  1.5297  2.0058 -1.1868
 7662SOL    HW234623   0.674   3.616   6.538  2.2465 -0.6011  0.1994
 7663SOL     OW34624   2.369   0.378   6.730 -0.3655  0.7303  0.2442
 7663SOL    HW134625   2.286   0.375   6.683 -0.5640 -1.7905  0.7996
 7663SOL    HW234626   2.379   0.473   6.739 -0.4036  0.9960 -2.4511
 7664SOL     OW34627   2.275   1.886   8.758  0.6986 -0.5353 -0.1181
 7664SOL    HW134628   2.292   1.968   8.711  2.4805 -0.9687 -0.2574
 7664SOL    HW234629   2.342   1.898   8.825 -0.5396  1.6415  0.7166
 7665SOL     OW34630   4.478   1.435   2.138  0.2415  0.0223 -0.2547
 7665SOL    HW134631   4.461   1.356   2.190  2.1145  0.2081  0.6434
 7665SOL    HW234632   4.389   1.439   2.103  0.2546  2.0058 -0.0243
 7666SOL     OW34633   1.045   0.541   8.198  0.0049  0.2484  0.1556
 7666SOL    HW134634   1.045   0.520   8.292 -0.8983  1.7665  0.4970
 7666SOL    HW234635   0.975   0.607   8.196 -2.9502 -2.8093  1.0767
 7667SOL     OW34636   0.088   1.726   1.707 -0.1871  0.5251 -0.3055
 7667SOL    HW134637   0.132   1.811   1.698  0.8824  0.1956  1.9816
 7667SOL    HW234638   0.088   1.693   1.617 -2.6817  0.3973 -0.2543
 7668SOL     OW34639   2.674   2.770   4.231 -0.1280  0.2585 -0.3566
 7668SOL    HW134640   2.646   2.861   4.216  0.2413  0.3744 -0.3370
 7668SOL    HW234641   2.585   2.738   4.245  0.8361 -2.1579  0.2466
 7669SOL     OW34642   2.017   0.297   5.703 -0.6469  0.8374 -0.6535
 7669SOL    HW134643   2.104   0.337   5.706 -1.6416  3.0211 -1.2781
 7669SOL    HW234644   2.047   0.219   5.655 -1.3583 -1.3222  2.4089
 7670SOL     OW34645   0.005   4.663  13.685  0.5042 -0.0127  0.3245
 7670SOL    HW134646   4.678   4.594  13.709  0.7534  0.2372  1.7164
 7670SOL    HW234647   4.723   4.675  13.592 -1.9268 -0.3256  0.7338
 7671SOL     OW34648   2.186   3.771  13.074  0.0978 -0.4111  0.0236
 7671SOL    HW134649   2.138   3.854  13.083 -1.1479 -1.2928  1.5716
 7671SOL    HW234650   2.185   3.736  13.163  1.1072 -1.0566 -0.2125
 7672SOL     OW34651   2.841   1.386  15.458  0.1628  0.0273 -0.1683
 7672SOL    HW134652   2.757   1.355  15.491  0.2474 -0.6094 -0.5571
 7672SOL    HW234653   2.900   1.357  15.528 -0.0836 -0.3173 -0.1071
 7673SOL     OW34654   2.557   3.557  10.727 -0.2972 -0.0292  0.0803
 7673SOL    HW134655   2.631   3.535  10.670 -0.0434  0.6242  0.1501
 7673SOL    HW234656   2.598   3.609  10.796 -1.3170  2.3137 -1.0971
 7674SOL     OW34657   4.081   0.315   8.242 -0.1464 -0.0397 -0.0452
 7674SOL    HW134658   4.008   0.352   8.192 -0.2137  1.0712  0.8799
 7674SOL    HW234659   4.035   0.254   8.300 -0.4338 -0.4488 -0.7006
 7675SOL     OW34660   4.596   2.962   1.714  0.1661  0.3499  0.1571
 7675SOL    HW134661   4.505   2.938   1.701  0.0612  0.8354 -0.0191
 7675SOL    HW234662   4.621   2.971   1.622 -0.3290  0.3712  0.0239
 7676SOL     OW34663   0.033   4.282   9.163  0.1576  0.0424 -0.1973
 7676SOL    HW134664   0.020   4.364   9.212  1.3620 -2.0004  3.4937
 7676SOL    HW234665   0.051   4.314   9.074  2.1966 -1.2601 -0.2456
 7677SOL     OW34666   2.227   3.413  12.144  0.5091  0.4173  0.4675
 7677SOL    HW134667   2.279   3.341  12.180  0.3493  0.9880  1.8412
 7677SOL    HW234668   2.153   3.356  12.120  0.0172  0.0258  2.9123
 7678SOL     OW34669   1.773   2.269   7.290  0.2042  0.6774  0.3768
 7678SOL    HW134670   1.760   2.182   7.327  0.0413 -0.0346 -1.3285
 7678SOL    HW234671   1.799   2.243   7.202  1.3148 -1.6812  1.4066
 7679SOL     OW34672   0.491   0.269   7.575 -0.3695 -0.2288  0.5980
 7679SOL    HW134673   0.527   0.229   7.654  0.6475 -0.8958 -0.1958
 7679SOL    HW234674   0.511   0.361   7.592  0.7827 -0.1671 -1.0646
 7680SOL     OW34675   4.577   1.862   7.717 -0.2629 -0.8368  0.2921
 7680SOL    HW134676   4.580   1.890   7.626  2.2595  0.7009  0.8413
 7680SOL    HW234677   4.596   1.769   7.700  3.2575 -0.2550  1.0001
 7681SOL     OW34678   1.802   2.781   2.604 -0.1236 -0.2046  0.2945
 7681SOL    HW134679   1.871   2.846   2.591 -0.0756  0.0702  2.0583
 7681SOL    HW234680   1.771   2.763   2.515  0.0861 -0.9530  0.3694
 7682SOL     OW34681   1.761   1.748   1.564  0.0234 -0.1159 -0.0710
 7682SOL    HW134682   1.773   1.681   1.631 -1.8522 -0.8879 -0.5130
 7682SOL    HW234683   1.784   1.825   1.616 -1.7489  1.9146 -2.2615
 7683SOL     OW34684   2.013   0.177   0.824  0.1309  0.1100 -0.0340
 7683SOL    HW134685   2.082   0.111   0.839 -0.3100 -0.4015 -0.2570
 7683SOL    HW234686   2.065   0.226   0.760 -1.5832  1.4490 -0.3782
 7684SOL     OW34687   2.349   2.904   1.378  0.2404  0.0609 -0.4823
 7684SOL    HW134688   2.362   2.970   1.446 -0.5088  0.0921 -0.3699
 7684SOL    HW234689   2.267   2.862   1.405  0.6950 -0.0747  0.6825
 7685SOL     OW34690   1.337   1.094   8.745  0.2596 -0.0730 -0.0433
 7685SOL    HW134691   1.371   1.137   8.666 -0.4354 -1.2510 -0.9797
 7685SOL    HW234692   1.259   1.050   8.712  1.5097 -1.5156 -1.0520
 7686SOL     OW34693   3.541   1.042  14.857  0.1116  0.3385  0.1691
 7686SOL    HW134694   3.523   1.007  14.944  0.2124 -1.8155 -0.6822
 7686SOL    HW234695   3.540   1.136  14.875  0.9813  0.8246 -2.1996
 7687SOL     OW34696   1.605   1.499   9.623  0.4157 -0.2301 -0.1354
 7687SOL    HW134697   1.517   1.533   9.637 -0.2923 -2.3254  0.3302
 7687SOL    HW234698   1.591   1.439   9.550  1.4167 -0.3116 -0.2691
 7688SOL     OW34699   4.660   1.742   9.795 -0.4147  0.2872  0.1432
 7688SOL    HW134700   4.690   1.664   9.842 -0.1745 -0.0806 -0.6184
 7688SOL    HW234701   0.004   1.759   9.745 -1.9901  2.1733 -1.7323
 7689SOL     OW34702   0.102   3.498  17.342 -0.4204  0.1596 -0.1608
 7689SOL    HW134703   0.071   3.410  17.320 -1.0272  0.4213 -0.3497
 7689SOL    HW234704   0.185   3.456  17.362  0.2201  0.5507 -2.0172
 7690SOL     OW34705   4.713   3.470  12.332  0.0309  0.1071 -0.1796
 7690SOL    HW134706   0.019   3.551  12.304  0.0320 -0.2266 -1.1658
 7690SOL    HW234707   4.707   3.437  12.242  0.1388  0.8666 -0.4629
 7691SOL     OW34708   3.945   2.821   6.459  0.6315  0.1083  0.2961
 7691SOL    HW134709   3.984   2.786   6.539 -0.4911  0.4950  1.0099
 7691SOL    HW234710   3.885   2.888   6.492  1.6720  1.4945 -0.5813
 7692SOL     OW34711   0.623   2.270  12.475  0.1762 -0.3081  0.4001
 7692SOL    HW134712   0.627   2.347  12.418 -0.2161 -0.8527 -0.3714
 7692SOL    HW234713   0.708   2.275  12.519  1.4194  1.3811 -2.1563
 7693SOL     OW34714   4.133   2.305  13.779  0.1765 -0.3282  0.1519
 7693SOL    HW134715   4.187   2.261  13.844 -0.9183 -1.9225 -0.0093
 7693SOL    HW234716   4.140   2.395  13.810  1.5120 -1.2005  2.3618
 7694SOL     OW34717   0.129   0.324  14.540  0.0765 -0.2262  0.4753
 7694SOL    HW134718   0.104   0.417  14.547 -1.1005 -0.3250 -2.6335
 7694SOL    HW234719   0.223   0.333  14.526  0.1880 -0.6775  0.9138
 7695SOL     OW34720   0.048   1.382   3.526 -0.2397 -0.0681  0.1845
 7695SOL    HW134721   0.033   1.372   3.620  0.7726 -0.2956  0.3221
 7695SOL    HW234722   4.715   1.324   3.496 -0.2136 -0.4357  0.8424
 7696SOL     OW34723   0.112   1.903   5.326 -0.2085  0.1745 -0.3087
 7696SOL    HW134724   0.025   1.878   5.295 -0.6207 -0.8273  1.6569
 7696SOL    HW234725   0.176   1.862   5.268 -0.3467 -1.2415  0.5429
 7697SOL     OW34726   1.966   2.933   8.334  0.3502  0.0051  0.0658
 7697SOL    HW134727   2.048   2.888   8.349  0.4412 -0.0812 -0.6976
 7697SOL    HW234728   1.973   3.006   8.396  3.1796  1.3405 -1.8490
 7698SOL     OW34729   3.984   0.773  16.454 -0.0028 -0.3127  0.6905
 7698SOL    HW134730   3.948   0.718  16.385  1.1197 -1.0286  0.6726
 7698SOL    HW234731   3.903   0.821  16.470 -0.0847 -0.2714  0.1538
 7699SOL     OW34732   2.819   3.867   6.710  0.5475  0.4361 -0.2235
 7699SOL    HW134733   2.896   3.814   6.733  1.0652  0.2734 -2.3329
 7699SOL    HW234734   2.812   3.845   6.617  0.1002 -0.1135 -0.0606
 7700SOL     OW34735   4.317   4.675   8.622  0.1188 -0.1572 -0.4007
 7700SOL    HW134736   4.304   4.725   8.542 -0.2169 -1.1855 -0.9893
 7700SOL    HW234737   4.324   0.006   8.691  0.0107  0.4401 -0.9722
 7701SOL     OW34738   0.068   2.623   6.803 -0.2773 -0.5310  0.0946
 7701SOL    HW134739   0.103   2.540   6.836  0.7325 -0.3027 -0.3849
 7701SOL    HW234740   0.143   2.669   6.765 -0.8024  0.1570 -0.1074
 7702SOL     OW34741   1.797   1.049  10.042 -0.1249 -0.0621  0.2688
 7702SOL    HW134742   1.846   1.050   9.959 -0.3787  0.0669  0.1213
 7702SOL    HW234743   1.850   0.983  10.087 -0.1411 -0.1382  0.1763
 7703SOL     OW34744   1.895   3.772  10.091 -0.7037  0.3716  0.2979
 7703SOL    HW134745   1.989   3.778  10.074 -0.8292 -0.2847 -0.5990
 7703SOL    HW234746   1.853   3.845  10.045 -0.8040 -0.4174 -0.8438
 7704SOL     OW34747   2.774   0.891   4.839  0.1003  0.1466  0.2733
 7704SOL    HW134748   2.721   0.929   4.909 -1.1012 -0.3435 -0.3687
 7704SOL    HW234749   2.707   0.876   4.772  1.4561  1.9432 -1.4785
 7705SOL     OW34750   0.323   2.436  12.206 -0.0767  0.5933  0.7903
 7705SOL    HW134751   0.364   2.350  12.221 -3.5819 -1.0513  0.9127
 7705SOL    HW234752   0.313   2.449  12.112 -1.8186 -3.2485  0.4337
 7706SOL     OW34753   1.335   1.903   9.286  0.3645  0.2027  0.3884
 7706SOL    HW134754   1.333   1.808   9.279 -0.2738  0.2086  0.4239
 7706SOL    HW234755   1.316   1.912   9.380 -1.0337  0.2619  0.1005
 7707SOL     OW34756   2.227   3.562   5.567 -0.4051  0.1193  0.3438
 7707SOL    HW134757   2.229   3.566   5.471  0.1045  1.2698  0.3996
 7707SOL    HW234758   2.308   3.512   5.576 -0.9973 -0.9385 -0.0951
 7708SOL     OW34759   3.567   3.312   6.738 -0.5804 -0.2021 -0.0110
 7708SOL    HW134760   3.502   3.377   6.764  0.9383  0.5564  1.8683
 7708SOL    HW234761   3.610   3.361   6.668 -1.2205  2.1679  1.2824
 7709SOL     OW34762   4.714   3.521   0.785 -0.2158  0.2069  0.2512
 7709SOL    HW134763   4.719   3.535   0.690  0.9719  1.2083  0.4661
 7709SOL    HW234764   0.019   3.436   0.797 -1.9198 -1.1046 -3.0159
 7710SOL     OW34765   0.079   0.379   2.980 -0.0174  0.0222  0.5611
 7710SOL    HW134766   4.731   0.387   3.024  0.3662 -0.6332  1.4212
 7710SOL    HW234767   0.052   0.321   2.908  0.0783  0.1257  0.4426
 7711SOL     OW34768   1.497   2.994   2.175  0.5468 -0.2716  0.1019
 7711SOL    HW134769   1.484   2.989   2.080  0.5895 -2.3027  0.2050
 7711SOL    HW234770   1.488   2.903   2.203 -1.6046  0.7631  2.6782
 7712SOL     OW34771   1.430   1.519  11.258 -0.1214 -0.6989 -0.0183
 7712SOL    HW134772   1.448   1.427  11.239  1.0950 -0.4949  0.1903
 7712SOL    HW234773   1.518   1.554  11.253 -1.1573  2.0645  1.1756
 7713SOL     OW34774   0.278   2.276   1.835 -0.5166  0.1922 -0.2463
 7713SOL    HW134775   0.294   2.182   1.846 -1.2374  0.0282 -0.6119
 7713SOL    HW234776   0.196   2.277   1.786 -0.7638  1.2435  0.1789
 7714SOL     OW34777   2.478   2.308  12.974  0.0232 -0.6463 -0.1689
 7714SOL    HW134778   2.532   2.287  12.898  0.4077 -0.0049 -0.0708
 7714SOL    HW234779   2.413   2.238  12.970 -1.8127  1.0965 -0.3119
 7715SOL     OW34780   2.952   3.348   3.372  0.0356 -0.4064 -0.4229
 7715SOL    HW134781   2.918   3.351   3.461 -2.6565 -1.4384 -1.4014
 7715SOL    HW234782   2.925   3.259   3.349  0.2029 -0.6350  0.2835
 7716SOL     OW34783   2.906   2.217   7.698  0.2108 -0.1339 -0.5244
 7716SOL    HW134784   2.889   2.282   7.629  2.0353  1.6437  0.7314
 7716SOL    HW234785   2.896   2.135   7.649 -2.8288  1.5617 -2.7536
 7717SOL     OW34786   1.194   4.194   5.293 -0.5177 -0.3994 -0.3851
 7717SOL    HW134787   1.119   4.157   5.247  0.3093  1.8336 -3.5042
 7717SOL    HW234788   1.270   4.168   5.242 -1.6073  0.3104 -2.3595
 7718SOL     OW34789   3.841   2.022  13.318  0.3069 -0.5828  0.4130
 7718SOL    HW134790   3.884   1.954  13.371 -1.1982 -0.4224  1.8382
 7718SOL    HW234791   3.753   1.996  13.345  0.0066 -0.4726 -0.4984
 7719SOL     OW34792   1.085   1.770  17.518 -0.2734  0.0926  0.6495
 7719SOL    HW134793   1.178   1.754  17.504 -0.3277 -1.2382  1.7682
 7719SOL    HW234794   1.065   1.728  17.602 -1.4496 -0.3714  0.1495
 7720SOL     OW34795   0.486   2.443  15.097  0.1728 -0.3473  0.0656
 7720SOL    HW134796   0.505   2.352  15.117  2.0048 -0.2625 -1.3029
 7720SOL    HW234797   0.549   2.464  15.029  1.3411 -1.2642  0.8687
 7721SOL     OW34798   0.493   3.526   1.938 -0.9650 -0.1501 -0.0786
 7721SOL    HW134799   0.571   3.506   1.990 -0.8986  0.6753  0.1444
 7721SOL    HW234800   0.533   3.571   1.864 -0.8568 -2.7354 -1.5731
 7722SOL     OW34801   1.405   2.266  14.043 -0.3407 -0.6715  0.0983
 7722SOL    HW134802   1.477   2.319  14.077 -1.9682  0.0546  2.4072
 7722SOL    HW234803   1.409   2.291  13.950 -0.7859  2.4061  0.9336
 7723SOL     OW34804   2.904   4.419   6.320 -0.0050  0.6908  0.6052
 7723SOL    HW134805   2.973   4.485   6.310  1.7325 -1.3229 -0.4783
 7723SOL    HW234806   2.856   4.457   6.394  0.5646  1.4333  0.5987
 7724SOL     OW34807   3.945   1.505  12.190  0.1755 -0.3561 -0.1257
 7724SOL    HW134808   4.030   1.461  12.186  1.4643  2.0684  0.6162
 7724SOL    HW234809   3.971   1.597  12.196 -2.0339  0.0229  3.7027
 7725SOL     OW34810   1.363   1.628   9.310 -0.3024 -0.0485  0.5602
 7725SOL    HW134811   1.282   1.585   9.282 -2.3803  2.3768  2.9763
 7725SOL    HW234812   1.418   1.583   9.246 -1.7076 -0.5335 -0.3085
 7726SOL     OW34813   2.468   0.906  14.638 -0.0711  0.4199 -0.0853
 7726SOL    HW134814   2.436   0.965  14.570 -0.1844 -1.4051 -1.6335
 7726SOL    HW234815   2.390   0.877  14.686  0.7835  1.0980  1.7133
 7727SOL     OW34816   3.673   1.208   6.327 -0.2454  0.4800  0.3978
 7727SOL    HW134817   3.687   1.302   6.314  1.2664  0.1807 -0.1102
 7727SOL    HW234818   3.742   1.186   6.264 -1.2116 -2.0593  0.2597
 7728SOL     OW34819   3.343   3.025   4.930  0.4411 -0.3936  0.1041
 7728SOL    HW134820   3.419   3.011   4.988  0.6741  0.2741 -0.0364
 7728SOL    HW234821   3.366   3.116   4.909 -2.4319 -0.1240 -1.8053
 7729SOL     OW34822   1.622   2.255   3.865 -0.1383  0.1481  0.0389
 7729SOL    HW134823   1.641   2.339   3.825  0.8527 -0.4127 -0.6644
 7729SOL    HW234824   1.694   2.207   3.825 -0.6439  0.8108 -1.6429
 7730SOL     OW34825   0.176   4.424  16.709  0.7724  0.2672 -0.2816
 7730SOL    HW134826   0.267   4.446  16.687  1.4407 -1.7839  0.4046
 7730SOL    HW234827   0.136   4.511  16.708 -0.3609 -0.2417  2.0238
 7731SOL     OW34828   4.230   2.840   2.170  0.2715  0.0605  0.3822
 7731SOL    HW134829   4.202   2.925   2.138  1.6549  0.7189  0.9169
 7731SOL    HW234830   4.291   2.868   2.238 -1.8064  2.1749  1.3763
 7732SOL     OW34831   3.364   1.748   1.561 -0.2410  0.0727  0.1836
 7732SOL    HW134832   3.360   1.794   1.645 -1.2577  0.6969 -0.2142
 7732SOL    HW234833   3.278   1.775   1.530 -0.3629 -1.1855 -0.5729
 7733SOL     OW34834   2.465   1.284   3.908 -0.2090  0.3425  0.1894
 7733SOL    HW134835   2.460   1.224   3.833  1.3357  1.9796 -1.2104
 7733SOL    HW234836   2.406   1.351   3.871 -1.3205  0.7270  2.6154
 7734SOL     OW34837   4.303   1.239  14.877 -0.2302 -0.1747 -0.4183
 7734SOL    HW134838   4.282   1.222  14.969  1.1113  1.1208  0.1253
 7734SOL    HW234839   4.221   1.279  14.848  1.2043  0.2261 -3.9388
 7735SOL     OW34840   2.504   4.645   7.808 -0.0766 -0.3273 -0.0117
 7735SOL    HW134841   2.520   0.003   7.797  1.6880 -0.8380 -1.8112
 7735SOL    HW234842   2.577   4.604   7.762 -0.3989 -0.6199 -0.2584
 7736SOL     OW34843   3.866   2.629  13.894 -0.3427 -0.4661  0.0818
 7736SOL    HW134844   3.948   2.601  13.854 -0.4532  0.6520 -0.9167
 7736SOL    HW234845   3.897   2.704  13.946  2.6101 -1.4671 -0.2219
 7737SOL     OW34846   1.182   1.340   1.062  0.4215  0.5543  0.1663
 7737SOL    HW134847   1.146   1.393   1.133 -0.3802  1.2459 -0.7420
 7737SOL    HW234848   1.104   1.289   1.037  0.7130  0.2218 -0.0551
 7738SOL     OW34849   3.703   4.500   3.498  0.1133 -0.2550  0.4582
 7738SOL    HW134850   3.630   4.454   3.539 -0.9571  0.7092 -0.3639
 7738SOL    HW234851   3.777   4.466   3.548 -0.8525  0.0021  2.0504
 7739SOL     OW34852   2.372   2.962   5.614 -0.3059 -0.1585  0.2876
 7739SOL    HW134853   2.417   2.909   5.548 -1.8311 -0.7621 -0.2430
 7739SOL    HW234854   2.321   2.900   5.665 -3.4229  0.8210 -1.6441
 7740SOL     OW34855   4.235   4.615   5.977 -0.5768 -0.0742 -0.0236
 7740SOL    HW134856   4.213   4.692   6.029 -2.2313  0.5351 -1.6296
 7740SOL    HW234857   4.314   4.638   5.928  0.4952 -2.8891  0.3769
 7741SOL     OW34858   0.889   4.477   3.443 -0.2936  0.2030 -0.2390
 7741SOL    HW134859   0.888   4.561   3.397 -0.6678  0.0542 -0.5061
 7741SOL    HW234860   0.819   4.432   3.395 -0.8306 -0.2469  0.9798
 7742SOL     OW34861   0.065   3.896   3.614  0.3149 -0.2363 -0.3469
 7742SOL    HW134862   4.736   3.882   3.546 -0.4347  0.3924  0.2441
 7742SOL    HW234863   0.153   3.875   3.582  0.1056 -2.1970  0.3415
 7743SOL     OW34864   1.171   2.046   6.761 -0.5893  0.1070 -0.0128
 7743SOL    HW134865   1.259   2.034   6.797 -0.5602 -1.1950 -0.5200
 7743SOL    HW234866   1.192   2.120   6.704  1.0634  0.8471  1.5611
 7744SOL     OW34867   0.302   2.562   8.297 -0.4141 -0.3477 -0.3459
 7744SOL    HW134868   0.397   2.556   8.302 -0.4733  0.4128  1.5203
 7744SOL    HW234869   0.305   2.609   8.214  0.5291  2.7634  1.4495
 7745SOL     OW34870   0.674   4.547  10.816  0.2640  0.3661 -0.2191
 7745SOL    HW134871   0.733   4.555  10.891  1.3476 -0.8657 -0.9309
 7745SOL    HW234872   0.741   4.514  10.756 -0.2127  0.0966 -0.6029
 7746SOL     OW34873   0.362   1.512   8.192 -0.0755  0.2715 -0.1087
 7746SOL    HW134874   0.322   1.520   8.279 -2.2199  0.9342 -1.1406
 7746SOL    HW234875   0.347   1.602   8.164  1.4349  0.5367 -0.0644
 7747SOL     OW34876   1.773   0.583  11.465  0.2271 -0.1746 -0.2681
 7747SOL    HW134877   1.783   0.537  11.548 -1.2655 -1.2706 -0.6988
 7747SOL    HW234878   1.810   0.666  11.493 -2.9559  0.8569  0.9027
 7748SOL     OW34879   3.237   0.551  15.197 -0.0578  0.2544 -0.5055
 7748SOL    HW134880   3.178   0.516  15.130  0.4878  0.2154 -0.9676
 7748SOL    HW234881   3.264   0.466  15.232 -1.7664 -0.4495 -0.9225
 7749SOL     OW34882   2.217   1.170   7.762 -0.0642  0.0386  0.0304
 7749SOL    HW134883   2.286   1.148   7.825  0.7127  1.2016 -0.4140
 7749SOL    HW234884   2.196   1.091   7.713 -0.5670 -0.2636  0.7190
 7750SOL     OW34885   2.791   0.392   8.188  0.3912 -0.4994  0.5019
 7750SOL    HW134886   2.820   0.458   8.250 -0.4993 -0.8973  1.3384
 7750SOL    HW234887   2.797   0.317   8.247 -1.4171  1.0465  2.6388
 7751SOL     OW34888   1.445   2.309  11.818  0.0758 -0.6372  0.2122
 7751SOL    HW134889   1.364   2.274  11.782 -2.4828  2.6442  2.7464
 7751SOL    HW234890   1.407   2.395  11.834 -0.7782 -0.9397 -0.2116
 7752SOL     OW34891   1.011   1.951   1.331  0.9222 -0.0107  0.4064
 7752SOL    HW134892   1.017   1.891   1.257 -0.1709  0.5386 -0.1209
 7752SOL    HW234893   1.084   1.926   1.388  1.1411 -1.8766 -0.6928
 7753SOL     OW34894   3.634   1.103  10.633 -0.0135 -0.2944 -0.5843
 7753SOL    HW134895   3.687   1.110  10.712 -1.6429 -2.3776  0.6680
 7753SOL    HW234896   3.628   1.009  10.615 -2.0699 -0.1405 -0.6337
 7754SOL     OW34897   2.376   1.521   0.791  0.0727  0.2370  0.4850
 7754SOL    HW134898   2.346   1.452   0.850  1.9078 -1.3365 -0.4120
 7754SOL    HW234899   2.313   1.516   0.719 -0.1185 -0.6263  0.7100
 7755SOL     OW34900   0.823   1.379  13.486  0.5734 -0.5846  0.0956
 7755SOL    HW134901   0.771   1.341  13.557  1.3419 -2.0579 -0.1479
 7755SOL    HW234902   0.838   1.305  13.427 -1.5108 -1.0723  0.1576
 7756SOL     OW34903   1.116   2.529  10.802 -0.3781  0.4293  1.0083
 7756SOL    HW134904   1.022   2.512  10.803 -0.1591 -0.8911 -0.1604
 7756SOL    HW234905   1.151   2.475  10.873 -2.4408  0.4775  2.0486
 7757SOL     OW34906   4.506   2.901   6.486  0.3613 -0.1125  0.3394
 7757SOL    HW134907   4.580   2.888   6.546 -0.5263 -0.4655  1.3585
 7757SOL    HW234908   4.425   2.883   6.535  0.0912 -0.8787 -0.3894
 7758SOL     OW34909   4.137   0.382   1.979 -0.2659  0.2131 -0.4429
 7758SOL    HW134910   4.210   0.444   1.970  0.6580 -0.7042  0.7040
 7758SOL    HW234911   4.162   0.322   1.909  2.4470 -0.6994  1.3277
 7759SOL     OW34912   4.676   0.906  17.421  1.0776 -0.6704 -0.0709
 7759SOL    HW134913   4.601   0.889  17.478  0.6621  1.6874  0.0985
 7759SOL    HW234914   4.726   0.968  17.475  3.0470 -0.5567 -2.0266
 7760SOL     OW34915   3.995   0.888  11.753  1.2615  0.2415  0.0180
 7760SOL    HW134916   3.901   0.872  11.745  1.1611  0.7977  0.0752
 7760SOL    HW234917   4.025   0.800  11.773  0.3228  0.3837  2.0836
 7761SOL     OW34918   3.355   3.013   9.992  0.5663  0.2968  0.4561
 7761SOL    HW134919   3.381   2.977  10.077 -0.7157  2.8568  1.9452
 7761SOL    HW234920   3.408   2.962   9.930  1.0258 -1.3253  2.1727
 7762SOL     OW34921   2.148   3.903  12.413 -0.4992 -0.6125 -0.2383
 7762SOL    HW134922   2.178   3.852  12.488  1.5777  4.2794  2.2905
 7762SOL    HW234923   2.088   3.838  12.378 -0.3230 -0.7740 -0.2381
 7763SOL     OW34924   1.742   2.992   9.011  0.5795  0.0878  0.4954
 7763SOL    HW134925   1.724   2.902   9.037 -0.7943 -0.1902 -1.4362
 7763SOL    HW234926   1.838   2.994   9.011  0.5511  1.5586  0.9709
 7764SOL     OW34927   2.275   0.989  17.626 -0.2270 -0.4820  0.4781
 7764SOL    HW134928   2.366   1.015  17.633 -1.0082  1.3231  3.8968
 7764SOL    HW234929   2.243   1.046  17.556  1.5022  1.6436  1.4331
 7765SOL     OW34930   4.482   0.558   8.539  0.0231 -0.0712  0.3160
 7765SOL    HW134931   4.429   0.579   8.616  0.8377 -0.1222  0.8921
 7765SOL    HW234932   4.436   0.478   8.511 -2.4741  1.1647  0.9333
 7766SOL     OW34933   2.904   1.609   8.448 -0.1783 -0.1041  0.3442
 7766SOL    HW134934   2.831   1.551   8.425 -0.5451  0.3695  0.3303
 7766SOL    HW234935   2.953   1.560   8.515  1.2143  0.3397 -0.3353
 7767SOL     OW34936   1.538   4.546   4.734  0.3038  0.1900 -0.3170
 7767SOL    HW134937   1.630   4.522   4.750  0.1377 -0.9869 -1.0722
 7767SOL    HW234938   1.484   4.491   4.791 -1.4468  0.8898 -1.2898
 7768SOL     OW34939   2.925   4.661   9.968  0.0567  0.1497  0.2099
 7768SOL    HW134940   2.926   4.642   9.874 -0.3449  1.1485  0.0064
 7768SOL    HW234941   3.015   4.637   9.989  0.2570 -0.0995 -0.9411
 7769SOL     OW34942   0.245   1.091  14.928 -0.3885  0.1481 -0.2678
 7769SOL    HW134943   0.181   1.162  14.925  0.2328  0.6906 -0.8192
 7769SOL    HW234944   0.327   1.135  14.905  0.6732 -1.2191  0.9197
 7770SOL     OW34945   2.482   3.945   1.783 -0.0456  0.2470 -0.4818
 7770SOL    HW134946   2.503   4.012   1.849  0.4054 -1.2719  0.9218
 7770SOL    HW234947   2.402   3.911   1.822  0.3224 -0.1513 -0.0676
 7771SOL     OW34948   3.368   4.148   8.836  0.0448  0.4434 -1.0731
 7771SOL    HW134949   3.281   4.117   8.814 -0.9772  2.8048 -0.3653
 7771SOL    HW234950   3.412   4.064   8.844 -0.1850  0.5323  1.3051
 7772SOL     OW34951   4.453   0.531  12.845  0.0049  0.1126  0.2667
 7772SOL    HW134952   4.510   0.479  12.902 -1.6719 -1.8213  0.1790
 7772SOL    HW234953   4.448   0.467  12.774  0.6799  3.6865 -3.0134
 7773SOL     OW34954   2.523   2.311   1.535 -0.2985 -0.2356  0.4703
 7773SOL    HW134955   2.590   2.243   1.540  1.6808  1.7103  0.1524
 7773SOL    HW234956   2.489   2.289   1.449 -0.7069 -0.7835  0.7672
 7774SOL     OW34957   4.556   1.130  14.760  0.7485 -0.1223  0.0929
 7774SOL    HW134958   4.596   1.065  14.817 -0.1569 -0.1961  0.6419
 7774SOL    HW234959   4.473   1.151  14.803  1.7114 -0.2210  1.9821
 7775SOL     OW34960   3.553   0.627   6.261  0.3432  0.4842 -1.1725
 7775SOL    HW134961   3.530   0.539   6.231  1.3727  0.3390 -1.5013
 7775SOL    HW234962   3.607   0.610   6.339  0.3237 -0.7670 -1.4226
 7776SOL     OW34963   2.847   0.807   3.385  0.1324  0.5018 -0.2474
 7776SOL    HW134964   2.897   0.888   3.400 -1.5098  1.4260  0.1999
 7776SOL    HW234965   2.830   0.774   3.473 -0.6671  1.0903 -0.1868
 7777SOL     OW34966   2.718   3.832  11.830 -0.3437 -0.7554  0.3114
 7777SOL    HW134967   2.791   3.849  11.771  1.8009  2.5315  3.8884
 7777SOL    HW234968   2.756   3.841  11.917  2.3228  0.2868 -0.9482
 7778SOL     OW34969   2.901   1.814   9.147  0.4313 -0.8379 -0.0052
 7778SOL    HW134970   2.818   1.822   9.193  0.7860 -1.1411  0.6949
 7778SOL    HW234971   2.909   1.720   9.129  0.4944 -1.0978  1.3553
 7779SOL     OW34972   0.722   1.192   4.363 -0.0186  0.1504 -0.1419
 7779SOL    HW134973   0.771   1.274   4.363 -0.0726  0.1861 -0.9192
 7779SOL    HW234974   0.714   1.183   4.458  1.7382  1.7327  0.1464
 7780SOL     OW34975   1.436   1.227  11.232 -0.4308  0.5012  0.2795
 7780SOL    HW134976   1.465   1.227  11.141  1.6453 -1.3974  0.9431
 7780SOL    HW234977   1.381   1.149  11.227  1.0552 -0.5960  1.0219
 7781SOL     OW34978   3.571   0.275   6.269  0.5832  0.5211  0.9927
 7781SOL    HW134979   3.482   0.248   6.246  0.8372  1.0598 -0.6512
 7781SOL    HW234980   3.554   0.328   6.347 -1.0483  1.0446  0.2803
 7782SOL     OW34981   0.450   2.256  11.754  0.1937  0.0490  0.0603
 7782SOL    HW134982   0.379   2.301  11.800 -1.2564 -1.3199 -0.8324
 7782SOL    HW234983   0.401   2.188  11.707 -0.6828 -0.0939  1.1480
 7783SOL     OW34984   2.051   2.226   8.849 -0.1451 -0.2470 -0.1384
 7783SOL    HW134985   2.068   2.143   8.894  2.7377  1.3938  1.8309
 7783SOL    HW234986   1.983   2.264   8.905 -0.0612  0.3328 -0.4317
 7784SOL     OW34987   2.613   2.487  17.641  0.3952 -0.1730 -0.4090
 7784SOL    HW134988   2.662   2.523  17.567  1.0393 -1.4729 -0.6197
 7784SOL    HW234989   2.654   2.402  17.658  2.6073  1.1066  0.6681
 7785SOL     OW34990   3.263   0.313   8.476 -0.3014  0.1308  0.0141
 7785SOL    HW134991   3.328   0.354   8.534  0.2609 -2.0486  0.9485
 7785SOL    HW234992   3.302   0.225   8.468 -0.2060  0.1346  0.4030
 7786SOL     OW34993   3.429   1.480   7.754 -0.3348  0.5285 -0.3624
 7786SOL    HW134994   3.438   1.405   7.813  0.9246  1.4445  0.5745
 7786SOL    HW234995   3.521   1.504   7.744 -0.4117  0.7872 -0.4489
 7787SOL     OW34996   2.253   0.353  12.639 -0.0171  0.2357  0.3282
 7787SOL    HW134997   2.196   0.384  12.569  1.4413  1.6650 -0.2277
 7787SOL    HW234998   2.193   0.299  12.691  0.4124 -0.0087  0.5732
 7788SOL     OW34999   3.976   3.251  10.676 -0.3398 -0.0642 -0.4093
 7788SOL    HW135000   3.968   3.334  10.629  0.5173  0.7960  0.9695
 7788SOL    HW235001   3.893   3.248  10.723  0.0736 -0.3310  0.3011
 7789SOL     OW35002   2.613   3.340  15.808  0.2126 -0.0831  0.3418
 7789SOL    HW135003   2.701   3.318  15.839 -0.4158 -1.8195  0.9336
 7789SOL    HW235004   2.618   3.426  15.767 -2.5824 -0.1147 -0.0653
 7790SOL     OW35005   3.896   4.355   6.864  0.0731  0.3541  0.3678
 7790SOL    HW135006   3.947   4.354   6.945  2.4250  2.4433 -1.0706
 7790SOL    HW235007   3.941   4.419   6.809 -0.3879 -0.7996 -1.3694
 7791SOL     OW35008   0.126   4.239   2.609 -0.0620 -0.4714  0.0598
 7791SOL    HW135009   0.152   4.202   2.525 -3.0620 -1.4249 -0.4584
 7791SOL    HW235010   0.114   4.166   2.670 -0.4722 -0.8155 -0.4387
 7792SOL     OW35011   0.791   0.597  16.621 -0.7817 -0.2299  0.8805
 7792SOL    HW135012   0.813   0.653  16.695  2.5365 -1.3098  0.7099
 7792SOL    HW235013   0.856   0.528  16.635  1.1494  1.7125  1.5044
 7793SOL     OW35014   2.817   0.783   0.737  0.1768 -0.3674 -0.2216
 7793SOL    HW135015   2.906   0.788   0.703 -0.2488 -0.6968 -1.3715
 7793SOL    HW235016   2.762   0.808   0.663  2.5613  0.7780 -1.5891
 7794SOL     OW35017   1.539   0.369  10.604  0.1773 -0.1869 -0.5384
 7794SOL    HW135018   1.446   0.363  10.584 -0.2089 -2.9351  2.1297
 7794SOL    HW235019   1.586   0.336  10.527  0.2829 -1.7333  0.1923
 7795SOL     OW35020   1.965   3.938   6.602  0.2936 -0.7499  0.0112
 7795SOL    HW135021   2.044   3.916   6.652  0.9654  1.2142 -0.1844
 7795SOL    HW235022   1.895   3.890   6.646  1.0271  0.1677  2.1661
 7796SOL     OW35023   2.524   1.595  17.509 -0.3338  1.1193 -0.4542
 7796SOL    HW135024   2.461   1.643  17.563 -2.3044  0.4436 -2.1159
 7796SOL    HW235025   2.563   1.545  17.580 -0.5050  0.1789 -1.0202
 7797SOL     OW35026   2.239   3.469  11.803 -0.2507 -0.0904 -0.2264
 7797SOL    HW135027   2.258   3.463  11.709 -0.6829  1.6591 -0.4266
 7797SOL    HW235028   2.156   3.518  11.801 -0.9984 -1.2623  2.2823
 7798SOL     OW35029   1.965   3.226   1.645  0.5921 -0.1512  0.1176
 7798SOL    HW135030   2.032   3.158   1.649  1.2945  0.5603  0.4931
 7798SOL    HW235031   2.007   3.306   1.677  0.6854  0.5490 -1.7388
 7799SOL     OW35032   2.560   4.697   5.526 -0.9404 -0.1062  0.0350
 7799SOL    HW135033   2.634   4.640   5.547 -0.0073  0.3509 -2.0352
 7799SOL    HW235034   2.484   4.643   5.547 -0.3070 -0.7936  0.5608
 7800SOL     OW35035   1.094   3.405   0.237 -0.1960  0.2175 -0.5106
 7800SOL    HW135036   1.060   3.475   0.182 -0.0554  0.6967  0.0047
 7800SOL    HW235037   1.121   3.448   0.318  0.3564  1.2478 -1.2413
 7801SOL     OW35038   0.403   0.839   9.410 -0.6801  0.5713  0.0924
 7801SOL    HW135039   0.424   0.812   9.321  2.0481  0.7506  0.6705
 7801SOL    HW235040   0.395   0.756   9.458  0.0056  0.8759  0.7448
 7802SOL     OW35041   3.209   0.478  10.326  0.2529  0.4145  0.3150
 7802SOL    HW135042   3.295   0.499  10.289 -0.6208  1.8233 -0.9431
 7802SOL    HW235043   3.237   0.391  10.352 -0.9400 -0.1115 -0.1526
 7803SOL     OW35044   1.313   4.063   8.759  0.4328 -0.9648 -0.1742
 7803SOL    HW135045   1.331   4.012   8.680  0.9577  0.2972 -0.8742
 7803SOL    HW235046   1.217   4.068   8.754  0.5114 -0.8567 -1.6634
 7804SOL     OW35047   0.173   4.735   2.712  0.5222  0.3080  0.2934
 7804SOL    HW135048   0.193   4.647   2.746 -2.3111  0.2670  1.8844
 7804SOL    HW235049   0.194   4.715   2.621  0.6883  0.5062  0.2910
 7805SOL     OW35050   3.158   2.708   4.474 -0.3141  0.4978  0.0081
 7805SOL    HW135051   3.205   2.662   4.404  0.1867  0.9689  0.0280
 7805SOL    HW235052   3.232   2.736   4.528  0.1655  0.9701 -0.8818
 7806SOL     OW35053   2.930   2.447  15.514 -0.0993 -0.3672 -0.0825
 7806SOL    HW135054   2.872   2.523  15.524 -0.2133 -0.2892 -1.2849
 7806SOL    HW235055   2.872   2.382  15.474  1.3962 -2.2154  0.7548
 7807SOL     OW35056   4.476   0.591   2.651 -0.0350  0.0827 -0.4469
 7807SOL    HW135057   4.388   0.626   2.666 -0.3534 -0.9600  0.1117
 7807SOL    HW235058   4.519   0.617   2.732  1.9567  0.0193 -1.4872
 7808SOL     OW35059   3.798   2.554   8.696  0.1027  0.4772 -0.6348
 7808SOL    HW135060   3.712   2.577   8.729 -0.5171 -1.0190 -1.1970
 7808SOL    HW235061   3.787   2.474   8.644  1.3732  0.8998 -1.5493
 7809SOL     OW35062   2.190   0.001   4.810 -0.0202 -0.1532 -0.1527
 7809SOL    HW135063   2.199   4.653   4.854 -3.2538 -1.9927 -2.9881
 7809SOL    HW235064   2.167   0.052   4.887 -1.9051 -0.2121 -0.6725
 7810SOL     OW35065   2.303   2.611   8.385 -0.0289 -0.3087  0.2576
 7810SOL    HW135066   2.303   2.705   8.367 -1.9241 -0.7361 -1.9377
 7810SOL    HW235067   2.213   2.595   8.358 -0.2488  0.0206  0.8024
 7811SOL     OW35068   2.367   0.092   1.226  0.0088  0.0682 -0.0430
 7811SOL    HW135069   2.411   0.174   1.206 -0.6984  0.4866  0.0984
 7811SOL    HW235070   2.417   0.059   1.301  0.7803  0.0943 -0.5456
 7812SOL     OW35071   0.990   1.110  12.509  0.6421  0.5309  0.1751
 7812SOL    HW135072   1.005   1.016  12.500  0.5474  0.5412 -0.0987
 7812SOL    HW235073   1.039   1.138  12.432 -1.2314  1.0496 -0.8252
 7813SOL     OW35074   0.627   2.801   8.346 -0.3356  0.0242 -0.0424
 7813SOL    HW135075   0.624   2.855   8.424  0.8440  0.1079 -0.0623
 7813SOL    HW235076   0.649   2.713   8.378 -0.8955  0.5285  1.7004
 7814SOL     OW35077   2.703   1.462  14.590  0.0099  0.3944  0.2017
 7814SOL    HW135078   2.790   1.445  14.554 -1.2377 -1.1993 -2.0500
 7814SOL    HW235079   2.666   1.530  14.533  1.8556  1.5321  0.3887
 7815SOL     OW35080   0.155   1.836   3.058  0.8378 -0.2646  0.9403
 7815SOL    HW135081   0.166   1.905   2.993 -0.0018 -0.4440  0.6138
 7815SOL    HW235082   0.089   1.880   3.113 -0.8789 -1.0704 -0.4890
 7816SOL     OW35083   3.777   3.815   3.179 -0.4935  0.8634 -0.2246
 7816SOL    HW135084   3.850   3.762   3.149 -1.5204 -0.1643 -0.9195
 7816SOL    HW235085   3.730   3.742   3.220  0.0047  0.4455 -0.4109
 7817SOL     OW35086   0.665   4.034   1.542  0.1811 -0.1759  0.6870
 7817SOL    HW135087   0.745   4.014   1.494 -1.8367 -0.9792 -2.3815
 7817SOL    HW235088   0.618   4.096   1.487 -1.4287  0.5486  2.8961
 7818SOL     OW35089   3.176   1.482   4.897 -0.0373 -0.1697 -0.3589
 7818SOL    HW135090   3.084   1.467   4.876  0.2726 -2.1132 -0.3861
 7818SOL    HW235091   3.172   1.546   4.968  0.8282  0.6631 -1.0698
 7819SOL     OW35092   1.622   0.375   5.177  0.3212  0.1639  0.5344
 7819SOL    HW135093   1.709   0.393   5.213  0.8027  2.0444 -1.5025
 7819SOL    HW235094   1.600   0.295   5.225 -1.2802 -0.0451 -0.5432
 7820SOL     OW35095   2.667   0.110   3.618 -0.1669 -1.2518 -0.0049
 7820SOL    HW135096   2.656   0.048   3.546 -2.5204  0.7259 -1.3394
 7820SOL    HW235097   2.575   0.101   3.645 -0.5148  1.0116 -0.4664
 7821SOL     OW35098   2.082   4.606  10.999 -0.7252  0.3617 -0.4425
 7821SOL    HW135099   2.132   4.654  10.934 -2.0236  1.4027 -0.6581
 7821SOL    HW235100   2.037   4.548  10.938 -0.4509  0.1339 -0.4295
 7822SOL     OW35101   4.136   1.960   2.307 -0.0833 -0.0640 -0.2829
 7822SOL    HW135102   4.068   2.013   2.266  0.1958  0.5473  0.0314
 7822SOL    HW235103   4.214   2.014   2.289  0.7884 -0.6300  1.7836
 7823SOL     OW35104   2.078   2.386   6.903 -0.2213 -0.1053 -0.4332
 7823SOL    HW135105   2.132   2.412   6.829  0.9569 -1.1255  0.0834
 7823SOL    HW235106   2.076   2.472   6.946 -1.2407 -0.6221  0.5557
 7824SOL     OW35107   2.509   2.572  17.303 -0.2803 -0.1378  0.4338
 7824SOL    HW135108   2.568   2.591  17.376  2.0824  0.0314 -1.5245
 7824SOL    HW235109   2.533   2.642  17.243 -1.1585  0.2728  0.5747
 7825SOL     OW35110   3.738   3.353   5.575  0.0529  0.1539  0.3352
 7825SOL    HW135111   3.817   3.333   5.525  0.4175  1.9145  0.2183
 7825SOL    HW235112   3.749   3.446   5.593  0.5421  0.2547 -0.4920
 7826SOL     OW35113   0.319   0.268   5.568 -0.0454  0.0725  0.1923
 7826SOL    HW135114   0.263   0.279   5.645 -1.3753  0.2186 -0.8023
 7826SOL    HW235115   0.366   0.187   5.586  1.0819  0.7608  0.3304
 7827SOL     OW35116   1.091   1.207  10.987 -0.0471 -0.0847  0.0586
 7827SOL    HW135117   1.042   1.282  10.952 -0.4509  0.3451  1.5437
 7827SOL    HW235118   1.173   1.256  10.999  0.7484 -1.2070 -0.8150
 7828SOL     OW35119   1.697   1.941   3.516  0.1877  0.1126 -0.2337
 7828SOL    HW135120   1.614   1.976   3.486  0.0443 -0.0525 -0.0252
 7828SOL    HW235121   1.742   1.960   3.434  0.8335 -0.5730 -0.0440
 7829SOL     OW35122   2.684   3.646  13.568  0.3298  0.2150  0.1736
 7829SOL    HW135123   2.755   3.709  13.577  1.9657 -1.5494 -0.2639
 7829SOL    HW235124   2.707   3.595  13.490 -1.9977 -0.4284 -0.0913
 7830SOL     OW35125   4.306   1.410   4.038  0.3378  0.0684  0.8336
 7830SOL    HW135126   4.278   1.500   4.055 -0.5112 -0.1862  0.7754
 7830SOL    HW235127   4.223   1.374   4.006  0.6170 -0.8410  1.1218
 7831SOL     OW35128   1.233   4.541   9.076  0.4076 -0.0497 -0.6098
 7831SOL    HW135129   1.301   4.555   9.142  0.8633  1.0532 -1.3016
 7831SOL    HW235130   1.161   4.552   9.138  0.7846  2.3317 -0.5875
 7832SOL     OW35131   2.539   1.589   1.487 -0.1874 -0.0383  0.1284
 7832SOL    HW135132   2.585   1.568   1.406  0.5056 -1.0370  0.7775
 7832SOL    HW235133   2.530   1.505   1.533 -1.0761 -0.4591 -0.8061
 7833SOL     OW35134   3.499   0.020  15.563 -0.0010  0.4919  0.4109
 7833SOL    HW135135   3.412   0.052  15.586  0.1631  0.9767  0.3611
 7833SOL    HW235136   3.505   0.035  15.469 -0.4591  3.2109  0.8223
 7834SOL     OW35137   4.016   2.651   9.013  0.1638  0.2140 -0.7789
 7834SOL    HW135138   3.932   2.692   8.989 -1.6528 -2.4215  1.0303
 7834SOL    HW235139   3.997   2.564   8.977  0.7852 -0.6196  0.9084
 7835SOL     OW35140   3.765   3.632   1.351 -0.3497  0.1390  0.0331
 7835SOL    HW135141   3.698   3.701   1.354  0.3520  0.9131 -2.4181
 7835SOL    HW235142   3.771   3.606   1.443 -1.4392 -2.5986 -0.6669
 7836SOL     OW35143   0.640   2.337   7.756  0.1610  0.5099  0.0417
 7836SOL    HW135144   0.644   2.335   7.660 -0.8613 -1.6271  0.0327
 7836SOL    HW235145   0.677   2.425   7.755 -1.0892  1.0391 -0.4657
 7837SOL     OW35146   3.399   1.079   3.367 -0.2557 -0.8281 -0.4047
 7837SOL    HW135147   3.400   1.114   3.456 -0.3787  1.2565 -1.2219
 7837SOL    HW235148   3.493   1.064   3.357 -0.7166 -3.7426 -0.1428
 7838SOL     OW35149   4.231   4.288   2.321 -0.0376 -0.3322  0.4994
 7838SOL    HW135150   4.283   4.271   2.243 -0.4157  0.8637 -0.0145
 7838SOL    HW235151   4.278   4.365   2.353  2.1974 -1.2164 -0.6518
 7839SOL     OW35152   0.349   2.458  10.509  0.1360  0.3141  0.4054
 7839SOL    HW135153   0.416   2.523  10.533 -0.1022  1.2388 -1.4522
 7839SOL    HW235154   0.282   2.510  10.465  0.3470 -0.5339 -0.9096
 7840SOL     OW35155   4.231   2.816   5.147  0.2659 -0.2170 -0.1089
 7840SOL    HW135156   4.241   2.755   5.073 -0.7492 -0.8092  0.2406
 7840SOL    HW235157   4.291   2.885   5.119 -3.3818  2.6170 -0.9980
 7841SOL     OW35158   3.781   2.526   3.153  0.2412 -0.0719  0.4973
 7841SOL    HW135159   3.757   2.465   3.084 -2.0029 -1.8765  2.8602
 7841SOL    HW235160   3.731   2.487   3.225  1.2106  0.9165  1.7176
 7842SOL     OW35161   1.678   0.509   6.641  0.3817 -0.2476 -0.7816
 7842SOL    HW135162   1.745   0.479   6.702 -2.8710 -0.5453  2.6240
 7842SOL    HW235163   1.707   0.598   6.620  0.9917 -0.1030  0.6831
 7843SOL     OW35164   4.687   4.637  14.938  0.3233  0.2235 -0.2428
 7843SOL    HW135165   4.719   4.695  14.868 -1.0721  1.0077 -0.2225
 7843SOL    HW235166   0.029   4.582  14.945 -0.3189 -0.5632  0.5749
 7844SOL     OW35167   3.782   2.976  14.230  0.3510  0.1664  0.3762
 7844SOL    HW135168   3.805   2.946  14.317  0.7147  0.2007  0.2926
 7844SOL    HW235169   3.781   3.070  14.243  1.2941 -0.1137  2.3881
 7845SOL     OW35170   4.683   3.941   5.384  0.3401 -0.0663  0.1647
 7845SOL    HW135171   4.646   4.005   5.445 -1.4709 -1.5206  0.5560
 7845SOL    HW235172   4.616   3.930   5.317  0.0503  1.2202  0.2314
 7846SOL     OW35173   1.932   0.719   4.639 -0.0044  0.0442  0.1734
 7846SOL    HW135174   1.985   0.782   4.590  0.6384 -0.4407  0.2424
 7846SOL    HW235175   1.890   0.662   4.575  1.0308 -0.8877  0.3290
 7847SOL     OW35176   2.596   1.754   0.963  0.0437 -0.0996 -0.3680
 7847SOL    HW135177   2.657   1.818   0.998 -1.2136  1.3782 -0.9199
 7847SOL    HW235178   2.644   1.741   0.881  0.2345  0.6038 -0.3612
 7848SOL     OW35179   2.659   2.348   9.329 -0.1725 -0.2474 -0.4578
 7848SOL    HW135180   2.682   2.434   9.294  0.2108  0.1872  0.8833
 7848SOL    HW235181   2.748   2.319   9.349 -0.8128 -2.2864 -0.5438
 7849SOL     OW35182   2.100   0.730   2.998  0.4942 -0.4927 -0.0346
 7849SOL    HW135183   2.180   0.717   2.948  0.2825 -0.2835 -0.4248
 7849SOL    HW235184   2.038   0.682   2.944 -1.4787  3.1237 -0.9756
 7850SOL     OW35185   4.084   4.029   5.422 -0.2715  0.1027  0.7512
 7850SOL    HW135186   4.013   4.070   5.471 -1.2402 -1.8663  0.9841
 7850SOL    HW235187   4.107   3.968   5.492 -1.3065 -0.3534  0.6842
 7851SOL     OW35188   0.462   0.212   0.098 -0.2782  0.0795 -0.2521
 7851SOL    HW135189   0.475   0.306   0.108  0.1549 -0.0025 -0.0520
 7851SOL    HW235190   0.512   0.193   0.019 -1.3902  0.0049 -0.9450
 7852SOL     OW35191   1.162   0.157   7.565 -0.7307  0.2387  0.4652
 7852SOL    HW135192   1.147   0.190   7.476 -3.3569  1.7406  1.4650
 7852SOL    HW235193   1.255   0.135   7.567 -1.0422 -0.9391  1.9813
 7853SOL     OW35194   3.602   2.953  14.864  0.0639  0.2471  0.0221
 7853SOL    HW135195   3.591   2.986  14.953  0.3390  1.0586 -0.2373
 7853SOL    HW235196   3.558   3.021  14.812  1.1774 -1.0326 -2.6051
 7854SOL     OW35197   4.571   3.820   1.211  0.2700 -0.2392 -0.9842
 7854SOL    HW135198   4.539   3.789   1.126  0.1060 -1.4894 -0.4674
 7854SOL    HW235199   4.653   3.772   1.212 -0.4068 -1.3596  0.9300
 7855SOL     OW35200   2.456   3.547  14.650  0.2787  0.4086  0.0509
 7855SOL    HW135201   2.466   3.542  14.745 -1.3131  3.3244  0.3527
 7855SOL    HW235202   2.365   3.520  14.634  0.8073 -0.9554 -0.6767
 7856SOL     OW35203   2.724   0.768   8.058  0.5448  0.2540  0.2315
 7856SOL    HW135204   2.810   0.807   8.044  0.0864  0.9895 -0.5218
 7856SOL    HW235205   2.752   0.705   8.124  0.0077 -1.2114 -0.9211
 7857SOL     OW35206   1.926   3.868   2.420  0.1428 -0.4568  0.2172
 7857SOL    HW135207   1.889   3.937   2.365  2.9459  1.0094  0.1786
 7857SOL    HW235208   2.020   3.875   2.404  0.3498 -0.3461  1.4445
 7858SOL     OW35209   0.552   2.353   9.945  0.1857 -0.1837 -0.4826
 7858SOL    HW135210   0.552   2.310  10.030 -1.1551  0.2315 -0.2785
 7858SOL    HW235211   0.542   2.280   9.883 -1.6214 -0.2437 -0.1196
 7859SOL     OW35212   0.850   3.920   5.899  0.4449 -0.4640 -0.0207
 7859SOL    HW135213   0.837   3.878   5.814  1.6247 -0.5881 -0.1338
 7859SOL    HW235214   0.940   3.888   5.909  0.4171 -0.4605  0.2416
 7860SOL     OW35215   4.174   1.621  11.855  0.2087 -0.2928 -0.0358
 7860SOL    HW135216   4.163   1.527  11.872 -0.4744 -0.1720  0.1903
 7860SOL    HW235217   4.149   1.614  11.763 -0.6659 -0.1414  0.1917
 7861SOL     OW35218   3.533   1.973   1.995  0.4387  0.0222  0.0130
 7861SOL    HW135219   3.452   2.017   1.969  1.3547  1.8678  0.3204
 7861SOL    HW235220   3.565   1.932   1.915  1.2204  3.4019 -1.3806
 7862SOL     OW35221   2.420   1.445   2.846 -0.3317  0.2332 -0.1341
 7862SOL    HW135222   2.416   1.515   2.911 -1.2131  1.9402 -2.0272
 7862SOL    HW235223   2.481   1.490   2.787 -0.9646  1.7402  0.3523
 7863SOL     OW35224   4.233   3.438   4.615  0.2088 -0.1362 -0.1947
 7863SOL    HW135225   4.163   3.479   4.565 -0.5461 -0.5230  0.5393
 7863SOL    HW235226   4.263   3.375   4.550 -1.4104 -0.7769 -0.3142
 7864SOL     OW35227   3.452   4.227   5.991 -0.2161  0.5953 -0.7678
 7864SOL    HW135228   3.458   4.312   5.947 -1.7245 -1.3388 -4.6261
 7864SOL    HW235229   3.492   4.172   5.924 -2.0010 -1.7128  0.0740
 7865SOL     OW35230   3.509   3.596   6.198  0.6524  0.4598 -0.4941
 7865SOL    HW135231   3.439   3.549   6.154 -0.3256 -1.0367  2.6443
 7865SOL    HW235232   3.458   3.636   6.268  2.0489  1.5594 -0.1168
 7866SOL     OW35233   0.467   0.401   6.383  0.2316  0.3851  0.2795
 7866SOL    HW135234   0.563   0.402   6.377  0.2967  2.0473  1.9645
 7866SOL    HW235235   0.437   0.434   6.298 -0.9500 -0.3888  0.3962
 7867SOL     OW35236   2.058   2.731  12.030 -0.2847  0.1152  0.9837
 7867SOL    HW135237   1.989   2.786  12.069  0.5611  0.6080  1.7870
 7867SOL    HW235238   2.125   2.794  12.003 -0.4769  0.2744  0.8806
 7868SOL     OW35239   2.929   2.783   4.884 -0.2894  0.8474 -0.2533
 7868SOL    HW135240   2.883   2.856   4.925 -2.4278 -1.4199  1.3659
 7868SOL    HW235241   3.017   2.791   4.920  0.5294  0.0119 -2.0380
 7869SOL     OW35242   2.774   1.459   1.350 -0.5092  0.0233 -0.5944
 7869SOL    HW135243   2.798   1.399   1.281 -0.6696 -3.3273  2.2579
 7869SOL    HW235244   2.768   1.404   1.428 -1.1239  1.4701  0.3897
 7870SOL     OW35245   2.077   3.381   3.507 -0.1041  0.0374 -0.2194
 7870SOL    HW135246   2.124   3.333   3.574  0.0188  0.1642 -0.2157
 7870SOL    HW235247   2.045   3.464   3.544  1.3154  0.5544 -0.1695
 7871SOL     OW35248   2.374   2.203   9.952 -0.0411  0.0358  0.7061
 7871SOL    HW135249   2.458   2.205   9.997  0.4604 -3.5040 -0.0447
 7871SOL    HW235250   2.402   2.246   9.871  1.2745  0.4454  1.3752
 7872SOL     OW35251   2.294   4.336   6.120 -0.6131 -0.0913  0.2595
 7872SOL    HW135252   2.321   4.411   6.173 -0.8755 -0.3793  0.7977
 7872SOL    HW235253   2.215   4.374   6.081  0.0334  2.3736  1.3109
 7873SOL     OW35254   4.714   0.470   4.649 -0.0037  0.0751  0.2233
 7873SOL    HW135255   4.683   0.420   4.574  1.6250 -0.3465 -0.1580
 7873SOL    HW235256   4.670   0.553   4.627  0.3225  0.1679 -0.0840
 7874SOL     OW35257   2.836   2.490   7.600  0.1454 -0.1746 -0.0368
 7874SOL    HW135258   2.815   2.530   7.684 -1.4036 -0.2111 -0.4061
 7874SOL    HW235259   2.905   2.552   7.573  1.5986 -0.5906  2.7058
 7875SOL     OW35260   0.018   3.012   0.210 -0.2382 -0.0507  0.3173
 7875SOL    HW135261   0.026   3.106   0.192  1.9542 -0.3992 -0.6291
 7875SOL    HW235262   4.727   2.985   0.123 -0.7291  0.7272  0.2351
 7876SOL     OW35263   2.297   2.805   2.734 -0.3068 -0.2885 -0.0172
 7876SOL    HW135264   2.203   2.790   2.731 -0.4212  0.7401 -1.8307
 7876SOL    HW235265   2.303   2.873   2.801 -0.2861  0.0221 -0.3334
 7877SOL     OW35266   0.022   3.424   5.353  0.5104 -0.0456  0.1009
 7877SOL    HW135267   0.095   3.389   5.302  0.8265  1.3738 -0.4153
 7877SOL    HW235268   0.064   3.497   5.400 -0.0807  0.0364  0.5029
 7878SOL     OW35269   0.084   2.393   3.288 -0.9567  0.5765  0.2233
 7878SOL    HW135270   0.056   2.345   3.210  2.2569 -1.9590  0.6477
 7878SOL    HW235271   0.019   2.463   3.300 -2.9236 -1.2610  0.1113
 7879SOL     OW35272   0.748   3.625   9.032  0.2681 -0.5610 -0.4340
 7879SOL    HW135273   0.709   3.537   9.033 -0.6663 -0.1419  0.1723
 7879SOL    HW235274   0.682   3.665   8.975  1.2477  0.8522 -0.5677
 7880SOL     OW35275   1.314   1.338   4.099 -0.2414  0.3664  0.0109
 7880SOL    HW135276   1.229   1.368   4.130 -0.3868  2.1943 -2.1380
 7880SOL    HW235277   1.314   1.251   4.138 -1.8251  1.0859  1.6156
 7881SOL     OW35278   2.243   2.790   8.050 -0.2022 -0.0641  0.6844
 7881SOL    HW135279   2.328   2.772   8.091 -0.3048 -0.4644  0.7202
 7881SOL    HW235280   2.234   2.700   8.020 -2.2360  0.1215  0.7601
 7882SOL     OW35281   0.676   1.761  11.085 -0.6936  0.1942 -0.3943
 7882SOL    HW135282   0.747   1.698  11.100  0.6547  1.1693 -2.7797
 7882SOL    HW235283   0.638   1.756  11.173  1.9629 -0.3970  0.7288
 7883SOL     OW35284   1.398   0.746  16.392  0.0608 -0.1257  0.5128
 7883SOL    HW135285   1.315   0.698  16.383  0.4056 -1.0384  2.1597
 7883SOL    HW235286   1.427   0.714  16.477 -0.0464 -0.6211  0.3621
 7884SOL     OW35287   4.135   4.563   0.149  0.1436  0.4761  0.0225
 7884SOL    HW135288   4.098   4.571   0.060 -1.4455  0.9542  0.7215
 7884SOL    HW235289   4.121   4.469   0.162  0.2397  0.3662 -0.6281
 7885SOL     OW35290   3.911   2.494  11.555 -0.7001 -0.5988 -0.3008
 7885SOL    HW135291   3.986   2.437  11.537 -0.5313 -0.7520  0.8673
 7885SOL    HW235292   3.945   2.545  11.628 -2.5109 -1.9212  1.4553
 7886SOL     OW35293   0.637   2.526   2.856  0.5219 -0.0990 -0.2911
 7886SOL    HW135294   0.557   2.526   2.803  0.3986  1.9872 -0.1000
 7886SOL    HW235295   0.641   2.438   2.893 -1.8212 -1.0807 -2.3373
 7887SOL     OW35296   1.304   4.442   7.946  0.6686 -0.1166  0.0788
 7887SOL    HW135297   1.334   4.511   7.888  0.2298  0.2640  0.3007
 7887SOL    HW235298   1.268   4.498   8.016 -1.4501 -1.6974  0.2542
 7888SOL     OW35299   0.145   3.581   7.091 -0.2897  0.0339  0.6263
 7888SOL    HW135300   0.184   3.657   7.049  0.2655 -1.3205 -1.3342
 7888SOL    HW235301   0.156   3.516   7.022  1.0434  1.9949 -0.9746
 7889SOL     OW35302   3.575   2.352  12.449 -0.3302  0.0647 -0.5291
 7889SOL    HW135303   3.544   2.441  12.466  0.2454  0.2474 -0.4355
 7889SOL    HW235304   3.584   2.331  12.543 -0.7486  1.2481 -0.2294
 7890SOL     OW35305   0.704   2.553   7.260 -0.3864  0.8428 -0.0106
 7890SOL    HW135306   0.617   2.518   7.282 -0.6741  0.4912 -1.6957
 7890SOL    HW235307   0.737   2.490   7.195 -1.4413  1.2719 -0.9650
 7891SOL     OW35308   4.405   2.894   3.986 -0.0854 -0.2444 -0.0603
 7891SOL    HW135309   4.333   2.953   4.010 -0.2691 -0.5131  0.0395
 7891SOL    HW235310   4.385   2.816   4.037  1.6761 -1.6156 -1.4727
 7892SOL     OW35311   3.181   3.472   9.230 -0.4397  0.3522 -0.2861
 7892SOL    HW135312   3.228   3.481   9.313  0.6790  1.8645 -1.0674
 7892SOL    HW235313   3.216   3.548   9.183  2.2983  0.1895  1.4132
 7893SOL     OW35314   1.767   2.733   5.413  0.0408 -0.0032 -0.5743
 7893SOL    HW135315   1.717   2.716   5.333 -1.0291 -1.4899  0.4165
 7893SOL    HW235316   1.702   2.789   5.456  1.4495  2.3394 -1.4836
 7894SOL     OW35317   3.170   4.201   6.003 -0.0376 -0.3406 -0.2842
 7894SOL    HW135318   3.191   4.116   5.964 -0.6903  0.2455 -1.9233
 7894SOL    HW235319   3.258   4.237   5.997 -0.3975  0.5827  0.0374
 7895SOL     OW35320   4.262   2.363   2.087  0.2341  0.4249 -0.7178
 7895SOL    HW135321   4.183   2.326   2.127 -0.5474  2.0956 -0.7345
 7895SOL    HW235322   4.320   2.378   2.162 -0.3575 -0.8199 -0.0023
 7896SOL     OW35323   0.990   1.275   4.009  0.2099 -0.1829 -0.0161
 7896SOL    HW135324   0.963   1.189   4.041  0.2274  0.8035  2.7189
 7896SOL    HW235325   1.025   1.254   3.923 -0.1500 -0.9086  0.0129
 7897SOL     OW35326   2.225   3.118  16.557  0.2949  0.0834  0.1242
 7897SOL    HW135327   2.206   3.030  16.524  2.7527  0.1963 -1.5304
 7897SOL    HW235328   2.166   3.167  16.500 -1.0048 -0.2538  1.1842
 7898SOL     OW35329   0.788   3.452  14.778 -0.0987  0.8407  0.9217
 7898SOL    HW135330   0.770   3.370  14.732  1.0630  1.4356 -0.5677
 7898SOL    HW235331   0.865   3.487  14.732 -0.3427 -2.1561 -1.7618
 7899SOL     OW35332   4.728   4.042   5.994  0.2945 -0.3904 -0.3148
 7899SOL    HW135333   4.664   4.056   6.063  0.5333  1.0136 -0.3848
 7899SOL    HW235334   0.067   4.024   6.051  1.0125  1.6895 -0.6260
 7900SOL     OW35335   3.131   0.940   4.974 -0.0316 -0.1108  0.5230
 7900SOL    HW135336   3.064   0.952   4.907  1.8737 -0.8336 -1.5110
 7900SOL    HW235337   3.068   0.903   5.035 -1.7977  0.6439 -0.8389
 7901SOL     OW35338   2.764   1.060   6.306 -0.3796 -0.1280 -0.1212
 7901SOL    HW135339   2.792   0.969   6.319  0.6146  0.2906  0.6877
 7901SOL    HW235340   2.801   1.106   6.381 -0.2671 -1.5970  0.7203
 7902SOL     OW35341   4.653   1.614   8.406  0.3603  0.7240  0.3721
 7902SOL    HW135342   4.572   1.658   8.430  1.7606  1.7674  3.2858
 7902SOL    HW235343   4.619   1.526   8.392 -0.9665  0.9313  2.2568
 7903SOL     OW35344   1.916   4.160   7.865 -0.2099 -0.0732  0.3768
 7903SOL    HW135345   1.878   4.104   7.797  2.6755 -2.9012  1.0469
 7903SOL    HW235346   1.931   4.113   7.947 -0.0577 -0.2209  0.2648
 7904SOL     OW35347   2.976   4.055   2.614  0.2550  0.2932  0.0334
 7904SOL    HW135348   3.034   4.114   2.662  2.2879 -0.3949 -1.5895
 7904SOL    HW235349   2.915   4.115   2.573 -1.5778 -0.1216  2.1303
 7905SOL     OW35350   4.707   4.678   6.874 -0.0987  0.4557 -0.4033
 7905SOL    HW135351   0.031   4.631   6.816  0.2451  0.7488 -0.2918
 7905SOL    HW235352   0.014   0.027   6.887 -0.6175  0.5803  0.4732
 7906SOL     OW35353   0.130   0.272   5.333  0.3241  1.1081  0.2709
 7906SOL    HW135354   0.201   0.280   5.397 -0.7246  0.7981  1.4721
 7906SOL    HW235355   0.139   0.177   5.321  1.5907  1.4954 -1.8550
 7907SOL     OW35356   3.410   0.101   8.390 -0.2218  0.3226  0.4940
 7907SOL    HW135357   3.447   0.028   8.341 -0.2082  1.0560 -0.5837
 7907SOL    HW235358   3.445   0.173   8.338  0.1664 -1.1396 -1.2806
 7908SOL     OW35359   4.377   1.064  15.842  0.5347  0.1276  0.3590
 7908SOL    HW135360   4.356   1.086  15.933 -0.1440 -0.3683  0.3224
 7908SOL    HW235361   4.430   1.141  15.826 -0.0915  0.7740  1.3925
 7909SOL     OW35362   3.700   2.423   7.229  0.2716 -0.0016  0.0987
 7909SOL    HW135363   3.645   2.372   7.287  2.5510 -0.0325  2.2595
 7909SOL    HW235364   3.667   2.513   7.237  1.0488  0.2969  0.0118
 7910SOL     OW35365   1.366   2.015   5.565  0.3621 -0.0741  0.1640
 7910SOL    HW135366   1.347   2.090   5.621 -0.3629 -0.6878  0.7418
 7910SOL    HW235367   1.370   2.052   5.477  1.8934 -0.6863 -0.0325
 7911SOL     OW35368   2.505   0.802   7.199  0.2038  0.0729 -0.3610
 7911SOL    HW135369   2.453   0.802   7.119  2.2306 -1.2802 -1.6775
 7911SOL    HW235370   2.477   0.716   7.228  1.5181 -0.6748 -1.3225
 7912SOL     OW35371   2.080   2.878   9.366  0.6237  0.0918  0.5079
 7912SOL    HW135372   2.005   2.934   9.389 -0.1497  0.0407 -1.8974
 7912SOL    HW235373   2.132   2.897   9.444  0.4227  0.8524  0.4567
 7913SOL     OW35374   1.243   2.714   9.174  0.0181 -1.1640 -0.1631
 7913SOL    HW135375   1.274   2.682   9.089 -1.2857  0.8183 -1.3789
 7913SOL    HW235376   1.329   2.714   9.214 -0.4873  1.2447  0.8939
 7914SOL     OW35377   2.074   2.179   9.368  0.5667  0.1941  0.2802
 7914SOL    HW135378   2.104   2.181   9.458 -1.0895 -1.9293  0.8754
 7914SOL    HW235379   2.066   2.273   9.350 -2.8515 -0.0371  0.5345
 7915SOL     OW35380   3.881   3.273   0.098  0.2581 -0.1992 -0.2277
 7915SOL    HW135381   3.869   3.243   0.188 -0.5605  2.1833  0.4376
 7915SOL    HW235382   3.844   3.195   0.056 -0.0358  0.2084 -0.7210
 7916SOL     OW35383   3.357   3.240  13.056  0.1098  0.4454  0.0670
 7916SOL    HW135384   3.364   3.249  13.151 -1.3328  1.6976  0.0572
 7916SOL    HW235385   3.426   3.301  13.029 -0.6642  0.1561 -2.6243
 7917SOL     OW35386   1.617   1.168   2.495  0.1118 -0.0592  0.0079
 7917SOL    HW135387   1.564   1.137   2.568 -0.7870 -1.8817 -1.4103
 7917SOL    HW235388   1.614   1.263   2.501 -0.7645 -0.0778 -0.1069
 7918SOL     OW35389   4.105   4.075  13.153 -0.7649 -0.3060 -0.0457
 7918SOL    HW135390   4.127   4.112  13.067 -0.3073 -0.5111 -0.0162
 7918SOL    HW235391   4.167   4.125  13.206 -1.0549 -0.1809  0.1712
 7919SOL     OW35392   3.646   2.758  14.643  0.1413 -0.1963  0.0764
 7919SOL    HW135393   3.588   2.688  14.615  0.4490 -0.9882  1.4449
 7919SOL    HW235394   3.618   2.790  14.729 -1.9168 -0.6244 -0.4409
 7920SOL     OW35395   1.735   2.564   4.476 -0.1543 -0.5875  0.0798
 7920SOL    HW135396   1.701   2.529   4.558  0.8355 -1.4534  0.1160
 7920SOL    HW235397   1.768   2.481   4.441  1.4249 -0.3034  0.8510
 7921SOL     OW35398   3.943   2.831  14.056  0.4387 -0.6620 -0.2443
 7921SOL    HW135399   3.900   2.897  14.110 -0.8973 -2.0759  0.4338
 7921SOL    HW235400   4.034   2.859  14.056  0.4065 -0.5914 -3.6991
 7922SOL     OW35401   3.104   2.076   2.970 -0.6657  0.2959 -0.5645
 7922SOL    HW135402   3.072   2.164   2.989 -0.4334  0.5386 -1.3068
 7922SOL    HW235403   3.074   2.042   3.054 -2.1266  1.6411 -0.5411
 7923SOL     OW35404   0.511   4.674   3.340  0.2447 -0.2699  0.2610
 7923SOL    HW135405   0.419   4.676   3.317  0.1535  0.3081  0.6677
 7923SOL    HW235406   0.518   4.638   3.428 -2.0197 -3.1713 -0.7704
 7924SOL     OW35407   2.459   1.250  15.229 -0.1790 -0.6359  0.3971
 7924SOL    HW135408   2.427   1.165  15.258  1.0880 -0.7689  1.4078
 7924SOL    HW235409   2.550   1.255  15.256  0.1806  0.5438 -0.9971
 7925SOL     OW35410   1.834   3.986   6.051  0.0343 -0.1816  0.1610
 7925SOL    HW135411   1.799   3.935   6.124  0.6573 -1.0119 -0.1199
 7925SOL    HW235412   1.839   4.072   6.092 -1.6294 -0.5951  1.2259
 7926SOL     OW35413   2.472   0.920   0.294  1.0835  0.2499 -0.3014
 7926SOL    HW135414   2.521   0.846   0.329  0.5670 -0.8321 -1.8803
 7926SOL    HW235415   2.526   0.946   0.219 -1.5139 -0.9556 -2.6042
 7927SOL     OW35416   1.564   2.971   1.885  0.3798 -0.2418  0.1954
 7927SOL    HW135417   1.617   3.051   1.884 -0.8703  0.5328 -2.6544
 7927SOL    HW235418   1.599   2.907   1.823 -3.4958 -2.5681  0.4099
 7928SOL     OW35419   0.900   2.059   6.824 -0.0267  0.0097  0.3584
 7928SOL    HW135420   0.919   2.133   6.882 -4.9933 -0.3250  2.4138
 7928SOL    HW235421   0.982   2.046   6.777 -0.3539 -2.6788  0.5554
 7929SOL     OW35422   3.800   2.820   3.001 -0.7668 -0.1183 -0.2670
 7929SOL    HW135423   3.828   2.911   2.990  1.0305 -0.3562  2.3650
 7929SOL    HW235424   3.755   2.826   3.085  1.9929  0.5036  1.1334
 7930SOL     OW35425   2.081   1.502   6.170  0.6688  0.3889  0.4908
 7930SOL    HW135426   2.172   1.472   6.168  0.6423  0.2511  1.4972
 7930SOL    HW235427   2.092   1.589   6.210 -0.5250  0.8924 -0.2506
 7931SOL     OW35428   1.681   4.711   6.144 -0.3665 -0.0873 -0.0258
 7931SOL    HW135429   1.614   4.644   6.148 -0.5159  0.1381  1.2962
 7931SOL    HW235430   1.630   0.052   6.169 -1.7726 -1.0573  0.0968
 7932SOL     OW35431   1.632   2.890   6.039 -0.5568 -0.1481 -0.5420
 7932SOL    HW135432   1.586   2.944   6.103 -1.9204  0.3040 -1.9064
 7932SOL    HW235433   1.554   2.857   5.995 -0.9167  1.2163 -0.9225
 7933SOL     OW35434   3.543   2.318  10.843 -0.2299  0.1272 -0.4016
 7933SOL    HW135435   3.591   2.371  10.779  1.4406 -0.3289  0.4817
 7933SOL    HW235436   3.522   2.243  10.786  0.9985  0.0559 -0.7790
 7934SOL     OW35437   1.585   0.432  16.427 -0.9193 -0.1218 -0.3877
 7934SOL    HW135438   1.608   0.510  16.377  1.0533 -0.8166 -0.5450
 7934SOL    HW235439   1.492   0.452  16.441 -0.6162  1.1180 -0.1391
 7935SOL     OW35440   3.220   3.033  11.149  0.3705 -0.1487  0.6133
 7935SOL    HW135441   3.260   2.984  11.077  1.3017  0.7938  0.4841
 7935SOL    HW235442   3.239   3.126  11.137 -0.4422 -0.6043 -4.2713
 7936SOL     OW35443   3.243   1.242   4.757 -0.6008  0.3088  0.8624
 7936SOL    HW135444   3.308   1.255   4.688 -1.4901  0.8660  0.1294
 7936SOL    HW235445   3.232   1.331   4.790  1.1360  0.6862  0.4258
 7937SOL     OW35446   4.101   3.808   4.160  0.5203 -0.0846 -0.0122
 7937SOL    HW135447   4.154   3.861   4.101 -1.9581  1.3037 -0.9525
 7937SOL    HW235448   4.162   3.811   4.234  0.6830  0.2426 -0.1629
 7938SOL     OW35449   0.284   0.259   2.149 -0.2552  0.9692  0.7981
 7938SOL    HW135450   0.336   0.339   2.148  1.9033 -0.4226  0.3968
 7938SOL    HW235451   0.213   0.276   2.088  1.1785  2.7374 -0.3692
 7939SOL     OW35452   0.133   0.656   6.280  0.3592  0.0158 -0.2591
 7939SOL    HW135453   0.152   0.748   6.261 -0.7599  0.5604  1.2520
 7939SOL    HW235454   0.066   0.658   6.348  0.3275  2.2601 -0.3574
 7940SOL     OW35455   0.095   4.440   4.923 -0.7224  0.5220  0.1619
 7940SOL    HW135456   0.026   4.490   4.965  0.2835  1.7611  0.3454
 7940SOL    HW235457   0.113   4.374   4.990 -1.2359  0.4995  0.2790
 7941SOL     OW35458   3.053   0.676   2.759  0.0862  0.5731 -0.2049
 7941SOL    HW135459   3.077   0.703   2.670 -0.6443  0.8130 -0.3359
 7941SOL    HW235460   3.060   0.581   2.758 -1.5036  0.4608 -0.3882
 7942SOL     OW35461   1.288   1.663  14.712 -0.0495  0.6046 -0.7974
 7942SOL    HW135462   1.242   1.636  14.633 -0.5429 -0.4834 -0.1337
 7942SOL    HW235463   1.261   1.755  14.706  0.2060  0.7055 -0.4039
 7943SOL     OW35464   2.928   4.374  16.643  0.7636 -0.3526 -0.1028
 7943SOL    HW135465   2.980   4.349  16.568 -1.0374  0.4589 -1.6356
 7943SOL    HW235466   2.844   4.335  16.619  1.7886 -1.4385 -1.9198
 7944SOL     OW35467   3.908   1.247  15.821  0.2890  0.3408 -0.1319
 7944SOL    HW135468   3.987   1.277  15.776 -0.3026  0.4879 -1.0647
 7944SOL    HW235469   3.892   1.171  15.764 -1.9472  0.9745 -0.3493
 7945SOL     OW35470   1.047   0.644   5.637  0.4944 -0.0823  0.3793
 7945SOL    HW135471   0.957   0.613   5.636  0.2361  0.6830 -0.5390
 7945SOL    HW235472   1.100   0.586   5.692  1.8556  0.0774 -0.7594
 7946SOL     OW35473   1.367   2.629   4.490  0.2222 -0.0905  0.1348
 7946SOL    HW135474   1.321   2.586   4.418 -0.3019  0.4212  0.1627
 7946SOL    HW235475   1.428   2.561   4.518  0.2169 -0.4654 -0.7623
 7947SOL     OW35476   3.577   2.600   1.660 -0.9615  0.6397 -0.1567
 7947SOL    HW135477   3.537   2.614   1.746  0.3298  2.0047  0.2309
 7947SOL    HW235478   3.521   2.532   1.624 -1.1988  0.1790  1.0694
 7948SOL     OW35479   2.050   2.785   2.837  0.1974 -0.1794  0.3640
 7948SOL    HW135480   2.031   2.870   2.877  1.0194 -1.1642  2.8797
 7948SOL    HW235481   1.965   2.747   2.813 -0.6732  0.4116  2.4968
 7949SOL     OW35482   3.522   2.272   3.048 -0.2237  0.4346 -0.3223
 7949SOL    HW135483   3.439   2.310   3.020 -0.7237 -1.5883 -1.5845
 7949SOL    HW235484   3.537   2.306   3.137  2.5090  0.3008 -0.7414
 7950SOL     OW35485   3.440   1.433   9.268  0.4301  0.0202 -0.3258
 7950SOL    HW135486   3.427   1.480   9.185 -0.1439  0.1184 -0.1833
 7950SOL    HW235487   3.534   1.417   9.267  0.2090 -1.2422 -1.3840
 7951SOL     OW35488   1.808   0.840  11.534  0.1565 -0.4871 -0.4542
 7951SOL    HW135489   1.774   0.920  11.574  0.1038 -0.3197 -0.8372
 7951SOL    HW235490   1.882   0.820  11.591  0.6224  0.5958 -0.6837
 7952SOL     OW35491   3.846   3.752   8.319  0.1868 -0.0662  0.0588
 7952SOL    HW135492   3.807   3.672   8.353  0.7157 -0.2678  0.2004
 7952SOL    HW235493   3.939   3.727   8.323  0.7985  2.1756 -0.3008
 7953SOL     OW35494   2.439   1.386   6.932  0.0772  0.0764  0.5287
 7953SOL    HW135495   2.533   1.371   6.922  0.0399  0.4866 -0.4467
 7953SOL    HW235496   2.422   1.402   6.839 -1.1696 -2.5024  0.3331
 7954SOL     OW35497   3.978   3.511   0.117  0.1917  0.2448  0.6354
 7954SOL    HW135498   3.930   3.519   0.200 -1.8514 -0.3384 -0.5061
 7954SOL    HW235499   3.936   3.427   0.097  1.0302 -0.0569  0.1319
 7955SOL     OW35500   0.055   2.187  11.527 -0.2303 -0.1459  0.2222
 7955SOL    HW135501   4.720   2.207  11.589  0.1835  0.0453  0.6298
 7955SOL    HW235502   4.735   2.209  11.452  0.2217  2.6985  0.7391
 7956SOL     OW35503   0.195   4.214   3.955  0.6172 -0.1522 -0.1527
 7956SOL    HW135504   0.162   4.182   3.871  2.3915 -0.0893 -0.8668
 7956SOL    HW235505   0.215   4.128   3.993 -2.8128 -0.6149  0.6264
 7957SOL     OW35506   3.148   0.387   9.804 -0.3850 -0.5193 -0.0317
 7957SOL    HW135507   3.077   0.361   9.862  0.8162 -0.2210  1.5788
 7957SOL    HW235508   3.208   0.431   9.863  0.1255 -0.1062 -0.8490
 7958SOL     OW35509   4.034   2.122   8.596  0.2381  0.4052  0.3943
 7958SOL    HW135510   4.060   2.209   8.625 -1.3823  0.0384  2.9627
 7958SOL    HW235511   4.078   2.107   8.512  0.4805  1.5262  0.3207
 7959SOL     OW35512   0.734   2.528   9.771 -0.3107 -0.0823 -0.5714
 7959SOL    HW135513   0.771   2.567   9.850 -1.7657 -1.3081  0.7115
 7959SOL    HW235514   0.685   2.457   9.813 -1.0100  1.3259  0.9958
 7960SOL     OW35515   1.622   3.181   6.502 -0.5461  0.1583 -0.0748
 7960SOL    HW135516   1.613   3.122   6.577 -1.5945 -0.1081 -0.4046
 7960SOL    HW235517   1.597   3.260   6.550  0.9804 -1.0352  2.6922
 7961SOL     OW35518   4.182   4.119   8.392 -0.9637  0.2920  0.1051
 7961SOL    HW135519   4.113   4.086   8.335  1.1362 -1.6193 -1.3126
 7961SOL    HW235520   4.189   4.054   8.462 -1.9780 -0.6325 -0.6585
 7962SOL     OW35521   0.359   3.549   3.418  0.5265  0.4027  0.0486
 7962SOL    HW135522   0.364   3.454   3.427 -1.2046  0.3965  0.9496
 7962SOL    HW235523   0.399   3.572   3.334  0.1685  0.9486  0.0320
 7963SOL     OW35524   4.684   3.693  12.666 -0.0585 -0.2382 -0.1307
 7963SOL    HW135525   4.722   3.718  12.750  0.7934  1.6204 -1.0879
 7963SOL    HW235526   4.730   3.610  12.652 -2.9562 -1.7887 -0.5039
 7964SOL     OW35527   1.877   2.470  13.177  0.4579 -0.5913 -0.2574
 7964SOL    HW135528   1.930   2.394  13.202  3.0663  1.0985 -0.5990
 7964SOL    HW235529   1.950   2.526  13.149  1.0560 -0.0160  2.4570
 7965SOL     OW35530   2.732   0.315   6.939  0.0769 -0.5963  0.9559
 7965SOL    HW135531   2.701   0.386   6.883  1.3030 -0.4636  0.4453
 7965SOL    HW235532   2.738   0.246   6.873  1.6976  0.7400 -0.2826
 7966SOL     OW35533   1.587   4.431   6.066 -1.0754  0.1597  0.3506
 7966SOL    HW135534   1.604   4.440   5.972  0.7698  0.6805  0.7336
 7966SOL    HW235535   1.493   4.450   6.065 -0.6255  2.4172 -2.9880
 7967SOL     OW35536   0.413   3.849   6.096  0.4159  0.1526 -0.5106
 7967SOL    HW135537   0.418   3.794   6.017 -1.2458  0.0511 -0.5500
 7967SOL    HW235538   0.503   3.878   6.108  1.7047 -3.6777 -0.8279
 7968SOL     OW35539   4.560   3.141   7.677 -0.3111  0.0103 -0.6347
 7968SOL    HW135540   4.580   3.234   7.677  1.8958 -0.4651  1.1516
 7968SOL    HW235541   4.466   3.142   7.695 -0.3328 -0.7550 -0.6794
 7969SOL     OW35542   3.210   0.108   3.113  0.4608  0.1310  0.6624
 7969SOL    HW135543   3.264   0.114   3.191 -0.1637  0.4996  1.0673
 7969SOL    HW235544   3.121   0.095   3.145 -0.0922  2.2780 -0.0273
 7970SOL     OW35545   3.196   3.249   5.881  0.2390 -0.5088  0.0452
 7970SOL    HW135546   3.223   3.162   5.849  0.1336 -0.4067 -0.3170
 7970SOL    HW235547   3.145   3.274   5.804 -0.6905  0.7240  1.0830
 7971SOL     OW35548   0.976   4.634   7.913  0.3813  0.2371 -0.1164
 7971SOL    HW135549   0.966   4.541   7.893  0.5333  0.4438 -1.1307
 7971SOL    HW235550   1.056   4.632   7.965  0.6625 -3.5318 -0.7053
 7972SOL     OW35551   3.358   4.153   6.656 -0.0396  0.6569  0.5886
 7972SOL    HW135552   3.408   4.233   6.648 -0.2788  0.7916  0.4332
 7972SOL    HW235553   3.416   4.115   6.722 -0.7003 -0.7611  0.3591
 7973SOL     OW35554   2.779   2.425   6.368 -0.2928 -0.3695  0.5237
 7973SOL    HW135555   2.808   2.368   6.297 -1.2385 -0.1539 -0.0364
 7973SOL    HW235556   2.824   2.503   6.336  2.1597 -2.2360 -0.5404
 7974SOL     OW35557   1.224   1.926   1.516  0.5396 -0.5212  0.1821
 7974SOL    HW135558   1.256   1.854   1.463 -0.3706 -1.5112  0.9636
 7974SOL    HW235559   1.194   1.876   1.592 -0.6641  1.3334  0.9510
 7975SOL     OW35560   2.141   1.553   4.738 -0.1120 -0.1619  0.6874
 7975SOL    HW135561   2.154   1.486   4.806 -1.1196 -2.1345 -1.0600
 7975SOL    HW235562   2.216   1.606   4.762 -1.4265  2.2416 -0.5605
 7976SOL     OW35563   2.165   4.463   8.411  0.2280 -0.2123  0.5458
 7976SOL    HW135564   2.182   4.431   8.499 -0.7065  1.0666  1.1880
 7976SOL    HW235565   2.200   4.552   8.416  3.2971 -1.2136 -3.1143
 7977SOL     OW35566   4.050   0.082   2.328  0.3002 -0.7278  0.3165
 7977SOL    HW135567   4.105   0.110   2.401  0.9786 -1.0922 -0.0617
 7977SOL    HW235568   4.023   0.165   2.289  1.2505 -0.5138  0.1263
 7978SOL     OW35569   1.583   1.876   5.646 -0.3489 -0.0768  0.1221
 7978SOL    HW135570   1.663   1.929   5.639 -0.9513  0.7260 -0.7027
 7978SOL    HW235571   1.514   1.938   5.622  0.5509  0.2838 -1.5762
 7979SOL     OW35572   0.271   3.116  17.094  0.3900 -0.3233 -0.2851
 7979SOL    HW135573   0.288   3.067  17.014  2.5832  2.1287 -1.3412
 7979SOL    HW235574   0.364   3.135  17.110 -0.2689  1.4763  1.4891
 7980SOL     OW35575   3.910   0.567  16.303  0.3198  0.0304  0.2424
 7980SOL    HW135576   3.902   0.589  16.210 -0.4290 -2.2228 -0.2274
 7980SOL    HW235577   3.983   0.506  16.302  0.8213  0.6837 -2.9988
 7981SOL     OW35578   4.702   3.997   1.379  1.0650 -0.3839 -0.0497
 7981SOL    HW135579   0.030   4.051   1.333 -0.5780  0.8761 -0.8319
 7981SOL    HW235580   4.657   3.939   1.318  1.3980 -0.9104  0.2003
 7982SOL     OW35581   0.541   2.677  13.653  0.1672  0.1893  0.3648
 7982SOL    HW135582   0.494   2.626  13.718  0.1638 -1.3267 -0.8140
 7982SOL    HW235583   0.467   2.707  13.601  1.4515  0.3540 -1.3885
 7983SOL     OW35584   2.183   3.937   2.396 -0.1165  0.2974  0.0081
 7983SOL    HW135585   2.191   4.005   2.463  2.8606  0.1394 -0.1824
 7983SOL    HW235586   2.268   3.937   2.352 -1.1355 -0.9454 -1.9777
 7984SOL     OW35587   1.165   1.036   6.517 -0.2373 -0.3870  0.4749
 7984SOL    HW135588   1.224   1.023   6.591  0.3326 -2.2835 -0.3086
 7984SOL    HW235589   1.089   1.076   6.559  0.3145  1.0368  0.0963
 7985SOL     OW35590   3.406   2.591   5.998 -0.1578 -0.0737  0.2702
 7985SOL    HW135591   3.328   2.594   6.054 -1.4596  1.5104 -1.6101
 7985SOL    HW235592   3.442   2.680   5.996 -0.2599 -0.0161  1.0095
 7986SOL     OW35593   2.931   4.311  17.253 -0.4237 -0.0861  0.1179
 7986SOL    HW135594   2.999   4.366  17.214  0.5660  0.6781  2.9296
 7986SOL    HW235595   2.874   4.303  17.177 -0.2585 -1.6373  0.1584
 7987SOL     OW35596   1.629   0.396   8.650  0.0672 -0.2294 -0.0310
 7987SOL    HW135597   1.591   0.400   8.562 -2.0320  1.9316  1.0046
 7987SOL    HW235598   1.715   0.425   8.620  0.5269 -0.5830  0.9459
 7988SOL     OW35599   3.670   3.600   2.402  0.8216 -0.2325  0.1647
 7988SOL    HW135600   3.694   3.545   2.327 -1.5274 -0.4631 -0.4149
 7988SOL    HW235601   3.702   3.543   2.472  1.2382 -2.7699 -2.0777
 7989SOL     OW35602   2.085   3.974  16.604 -0.0042 -0.7025  0.5440
 7989SOL    HW135603   2.018   3.936  16.661 -1.1546 -0.1261 -0.4427
 7989SOL    HW235604   2.100   4.057  16.650 -1.1815 -0.4032  0.3839
 7990SOL     OW35605   1.638   1.430   8.070 -0.8833  0.3397 -0.5960
 7990SOL    HW135606   1.700   1.467   8.007 -1.5047  3.3498  0.5727
 7990SOL    HW235607   1.611   1.350   8.025 -2.9110  1.6786 -1.7197
 7991SOL     OW35608   2.813   4.032   5.888 -0.3020  0.4652  0.1904
 7991SOL    HW135609   2.863   4.033   5.806  0.6121  0.0450  0.7508
 7991SOL    HW235610   2.744   3.973   5.859 -0.4465  1.1456 -0.8549
 7992SOL     OW35611   0.827   1.775   9.365 -0.2939  0.0486  0.2389
 7992SOL    HW135612   0.839   1.868   9.346 -1.9819  0.4134  0.9148
 7992SOL    HW235613   0.741   1.754   9.403 -0.7316 -0.3636 -0.9758
 7993SOL     OW35614   1.429   2.112  10.651 -0.5862  0.4402  0.3061
 7993SOL    HW135615   1.359   2.047  10.647  0.6699 -0.9890  1.2122
 7993SOL    HW235616   1.469   2.115  10.738  0.1318 -0.0062 -0.0077
 7994SOL     OW35617   1.012   3.151   0.317 -0.1392  0.3657 -0.0578
 7994SOL    HW135618   0.924   3.189   0.318  0.0262  0.7872 -1.0212
 7994SOL    HW235619   1.055   3.231   0.284  2.9135 -0.7466  1.1917
 7995SOL     OW35620   3.360   4.133  10.944 -0.1000 -0.1063  0.0882
 7995SOL    HW135621   3.427   4.160  11.006 -1.8573  1.0916  1.4612
 7995SOL    HW235622   3.334   4.211  10.893 -0.1664 -0.2716 -0.1303
 7996SOL     OW35623   1.335   1.235   9.881 -0.0073 -0.6249  0.2700
 7996SOL    HW135624   1.297   1.190   9.955 -0.0594 -2.2588 -0.7462
 7996SOL    HW235625   1.424   1.251   9.912 -0.8916  1.2524  1.8226
 7997SOL     OW35626   0.101   2.418  16.038 -0.3663 -0.3272 -0.0860
 7997SOL    HW135627   0.019   2.464  16.057 -0.1863 -0.0564  0.0369
 7997SOL    HW235628   0.145   2.446  16.118  0.0472  1.5282 -0.9734
 7998SOL     OW35629   0.600   1.506   4.957  0.1204 -0.0586  0.0494
 7998SOL    HW135630   0.694   1.519   4.974  0.2659  1.3434 -1.9033
 7998SOL    HW235631   0.570   1.583   5.006  1.3386  0.1550  0.4659
 7999SOL     OW35632   3.124   1.788   7.125 -0.1488 -0.4266  0.1479
 7999SOL    HW135633   3.171   1.706   7.109  0.6568 -0.1522  1.1469
 7999SOL    HW235634   3.080   1.760   7.205 -1.1269  0.5611 -0.0342
 8000SOL     OW35635   0.071   0.567  15.373  0.0098  0.0404 -0.2510
 8000SOL    HW135636   0.167   0.572  15.365  0.1239 -2.3057 -0.4165
 8000SOL    HW235637   0.070   0.566  15.468 -0.4470  0.7331 -0.2512
 8001SOL     OW35638   0.539   1.288   7.489 -0.3912  0.1606 -0.0303
 8001SOL    HW135639   0.530   1.377   7.453 -2.0430  0.0100 -0.0109
 8001SOL    HW235640   0.489   1.222   7.442  0.2779 -1.0778  0.9957
 8002SOL     OW35641   0.807   0.872   8.827  0.1209 -0.3171 -0.1184
 8002SOL    HW135642   0.896   0.863   8.862  0.5582  0.1738 -1.1102
 8002SOL    HW235643   0.823   0.932   8.754  0.9858 -0.0617  0.2807
 8003SOL     OW35644   3.693   3.367   7.462  0.0081 -0.0644 -0.1961
 8003SOL    HW135645   3.672   3.305   7.392 -0.4530  0.3063 -0.3819
 8003SOL    HW235646   3.615   3.379   7.516  1.5897 -0.7519  2.2677
 8004SOL     OW35647   4.083   2.792  10.903 -0.0226  0.1491 -0.1445
 8004SOL    HW135648   4.172   2.756  10.907 -0.2287 -0.3918 -0.4855
 8004SOL    HW235649   4.091   2.876  10.858  0.4105  0.9608  1.4400
 8005SOL     OW35650   4.479   0.475   3.405  0.6261  0.3785  0.0092
 8005SOL    HW135651   4.444   0.463   3.494 -1.8633  2.0019 -0.7431
 8005SOL    HW235652   4.447   0.396   3.363  1.1362  0.2406 -0.1172
 8006SOL     OW35653   1.120   1.052   4.488  0.4784 -0.2509  0.1811
 8006SOL    HW135654   1.106   1.061   4.582  1.0357  2.2897  0.0205
 8006SOL    HW235655   1.037   1.086   4.452  1.6295  0.6797 -1.6092
 8007SOL     OW35656   3.924   3.420   8.882 -0.2056  0.5891 -0.0411
 8007SOL    HW135657   3.875   3.375   8.951 -0.5407 -0.9687 -1.2911
 8007SOL    HW235658   3.869   3.486   8.840 -2.5384 -2.4814 -1.8281
 8008SOL     OW35659   3.032   2.626  10.548 -0.1133 -0.2847  0.3006
 8008SOL    HW135660   2.973   2.687  10.503 -0.0803 -0.7294 -0.3384
 8008SOL    HW235661   3.086   2.592  10.476 -1.8232  0.0931 -1.1709
 8009SOL     OW35662   2.224   1.811   6.548 -0.0418  0.2292 -0.4398
 8009SOL    HW135663   2.141   1.804   6.596 -0.4222 -1.0369 -1.2878
 8009SOL    HW235664   2.269   1.879   6.598  2.8916 -3.0528  1.3967
 8010SOL     OW35665   0.758   0.169  13.928 -0.0526 -0.1076 -0.3934
 8010SOL    HW135666   0.773   0.181  14.021  2.3941  0.8688 -0.9171
 8010SOL    HW235667   0.827   0.107  13.904  1.6119  1.2434  0.9238
 8011SOL     OW35668   1.553   1.576   1.441  0.0207 -0.5648  0.1007
 8011SOL    HW135669   1.639   1.544   1.413 -0.2905  0.7971 -2.3998
 8011SOL    HW235670   1.580   1.646   1.500 -0.7600 -1.0344  1.0080
 8012SOL     OW35671   3.507   4.051   0.701  0.1133  0.3303  0.0348
 8012SOL    HW135672   3.494   4.120   0.765  0.0323 -1.6491  2.1689
 8012SOL    HW235673   3.507   4.107   0.624  1.6699 -0.8883 -0.8419
 8013SOL     OW35674   1.921   4.281   4.319  0.3482  0.0558  0.3195
 8013SOL    HW135675   2.003   4.317   4.288  1.3162  0.2890  3.0976
 8013SOL    HW235676   1.932   4.267   4.414  0.4501 -0.7811  0.1827
 8014SOL     OW35677   2.087   4.418  14.947  0.0407  0.0716 -0.2997
 8014SOL    HW135678   2.119   4.499  14.986 -0.9484 -0.3085  1.2949
 8014SOL    HW235679   2.073   4.446  14.857 -2.1619 -2.5496 -0.7581
 8015SOL     OW35680   2.565   0.689   7.801 -0.5241 -0.1188 -0.1212
 8015SOL    HW135681   2.636   0.747   7.827 -1.3148  0.5640  0.5121
 8015SOL    HW235682   2.574   0.619   7.866  0.4496 -0.6500 -0.8212
 8016SOL     OW35683   1.098   1.019  12.907 -0.5740 -0.0411 -0.3442
 8016SOL    HW135684   1.127   1.074  12.835 -2.5679  0.4353 -0.7835
 8016SOL    HW235685   1.179   1.021  12.958  0.0782  3.2366 -1.5370
 8017SOL     OW35686   3.568   2.145  13.399  0.1491 -0.1012 -0.1225
 8017SOL    HW135687   3.569   2.137  13.495  2.6880  1.9829  0.0330
 8017SOL    HW235688   3.574   2.054  13.371  1.3950  0.4474 -1.5980
 8018SOL     OW35689   3.169   3.435   1.603 -0.3096 -0.2755  0.0401
 8018SOL    HW135690   3.194   3.413   1.693 -1.1391  0.7484  0.5299
 8018SOL    HW235691   3.145   3.349   1.570 -1.2433 -0.2471  0.6143
 8019SOL     OW35692   3.579   3.862   4.236 -0.2552  0.3349 -0.2052
 8019SOL    HW135693   3.560   3.811   4.158 -2.0858 -1.4524  1.3986
 8019SOL    HW235694   3.674   3.863   4.223 -0.1200 -0.2384  0.7152
 8020SOL     OW35695   0.531   0.617   5.930 -0.1799  0.8253 -0.2687
 8020SOL    HW135696   0.485   0.597   5.849 -2.6941  1.4705  0.9785
 8020SOL    HW235697   0.504   0.540   5.981  0.9494  1.1103  0.7788
 8021SOL     OW35698   0.237   2.547   5.633 -0.4442 -1.1663  0.6997
 8021SOL    HW135699   0.278   2.629   5.606 -0.5676 -1.7973 -1.4379
 8021SOL    HW235700   0.310   2.504   5.676  0.1335  0.4823  1.3570
 8022SOL     OW35701   0.352   3.610   1.592 -0.3842 -0.5103  0.4344
 8022SOL    HW135702   0.428   3.667   1.584 -0.2339 -0.7106  0.4476
 8022SOL    HW235703   0.282   3.675   1.607 -1.1395 -0.8346 -1.6622
 8023SOL     OW35704   2.157   0.742  10.179 -0.4476  0.2454  0.1477
 8023SOL    HW135705   2.203   0.823  10.202 -2.7984  1.4902  0.5391
 8023SOL    HW235706   2.200   0.682  10.240  0.1845  1.9771  1.4030
 8024SOL     OW35707   1.851   2.254   1.804  0.0833  0.0707 -0.1116
 8024SOL    HW135708   1.774   2.210   1.841 -0.3897 -0.0190 -1.2039
 8024SOL    HW235709   1.919   2.196   1.839 -1.3743 -0.9444  0.9998
 8025SOL     OW35710   1.543   4.260   9.551 -0.6929 -0.4454 -0.1824
 8025SOL    HW135711   1.562   4.342   9.506  0.8180 -0.8863 -0.3297
 8025SOL    HW235712   1.452   4.278   9.576 -0.4725  0.2727  0.1082
 8026SOL     OW35713   3.750   2.749  12.932 -0.4074 -0.3506  0.2701
 8026SOL    HW135714   3.714   2.662  12.912  3.0342 -1.3969 -1.3474
 8026SOL    HW235715   3.815   2.722  12.996 -1.6260  1.3788  2.2341
 8027SOL     OW35716   1.289   1.499  13.422 -0.2204  0.3273 -0.0522
 8027SOL    HW135717   1.231   1.461  13.356 -1.2572 -0.3607  1.2689
 8027SOL    HW235718   1.297   1.588  13.386  0.4689 -0.2054 -1.2239
 8028SOL     OW35719   1.634   0.619   6.068 -0.0370  0.3923  0.2068
 8028SOL    HW135720   1.688   0.539   6.075 -0.8723 -0.0089  2.1594
 8028SOL    HW235721   1.576   0.597   5.995  0.0853  1.4638 -0.2057
 8029SOL     OW35722   1.899   2.659  15.085  0.2467  0.0415 -0.0599
 8029SOL    HW135723   1.973   2.708  15.120 -0.1130  1.1601 -0.8814
 8029SOL    HW235724   1.902   2.686  14.993 -0.8183 -0.9208 -0.3891
 8030SOL     OW35725   3.338   0.214   7.677 -0.3843  0.0555  0.2888
 8030SOL    HW135726   3.316   0.140   7.620  2.0240 -0.4746  0.0788
 8030SOL    HW235727   3.274   0.282   7.658  1.0088  1.9722  2.4512
 8031SOL     OW35728   2.319   3.656   8.029 -0.0667 -0.0033  0.1943
 8031SOL    HW135729   2.317   3.561   8.032  2.4289 -0.0444  1.0475
 8031SOL    HW235730   2.407   3.669   8.066 -0.8017 -0.5700  2.1745
 8032SOL     OW35731   2.336   3.210   9.404 -0.2621  0.1464 -0.3248
 8032SOL    HW135732   2.385   3.202   9.486  1.3217 -0.2980 -1.3052
 8032SOL    HW235733   2.376   3.279   9.353  0.6445  0.9997  1.5500
 8033SOL     OW35734   4.692   3.841   7.278  0.5621 -0.1585  0.9317
 8033SOL    HW135735   0.017   3.770   7.258  0.5752 -0.4272  1.9576
 8033SOL    HW235736   0.005   3.924   7.271  1.9696 -0.9442  1.4035
 8034SOL     OW35737   0.156   3.484   0.265  0.3582  0.4075  0.5471
 8034SOL    HW135738   0.119   3.444   0.187 -0.4023 -1.0456  1.6531
 8034SOL    HW235739   0.176   3.572   0.233  0.4205  0.0603 -0.3472
 8035SOL     OW35740   3.921   2.080   3.097  0.3142 -0.4446 -0.2980
 8035SOL    HW135741   3.983   2.122   3.037  0.1190 -0.6938 -0.6775
 8035SOL    HW235742   3.841   2.086   3.044  0.6217  0.8978 -0.6144
 8036SOL     OW35743   0.166   4.500   3.846  0.0992 -0.7467 -0.1591
 8036SOL    HW135744   0.188   4.525   3.935  0.9049  1.4756 -0.9887
 8036SOL    HW235745   0.181   4.406   3.843  1.1818 -0.5973  0.4620
 8037SOL     OW35746   0.283   2.474   9.907 -0.1905 -0.1886  0.0558
 8037SOL    HW135747   0.364   2.446   9.865  0.9424  0.0013  2.1347
 8037SOL    HW235748   0.310   2.451   9.996  0.7738 -1.0668 -0.4586
 8038SOL     OW35749   4.150   3.987   6.456 -0.1187  0.0310  0.2571
 8038SOL    HW135750   4.240   3.968   6.482 -0.2193 -1.4527 -0.4612
 8038SOL    HW235751   4.116   3.898   6.468  0.7890 -0.1879  1.1721
 8039SOL     OW35752   1.531   4.328   4.484  0.1648 -0.5990  0.4568
 8039SOL    HW135753   1.524   4.232   4.485  0.0952 -0.5862  1.0060
 8039SOL    HW235754   1.548   4.338   4.390 -0.7649 -0.3081  0.3180
 8040SOL     OW35755   2.210   2.189  15.619  0.0631 -0.0524  0.3944
 8040SOL    HW135756   2.257   2.181  15.536  0.1515 -0.9615  0.5285
 8040SOL    HW235757   2.201   2.097  15.644 -0.0500  0.5696  2.6299
 8041SOL     OW35758   1.031   4.336   6.095  0.0619 -0.0238 -0.4369
 8041SOL    HW135759   1.075   4.398   6.152  0.6857 -2.3169  1.6041
 8041SOL    HW235760   1.054   4.373   6.010  3.3873 -0.1531  0.4176
 8042SOL     OW35761   2.231   3.198   5.613 -0.3554 -0.0269 -0.6722
 8042SOL    HW135762   2.291   3.125   5.624  1.6584  1.8429  0.9442
 8042SOL    HW235763   2.143   3.162   5.623  0.6615 -1.8098  1.8004
 8043SOL     OW35764   3.489   0.987   7.776  0.0875  0.2279 -0.1125
 8043SOL    HW135765   3.579   1.013   7.754  0.8464 -3.0712 -1.0009
 8043SOL    HW235766   3.506   0.956   7.865  0.5672  1.8469  0.3622
 8044SOL     OW35767   0.367   1.782   4.326  0.0897  0.0992 -0.6066
 8044SOL    HW135768   0.430   1.792   4.398 -0.5297  0.1894 -0.0818
 8044SOL    HW235769   0.415   1.706   4.292 -1.6542 -1.0773 -0.4466
 8045SOL     OW35770   4.183   3.395   7.308 -0.1362 -0.2581 -0.5225
 8045SOL    HW135771   4.094   3.414   7.336 -0.5493 -0.3599 -1.7974
 8045SOL    HW235772   4.201   3.310   7.348 -0.7078  0.4780  1.2995
 8046SOL     OW35773   3.937   3.059   7.117  0.0762 -0.8599  0.5792
 8046SOL    HW135774   3.870   3.123   7.139  1.4797 -0.0572  2.5196
 8046SOL    HW235775   4.013   3.104   7.154 -0.0294  0.3813 -0.7235
 8047SOL     OW35776   2.245   0.033   3.396  0.1326 -0.4816 -0.3527
 8047SOL    HW135777   2.295   4.700   3.353 -1.4005 -0.0866 -2.7631
 8047SOL    HW235778   2.155   0.016   3.368  0.0785 -0.0125 -0.4629
 8048SOL     OW35779   3.761   1.778   6.331 -0.5902  0.6761  0.1820
 8048SOL    HW135780   3.840   1.802   6.283 -0.6816 -1.3925 -0.9991
 8048SOL    HW235781   3.711   1.725   6.270 -0.5018  1.1118 -0.2650
 8049SOL     OW35782   4.393   1.131   5.803  0.2303 -0.4604 -0.0814
 8049SOL    HW135783   4.488   1.121   5.795  0.4428  2.1234 -0.8204
 8049SOL    HW235784   4.365   1.044   5.777  0.7778 -0.3767 -0.9452
 8050SOL     OW35785   3.646   0.088   2.145  0.3670 -0.4058  0.1726
 8050SOL    HW135786   3.682   0.149   2.081 -0.3865 -0.2635 -0.1216
 8050SOL    HW235787   3.666   0.129   2.229  3.2193  1.0059 -1.1990
 8051SOL     OW35788   4.365   4.648   9.439  0.0681 -0.0893 -0.4903
 8051SOL    HW135789   4.327   4.736   9.434  1.8573  0.7210  0.0853
 8051SOL    HW235790   4.459   4.665   9.442  0.4177 -2.0475 -0.0909
 8052SOL     OW35791   2.292   0.081   6.168  0.0937 -0.1300  0.3784
 8052SOL    HW135792   2.266   0.083   6.260 -1.0649  1.3290  0.0144
 8052SOL    HW235793   2.384   0.056   6.181 -0.1551 -1.2043  0.0323
 8053SOL     OW35794   4.061   3.352   9.370 -0.1104 -0.3437  0.3784
 8053SOL    HW135795   4.108   3.416   9.316 -0.7281  0.5927  0.9517
 8053SOL    HW235796   4.089   3.277   9.317 -0.1858  0.7443 -1.2155
 8054SOL     OW35797   4.044   2.571   3.145  0.7058 -0.6192 -0.0909
 8054SOL    HW135798   4.072   2.488   3.184  1.8865  0.1104  0.6195
 8054SOL    HW235799   3.952   2.568   3.173  0.7315 -0.2490  0.0252
 8055SOL     OW35800   0.948   3.757  14.858 -0.0512  0.2417  0.0012
 8055SOL    HW135801   0.988   3.730  14.775  2.2770  1.6584  0.6569
 8055SOL    HW235802   0.973   3.850  14.858 -0.7367  0.4102  2.4649
 8056SOL     OW35803   1.419   2.553   0.390  0.2269  0.0191  0.5624
 8056SOL    HW135804   1.380   2.623   0.442 -1.7952 -0.3206 -0.4887
 8056SOL    HW235805   1.474   2.507   0.454  1.4211  2.0261  0.9548
 8057SOL     OW35806   0.538   0.534   1.721 -0.0835  0.2308 -0.3171
 8057SOL    HW135807   0.547   0.624   1.691 -0.0597  1.2881  2.7905
 8057SOL    HW235808   0.549   0.478   1.644 -0.1853 -0.2667  0.0272
 8058SOL     OW35809   1.797   0.570   1.844  0.1240  0.8036 -0.1568
 8058SOL    HW135810   1.825   0.560   1.935 -0.8661  2.1172  0.2826
 8058SOL    HW235811   1.874   0.535   1.801  0.8563 -0.4808  2.1678
 8059SOL     OW35812   0.595   1.571   8.863  0.5296 -0.2286  0.3186
 8059SOL    HW135813   0.526   1.550   8.926  1.0744 -0.5143  0.8194
 8059SOL    HW235814   0.592   1.666   8.853 -0.5193 -0.4005 -0.9961
 8060SOL     OW35815   0.751   2.883  17.433 -0.2699  0.0174  0.2546
 8060SOL    HW135816   0.750   2.949  17.502  1.0846 -0.6880  0.9435
 8060SOL    HW235817   0.841   2.891  17.402 -1.1112 -0.7095 -2.3681
 8061SOL     OW35818   4.151   2.197   8.075 -0.2279 -0.6117  0.6949
 8061SOL    HW135819   4.080   2.224   8.016  1.3327  0.5915 -0.6399
 8061SOL    HW235820   4.217   2.169   8.011 -2.3690 -0.2167 -1.7113
 8062SOL     OW35821   4.069   3.844   3.768  0.0233 -1.0331  0.0678
 8062SOL    HW135822   4.046   3.796   3.689 -0.0251  0.2643 -0.7099
 8062SOL    HW235823   4.165   3.846   3.770  0.0630 -2.5673 -0.7606
 8063SOL     OW35824   3.477   2.344  14.255  0.0367  0.2443  0.0334
 8063SOL    HW135825   3.427   2.264  14.242  0.0605  0.1424  0.5867
 8063SOL    HW235826   3.412   2.407  14.225 -0.7990 -0.8045 -0.3728
 8064SOL     OW35827   4.177   3.146   5.284 -0.1632  0.3528  0.0566
 8064SOL    HW135828   4.214   3.202   5.353  0.1743  0.4013 -0.1686
 8064SOL    HW235829   4.202   3.194   5.206  0.9093  0.2354  0.3213
 8065SOL     OW35830   1.760   0.261   0.862 -0.2658 -0.1017 -0.1973
 8065SOL    HW135831   1.849   0.226   0.864 -0.1372  0.4083  2.7011
 8065SOL    HW235832   1.783   0.346   0.824 -3.0025 -0.2917 -2.3054
 8066SOL     OW35833   2.894   3.849  12.834  0.1770 -0.8290  0.2412
 8066SOL    HW135834   2.945   3.820  12.757 -0.3661 -0.0152 -0.4201
 8066SOL    HW235835   2.825   3.783  12.830  0.1835 -0.8315  0.1602
 8067SOL     OW35836   0.115   4.010  17.074 -0.2903  0.5242  0.1348
 8067SOL    HW135837   0.195   4.035  17.120  0.5333  0.8678 -1.4699
 8067SOL    HW235838   0.116   4.053  16.988  2.4583 -0.4862 -0.3067
 8068SOL     OW35839   4.496   2.413  11.597  0.7003  0.7724 -0.4518
 8068SOL    HW135840   4.534   2.341  11.648 -1.7967 -0.5155 -0.4016
 8068SOL    HW235841   4.507   2.469  11.673 -2.4725  0.8227 -0.0431
 8069SOL     OW35842   2.599   2.164   9.034 -0.0505 -0.6751 -0.1774
 8069SOL    HW135843   2.628   2.096   9.095  0.0609 -0.9111 -0.4926
 8069SOL    HW235844   2.505   2.176   9.050  0.0126  2.1690 -1.9187
 8070SOL     OW35845   0.758   3.665   6.886  0.3480 -0.0493  0.3976
 8070SOL    HW135846   0.798   3.742   6.846  0.3714  1.1512  2.7260
 8070SOL    HW235847   0.806   3.665   6.969  0.8133 -0.4255  0.1314
 8071SOL     OW35848   2.984   0.331  15.241  0.2200  0.1572  0.1133
 8071SOL    HW135849   3.026   0.255  15.199 -0.8828 -0.2211 -0.3254
 8071SOL    HW235850   2.908   0.344  15.184 -0.4072 -1.3429  0.5992
 8072SOL     OW35851   0.687   3.049  16.229 -0.2523 -0.5221 -0.3462
 8072SOL    HW135852   0.726   3.136  16.220 -2.6730  0.5316 -0.5688
 8072SOL    HW235853   0.634   3.047  16.149  1.0730 -0.3701 -1.2322
 8073SOL     OW35854   1.019   1.677  15.548  0.1931 -0.2743 -0.3121
 8073SOL    HW135855   0.948   1.617  15.526  0.8893 -1.5740  1.0025
 8073SOL    HW235856   1.094   1.620  15.561 -0.4838 -1.9017 -3.5547
 8074SOL     OW35857   0.918   4.086  16.291  0.0792 -0.2188 -0.0952
 8074SOL    HW135858   0.849   4.139  16.330  1.1744  0.6115  0.7167
 8074SOL    HW235859   0.880   4.076  16.204  0.3478  1.4246 -0.4056
 8075SOL     OW35860   0.571   1.074  15.385 -0.5678 -0.3518  0.0337
 8075SOL    HW135861   0.539   1.058  15.297 -0.5327  0.6990 -0.1788
 8075SOL    HW235862   0.667   1.071  15.378 -0.7325 -0.5708 -1.9727
 8076SOL     OW35863   3.345   2.973   5.826  0.0157 -0.1300  0.0320
 8076SOL    HW135864   3.310   2.887   5.803 -0.2344 -0.1295  0.4113
 8076SOL    HW235865   3.365   2.961   5.919 -1.7720  1.2819  0.5838
 8077SOL     OW35866   1.398   2.503   7.324 -0.3248 -0.1376 -0.1581
 8077SOL    HW135867   1.320   2.489   7.378  1.1641 -0.9518  1.7794
 8077SOL    HW235868   1.364   2.551   7.249  0.0903 -1.3708 -1.1451
 8078SOL     OW35869   0.866   0.068  14.191 -0.0327  0.5827  0.0746
 8078SOL    HW135870   0.922   0.135  14.230  0.8583 -1.5842  2.4711
 8078SOL    HW235871   0.926   4.733  14.171  0.2799  0.5928  0.9942
 8079SOL     OW35872   2.428   3.025   9.118  0.3242  0.3771  0.3531
 8079SOL    HW135873   2.504   3.022   9.176 -0.5207  0.1190  1.4517
 8079SOL    HW235874   2.461   3.094   9.061 -2.1665 -0.4679 -2.1141
 8080SOL     OW35875   2.020   0.190  15.712  0.5717  0.5125 -0.2230
 8080SOL    HW135876   2.056   0.114  15.757 -0.2861 -0.1720 -0.6979
 8080SOL    HW235877   1.925   0.179  15.716  0.7978 -0.1068  3.0428
 8081SOL     OW35878   0.209   3.404   6.829  0.3908  1.0026  0.0280
 8081SOL    HW135879   0.291   3.413   6.877 -0.3793  0.6768  1.4277
 8081SOL    HW235880   0.237   3.334   6.769 -1.1196  0.1289  0.3395
 8082SOL     OW35881   0.273   2.162   3.744  0.2458  0.1346 -0.2256
 8082SOL    HW135882   0.259   2.125   3.831 -0.4929 -1.1291 -0.8787
 8082SOL    HW235883   0.294   2.252   3.767  1.6452 -0.6268  1.5431
 8083SOL     OW35884   1.649   2.364   9.139  0.0465  0.4454  0.0762
 8083SOL    HW135885   1.565   2.321   9.124  0.4289 -0.4237  0.3950
 8083SOL    HW235886   1.658   2.350   9.233  1.5599  0.8245 -0.0079
 8084SOL     OW35887   0.751   1.886   2.315  0.6066  0.3348 -0.3837
 8084SOL    HW135888   0.765   1.909   2.407 -1.1638  1.0839 -0.3125
 8084SOL    HW235889   0.782   1.795   2.313 -0.0549  0.0899  0.7915
 8085SOL     OW35890   2.664   4.676   6.666  0.1011  0.2256  0.0472
 8085SOL    HW135891   2.617   4.634   6.738  2.3176 -1.3394  0.5934
 8085SOL    HW235892   2.712   4.598   6.639 -2.6590 -1.4602  0.1059
 8086SOL     OW35893   1.975   2.411   5.726 -0.7139 -0.0449  0.0667
 8086SOL    HW135894   1.902   2.458   5.686 -0.2446  0.7312  0.1209
 8086SOL    HW235895   1.974   2.449   5.814  0.0499 -0.1325  0.1119
 8087SOL     OW35896   2.533   0.471   8.918  1.2204 -0.1030 -0.2134
 8087SOL    HW135897   2.544   0.504   8.829  0.1153  0.2624 -0.2149
 8087SOL    HW235898   2.603   0.521   8.960  0.2361  0.7430  0.4261
 8088SOL     OW35899   1.183   3.142   5.811  0.0902  0.3888 -0.4169
 8088SOL    HW135900   1.147   3.158   5.898  1.9517  0.4016  0.3433
 8088SOL    HW235901   1.103   3.147   5.759 -0.8537 -0.6691  0.9537
 8089SOL     OW35902   1.731   1.470   2.531  0.4955  0.1942 -0.2907
 8089SOL    HW135903   1.694   1.487   2.617  2.3986 -2.5056  1.0771
 8089SOL    HW235904   1.674   1.512   2.467  0.7515 -0.4037 -0.9205
 8090SOL     OW35905   2.862   2.849   9.687 -0.1718  0.6331 -0.2958
 8090SOL    HW135906   2.828   2.921   9.740 -1.8719  0.7940 -1.5719
 8090SOL    HW235907   2.807   2.845   9.608 -1.9417 -2.0045  1.0544
 8091SOL     OW35908   0.653   0.294   4.470 -0.4733  0.2767  0.1137
 8091SOL    HW135909   0.725   0.273   4.410  1.3824  1.9036  1.7714
 8091SOL    HW235910   0.682   0.378   4.505  0.8506  0.6752 -1.9241
 8092SOL     OW35911   2.599   1.552  15.752 -0.0906 -0.1185 -0.0242
 8092SOL    HW135912   2.665   1.523  15.816 -1.0461 -0.8973  0.6058
 8092SOL    HW235913   2.631   1.638  15.723  1.0860 -0.0117  1.5348
 8093SOL     OW35914   2.708   2.396  12.659 -0.1315  0.3811  0.0322
 8093SOL    HW135915   2.617   2.397  12.690 -0.4068 -1.1222 -0.7324
 8093SOL    HW235916   2.744   2.324  12.710  1.5056  0.7518 -0.5838
 8094SOL     OW35917   1.510   0.558   7.315 -0.1796  0.4121 -0.3715
 8094SOL    HW135918   1.462   0.573   7.233  0.0585 -0.0148 -0.5860
 8094SOL    HW235919   1.549   0.475   7.287  0.9065  0.5813  0.6429
 8095SOL     OW35920   3.586   3.930   0.946  0.5913  0.2722 -0.4939
 8095SOL    HW135921   3.636   4.011   0.945  1.8946 -0.5059  1.8895
 8095SOL    HW235922   3.587   3.919   0.851  1.6702 -0.5076 -0.3957
 8096SOL     OW35923   0.178   2.608  10.370 -0.0535  0.3518  0.2054
 8096SOL    HW135924   0.089   2.597  10.403  0.3785  0.3158  1.3551
 8096SOL    HW235925   0.158   2.679  10.309 -0.7977 -0.3377 -0.3402
 8097SOL     OW35926   3.797   1.034   5.357 -0.2483 -0.2426  0.2453
 8097SOL    HW135927   3.863   1.065   5.420  1.3380 -2.5547 -0.2604
 8097SOL    HW235928   3.842   1.031   5.272 -1.4414 -0.7473 -0.3639
 8098SOL     OW35929   0.177   3.741   1.975  0.3423 -0.2273  0.1372
 8098SOL    HW135930   0.088   3.727   1.943 -0.4355  2.0193  1.2979
 8098SOL    HW235931   0.183   3.695   2.058  0.8746 -1.1619 -0.4169
 8099SOL     OW35932   1.759   0.400   2.753  0.1191  0.0574  0.2912
 8099SOL    HW135933   1.754   0.369   2.662 -2.0527 -1.9122  1.0686
 8099SOL    HW235934   1.664   0.403   2.771  0.1722  0.3461  0.5271
 8100SOL     OW35935   2.790   1.653  12.228  0.3821 -0.1505  0.1533
 8100SOL    HW135936   2.862   1.711  12.253  0.0662  0.0925  0.4800
 8100SOL    HW235937   2.819   1.644  12.136  1.3157  1.3878  0.3055
 8101SOL     OW35938   1.668   4.026   5.192 -0.0104 -0.4398 -0.4490
 8101SOL    HW135939   1.600   4.071   5.142 -0.9660 -1.0742  0.2933
 8101SOL    HW235940   1.643   3.938   5.165  0.0292 -1.6712  3.5454
 8102SOL     OW35941   1.910   3.648   4.320  0.4485  0.3489 -0.7056
 8102SOL    HW135942   1.880   3.649   4.410  0.8894 -0.0922 -0.5517
 8102SOL    HW235943   1.987   3.704   4.330  1.0502 -0.6807  0.4348
 8103SOL     OW35944   3.820   3.221   9.037  0.6771 -0.4211 -0.5621
 8103SOL    HW135945   3.745   3.172   9.074  0.3572 -0.7243 -1.6083
 8103SOL    HW235946   3.889   3.155   9.033  1.1271 -0.2075  4.3022
 8104SOL     OW35947   0.892   1.530   0.187 -0.3390 -0.1339 -0.4105
 8104SOL    HW135948   0.805   1.568   0.197 -0.0997 -0.2409  2.3130
 8104SOL    HW235949   0.933   1.520   0.273 -0.3032 -0.0790 -0.4212
 8105SOL     OW35950   4.055   4.183   2.812 -0.4600 -0.0081 -0.4486
 8105SOL    HW135951   4.112   4.106   2.802  0.7081  0.9169 -0.8789
 8105SOL    HW235952   4.078   4.231   2.733 -0.4461  1.7315  0.6188
 8106SOL     OW35953   1.845   4.430   1.128 -0.5525  0.8871 -0.4815
 8106SOL    HW135954   1.854   4.521   1.156  1.9674  0.9092 -1.3366
 8106SOL    HW235955   1.928   4.396   1.162 -0.7222  1.6628  0.6956
 8107SOL     OW35956   2.901   1.833  17.509  0.0574 -0.2861  0.2058
 8107SOL    HW135957   2.956   1.798  17.579  1.6285 -0.3018 -1.0094
 8107SOL    HW235958   2.859   1.759  17.466  0.4036 -0.6934  0.5716
 8108SOL     OW35959   3.687   1.559   7.998  0.1982 -0.5273  0.3025
 8108SOL    HW135960   3.703   1.594   8.085 -2.8028 -0.4525  0.8360
 8108SOL    HW235961   3.668   1.639   7.950  0.7012 -0.7370 -0.2496
 8109SOL     OW35962   3.864   1.543  16.552  0.5675 -0.4264  0.0252
 8109SOL    HW135963   3.924   1.471  16.533 -0.1391 -1.0295  0.0924
 8109SOL    HW235964   3.835   1.503  16.634 -0.1486 -1.2690 -0.6399
 8110SOL     OW35965   1.702   3.334   3.705 -0.3216  0.5503  0.3544
 8110SOL    HW135966   1.787   3.289   3.704  0.2933  1.7495 -0.7321
 8110SOL    HW235967   1.680   3.316   3.796  2.3159 -1.6573  0.5721
 8111SOL     OW35968   0.823   0.752   7.159 -0.0735 -0.0611  0.0825
 8111SOL    HW135969   0.893   0.777   7.099 -0.1343  0.0723  0.0659
 8111SOL    HW235970   0.784   0.837   7.181 -1.2565 -0.6519  0.2566
 8112SOL     OW35971   3.167   4.014  10.463  0.0175  0.1149 -0.2112
 8112SOL    HW135972   3.260   4.006  10.444  0.6356  1.3306  2.3639
 8112SOL    HW235973   3.152   4.105  10.436  1.1261  0.1684 -0.6259
 8113SOL     OW35974   1.160   2.157   6.281  0.2168 -0.1897  0.5692
 8113SOL    HW135975   1.206   2.075   6.299 -0.7821 -0.8033  0.3284
 8113SOL    HW235976   1.221   2.198   6.220  1.0559 -2.7622 -0.2971
 8114SOL     OW35977   4.427   4.249   7.829 -0.0628 -0.5552  0.2920
 8114SOL    HW135978   4.401   4.299   7.752  2.1005  0.0480 -0.0261
 8114SOL    HW235979   4.498   4.305   7.860 -0.8152  0.1113  0.8116
 8115SOL     OW35980   2.399   3.394   3.112 -0.0366  0.0100 -0.0850
 8115SOL    HW135981   2.409   3.337   3.035 -1.6904  1.1713 -1.1555
 8115SOL    HW235982   2.412   3.350   3.196  2.1168  1.3100  0.2641
 8116SOL     OW35983   2.099   4.434  10.447  0.7612 -0.2192 -0.2306
 8116SOL    HW135984   2.138   4.515  10.416  1.4135 -0.5415 -0.2550
 8116SOL    HW235985   2.169   4.415  10.509  1.0021 -0.3815 -0.5552
 8117SOL     OW35986   4.483   0.731   3.218 -0.3935  0.5465  0.2892
 8117SOL    HW135987   4.387   0.722   3.218 -0.3882  0.4960 -0.8792
 8117SOL    HW235988   4.495   0.714   3.311  1.4545 -1.4771 -0.3231
 8118SOL     OW35989   0.528   4.145   2.023  0.5531 -0.1579 -0.0901
 8118SOL    HW135990   0.502   4.217   2.080 -0.7258 -0.7921  0.1367
 8118SOL    HW235991   0.442   4.124   1.985  1.1483 -0.6137 -1.2013
 8119SOL     OW35992   0.853   1.336   3.390 -0.4381 -0.0055 -0.0762
 8119SOL    HW135993   0.916   1.352   3.460 -1.1295  1.3709  0.2439
 8119SOL    HW235994   0.859   1.404   3.323 -1.8476  0.0853 -0.1199
 8120SOL     OW35995   4.491   3.203   6.818  0.0113 -0.6332  0.4090
 8120SOL    HW135996   4.418   3.156   6.777 -0.6425  0.9712 -0.2760
 8120SOL    HW235997   4.444   3.278   6.853  1.8424  0.6367  0.1340
 8121SOL     OW35998   4.384   0.299   6.606  0.1110  0.2168  0.1094
 8121SOL    HW135999   4.391   0.340   6.693  3.7108 -0.3462  0.0960
 8121SOL    HW236000   4.363   0.210   6.635 -1.6470  1.1048  1.5417
 8122SOL     OW36001   0.630   1.946   4.287  0.2978  0.2603  0.2123
 8122SOL    HW136002   0.723   1.966   4.277  0.8171 -3.0873 -1.5912
 8122SOL    HW236003   0.635   1.866   4.235 -3.1711 -0.3745  0.8715
 8123SOL     OW36004   4.059   0.670   7.023 -0.3207 -0.3510 -0.4083
 8123SOL    HW136005   3.968   0.675   6.995 -0.6061 -1.5490  0.3393
 8123SOL    HW236006   4.094   0.600   6.968 -0.9807 -2.1258  1.4451
 8124SOL     OW36007   3.331   0.794   6.220 -0.2835  0.1830  0.1035
 8124SOL    HW136008   3.367   0.841   6.144 -1.6854 -0.6413 -1.0650
 8124SOL    HW236009   3.382   0.713   6.218 -1.0513 -0.3148  0.6709
 8125SOL     OW36010   2.717   0.400   8.509  0.4119  0.1384 -0.0321
 8125SOL    HW136011   2.809   0.375   8.514  0.5016  0.6333  0.7845
 8125SOL    HW236012   2.723   0.485   8.465  2.5344  0.4085  0.8073
 8126SOL     OW36013   1.077   0.795   9.787  0.2395  0.1600 -0.1522
 8126SOL    HW136014   1.125   0.850   9.725 -0.4143 -1.0371 -1.7051
 8126SOL    HW236015   0.988   0.802   9.755 -0.5053  0.2699  1.9362
 8127SOL     OW36016   2.112   4.372   9.869 -0.3729 -0.5413 -0.0259
 8127SOL    HW136017   2.168   4.407   9.938  1.7612 -1.7331 -1.1450
 8127SOL    HW236018   2.156   4.404   9.790  0.7648 -0.3531  0.6760
 8128SOL     OW36019   1.158   1.541   4.504  0.0097 -0.4880  0.2524
 8128SOL    HW136020   1.241   1.581   4.529  0.8489 -2.0761 -0.0043
 8128SOL    HW236021   1.190   1.468   4.451 -2.1100 -2.1494  1.2384
 8129SOL     OW36022   3.967   1.160  16.067 -0.4912  0.4017 -0.4314
 8129SOL    HW136023   4.062   1.152  16.060 -0.5001 -1.3723  1.6108
 8129SOL    HW236024   3.951   1.192  15.978  1.5493  1.4998 -0.4083
 8130SOL     OW36025   1.637   1.503  11.497  0.0400  0.0301 -0.2044
 8130SOL    HW136026   1.611   1.580  11.547  1.9958 -0.8785  2.2203
 8130SOL    HW236027   1.663   1.540  11.413  1.1074  3.0833  1.5001
 8131SOL     OW36028   4.631   3.488   7.224  0.4679 -0.6591  0.5473
 8131SOL    HW136029   4.542   3.523   7.217  0.8126  0.2580  0.8405
 8131SOL    HW236030   4.689   3.541   7.169 -2.1911 -2.0092 -3.5646
 8132SOL     OW36031   0.104   3.219   2.082  0.0410  0.0684  0.0438
 8132SOL    HW136032   0.070   3.191   1.997  1.1102  1.5546 -0.8785
 8132SOL    HW236033   0.157   3.292   2.050  0.3583 -0.1785  0.0090
 8133SOL     OW36034   2.865   0.832   7.093 -0.3610 -0.5876 -0.6421
 8133SOL    HW136035   2.779   0.794   7.072 -0.5587 -0.4009 -0.1810
 8133SOL    HW236036   2.917   0.752   7.086  0.4195  0.0177 -1.7114
 8134SOL     OW36037   3.948   3.442   6.881  0.1336  0.0625 -0.5477
 8134SOL    HW136038   3.878   3.392   6.923  1.3061  1.5213  3.1924
 8134SOL    HW236039   4.017   3.387   6.915 -3.0091 -2.8443  1.1005
 8135SOL     OW36040   3.415   0.688  14.152 -0.6465 -0.4718  0.1282
 8135SOL    HW136041   3.337   0.724  14.195  1.2303  1.5342  1.8639
 8135SOL    HW236042   3.371   0.626  14.094  2.9783 -1.9099 -1.0471
 8136SOL     OW36043   3.784   1.456   6.289  0.4809  0.7571 -0.2528
 8136SOL    HW136044   3.871   1.461   6.329  0.7005  0.3788 -0.6955
 8136SOL    HW236045   3.816   1.487   6.205  0.3386 -0.3584 -0.7101
 8137SOL     OW36046   4.127   3.073   1.746 -0.2976 -0.1101  0.1221
 8137SOL    HW136047   4.209   3.103   1.785  0.3761  0.2705 -1.6072
 8137SOL    HW236048   4.150   3.026   1.666 -0.3966  0.3888 -0.1958
 8138SOL     OW36049   1.558   0.159   0.694 -0.5676 -0.2328  0.1695
 8138SOL    HW136050   1.489   0.110   0.739 -0.7883 -0.3388 -0.2860
 8138SOL    HW236051   1.634   0.150   0.752 -0.0596 -2.1859 -0.8226
 8139SOL     OW36052   0.101   2.398   8.185 -0.1923 -0.2686  0.4517
 8139SOL    HW136053   0.168   2.454   8.226  0.8386 -1.5121  0.4733
 8139SOL    HW236054   0.047   2.390   8.264 -0.4370  0.5941  0.3721
 8140SOL     OW36055   1.143   1.527   8.298  0.2826 -0.2224 -0.9843
 8140SOL    HW136056   1.173   1.617   8.314  1.1656 -0.6337 -0.2500
 8140SOL    HW236057   1.230   1.500   8.268  0.6985 -0.2154  0.1913
 8141SOL     OW36058   1.009   1.955  11.698  0.5671  0.1168  0.0509
 8141SOL    HW136059   1.047   1.899  11.631 -1.6372  0.7430 -1.7238
 8141SOL    HW236060   1.001   1.899  11.775  0.0975  0.4341  0.2332
 8142SOL     OW36061   4.353   3.831   2.148  0.3454 -0.4983  0.0035
 8142SOL    HW136062   4.433   3.781   2.130  1.3089  0.7503  0.8114
 8142SOL    HW236063   4.396   3.865   2.227  0.4564  0.2935 -0.4075
 8143SOL     OW36064   2.152   4.088   1.879  0.3697  0.1179 -0.5517
 8143SOL    HW136065   2.164   3.994   1.868 -1.0949 -0.1271 -0.1361
 8143SOL    HW236066   2.109   4.089   1.965 -1.4126  0.4545 -1.4455
 8144SOL     OW36067   0.042   3.337   5.688 -0.0813 -0.5256  0.1170
 8144SOL    HW136068   0.102   3.369   5.620 -0.9521  1.7769  0.4459
 8144SOL    HW236069   0.074   3.384   5.764  2.1004 -1.6865 -0.0662
 8145SOL     OW36070   3.151   0.414   9.132  0.3030 -0.3260 -0.2193
 8145SOL    HW136071   3.237   0.422   9.172  0.1350 -0.2103  0.1212
 8145SOL    HW236072   3.177   0.405   9.040 -2.2250 -1.0680 -0.8504
 8146SOL     OW36073   1.785   0.652   5.686  0.5340 -0.0487  1.3217
 8146SOL    HW136074   1.824   0.670   5.601  0.6186  0.9383  1.5625
 8146SOL    HW236075   1.751   0.566   5.663  1.0689  0.3107 -0.7549
 8147SOL     OW36076   2.886   3.667   4.014 -0.0711  0.0271 -0.0916
 8147SOL    HW136077   2.799   3.635   4.038  0.8649 -1.3246  1.4381
 8147SOL    HW236078   2.885   3.755   4.052  1.1181 -0.6641  1.5419
 8148SOL     OW36079   0.592   4.156   5.550  0.4711 -0.0013 -0.8484
 8148SOL    HW136080   0.673   4.112   5.524  0.3998 -1.5466  1.4547
 8148SOL    HW236081   0.551   4.088   5.604  1.4901  0.8866  1.0127
 8149SOL     OW36082   1.366   0.076  15.888 -0.1652 -0.3026  0.0326
 8149SOL    HW136083   1.434   0.123  15.937 -0.2829  2.2196 -2.2304
 8149SOL    HW236084   1.289   0.111  15.935  0.5295  0.7069  0.4400
 8150SOL     OW36085   4.144   4.383   6.091 -0.3909  0.0201 -0.2000
 8150SOL    HW136086   4.227   4.357   6.131 -0.0242 -0.2821 -1.1436
 8150SOL    HW236087   4.166   4.472   6.063 -0.9565 -0.1648 -1.2425
 8151SOL     OW36088   2.147   3.228   4.686 -0.0007  0.7022  0.8352
 8151SOL    HW136089   2.137   3.323   4.686  1.8115  0.8859  0.3495
 8151SOL    HW236090   2.057   3.205   4.711 -0.8330  1.7053 -1.2448
 8152SOL     OW36091   0.817   0.708  12.318 -0.1274 -0.6994 -0.1844
 8152SOL    HW136092   0.824   0.730  12.411  0.8871  0.8060 -0.6187
 8152SOL    HW236093   0.823   0.790  12.269 -5.2307  0.1321  0.5623
 8153SOL     OW36094   2.589   4.060   9.612 -0.8104 -0.6705 -1.0373
 8153SOL    HW136095   2.677   4.022   9.606 -0.5233 -0.2362  0.3580
 8153SOL    HW236096   2.530   4.000   9.566 -1.1751 -1.2877  0.2394
 8154SOL     OW36097   2.429   2.742   4.938  0.1572 -0.6474 -0.1678
 8154SOL    HW136098   2.424   2.837   4.942  2.0421 -0.4623 -2.2034
 8154SOL    HW236099   2.512   2.722   4.893  0.4781 -1.7139  0.9053
 8155SOL     OW36100   2.924   2.430   4.106 -0.5381 -0.3645  0.7660
 8155SOL    HW136101   3.013   2.455   4.081 -1.4100 -1.1702 -3.1666
 8155SOL    HW236102   2.918   2.482   4.186 -0.7878 -2.1707  1.9174
 8156SOL     OW36103   1.390   0.306   7.005 -0.3953 -0.2354  0.1530
 8156SOL    HW136104   1.331   0.231   7.022 -0.4691 -0.0630  0.6644
 8156SOL    HW236105   1.463   0.281   7.061 -0.0923  0.5228  0.0944
 8157SOL     OW36106   0.664   2.836  10.607  0.5951  0.2281 -0.2104
 8157SOL    HW136107   0.673   2.880  10.522 -0.9403  1.8112  0.4585
 8157SOL    HW236108   0.569   2.832  10.611  0.5864 -0.7493 -1.2589
 8158SOL     OW36109   1.169   1.472   1.308 -0.0719 -0.3867 -0.7227
 8158SOL    HW136110   1.264   1.474   1.296 -0.2571  0.2687 -2.0178
 8158SOL    HW236111   1.169   1.404   1.376  0.2074 -1.0271 -1.3653
 8159SOL     OW36112   1.057   3.624   3.723  0.0880  0.2957  0.5334
 8159SOL    HW136113   1.002   3.702   3.718 -1.1269 -0.5758  0.4532
 8159SOL    HW236114   1.108   3.627   3.804  0.9939 -0.4923 -0.0016
 8160SOL     OW36115   1.547   4.060  11.780  0.1351 -0.5677  0.6551
 8160SOL    HW136116   1.583   4.134  11.828  0.2098 -0.0922 -0.1353
 8160SOL    HW236117   1.632   4.015  11.775 -0.0894 -0.8581 -0.4480
 8161SOL     OW36118   2.063   1.153   7.255  0.4973  0.5144  0.3338
 8161SOL    HW136119   2.031   1.087   7.194 -0.2465  0.9300  0.2642
 8161SOL    HW236120   2.107   1.221   7.204 -1.4594 -0.1559 -2.2310
 8162SOL     OW36121   0.851   2.958   4.516  0.6202  0.1912  0.4137
 8162SOL    HW136122   0.806   2.879   4.546 -2.2069  1.3119 -0.8351
 8162SOL    HW236123   0.844   2.949   4.421 -1.8620 -0.2361  0.6293
 8163SOL     OW36124   1.125   0.327   6.829  0.0984 -0.4707 -0.5049
 8163SOL    HW136125   1.066   0.403   6.830  2.5608  1.4121 -0.2288
 8163SOL    HW236126   1.199   0.361   6.879 -1.2510  2.0899 -0.2215
 8164SOL     OW36127   0.414   2.879   9.124  0.3498  0.2717  0.5713
 8164SOL    HW136128   0.473   2.815   9.164  1.9151  0.8354 -0.8666
 8164SOL    HW236129   0.370   2.919   9.199 -1.3466  0.2301 -0.4059
 8165SOL     OW36130   2.546   2.085   9.329  0.0905 -0.3319 -0.0488
 8165SOL    HW136131   2.571   2.177   9.337  0.3710 -0.2332 -1.9560
 8165SOL    HW236132   2.452   2.100   9.332  0.0786 -0.4380  0.1223
 8166SOL     OW36133   4.425   3.896   7.299  0.2757  0.0140 -0.5487
 8166SOL    HW136134   4.407   3.835   7.370  1.1413  1.7260  1.1423
 8166SOL    HW236135   4.517   3.871   7.286 -0.1706 -1.6566 -0.4768
 8167SOL     OW36136   3.072   2.603   5.088  0.3593  0.3365  0.0629
 8167SOL    HW136137   3.145   2.547   5.063 -0.2378 -0.0513 -0.8007
 8167SOL    HW236138   3.116   2.688   5.090 -3.0913  2.1833 -2.8165
 8168SOL     OW36139   4.036   2.942   6.880 -0.1138  0.1798  0.1020
 8168SOL    HW136140   3.981   2.986   6.944  0.4120 -1.3688  1.6150
 8168SOL    HW236141   4.071   2.886   6.949  1.1398  0.5083 -0.2813
 8169SOL     OW36142   1.505   1.268   1.202 -0.6897 -0.0762  0.0004
 8169SOL    HW136143   1.531   1.255   1.111 -1.7220  0.5717 -0.3821
 8169SOL    HW236144   1.492   1.363   1.209 -1.4323 -0.0370 -1.8668
 8170SOL     OW36145   0.429   2.503   7.257 -0.0257  0.0143 -0.3168
 8170SOL    HW136146   0.410   2.409   7.268 -1.1561  0.3660  0.7526
 8170SOL    HW236147   0.407   2.535   7.345  0.5153  1.2549 -0.6396
 8171SOL     OW36148   1.175   4.129  12.171  0.0174 -0.1007 -0.3378
 8171SOL    HW136149   1.113   4.056  12.167  0.0561 -0.0351 -1.9941
 8171SOL    HW236150   1.224   4.109  12.251  2.6643  0.3958 -1.8315
 8172SOL     OW36151   1.708   3.500   8.449  0.3986 -0.4179  0.2965
 8172SOL    HW136152   1.703   3.501   8.353 -0.7086  1.3730  0.3748
 8172SOL    HW236153   1.800   3.517   8.469  0.3720 -0.4933  0.4845
 8173SOL     OW36154   3.410   2.769   5.124  0.5796 -0.2702  0.0236
 8173SOL    HW136155   3.501   2.757   5.152  1.1967 -0.3757 -2.0504
 8173SOL    HW236156   3.399   2.841   5.187 -0.3025 -0.1524 -0.2658
 8174SOL     OW36157   1.079   1.113   9.528 -0.3393 -0.2098 -0.0589
 8174SOL    HW136158   1.138   1.037   9.527 -1.5003 -1.1028 -0.0583
 8174SOL    HW236159   1.097   1.135   9.619  1.1452  1.2106 -0.6952
 8175SOL     OW36160   2.647   3.562  12.057 -0.4475 -0.1236 -0.0514
 8175SOL    HW136161   2.649   3.467  12.053 -2.3811 -0.2208  1.2853
 8175SOL    HW236162   2.564   3.575  12.103 -0.2619  1.2705 -0.0910
 8176SOL     OW36163   0.776   3.096   7.727 -0.1469  0.1374 -0.6700
 8176SOL    HW136164   0.771   3.059   7.815 -0.6242  0.3964 -0.5903
 8176SOL    HW236165   0.727   3.175   7.748  1.1627  1.2304 -1.6551
 8177SOL     OW36166   3.694   1.522   7.672 -0.2600  0.4803  0.3147
 8177SOL    HW136167   3.778   1.506   7.715 -0.5172 -1.4305  0.0808
 8177SOL    HW236168   3.716   1.588   7.606  1.6210 -0.7188 -0.2496
 8178SOL     OW36169   1.477   1.304   0.646 -0.2370  0.3460  0.7242
 8178SOL    HW136170   1.494   1.226   0.699 -2.5990 -1.8055 -1.6930
 8178SOL    HW236171   1.394   1.334   0.681 -1.5363  1.6699 -3.4804
 8179SOL     OW36172   3.399   2.668  13.554 -1.0999 -0.4690  0.1061
 8179SOL    HW136173   3.392   2.759  13.583  0.3930 -0.0719 -0.7512
 8179SOL    HW236174   3.424   2.627  13.637  1.2373  1.7827  0.5105
 8180SOL     OW36175   1.645   1.925   9.172 -1.1843  0.4968 -0.2878
 8180SOL    HW136176   1.631   2.008   9.219  0.9163  1.2705 -1.0083
 8180SOL    HW236177   1.558   1.891   9.191 -0.2159 -0.9791  1.3730
 8181SOL     OW36178   3.186   1.272   6.279  0.5512 -0.7103 -0.1886
 8181SOL    HW136179   3.212   1.239   6.365  1.9190 -1.5594 -0.9171
 8181SOL    HW236180   3.266   1.318   6.254  0.8463  0.6261  3.3162
 8182SOL     OW36181   0.525   0.831   5.112 -0.1873  0.1702  0.2648
 8182SOL    HW136182   0.478   0.797   5.036  0.0608 -0.2989  0.3251
 8182SOL    HW236183   0.536   0.751   5.163  1.1873  0.7577  0.8775
 8183SOL     OW36184   2.721   4.324   8.441 -0.3579 -0.1640 -0.3189
 8183SOL    HW136185   2.722   4.349   8.533  0.7755  3.4305 -1.3026
 8183SOL    HW236186   2.641   4.272   8.451  0.0156 -0.7698 -0.4571
 8184SOL     OW36187   2.719   0.224  11.863  0.5052 -0.1600 -0.0278
 8184SOL    HW136188   2.624   0.212  11.862  0.3174  1.1533  1.3923
 8184SOL    HW236189   2.745   0.139  11.829 -1.2569 -0.8759  0.3845
 8185SOL     OW36190   2.238   2.995  10.052 -0.5045 -0.3918 -0.1524
 8185SOL    HW136191   2.256   3.053   9.979  1.2979  0.5190  1.0228
 8185SOL    HW236192   2.143   2.989  10.039 -0.2781 -3.8402 -0.3062
 8186SOL     OW36193   1.564   2.309   8.456 -0.4260  0.2787  0.3291
 8186SOL    HW136194   1.515   2.325   8.375  0.0827 -0.2515 -0.0917
 8186SOL    HW236195   1.633   2.250   8.427 -1.3544 -0.7019  0.0834
 8187SOL     OW36196   1.144   1.021   7.781  0.3324 -0.3587 -0.2719
 8187SOL    HW136197   1.186   0.954   7.835 -2.5391 -0.2639  2.0494
 8187SOL    HW236198   1.174   0.998   7.693 -0.4426 -0.9346 -0.3859
 8188SOL     OW36199   1.227   4.505   6.517 -0.1097 -0.1731 -0.1291
 8188SOL    HW136200   1.148   4.535   6.472 -0.3959 -1.9544 -0.8191
 8188SOL    HW236201   1.284   4.575   6.488 -0.8975 -0.6215 -2.7945
 8189SOL     OW36202   0.132   3.803   5.202  0.2159  0.2162 -0.3380
 8189SOL    HW136203   0.079   3.732   5.167 -0.1633  0.5697 -0.4909
 8189SOL    HW236204   0.073   3.829   5.273 -0.3875  0.4048 -0.9157
 8190SOL     OW36205   3.738   3.914   5.413 -0.1621  0.3669  0.1928
 8190SOL    HW136206   3.780   4.000   5.406  0.6691  0.1319  2.1066
 8190SOL    HW236207   3.714   3.908   5.506  1.2096 -1.1661  0.4456
 8191SOL     OW36208   0.366   4.330   6.401  0.0672 -0.0363 -0.1353
 8191SOL    HW136209   0.404   4.246   6.428 -0.5132 -0.2878 -0.1010
 8191SOL    HW236210   0.294   4.299   6.347  1.0993 -1.5755 -0.6353
 8192SOL     OW36211   0.550   3.080   6.018 -0.8353 -0.0192  0.1059
 8192SOL    HW136212   0.554   3.096   6.113 -1.1252  0.3791  0.0544
 8192SOL    HW236213   0.454   3.085   6.013 -0.7439  1.2080 -0.4860
 8193SOL     OW36214   0.105   3.541  15.291 -0.3577  0.2251  0.0653
 8193SOL    HW136215   0.048   3.569  15.363  1.0190  2.5814  0.2679
 8193SOL    HW236216   0.191   3.574  15.319  0.7356 -1.8201 -0.8983
 8194SOL     OW36217   3.649   0.611  13.630 -0.1185  0.2505 -0.0909
 8194SOL    HW136218   3.561   0.612  13.668 -0.1583 -1.0862 -0.1548
 8194SOL    HW236219   3.629   0.679  13.566  0.2177 -0.3256 -0.8085
 8195SOL     OW36220   0.654   4.042   3.123 -0.1549 -0.1993  0.4669
 8195SOL    HW136221   0.616   3.962   3.158 -0.2036  0.4672  1.9275
 8195SOL    HW236222   0.729   4.013   3.071  0.0877  0.6584  0.3358
 8196SOL     OW36223   2.980   0.962   8.730 -0.3788 -0.0396  0.5171
 8196SOL    HW136224   3.024   0.974   8.814 -0.0438  1.3151  0.1481
 8196SOL    HW236225   2.960   1.051   8.699  0.4977  0.9184  2.6466
 8197SOL     OW36226   4.714   4.120   5.725  0.0386  0.1722  0.5493
 8197SOL    HW136227   4.636   4.171   5.747  3.1363  4.4707  1.5182
 8197SOL    HW236228   4.721   4.087   5.815 -0.0701  1.3504  0.9888
 8198SOL     OW36229   0.372   0.275   7.938  0.2150 -0.3279  0.4085
 8198SOL    HW136230   0.449   0.277   7.881  0.0044  0.1440  0.1422
 8198SOL    HW236231   0.329   0.196   7.906 -1.8894  1.1532 -0.3619
 8199SOL     OW36232   1.831   4.365  16.808  0.3156  0.4203  0.3703
 8199SOL    HW136233   1.850   4.388  16.899 -0.0853 -0.2739  0.6292
 8199SOL    HW236234   1.736   4.361  16.805  0.3484  0.6398 -0.8406
 8200SOL     OW36235   3.626   3.767   0.352  0.1886  0.3566 -0.2097
 8200SOL    HW136236   3.621   3.775   0.447  2.2470  0.7476 -0.1174
 8200SOL    HW236237   3.603   3.674   0.344 -0.3400  0.3597  1.2879
 8201SOL     OW36238   2.000   3.506   8.554  0.0781 -0.2547  0.3021
 8201SOL    HW136239   1.984   3.494   8.648  2.3696 -1.5964  0.5293
 8201SOL    HW236240   2.058   3.582   8.550 -1.8775  1.1963 -0.5422
 8202SOL     OW36241   1.785   1.211   7.780  0.2424 -0.2686 -0.0619
 8202SOL    HW136242   1.843   1.249   7.714  0.5649 -0.5027  0.0848
 8202SOL    HW236243   1.775   1.125   7.740  1.3541 -1.0116  1.2781
 8203SOL     OW36244   3.062   1.603   6.277 -0.6050  0.1464  0.4162
 8203SOL    HW136245   3.082   1.525   6.328  1.0484 -1.2474 -2.3675
 8203SOL    HW236246   3.086   1.670   6.341  0.3031 -1.4854  1.7829
 8204SOL     OW36247   4.545   4.450  16.766 -0.0634  0.0479  0.1157
 8204SOL    HW136248   4.561   4.358  16.788 -0.1297 -0.0891 -0.4078
 8204SOL    HW236249   4.584   4.506  16.833 -3.6088  1.7584  0.7667
 8205SOL     OW36250   0.728   0.206   3.344  0.8892  0.6175  0.1199
 8205SOL    HW136251   0.688   0.228   3.428 -2.1170 -0.2118 -1.0931
 8205SOL    HW236252   0.671   0.241   3.275 -1.4737  3.2094  3.3794
 8206SOL     OW36253   0.194   1.217  15.504  0.4546  0.6336  0.3768
 8206SOL    HW136254   0.213   1.128  15.532 -2.7569 -0.0549  0.3651
 8206SOL    HW236255   0.253   1.230  15.429 -0.6510 -0.5179 -0.7124
 8207SOL     OW36256   0.468   0.895   7.032  0.2362 -0.2494  0.0438
 8207SOL    HW136257   0.382   0.856   7.016 -0.5543  1.4907  0.0307
 8207SOL    HW236258   0.508   0.834   7.093 -0.7388 -0.6609  0.2789
 8208SOL     OW36259   1.404   1.315  15.088  0.1156  0.0758 -0.3753
 8208SOL    HW136260   1.371   1.391  15.040  0.6009 -0.1019 -0.9868
 8208SOL    HW236261   1.335   1.289  15.149 -0.1867  4.8878  1.3513
 8209SOL     OW36262   3.933   4.625   6.753 -0.4638 -0.2032 -0.4348
 8209SOL    HW136263   4.020   4.657   6.777 -1.3833  2.3683 -0.5197
 8209SOL    HW236264   3.885   4.707   6.737  1.2320  1.1143  1.1657
 8210SOL     OW36265   0.227   1.479   5.730  0.2455 -0.0079  0.3915
 8210SOL    HW136266   0.186   1.495   5.645  0.7828 -1.1642 -0.0932
 8210SOL    HW236267   0.289   1.552   5.739 -2.3142  2.0865  0.9188
 8211SOL     OW36268   0.808   0.346   6.059  0.1701  0.1283 -0.3320
 8211SOL    HW136269   0.763   0.401   6.124 -1.4204 -0.8912 -0.5703
 8211SOL    HW236270   0.810   0.262   6.104 -1.0600  0.4400  0.3108
 8212SOL     OW36271   3.050   2.647   7.496  0.2702  0.0694 -0.2624
 8212SOL    HW136272   3.067   2.697   7.417  2.2586 -1.2629 -0.6709
 8212SOL    HW236273   3.075   2.709   7.564 -1.3105  1.0753 -0.5885
 8213SOL     OW36274   3.079   3.741   1.097 -0.0217 -0.0046 -0.5030
 8213SOL    HW136275   3.150   3.750   1.160 -0.7914  1.6849  0.1312
 8213SOL    HW236276   3.011   3.755   1.162 -1.9785 -1.8629 -2.1438
 8214SOL     OW36277   1.216   0.604   8.010 -0.0204 -0.4038  0.4005
 8214SOL    HW136278   1.158   0.585   8.084 -2.1844  2.6203 -0.5169
 8214SOL    HW236279   1.145   0.635   7.953  0.0475 -0.4967  0.2649
 8215SOL     OW36280   0.643   3.428   2.862 -0.2648  0.2634 -0.7243
 8215SOL    HW136281   0.724   3.385   2.835 -1.5893 -1.7193 -1.5324
 8215SOL    HW236282   0.684   3.512   2.886  0.6068 -0.2736 -0.3473
 8216SOL     OW36283   2.964   1.935   5.574  0.6006  0.0474  0.4210
 8216SOL    HW136284   3.054   1.968   5.586 -0.1369  2.3687 -0.3553
 8216SOL    HW236285   2.950   1.971   5.486 -1.1635 -0.6087  0.4491
 8217SOL     OW36286   0.822   1.221   0.056  0.3731  0.0264 -0.2991
 8217SOL    HW136287   0.779   1.212   0.141  2.2617 -0.1715  0.6415
 8217SOL    HW236288   0.759   1.262  17.739  0.8418 -1.6019 -1.9087
 8218SOL     OW36289   2.574   2.628   3.549 -0.3748 -0.0864 -0.7585
 8218SOL    HW136290   2.488   2.602   3.581 -0.0828  0.6100  0.6221
 8218SOL    HW236291   2.617   2.546   3.525 -1.3527 -0.2558 -1.9298
 8219SOL     OW36292   4.388   2.031  11.789 -0.0578 -0.1823 -0.4551
 8219SOL    HW136293   4.404   1.938  11.807 -1.2292 -0.3533 -0.2723
 8219SOL    HW236294   4.296   2.032  11.765 -0.3309 -1.3694  0.5200
 8220SOL     OW36295   3.178   0.000  12.658 -0.0207  0.2902  0.9167
 8220SOL    HW136296   3.116   4.667  12.633 -0.1852  0.1580  1.6909
 8220SOL    HW236297   3.155   0.084  12.617  0.1677  0.0605  0.3418
 8221SOL     OW36298   1.007   0.300   4.470 -0.0359 -0.0558  0.4826
 8221SOL    HW136299   1.044   0.223   4.512  0.2735  0.2342  0.7483
 8221SOL    HW236300   0.964   0.339   4.546 -2.2742 -0.8887 -0.3797
 8222SOL     OW36301   3.205   4.521   0.061 -0.4214  0.0860  0.1506
 8222SOL    HW136302   3.113   4.547   0.054 -0.2461  0.5245 -0.5975
 8222SOL    HW236303   3.265   4.593   0.081 -1.0833 -0.0102  2.4747
 8223SOL     OW36304   0.967   0.518   0.001  0.3017  0.4634 -0.5635
 8223SOL    HW136305   1.026   0.526  17.670 -0.7366 -2.3592 -1.6965
 8223SOL    HW236306   0.898   0.580  17.719  0.2655  1.0103  0.9188
 8224SOL     OW36307   2.992   0.353   8.510  0.6781  0.3075 -0.3394
 8224SOL    HW136308   3.082   0.322   8.503  0.5289 -0.2146 -0.0349
 8224SOL    HW236309   3.005   0.447   8.512 -0.8056  0.5016  1.1614
 8225SOL     OW36310   3.897   2.300   7.102  0.4718  0.1751  0.3303
 8225SOL    HW136311   3.860   2.212   7.107 -0.2687  0.3163 -2.6206
 8225SOL    HW236312   3.828   2.348   7.148  1.0596  2.5435 -1.2627
 8226SOL     OW36313   4.117   2.281  11.045 -0.0704 -0.4031 -0.4597
 8226SOL    HW136314   4.192   2.334  11.073 -0.5681  1.0734 -1.9467
 8226SOL    HW236315   4.056   2.352  11.023  2.2005  1.7764  0.2636
 8227SOL     OW36316   3.852   2.071   6.895  0.1058 -0.0173  0.1017
 8227SOL    HW136317   3.835   1.994   6.841 -1.6709  0.7869 -0.4685
 8227SOL    HW236318   3.766   2.112   6.891  0.2684  0.3508  0.3903
 8228SOL     OW36319   3.739   3.178   3.947 -0.0280  0.1559  0.5563
 8228SOL    HW136320   3.824   3.188   3.989 -0.0370 -1.1417  0.8789
 8228SOL    HW236321   3.686   3.135   4.014 -1.3089  0.6886 -0.1196
 8229SOL     OW36322   0.450   3.388   0.906  0.1056  0.1816 -0.2856
 8229SOL    HW136323   0.365   3.343   0.907  0.6431 -0.8004  1.8993
 8229SOL    HW236324   0.416   3.473   0.876 -2.2312 -1.0085 -0.9931
 8230SOL     OW36325   3.237   0.138   5.934  0.6440 -0.0238 -0.0987
 8230SOL    HW136326   3.142   0.147   5.928  0.6813  0.2844 -0.2448
 8230SOL    HW236327   3.264   0.206   5.872 -1.0627 -0.1630 -1.0000
 8231SOL     OW36328   1.498   2.416   5.213 -0.1183 -0.1646 -0.0736
 8231SOL    HW136329   1.465   2.441   5.126  0.8442 -1.3456 -0.7761
 8231SOL    HW236330   1.455   2.485   5.264  0.6494  0.4130 -0.1963
 8232SOL     OW36331   1.187   3.234   7.324  0.4544  0.0120  0.6450
 8232SOL    HW136332   1.092   3.244   7.315  1.0466  3.4520 -1.9307
 8232SOL    HW236333   1.203   3.163   7.385 -1.6077 -1.2735 -0.2914
 8233SOL     OW36334   4.538   1.938   4.919 -0.3375  0.6431 -0.6031
 8233SOL    HW136335   4.499   1.867   4.867  0.6997  2.0163 -3.2632
 8233SOL    HW236336   4.476   2.009   4.907 -0.5930  0.8982  2.1948
 8234SOL     OW36337   3.521   0.917  17.139 -0.5215 -0.3207  0.0861
 8234SOL    HW136338   3.613   0.902  17.160 -0.1194  0.1661 -1.3179
 8234SOL    HW236339   3.517   0.966  17.056  1.4984  1.6672  1.1465
 8235SOL     OW36340   3.016   1.302   2.662 -0.0691 -0.0922  0.4478
 8235SOL    HW136341   3.048   1.246   2.733  3.0181 -0.9003 -1.5427
 8235SOL    HW236342   3.008   1.226   2.604 -1.9356 -0.4072  1.1333
 8236SOL     OW36343   3.323   3.398   5.448  0.0223  0.0611 -0.4085
 8236SOL    HW136344   3.316   3.362   5.360  2.5145 -1.2435 -0.0925
 8236SOL    HW236345   3.343   3.326   5.507  1.1627  0.8562  0.1880
 8237SOL     OW36346   2.314   1.866  11.924 -0.1195  0.0868  0.1325
 8237SOL    HW136347   2.233   1.917  11.926 -0.7951 -0.9037 -1.6282
 8237SOL    HW236348   2.359   1.892  12.004  1.8078 -0.9162 -0.6317
 8238SOL     OW36349   2.306   2.950   4.242  0.6053  0.2581  0.2474
 8238SOL    HW136350   2.243   2.996   4.187 -0.1941 -0.4829  0.5421
 8238SOL    HW236351   2.291   2.977   4.332 -1.2258  1.0306 -0.3007
 8239SOL     OW36352   4.051   3.768   2.352 -0.2938  0.8184  0.0611
 8239SOL    HW136353   3.961   3.779   2.323 -1.0633 -2.6476  1.0741
 8239SOL    HW236354   4.080   3.859   2.352 -0.3059  0.8254 -1.0133
 8240SOL     OW36355   0.645   1.032   4.018  0.0299  0.2307  0.5278
 8240SOL    HW136356   0.697   1.082   3.956  0.8883 -1.4838 -0.1321
 8240SOL    HW236357   0.720   0.984   4.054 -0.0612  0.0035  0.4166
 8241SOL     OW36358   1.254   0.929  10.035 -0.2060 -0.2440 -0.6879
 8241SOL    HW136359   1.199   0.969   9.968  1.4895 -0.4085 -2.1960
 8241SOL    HW236360   1.301   0.861   9.987  0.3201 -0.1133 -0.3588
 8242SOL     OW36361   0.158   3.919  10.359  0.1276  0.0504  0.2821
 8242SOL    HW136362   0.148   3.827  10.384  1.8223 -0.3072 -0.3289
 8242SOL    HW236363   0.224   3.958  10.416 -2.1490  0.3765  2.7140
 8243SOL     OW36364   0.541   3.495  16.965 -0.3499 -0.1865 -0.1576
 8243SOL    HW136365   0.454   3.483  16.927 -1.0181  0.0813  1.2749
 8243SOL    HW236366   0.537   3.586  16.993 -0.0379  0.0468 -0.8875
 8244SOL     OW36367   3.181   4.599   2.408 -0.2019  0.4346 -0.2423
 8244SOL    HW136368   3.157   4.645   2.488  0.2748  0.6935 -0.2458
 8244SOL    HW236369   3.205   4.516   2.449  0.0430  0.8371  0.4218
 8245SOL     OW36370   3.973   1.795   3.966  0.1702  0.0280 -0.1150
 8245SOL    HW136371   4.049   1.744   3.994  0.7654  1.7408  1.3313
 8245SOL    HW236372   3.909   1.773   4.034 -0.6079 -0.1401 -0.9006
 8246SOL     OW36373   1.316   3.879   2.149 -0.8510 -0.3070  0.3254
 8246SOL    HW136374   1.274   3.847   2.069 -1.3745 -0.2835  0.5863
 8246SOL    HW236375   1.333   3.792   2.186  1.8069  0.0452 -0.1474
 8247SOL     OW36376   2.392   2.503   5.835  0.1624 -0.1079 -0.1614
 8247SOL    HW136377   2.367   2.451   5.911 -0.0304 -0.2154 -0.2975
 8247SOL    HW236378   2.485   2.486   5.827  0.3989  0.6755  0.9597
 8248SOL     OW36379   3.572   0.880   4.425 -0.4545  0.3134  0.2169
 8248SOL    HW136380   3.525   0.807   4.385  0.5665 -0.5351  0.5877
 8248SOL    HW236381   3.534   0.949   4.370 -1.4052  1.1270  1.8972
 8249SOL     OW36382   1.673   2.491   2.453  0.3830  0.1470  0.2853
 8249SOL    HW136383   1.632   2.577   2.447  2.2179  1.0767  1.1349
 8249SOL    HW236384   1.762   2.515   2.428  0.4076 -0.7617 -0.4810
 8250SOL     OW36385   3.782   2.726   0.513  0.0613 -0.6479  0.3242
 8250SOL    HW136386   3.830   2.643   0.506  1.9150  0.1778  3.3325
 8250SOL    HW236387   3.815   2.768   0.593 -0.9480  0.9064 -0.0780
 8251SOL     OW36388   4.208   4.005   1.992 -0.4983 -0.4348  0.2181
 8251SOL    HW136389   4.250   3.924   2.021  2.2307  0.1540 -2.1105
 8251SOL    HW236390   4.116   3.990   2.016 -0.7160  0.2369 -0.1806
 8252SOL     OW36391   0.076   0.890  14.545 -0.0951  0.0431  0.2427
 8252SOL    HW136392   0.099   0.869  14.636 -0.1658  2.4317  0.8186
 8252SOL    HW236393   4.718   0.874  14.545 -0.4441  2.1098  1.2968
 8253SOL     OW36394   1.845   0.065   3.563 -0.3148  0.0970  0.0227
 8253SOL    HW136395   1.787   0.038   3.634 -1.3596  1.5446 -0.2768
 8253SOL    HW236396   1.787   0.099   3.495 -0.9496  1.2087  1.1075
 8254SOL     OW36397   4.630   0.866   0.993 -1.2439 -0.6488 -1.0692
 8254SOL    HW136398   4.559   0.903   1.046  1.5895  1.5462  1.2409
 8254SOL    HW236399   4.705   0.914   1.029 -1.1410 -1.7326  0.1678
 8255SOL     OW36400   4.624   3.096   4.041 -0.1878  0.2343 -0.4089
 8255SOL    HW136401   4.554   3.151   4.077  1.0325 -1.7230  5.0357
 8255SOL    HW236402   4.567   3.031   4.000 -1.0526  0.2133  0.8085
 8256SOL     OW36403   2.629   2.502   5.031 -0.5190  0.1614  0.1989
 8256SOL    HW136404   2.631   2.548   5.115  0.1356 -0.7331  0.6689
 8256SOL    HW236405   2.642   2.569   4.964  0.0640  1.4977  1.6281
 8257SOL     OW36406   1.277   2.843   4.808  0.0540 -0.4501 -0.6875
 8257SOL    HW136407   1.246   2.896   4.735  0.6510  2.0198  0.8378
 8257SOL    HW236408   1.283   2.751   4.784 -0.0970 -0.1618 -1.8223
 8258SOL     OW36409   2.954   1.390   3.346  0.5851 -0.3385 -0.2410
 8258SOL    HW136410   3.026   1.335   3.315  0.5724 -0.5523  0.1167
 8258SOL    HW236411   2.958   1.453   3.274  2.0657 -0.8287 -0.5886
 8259SOL     OW36412   1.104   1.587   0.000  0.0605  0.6378 -0.0019
 8259SOL    HW136413   1.030   1.579   0.060 -0.2782 -0.5554 -0.5822
 8259SOL    HW236414   1.182   1.599   0.055  0.1408  1.8141 -0.3661
 8260SOL     OW36415   1.955   1.242   6.852  0.3238 -0.0471  0.6837
 8260SOL    HW136416   1.953   1.221   6.758  0.4286 -1.7019  1.0423
 8260SOL    HW236417   1.861   1.254   6.867  0.2992 -0.4636  0.8668
 8261SOL     OW36418   0.068   2.707   7.602  0.3073 -0.0531  0.1051
 8261SOL    HW136419   0.054   2.747   7.516 -0.4336  0.1329  0.3087
 8261SOL    HW236420   4.736   2.754   7.651 -0.9682 -2.6530  0.8347
 8262SOL     OW36421   0.934   1.703   4.589 -0.3430  0.5924 -0.2812
 8262SOL    HW136422   0.984   1.784   4.580  1.1972 -0.4411 -1.1153
 8262SOL    HW236423   1.005   1.646   4.558 -0.9716 -0.1382 -0.3578
 8263SOL     OW36424   3.043   3.954   8.444 -0.2784 -0.4847  0.1693
 8263SOL    HW136425   3.021   4.032   8.496 -0.4465  0.1236 -0.8175
 8263SOL    HW236426   2.985   3.981   8.373 -1.8360 -1.5904  1.0094
 8264SOL     OW36427   0.397   3.563  15.319  0.3844 -0.2762  0.3125
 8264SOL    HW136428   0.478   3.597  15.281  1.5794  2.2901  5.0940
 8264SOL    HW236429   0.415   3.580  15.412 -3.3917 -0.0571  1.0120
 8265SOL     OW36430   4.693   2.221   5.553  0.2591 -0.2369  0.7961
 8265SOL    HW136431   4.610   2.212   5.600  0.3773 -2.7095  0.4983
 8265SOL    HW236432   4.662   2.283   5.487  0.3301 -1.2985 -0.2322
 8266SOL     OW36433   1.839   4.174   7.341  0.1332 -0.4716 -0.3216
 8266SOL    HW136434   1.796   4.242   7.290  1.2035 -0.1443 -0.7936
 8266SOL    HW236435   1.930   4.199   7.327 -0.6534  2.9875  0.9633
 8267SOL     OW36436   4.414   4.704   1.686  0.0578  0.4660  0.0119
 8267SOL    HW136437   4.335   4.701   1.633  0.3024 -0.1677 -0.3050
 8267SOL    HW236438   4.475   0.014   1.628  1.3639  0.0140  0.9969
 8268SOL     OW36439   2.125   3.225   9.647  0.9976 -0.5631 -0.2491
 8268SOL    HW136440   2.153   3.243   9.557 -0.3675  1.7187 -0.2102
 8268SOL    HW236441   2.036   3.261   9.643  0.3470 -2.1050  0.3631
 8269SOL     OW36442   1.361   0.412  11.379  0.3900  0.4118  0.1252
 8269SOL    HW136443   1.410   0.373  11.451  0.2322 -0.4492 -0.2263
 8269SOL    HW236444   1.412   0.491  11.363  0.3150  0.8142  1.8925
 8270SOL     OW36445   2.390   2.831   1.896  0.2655 -0.0778 -0.4476
 8270SOL    HW136446   2.468   2.805   1.848  0.6591 -0.8182  0.5862
 8270SOL    HW236447   2.332   2.756   1.881 -1.8990  1.5347 -0.0497
 8271SOL     OW36448   3.384   3.254  13.318 -0.0678 -0.4247 -0.4321
 8271SOL    HW136449   3.371   3.337  13.364  2.9115 -1.2531  1.8849
 8271SOL    HW236450   3.436   3.206  13.383 -2.0135 -2.0133 -0.0411
 8272SOL     OW36451   1.454   1.968  12.752 -0.0912 -0.3260 -0.3810
 8272SOL    HW136452   1.464   1.997  12.662  0.9925  0.3071 -0.0647
 8272SOL    HW236453   1.472   2.051  12.798 -1.1272 -1.2668  1.7326
 8273SOL     OW36454   3.490   2.291   4.344  0.2565  0.3800 -0.0949
 8273SOL    HW136455   3.545   2.279   4.267  0.1572  1.4921 -0.3442
 8273SOL    HW236456   3.518   2.220   4.402  0.9532 -0.4000 -1.3849
 8274SOL     OW36457   1.424   3.842   9.558  0.7736  0.0455 -0.5370
 8274SOL    HW136458   1.388   3.758   9.530  1.8487  0.2189 -2.4942
 8274SOL    HW236459   1.338   3.882   9.576  1.0551  0.4818 -0.1695
 8275SOL     OW36460   0.817   0.844   9.656 -0.1649  0.0078  0.5474
 8275SOL    HW136461   0.840   0.855   9.564  1.7023 -0.1499  0.9953
 8275SOL    HW236462   0.730   0.884   9.656  0.1135  0.6169 -0.5354
 8276SOL     OW36463   1.203   1.413   4.841 -0.2044  0.7166  0.1020
 8276SOL    HW136464   1.160   1.376   4.918  2.0842 -0.6423  0.7246
 8276SOL    HW236465   1.257   1.335   4.830  1.6348  2.5089 -3.3286
 8277SOL     OW36466   2.519   2.400   7.811 -0.1904 -0.2302 -0.3372
 8277SOL    HW136467   2.601   2.449   7.816 -0.5893  0.4148 -0.2460
 8277SOL    HW236468   2.528   2.335   7.881 -0.9272 -2.1327 -1.9736
 8278SOL     OW36469   2.414   1.145   7.366  0.4784  0.5609 -0.5338
 8278SOL    HW136470   2.362   1.187   7.435  2.4086  0.5536  0.9342
 8278SOL    HW236471   2.360   1.066   7.360 -0.6230  1.2119  0.8491
 8279SOL     OW36472   4.585   0.057   0.915  0.2159 -0.2108 -0.6838
 8279SOL    HW136473   4.570   0.095   1.002  0.2060  2.2256 -1.7570
 8279SOL    HW236474   4.525   4.719   0.921 -1.4503  1.1756 -0.3898
 8280SOL     OW36475   1.421   0.924   6.991  0.3455  0.0457 -0.1935
 8280SOL    HW136476   1.353   0.888   6.933  0.4654 -2.0740  0.9791
 8280SOL    HW236477   1.424   0.860   7.062 -1.1416  1.1486  0.8655
 8281SOL     OW36478   1.290   1.078  10.259  0.0847 -0.3575 -0.3587
 8281SOL    HW136479   1.288   0.997  10.208  0.7723  0.1580 -1.2125
 8281SOL    HW236480   1.341   1.129  10.196  1.5264 -1.2122  0.1179
 8282SOL     OW36481   1.201   1.474   9.790 -0.7129 -0.0031  0.4047
 8282SOL    HW136482   1.260   1.524   9.734 -0.4681 -1.2436 -0.4250
 8282SOL    HW236483   1.250   1.393   9.790 -1.0230 -0.1989  1.6856
 8283SOL     OW36484   1.115   1.027   5.966 -0.4459 -0.0060 -0.0339
 8283SOL    HW136485   1.179   0.977   6.015 -2.5739 -2.2346  0.4780
 8283SOL    HW236486   1.099   0.981   5.883  2.3348 -1.2710  0.1393
 8284SOL     OW36487   2.137   1.429   4.494 -0.1814 -0.6354 -0.1873
 8284SOL    HW136488   2.229   1.446   4.475  0.5695 -1.8980  2.3324
 8284SOL    HW236489   2.126   1.450   4.587  1.0231 -1.5071  0.1519
 8285SOL     OW36490   0.229   2.230  15.317 -0.3546  0.4582  0.4904
 8285SOL    HW136491   0.274   2.291  15.375 -2.6474  0.3000  2.4415
 8285SOL    HW236492   0.274   2.150  15.342 -0.3767  0.2038 -0.2886
 8286SOL     OW36493   3.228   1.884   5.184  1.1417  0.4205 -0.4514
 8286SOL    HW136494   3.163   1.907   5.118  1.9991  0.1054 -1.3982
 8286SOL    HW236495   3.223   1.956   5.246  3.1836  1.1046 -1.0723
 8287SOL     OW36496   3.026   2.013   7.314  0.3367  0.5288 -0.4934
 8287SOL    HW136497   2.962   1.971   7.257  1.3373  0.5585 -1.6346
 8287SOL    HW236498   3.105   2.004   7.261  0.7549 -1.4618  0.4589
 8288SOL     OW36499   2.927   0.489   3.595 -0.3086  0.2406  0.2760
 8288SOL    HW136500   2.892   0.578   3.599 -0.2992  0.1823  1.7096
 8288SOL    HW236501   3.021   0.496   3.574 -0.5513 -0.0097 -0.8963
 8289SOL     OW36502   3.299   2.548   6.248 -0.0891  0.4165 -0.0808
 8289SOL    HW136503   3.240   2.516   6.316  1.3538  0.8461  1.3737
 8289SOL    HW236504   3.353   2.614   6.292  0.2105  1.7634 -2.4471
 8290SOL     OW36505   0.166   0.138   9.117  0.0667  0.8852 -0.3007
 8290SOL    HW136506   0.183   0.214   9.062  1.5446  1.7116  1.2930
 8290SOL    HW236507   0.109   0.169   9.188  1.2349  2.1044  0.0963
 8291SOL     OW36508   2.486   3.256   7.839  0.1254  0.3483 -0.3403
 8291SOL    HW136509   2.493   3.312   7.763  0.9072  0.4665 -0.1797
 8291SOL    HW236510   2.570   3.254   7.885 -0.4446 -1.2126  0.6697
 8292SOL     OW36511   0.003   3.378   8.790  0.1651  0.2868 -0.0806
 8292SOL    HW136512   0.049   3.405   8.711 -0.9144 -0.3204 -0.9272
 8292SOL    HW236513   4.734   3.283   8.786 -0.8742  0.2360  2.1366
 8293SOL     OW36514   3.662   0.803   5.847  0.1242 -0.7166 -0.2555
 8293SOL    HW136515   3.708   0.730   5.890  2.8002  0.4645 -1.1313
 8293SOL    HW236516   3.659   0.869   5.916 -1.5682 -2.3442  1.2419
 8294SOL     OW36517   1.642   1.151   4.366  0.3821 -0.2274 -0.3420
 8294SOL    HW136518   1.691   1.073   4.343 -0.4044 -0.9882  0.5421
 8294SOL    HW236519   1.638   1.149   4.462 -0.4375  1.9683 -0.3144
 8295SOL     OW36520   0.709   3.712   7.773 -0.3490 -0.3022 -0.4622
 8295SOL    HW136521   0.779   3.777   7.776  0.5160 -1.1660 -2.2907
 8295SOL    HW236522   0.650   3.743   7.842  1.0980  1.5643 -0.0619
 8296SOL     OW36523   1.928   2.836   7.623  0.0292  0.2008 -0.2846
 8296SOL    HW136524   1.892   2.915   7.582  2.2711  1.2178 -0.3018
 8296SOL    HW236525   1.847   2.803   7.662 -0.1492 -1.2193 -1.8822
 8297SOL     OW36526   4.312   0.586   8.768 -0.4720 -0.4506 -0.1174
 8297SOL    HW136527   4.311   0.628   8.854  0.7263 -0.0107 -0.3211
 8297SOL    HW236528   4.321   0.494   8.792 -1.9287 -0.4657  0.3741
 8298SOL     OW36529   4.484   0.068   6.774 -0.8065 -0.2179  0.1041
 8298SOL    HW136530   4.533   0.089   6.695  1.1917  0.2534  1.4550
 8298SOL    HW236531   4.555   0.025   6.822  0.4008  0.3952 -1.1186
 8299SOL     OW36532   1.588   4.631   6.993  0.1810 -0.0783 -0.3160
 8299SOL    HW136533   1.521   4.670   6.936  0.0196  0.6817  0.4010
 8299SOL    HW236534   1.546   4.637   7.078 -0.4745 -1.6091 -0.5248
 8300SOL     OW36535   2.484   3.268   3.345  0.0715 -0.7047 -0.5750
 8300SOL    HW136536   2.525   3.320   3.414  0.3155 -0.6498 -0.7617
 8300SOL    HW236537   2.499   3.177   3.373 -1.4577 -0.5617  0.7082
 8301SOL     OW36538   0.697   4.640   5.125  0.0232 -0.0103  0.2876
 8301SOL    HW136539   0.646   4.721   5.125  3.3077  2.0772 -0.1458
 8301SOL    HW236540   0.657   4.601   5.202 -0.4252 -1.9047 -0.9028
 8302SOL     OW36541   0.808   0.859   5.073 -0.1076 -0.3963  0.1012
 8302SOL    HW136542   0.826   0.771   5.105 -0.6678  0.2531  2.1840
 8302SOL    HW236543   0.713   0.868   5.084 -0.2764 -1.9785  0.0120
 8303SOL     OW36544   3.024   2.411   1.854  0.4702  0.1251  0.0762
 8303SOL    HW136545   3.003   2.397   1.946  1.0705 -1.7191 -0.0761
 8303SOL    HW236546   2.990   2.501   1.848  1.1560  0.3361 -0.6371
 8304SOL     OW36547   3.446   1.090  12.958 -0.4916  0.3277  0.0841
 8304SOL    HW136548   3.377   1.140  13.001  0.7457  1.5596  0.6304
 8304SOL    HW236549   3.399   1.068  12.878 -0.4091  0.2866  0.0464
 8305SOL     OW36550   2.287   2.908  15.652 -0.4800 -0.0272  0.0592
 8305SOL    HW136551   2.372   2.946  15.674  1.0075 -2.2504 -1.7836
 8305SOL    HW236552   2.275   2.829  15.705  0.5725 -0.8920 -0.9755
 8306SOL     OW36553   0.169   2.309   6.150 -0.1211  0.2160 -0.1922
 8306SOL    HW136554   0.146   2.232   6.204  2.1345 -0.5998 -0.3856
 8306SOL    HW236555   0.176   2.382   6.211  0.4987 -0.4187  0.4975
 8307SOL     OW36556   4.073   1.378  11.902 -0.3557  0.0922 -0.0274
 8307SOL    HW136557   4.117   1.293  11.900 -1.7158 -0.5965 -0.3636
 8307SOL    HW236558   4.077   1.397  11.996 -0.6638 -2.7557  0.5602
 8308SOL     OW36559   0.845   4.207   4.552  0.3102  0.5122 -0.0880
 8308SOL    HW136560   0.849   4.274   4.620  0.0027 -0.2307  0.6618
 8308SOL    HW236561   0.840   4.250   4.467 -1.1605 -0.2036 -0.3655
 8309SOL     OW36562   1.472   2.090  12.496 -0.5720 -0.2697  0.8169
 8309SOL    HW136563   1.415   2.058  12.425  0.2020  0.7305 -0.2582
 8309SOL    HW236564   1.556   2.089  12.450  0.2597 -0.3686  2.3539
 8310SOL     OW36565   0.981   2.504   3.159 -0.2407  0.2719 -0.1750
 8310SOL    HW136566   0.942   2.548   3.084 -3.0586 -0.2810  0.9746
 8310SOL    HW236567   1.063   2.480   3.115  0.9820  1.5865  1.3783
 8311SOL     OW36568   0.258   3.056   5.690 -0.7739 -0.3352 -0.9939
 8311SOL    HW136569   0.243   2.973   5.734 -0.5163  0.0525 -0.1836
 8311SOL    HW236570   0.248   3.112   5.767 -0.2956 -2.0864  0.3498
 8312SOL     OW36571   2.423   2.068   7.129 -0.4335  0.3121  0.2810
 8312SOL    HW136572   2.356   2.101   7.069  0.8927  2.2187 -0.1454
 8312SOL    HW236573   2.389   1.982   7.152  3.5309 -0.8923  1.6013
 8313SOL     OW36574   3.231   0.289   1.094 -0.0763  0.1902 -0.6219
 8313SOL    HW136575   3.199   0.322   1.178  3.8497 -0.5419  1.1418
 8313SOL    HW236576   3.211   0.195   1.097  1.4588 -0.0633  1.1795
 8314SOL     OW36577   2.252   3.291   6.855  0.6413  0.0107  0.3278
 8314SOL    HW136578   2.288   3.378   6.837 -1.6743  0.9618  0.3792
 8314SOL    HW236579   2.174   3.311   6.906  0.0856  1.6094 -1.1439
 8315SOL     OW36580   0.742   1.252   6.884 -0.1121  0.0277 -0.3856
 8315SOL    HW136581   0.659   1.282   6.848  0.4521  1.1487 -0.7768
 8315SOL    HW236582   0.719   1.227   6.973 -1.2735  0.6055 -0.5231
 8316SOL     OW36583   3.938   1.719  14.450 -0.1771 -0.9406  0.1180
 8316SOL    HW136584   3.983   1.695  14.368  1.3181  0.5588  0.5080
 8316SOL    HW236585   3.851   1.690  14.422 -0.8113  0.1092  1.0168
 8317SOL     OW36586   1.558   3.773   5.608 -0.0263  0.3759 -0.4808
 8317SOL    HW136587   1.547   3.683   5.578 -1.3993 -0.1537  1.6178
 8317SOL    HW236588   1.620   3.803   5.541 -1.5003  3.8258 -0.3354
 8318SOL     OW36589   1.319   4.101   9.048  0.2117 -0.3621  0.3144
 8318SOL    HW136590   1.356   4.055   8.972  0.4903  0.3777  0.0046
 8318SOL    HW236591   1.265   4.164   9.001  1.4188  1.0803  0.8505
 8319SOL     OW36592   2.506   3.862   9.939 -0.1000 -0.3139  0.3159
 8319SOL    HW136593   2.564   3.924   9.985  2.0235 -0.3066 -2.3203
 8319SOL    HW236594   2.418   3.897   9.953 -1.2530 -2.7729 -0.7983
 8320SOL     OW36595   3.843   2.385   3.854  0.3205  0.2461 -0.7050
 8320SOL    HW136596   3.827   2.303   3.900 -2.0491  0.7302 -0.6640
 8320SOL    HW236597   3.828   2.458   3.914  2.9938 -2.5704  3.3798
 8321SOL     OW36598   4.375   4.721  15.678  0.1667  0.3933 -0.5350
 8321SOL    HW136599   4.420   4.649  15.633  0.5838  0.9320 -0.9782
 8321SOL    HW236600   4.366   4.693  15.770 -1.6291  0.8894 -0.5633
 8322SOL     OW36601   3.743   2.804   2.155 -0.4021 -0.0416 -0.6232
 8322SOL    HW136602   3.647   2.806   2.155 -0.3758  1.3045 -0.9199
 8322SOL    HW236603   3.758   2.899   2.151 -1.8534  0.2241  0.3844
 8323SOL     OW36604   3.170   0.418   6.253 -0.0832 -0.2090 -0.1580
 8323SOL    HW136605   3.215   0.450   6.331 -2.4426  0.5657  0.8808
 8323SOL    HW236606   3.242   0.371   6.210 -1.3425 -1.4433 -0.9175
 8324SOL     OW36607   0.310   3.387  17.443 -0.6663 -0.6282  0.3220
 8324SOL    HW136608   0.294   3.303  17.485  3.4435 -1.9566 -0.7589
 8324SOL    HW236609   0.367   3.429  17.507 -0.9200  0.7332 -0.3446
 8325SOL     OW36610   3.104   1.374  11.009  0.2246 -0.5375 -0.2220
 8325SOL    HW136611   3.171   1.365  10.941  0.1153  1.3140 -0.5808
 8325SOL    HW236612   3.065   1.447  10.961 -1.2755 -0.6547  0.8401
 8326SOL     OW36613   3.855   2.596   6.007 -1.1696  0.0705 -0.0011
 8326SOL    HW136614   3.775   2.542   6.014 -1.1255 -0.0255 -0.2463
 8326SOL    HW236615   3.866   2.613   6.100  0.0558 -0.5721 -0.0348
 8327SOL     OW36616   0.220   1.901  10.451  0.2174 -0.0369 -0.1994
 8327SOL    HW136617   0.186   1.865  10.369 -0.2238  0.1569 -0.1010
 8327SOL    HW236618   0.232   1.822  10.504 -0.6206 -1.2836 -1.9039
 8328SOL     OW36619   3.627   0.507  10.632  0.2280  0.8318  0.3530
 8328SOL    HW136620   3.659   0.461  10.710 -0.5911 -0.5023 -0.1121
 8328SOL    HW236621   3.700   0.570  10.631  1.5767 -0.7166  0.1024
 8329SOL     OW36622   2.835   0.008   8.620  0.4263 -0.5386  0.2155
 8329SOL    HW136623   2.892   0.079   8.591 -0.1088 -0.1658  0.0656
 8329SOL    HW236624   2.770   0.024   8.552  0.2556 -0.6858  0.3444
 8330SOL     OW36625   3.403   2.839   8.592  0.2777 -0.8941 -0.0820
 8330SOL    HW136626   3.327   2.886   8.627  1.0096  0.4774 -0.3476
 8330SOL    HW236627   3.371   2.749   8.591 -0.0008 -0.8108  0.7729
 8331SOL     OW36628   3.166   2.419   6.481 -0.4801 -0.3443  0.2673
 8331SOL    HW136629   3.091   2.365   6.506 -0.8766  0.7255  1.4126
 8331SOL    HW236630   3.211   2.416   6.566  2.7924 -1.6382 -1.4906
 8332SOL     OW36631   1.101   3.223  12.661  0.4127  0.1092 -0.1027
 8332SOL    HW136632   1.019   3.175  12.651 -1.5417  3.5306 -0.3064
 8332SOL    HW236633   1.085   3.294  12.599  1.0109 -0.0084 -0.3962
 8333SOL     OW36634   1.907   1.983  13.286 -0.6714  0.0866 -0.0472
 8333SOL    HW136635   1.812   1.971  13.285 -0.6846  0.0818  1.4106
 8333SOL    HW236636   1.915   2.006  13.378  1.1002 -0.6932 -0.0292
 8334SOL     OW36637   3.152   1.035   4.428  0.9631 -0.2190  0.5110
 8334SOL    HW136638   3.128   0.990   4.347 -0.0143 -0.5162  0.9665
 8334SOL    HW236639   3.080   1.017   4.489  0.7284  0.3741  0.4197
 8335SOL     OW36640   2.420   1.139   4.972  0.0210  0.1377 -0.7118
 8335SOL    HW136641   2.403   1.223   5.014 -1.3640 -0.6916  0.3678
 8335SOL    HW236642   2.448   1.145   4.881  2.1398 -0.0634 -0.0912
 8336SOL     OW36643   0.890   1.787   0.374 -0.8309 -0.4761 -0.1667
 8336SOL    HW136644   0.813   1.775   0.319 -0.3672 -1.2108 -0.6625
 8336SOL    HW236645   0.852   1.857   0.426  1.7211  1.3644 -0.7422
 8337SOL     OW36646   0.351   0.661   8.059 -0.1296 -0.4704 -0.3723
 8337SOL    HW136647   0.426   0.610   8.027  0.5758 -0.4764  1.3009
 8337SOL    HW236648   0.320   0.597   8.123 -1.1860  0.9720  0.5472
 8338SOL     OW36649   0.546   3.728   8.511  0.0953  0.5762  0.7535
 8338SOL    HW136650   0.461   3.754   8.548  0.5931  1.9178  0.9753
 8338SOL    HW236651   0.585   3.715   8.597 -0.9523  0.5960  1.2409
 8339SOL     OW36652   4.712   0.749   2.047 -0.3323  0.4768 -0.2917
 8339SOL    HW136653   0.071   0.752   2.040 -0.5421  2.0363 -2.6012
 8339SOL    HW236654   4.696   0.687   1.975  0.3128  0.5315 -0.4848
 8340SOL     OW36655   3.452   3.432   3.973 -0.0401 -0.0354 -0.5671
 8340SOL    HW136656   3.455   3.514   3.924 -2.1210  0.7683  0.6416
 8340SOL    HW236657   3.361   3.404   3.970  0.0440 -0.7889  3.2178
 8341SOL     OW36658   2.361   4.530   5.576 -0.3152 -0.1518  0.2159
 8341SOL    HW136659   2.309   4.530   5.656 -0.5779  0.5374  0.0429
 8341SOL    HW236660   2.369   4.436   5.559 -0.5174 -0.1919  0.3481
 8342SOL     OW36661   3.493   2.611  12.440  0.0729  0.1119  0.6008
 8342SOL    HW136662   3.468   2.652  12.523  0.3775  0.9995  0.2546
 8342SOL    HW236663   3.585   2.637  12.435  0.5582 -1.6958 -0.1706
 8343SOL     OW36664   0.102   4.259   4.390  0.6056  0.4627  0.2091
 8343SOL    HW136665   0.195   4.236   4.384  1.0741  2.9254 -1.9209
 8343SOL    HW236666   0.084   4.315   4.315 -0.0205 -2.4203 -1.8150
 8344SOL     OW36667   2.940   4.387   2.940 -0.6021 -0.1096 -0.1024
 8344SOL    HW136668   3.008   4.432   2.989 -0.3291 -1.2498  0.5601
 8344SOL    HW236669   2.991   4.319   2.897 -0.8640 -0.1310 -0.3770
 8345SOL     OW36670   0.288   1.016   9.778 -0.3078  0.4372 -0.2876
 8345SOL    HW136671   0.335   1.017   9.861  1.0218  1.5930 -1.0539
 8345SOL    HW236672   0.295   0.924   9.753  3.0853  0.7759 -0.5154
 8346SOL     OW36673   0.343   2.813   1.504 -0.1539 -0.3838 -0.1215
 8346SOL    HW136674   0.281   2.883   1.521  0.6259 -0.1064  1.5793
 8346SOL    HW236675   0.316   2.785   1.416  3.2116  1.5439 -1.7701
 8347SOL     OW36676   1.410   3.804   6.372 -0.3721 -0.4951  0.6507
 8347SOL    HW136677   1.386   3.850   6.292  1.6631  0.3306  0.5292
 8347SOL    HW236678   1.329   3.752   6.381 -0.8352  0.4377  1.8309
 8348SOL     OW36679   3.344   0.779   6.876  0.0692 -0.9414  0.4986
 8348SOL    HW136680   3.365   0.771   6.969 -0.3284 -0.6231  0.6177
 8348SOL    HW236681   3.369   0.867   6.848 -2.0379 -0.1578  1.0771
 8349SOL     OW36682   2.318   2.435   2.760  0.4256  0.1402  0.3543
 8349SOL    HW136683   2.394   2.464   2.809  0.9343  0.6992 -0.7537
 8349SOL    HW236684   2.256   2.450   2.831 -0.1397  1.2798 -0.3739
 8350SOL     OW36685   3.700   3.110  16.408  0.2368 -0.5282 -0.3097
 8350SOL    HW136686   3.732   3.153  16.487  0.9180 -0.2137 -0.7549
 8350SOL    HW236687   3.605   3.120  16.408  0.4831  1.8152  0.0991
 8351SOL     OW36688   3.111   3.259   2.921  0.0243  0.2030  0.0693
 8351SOL    HW136689   3.133   3.311   2.998  1.5465  2.4448 -1.8894
 8351SOL    HW236690   3.017   3.248   2.939  0.1649 -0.4631  0.3757
 8352SOL     OW36691   1.338   4.526   3.212 -0.3122  0.3709 -0.1746
 8352SOL    HW136692   1.368   4.438   3.187  0.3305  0.8681 -1.1528
 8352SOL    HW236693   1.379   4.526   3.299  0.9452  0.5117 -0.7690
 8353SOL     OW36694   2.887   0.713   2.306  0.3506  0.3310 -0.6717
 8353SOL    HW136695   2.979   0.732   2.325  0.4562  0.5921 -1.4197
 8353SOL    HW236696   2.850   0.792   2.267 -0.2279  0.7761  0.7692
 8354SOL     OW36697   3.150   0.624  12.075  0.0595 -0.6646 -0.7159
 8354SOL    HW136698   3.244   0.610  12.087 -0.1337  0.0777  1.5477
 8354SOL    HW236699   3.118   0.541  12.111  0.8154 -0.6718 -0.0588
 8355SOL     OW36700   3.404   0.443  17.696  0.1514  0.6349 -0.3622
 8355SOL    HW136701   3.358   0.502  17.637 -1.9630  0.7694  1.4615
 8355SOL    HW236702   3.486   0.419  17.653  1.9243  1.1420  2.7307
 8356SOL     OW36703   0.594   0.135   7.827 -0.1513 -0.4513 -0.0989
 8356SOL    HW136704   0.676   0.138   7.876 -0.9678 -0.5250  1.2560
 8356SOL    HW236705   0.541   0.073   7.877 -0.2014  1.7339  2.5174
 8357SOL     OW36706   4.638   0.161   3.781 -0.4507 -0.3614  0.0403
 8357SOL    HW136707   4.712   0.205   3.822 -1.2196  0.8639  0.1098
 8357SOL    HW236708   4.634   0.206   3.697 -1.3564 -0.9815 -0.2484
 8358SOL     OW36709   1.712   0.105  14.728  0.1173 -0.5118  0.6542
 8358SOL    HW136710   1.680   0.123  14.640  1.5052  0.5750  0.3708
 8358SOL    HW236711   1.622   0.094  14.759 -0.0599 -2.0419 -0.4453
 8359SOL     OW36712   3.790   1.700  17.092 -0.1126 -0.5386  0.2981
 8359SOL    HW136713   3.878   1.683  17.128  1.6251  1.0841 -3.2478
 8359SOL    HW236714   3.776   1.789  17.125 -0.2398 -0.2166 -0.6452
 8360SOL     OW36715   1.764   3.555   8.737 -0.1584  0.2756 -0.1188
 8360SOL    HW136716   1.684   3.572   8.786 -0.8765 -0.9572 -0.8649
 8360SOL    HW236717   1.743   3.554   8.643 -2.7745 -0.1743  0.4733
 8361SOL     OW36718   0.129   0.640   7.441  0.0315 -0.0763 -0.0178
 8361SOL    HW136719   0.106   0.692   7.364 -1.3325  0.1337  0.5204
 8361SOL    HW236720   0.218   0.612   7.422 -0.7817 -2.6493 -0.0364
 8362SOL     OW36721   0.975   3.694   0.969 -0.5902 -0.0309  0.4105
 8362SOL    HW136722   1.022   3.719   0.890  1.0122 -0.0961  1.3529
 8362SOL    HW236723   0.991   3.600   0.963  0.2193  0.0996  0.5528
 8363SOL     OW36724   0.286   3.370   5.572 -0.5957  0.2791  0.0908
 8363SOL    HW136725   0.280   3.290   5.520 -1.7766 -0.3572  1.2130
 8363SOL    HW236726   0.345   3.343   5.642  0.4541  0.7149 -0.6240
 8364SOL     OW36727   2.705   2.823  14.163 -0.2751  0.2966  0.3127
 8364SOL    HW136728   2.625   2.793  14.207 -1.0000 -0.2727 -1.3639
 8364SOL    HW236729   2.666   2.849  14.080  0.3688 -0.8210 -0.3380
 8365SOL     OW36730   0.053   2.499   9.010 -0.4028 -0.1817  0.0434
 8365SOL    HW136731   0.099   2.547   9.079 -1.6721 -0.6401  1.2300
 8365SOL    HW236732   4.715   2.464   9.061  1.4204 -1.3792  1.8742
 8366SOL     OW36733   1.310   1.558  14.949 -0.0235 -0.0623  0.3745
 8366SOL    HW136734   1.325   1.598  14.863 -0.5539  1.0964  0.8152
 8366SOL    HW236735   1.235   1.610  14.976  0.1619  0.9128 -1.0201
 8367SOL     OW36736   3.573   0.453   2.406  0.1433 -0.2327 -0.3678
 8367SOL    HW136737   3.609   0.393   2.341 -1.5235 -1.0854 -0.5021
 8367SOL    HW236738   3.654   0.494   2.436 -0.1547  0.1952 -0.1575
 8368SOL     OW36739   1.665   1.254   4.046 -0.0272  0.1601  0.0960
 8368SOL    HW136740   1.615   1.226   3.969  0.7061  0.9707 -0.6671
 8368SOL    HW236741   1.619   1.214   4.120 -0.4964 -1.4374 -1.0686
 8369SOL     OW36742   3.843   2.808  11.046 -0.0973  0.4023 -0.0253
 8369SOL    HW136743   3.903   2.777  10.978  1.4382  0.9818  1.0667
 8369SOL    HW236744   3.793   2.865  10.988  2.1060  1.3968 -0.9638
 8370SOL     OW36745   2.592   1.815   3.926 -0.1609  0.7859 -0.1863
 8370SOL    HW136746   2.671   1.762   3.922 -0.8229 -0.2419  0.3795
 8370SOL    HW236747   2.550   1.795   4.010  2.1349  1.0756  1.0248
 8371SOL     OW36748   2.271   1.975   4.467 -0.2045 -0.7629 -0.3329
 8371SOL    HW136749   2.266   2.013   4.379 -0.3879  1.1259  0.4879
 8371SOL    HW236750   2.232   1.887   4.465 -0.3750 -0.6865 -0.3495
 8372SOL     OW36751   2.973   4.279   0.907  0.0365 -0.4027 -0.3941
 8372SOL    HW136752   2.928   4.273   0.991  0.0675 -1.2200 -0.4355
 8372SOL    HW236753   3.057   4.319   0.928 -1.3793  1.8614  0.8674
 8373SOL     OW36754   2.590   3.653   3.496 -0.0986  0.2619 -0.1134
 8373SOL    HW136755   2.599   3.715   3.423  1.8853 -0.8013 -0.7872
 8373SOL    HW236756   2.628   3.688   3.577  0.4681 -2.1371  0.6440
 8374SOL     OW36757   1.287   1.788  16.626 -0.2620  0.8647 -0.1123
 8374SOL    HW136758   1.229   1.775  16.551  0.3992  0.5286 -0.5721
 8374SOL    HW236759   1.372   1.794  16.581  0.2664 -0.1873  0.7375
 8375SOL     OW36760   4.281   0.101   1.260  0.6561 -0.1469 -0.1665
 8375SOL    HW136761   4.359   0.054   1.290 -0.0868 -0.4784  1.2426
 8375SOL    HW236762   4.304   0.120   1.169  1.0761 -0.8806 -0.2124
 8376SOL     OW36763   1.352   4.687   3.944  0.0557  0.1893 -0.1132
 8376SOL    HW136764   1.305   4.608   3.919  1.6650 -0.6666 -0.4032
 8376SOL    HW236765   1.439   4.666   3.909 -0.2279  0.5618 -1.0486
 8377SOL     OW36766   0.561   2.297   1.841  0.1773  0.1429 -0.4389
 8377SOL    HW136767   0.557   2.358   1.916  1.5298 -1.8086  1.2304
 8377SOL    HW236768   0.468   2.275   1.837  0.4864 -1.0598 -1.0740
 8378SOL     OW36769   0.609   0.923  17.642 -0.1534  0.3600 -0.0097
 8378SOL    HW136770   0.600   0.934  17.548 -1.5177 -1.1738 -0.0488
 8378SOL    HW236771   0.591   1.013  17.667 -1.8776 -0.6771  2.5033
 8379SOL     OW36772   2.724   4.621  16.202 -0.1128 -0.0576  0.4232
 8379SOL    HW136773   2.679   4.657  16.278  2.6325  0.5174  1.7592
 8379SOL    HW236774   2.802   4.590  16.249 -0.5875 -0.9071  0.6405
 8380SOL     OW36775   4.544   0.978   4.234 -0.2925  0.2347 -0.1528
 8380SOL    HW136776   4.575   0.955   4.147 -1.9632 -0.6085 -0.5299
 8380SOL    HW236777   4.455   0.991   4.200  0.1806  2.1102 -0.6619
 8381SOL     OW36778   3.846   1.379   5.990 -0.2506 -0.5013 -0.3060
 8381SOL    HW136779   3.793   1.315   5.944  1.5731 -3.1311  1.2527
 8381SOL    HW236780   3.930   1.369   5.944  1.0134 -0.5020  1.9891
 8382SOL     OW36781   4.374   0.463   9.120  0.4322 -0.4649 -0.0514
 8382SOL    HW136782   4.302   0.423   9.168 -0.2717 -1.7673 -2.1789
 8382SOL    HW236783   4.338   0.545   9.085 -1.1842 -0.8300  0.7607
 8383SOL     OW36784   4.192   0.070   1.522  0.3907 -0.7459  0.3251
 8383SOL    HW136785   4.126   0.139   1.521  0.0292 -1.1233 -1.3959
 8383SOL    HW236786   4.219   0.064   1.431  0.1561 -3.5041  0.4258
 8384SOL     OW36787   2.778   1.594  16.408  0.1041 -0.5355  0.3093
 8384SOL    HW136788   2.752   1.658  16.474 -2.3665 -0.2993 -0.8990
 8384SOL    HW236789   2.836   1.649  16.355  0.0565  0.1355  0.9571
 8385SOL     OW36790   4.511   3.031   8.324  0.3957  0.7469 -0.0049
 8385SOL    HW136791   4.569   3.031   8.400 -2.3841 -0.3965  2.1428
 8385SOL    HW236792   4.559   3.088   8.265  1.6000 -1.9654 -1.6038
 8386SOL     OW36793   0.829   3.377   5.268 -0.4513  0.2453  0.2038
 8386SOL    HW136794   0.856   3.464   5.296 -0.2753  0.0323  0.7001
 8386SOL    HW236795   0.917   3.337   5.264 -1.0728 -1.0293 -0.9473
 8387SOL     OW36796   1.420   3.986   1.771 -0.6440 -0.2245 -0.3825
 8387SOL    HW136797   1.468   4.067   1.755  0.4001 -0.7302  0.2002
 8387SOL    HW236798   1.441   3.946   1.686 -1.3454 -0.5054 -0.4263
 8388SOL     OW36799   1.315   0.401   4.673 -0.5842  0.5217  0.0678
 8388SOL    HW136800   1.293   0.382   4.764 -0.1098 -1.3119 -0.1923
 8388SOL    HW236801   1.298   0.313   4.639  2.5374  0.3247 -0.9048
 8389SOL     OW36802   4.060   4.294  10.751 -0.0949  0.7673 -0.2980
 8389SOL    HW136803   4.076   4.347  10.829 -0.7153 -2.4062  1.9892
 8389SOL    HW236804   4.135   4.309  10.694  1.1341 -0.9366  0.8600
 8390SOL     OW36805   3.821   2.514   5.083 -0.2648 -0.7294  0.2684
 8390SOL    HW136806   3.850   2.433   5.125  0.4488  0.5442  2.2408
 8390SOL    HW236807   3.827   2.504   4.988 -0.1202 -0.3029  0.2314
 8391SOL     OW36808   2.787   2.201   7.963  0.1490 -0.2600  0.9237
 8391SOL    HW136809   2.773   2.106   7.955  3.7327 -0.6522 -0.8016
 8391SOL    HW236810   2.824   2.218   7.876  0.9638 -0.9643  1.1245
 8392SOL     OW36811   4.487   2.366  14.218  0.2733  0.0560 -0.3140
 8392SOL    HW136812   4.395   2.392  14.228 -0.5628 -2.5051 -1.1871
 8392SOL    HW236813   4.532   2.448  14.234  1.2091 -0.3355 -0.9848
 8393SOL     OW36814   3.174   4.488   3.058 -0.7534 -0.1165 -0.3395
 8393SOL    HW136815   3.196   4.506   2.967  0.3623 -0.0826 -0.0615
 8393SOL    HW236816   3.251   4.446   3.098  0.0158  0.2391 -1.4641
 8394SOL     OW36817   0.157   3.380   3.278  0.7388  0.4682  0.6058
 8394SOL    HW136818   0.169   3.297   3.233 -2.0138  0.9382 -1.0176
 8394SOL    HW236819   0.181   3.445   3.211  2.5952 -1.8034 -0.8910
 8395SOL     OW36820   0.075   4.514   9.326 -0.4146  0.9292 -0.1714
 8395SOL    HW136821   0.127   4.441   9.360 -0.3807  0.9510 -0.1767
 8395SOL    HW236822   0.138   4.582   9.302  1.4348  0.0774  2.3040
 8396SOL     OW36823   1.846   4.730   2.354 -0.0637  0.0141 -0.5760
 8396SOL    HW136824   1.906   0.005   2.428 -0.8727  1.9652 -0.2245
 8396SOL    HW236825   1.795   0.074   2.366  1.1386  0.3296  2.5378
 8397SOL     OW36826   4.239   2.122   8.324 -0.3369 -0.4192  0.5354
 8397SOL    HW136827   4.320   2.173   8.328 -0.2015 -0.4461 -1.7241
 8397SOL    HW236828   4.207   2.144   8.236 -2.3093 -1.5636  0.9536
 8398SOL     OW36829   0.577   3.406   1.638 -0.5397 -0.1491  0.0245
 8398SOL    HW136830   0.497   3.424   1.689 -2.0974 -0.6629 -2.2208
 8398SOL    HW236831   0.616   3.336   1.691  0.2889  1.6670  1.8077
 8399SOL     OW36832   1.582   3.159  12.746 -0.2016 -0.1087 -0.2857
 8399SOL    HW136833   1.547   3.247  12.755 -0.2508  0.1431 -2.9174
 8399SOL    HW236834   1.494   3.121  12.746 -0.2840  0.0845 -0.4258
 8400SOL     OW36835   1.561   0.759   1.896  0.6794 -0.1465 -0.2294
 8400SOL    HW136836   1.598   0.844   1.920 -0.0733  0.2297 -0.4135
 8400SOL    HW236837   1.642   0.717   1.866  0.8640  0.5167 -0.6668
 8401SOL     OW36838   0.530   4.515   3.596  0.0735 -0.5932 -0.1182
 8401SOL    HW136839   0.489   4.512   3.683  1.3792  0.8194  0.5498
 8401SOL    HW236840   0.607   4.461   3.613  1.9233  1.2462 -2.8523
 8402SOL     OW36841   0.637   0.171   4.746 -0.3709  0.2764  0.1795
 8402SOL    HW136842   0.595   0.249   4.781  0.1948  0.6078  0.1161
 8402SOL    HW236843   0.630   0.186   4.652 -1.5037 -1.6490 -0.0375
 8403SOL     OW36844   1.019   4.304  17.114 -0.3437  0.1736 -0.0115
 8403SOL    HW136845   0.948   4.240  17.108  1.1464 -1.4456 -0.1963
 8403SOL    HW236846   0.983   4.379  17.067 -0.2916 -0.1781 -0.6115
 8404SOL     OW36847   0.608   1.619   6.093 -0.1884  0.1782  0.1002
 8404SOL    HW136848   0.696   1.618   6.055 -0.8884  0.7943 -1.5389
 8404SOL    HW236849   0.556   1.678   6.039 -1.3492 -0.1784  0.8470
 8405SOL     OW36850   1.207   2.887   5.246  0.4146 -0.0257 -0.3186
 8405SOL    HW136851   1.191   2.793   5.254 -0.4751  0.3089  1.8741
 8405SOL    HW236852   1.290   2.899   5.202 -0.5783  1.4875 -1.7657
 8406SOL     OW36853   4.408   2.523   3.455 -0.3561 -0.2647  0.2930
 8406SOL    HW136854   4.502   2.540   3.442 -0.7284  3.0493  1.8178
 8406SOL    HW236855   4.387   2.609   3.493 -0.7886 -1.0361  1.8149
 8407SOL     OW36856   0.698   3.682   0.956 -0.1044 -0.2452  0.0599
 8407SOL    HW136857   0.793   3.684   0.969 -0.1698  0.7463  0.3712
 8407SOL    HW236858   0.679   3.775   0.942 -0.0726 -0.1402  0.7111
 8408SOL     OW36859   3.116   4.038   7.659 -0.2473  0.3274 -0.8601
 8408SOL    HW136860   3.038   4.041   7.604 -0.7564 -2.0275 -0.2876
 8408SOL    HW236861   3.190   4.064   7.603  0.2122 -0.8307 -0.7962
 8409SOL     OW36862   2.304   0.820   8.850 -0.4676 -0.0945 -0.1543
 8409SOL    HW136863   2.357   0.809   8.929 -0.4477  0.7428 -0.0446
 8409SOL    HW236864   2.273   0.734   8.823 -0.7291 -0.3127  0.8791
 8410SOL     OW36865   1.112   2.474   5.606 -0.2080  0.3904 -0.4384
 8410SOL    HW136866   1.024   2.493   5.572 -1.2841  1.2032  2.7330
 8410SOL    HW236867   1.124   2.542   5.672  0.2996 -0.9483  0.8464
 8411SOL     OW36868   3.535   3.934  17.100  0.1141  0.3422  0.5746
 8411SOL    HW136869   3.440   3.947  17.101 -0.2543 -2.5277  2.6341
 8411SOL    HW236870   3.534   3.838  17.109  0.3081  0.3648  0.8242
 8412SOL     OW36871   2.047   0.510   1.211  0.0719  0.1134 -0.3885
 8412SOL    HW136872   2.104   0.525   1.135  0.0365 -1.2994 -0.6957
 8412SOL    HW236873   1.993   0.436   1.182 -1.1964 -0.1105  2.5546
 8413SOL     OW36874   4.256   3.274   2.988 -0.1905 -0.0842 -0.3775
 8413SOL    HW136875   4.326   3.328   3.024  1.2567 -1.5625 -0.9645
 8413SOL    HW236876   4.210   3.248   3.068  0.9713  0.8123  0.5765
 8414SOL     OW36877   0.035   1.273   3.822 -0.1747 -0.4490 -0.0654
 8414SOL    HW136878   4.696   1.326   3.847  0.3282  0.7741 -1.1746
 8414SOL    HW236879   0.087   1.288   3.902  0.3682  0.7680 -0.6588
 8415SOL     OW36880   2.612   1.370   4.129  0.0286  0.0466 -0.4457
 8415SOL    HW136881   2.566   1.450   4.156 -2.3187 -0.8445 -1.8361
 8415SOL    HW236882   2.564   1.349   4.050 -1.0852  0.9667 -0.0132
 8416SOL     OW36883   1.659   3.321   0.315 -0.3221 -0.2989 -0.5203
 8416SOL    HW136884   1.683   3.319   0.223  0.6577  1.8081 -0.2942
 8416SOL    HW236885   1.660   3.227   0.332 -0.9944  0.0213  1.3518
 8417SOL     OW36886   0.036   1.937   4.079  0.4359  0.3105 -0.5049
 8417SOL    HW136887   0.037   1.901   4.167 -0.3661 -0.4722 -0.8153
 8417SOL    HW236888   4.697   1.889   4.043  1.3219 -0.6514 -1.0809
 8418SOL     OW36889   4.313   2.160   2.647 -0.1891  0.0047 -0.3870
 8418SOL    HW136890   4.366   2.224   2.696 -0.1272 -2.5715  2.9066
 8418SOL    HW236891   4.230   2.197   2.677  1.0852  0.8263  2.1862
 8419SOL     OW36892   1.383   2.707   6.201  0.0184  0.3691  0.1291
 8419SOL    HW136893   1.449   2.762   6.242  0.1089  1.1350 -1.0316
 8419SOL    HW236894   1.445   2.653   6.153 -0.0791  1.2096 -0.9420
 8420SOL     OW36895   0.515   1.277   6.750 -0.0509 -0.5092 -0.6970
 8420SOL    HW136896   0.500   1.184   6.738  0.7687 -0.6610 -0.5147
 8420SOL    HW236897   0.462   1.314   6.679 -1.7287  1.0649  1.3798
 8421SOL     OW36898   4.638   0.512   9.051  0.8130 -0.9709  0.0204
 8421SOL    HW136899   4.563   0.498   9.110 -0.3981 -0.6738 -1.4433
 8421SOL    HW236900   4.610   0.453   8.981 -2.5013  2.5939 -1.6644
 8422SOL     OW36901   1.729   3.120  17.047  0.0741  0.3489 -0.7680
 8422SOL    HW136902   1.727   3.051  16.981  0.6479 -0.9525  0.5890
 8422SOL    HW236903   1.823   3.131  17.057  0.0196  1.1174 -1.0558
 8423SOL     OW36904   1.378   1.237   3.176  0.0727  0.1837  0.4898
 8423SOL    HW136905   1.471   1.260   3.184  0.7046 -2.1103 -0.4592
 8423SOL    HW236906   1.377   1.142   3.177 -3.6519  0.2423  2.8352
 8424SOL     OW36907   4.361   3.008   2.837  0.5421  0.3881  0.1127
 8424SOL    HW136908   4.381   2.929   2.888 -0.5410 -0.9310 -1.5072
 8424SOL    HW236909   4.382   3.081   2.896  1.0835  0.9406 -0.7785
 8425SOL     OW36910   1.043   2.159   1.707 -0.2967  0.2399  0.0248
 8425SOL    HW136911   0.978   2.225   1.732 -0.8940 -0.6027  0.6866
 8425SOL    HW236912   1.097   2.139   1.783  0.6349 -0.3988 -0.8052
 8426SOL     OW36913   2.636   4.425  15.234  0.5187  0.0835  0.5732
 8426SOL    HW136914   2.699   4.417  15.162  0.0327  1.4543 -0.0111
 8426SOL    HW236915   2.688   4.434  15.314  0.1920  0.5549  0.7320
 8427SOL     OW36916   1.323   3.178   6.393  0.3587 -0.6308  0.7393
 8427SOL    HW136917   1.326   3.245   6.325 -0.3353 -1.8648 -0.5117
 8427SOL    HW236918   1.287   3.105   6.343  1.5519 -1.2647  0.8203
 8428SOL     OW36919   4.207   0.681   3.289  0.0482  0.4008  0.1450
 8428SOL    HW136920   4.123   0.709   3.254 -0.2141  0.2887  0.6946
 8428SOL    HW236921   4.175   0.620   3.356 -1.1783  0.8465 -0.0459
 8429SOL     OW36922   0.896   3.456  11.508  0.6634 -0.0130  0.1487
 8429SOL    HW136923   0.888   3.507  11.427 -1.4712 -0.3333  0.1515
 8429SOL    HW236924   0.975   3.485  11.553 -0.8040  2.1568  1.3004
 8430SOL     OW36925   4.484   2.366  16.614 -0.2439  0.2545 -0.0427
 8430SOL    HW136926   4.451   2.379  16.525 -3.0941 -0.0386  0.9637
 8430SOL    HW236927   4.579   2.365  16.603 -0.3389 -0.4892 -0.7848
 8431SOL     OW36928   2.304   2.536   3.435  0.0084 -0.1074  0.4052
 8431SOL    HW136929   2.223   2.566   3.393  0.0172 -1.7002 -0.7272
 8431SOL    HW236930   2.347   2.534   3.349  0.2405 -0.5939  0.5355
 8432SOL     OW36931   1.880   0.725   3.860  0.3960  0.0225  0.2315
 8432SOL    HW136932   1.895   0.639   3.901 -0.2417  0.0406  0.5064
 8432SOL    HW236933   1.841   0.694   3.778 -2.0232  2.1855  0.5532
 8433SOL     OW36934   3.019   0.248   8.103  0.0627 -0.3388 -0.1662
 8433SOL    HW136935   2.961   0.323   8.088 -0.8119 -1.0004 -0.0273
 8433SOL    HW236936   3.090   0.285   8.156 -0.9666  0.1053  0.9006
 8434SOL     OW36937   1.695   0.244   2.548 -0.0917 -0.6576  0.1335
 8434SOL    HW136938   1.641   0.224   2.472  0.4444 -1.7157  0.0317
 8434SOL    HW236939   1.684   0.169   2.607  0.3996 -2.8918 -2.6376
 8435SOL     OW36940   4.446   1.282   3.242 -0.2491  0.1600 -0.0358
 8435SOL    HW136941   4.372   1.296   3.184 -0.4594  3.3386  1.0286
 8435SOL    HW236942   4.519   1.304   3.185  0.9573 -3.3817  0.1226
 8436SOL     OW36943   2.559   4.684   6.224 -0.4581  0.5637 -0.0425
 8436SOL    HW136944   2.637   0.002   6.231 -0.5789  0.8085 -0.5338
 8436SOL    HW236945   2.586   4.636   6.146 -0.5382 -0.4255  0.5411
 8437SOL     OW36946   1.591   3.396   2.625  0.6188  0.2996 -0.1411
 8437SOL    HW136947   1.618   3.456   2.556 -0.1264 -1.8959 -2.3443
 8437SOL    HW236948   1.634   3.313   2.606  1.2771  0.1518  1.9729
 8438SOL     OW36949   4.155   0.059  10.371 -0.0998 -0.7585 -0.5864
 8438SOL    HW136950   4.088   4.727  10.361 -0.0344 -0.6755 -1.5589
 8438SOL    HW236951   4.130   0.125  10.307  0.1902  0.9815  1.1145
 8439SOL     OW36952   1.173   3.051   9.324 -0.1552  0.6781  0.0260
 8439SOL    HW136953   1.228   3.107   9.269 -0.2926 -0.5988 -1.3967
 8439SOL    HW236954   1.199   3.084   9.410  0.6677  0.4911 -0.1514
 8440SOL     OW36955   4.286   4.396   5.142 -0.4152  0.3639  0.0823
 8440SOL    HW136956   4.318   4.356   5.061 -0.5562  1.7078 -0.6454
 8440SOL    HW236957   4.237   4.320   5.174 -0.7625  0.3952 -0.3683
 8441SOL     OW36958   3.782   0.226   6.500 -0.3780 -0.1488  0.8065
 8441SOL    HW136959   3.840   0.264   6.434  0.3562 -3.0859 -0.2429
 8441SOL    HW236960   3.700   0.273   6.485  0.1412  0.6530  0.4501
 8442SOL     OW36961   1.934   1.455   8.486 -0.4817 -0.4293  0.0822
 8442SOL    HW136962   1.882   1.511   8.428  0.4371 -0.0181 -0.3579
 8442SOL    HW236963   2.019   1.498   8.472 -0.1365 -0.9897  0.4905
 8443SOL     OW36964   2.253   4.153   9.157 -0.2353  0.4531  0.6954
 8443SOL    HW136965   2.345   4.130   9.171 -0.1113  0.7536  0.3620
 8443SOL    HW236966   2.255   4.247   9.175  0.9905  0.2640  1.5755
 8444SOL     OW36967   0.292   0.270   7.390  0.3195  0.6336  0.6594
 8444SOL    HW136968   0.324   0.359   7.375 -0.9019  0.7538 -1.2504
 8444SOL    HW236969   0.356   0.235   7.452 -0.5209 -1.5800  0.2835
 8445SOL     OW36970   2.847   2.775  11.945 -0.0256  0.1387  0.3167
 8445SOL    HW136971   2.786   2.720  11.896  1.2914  0.2568 -1.4317
 8445SOL    HW236972   2.930   2.761  11.901 -0.3893 -1.5149  0.1469
 8446SOL     OW36973   3.375   2.721   9.673 -0.3857 -0.0779 -1.5247
 8446SOL    HW136974   3.384   2.816   9.672 -0.3311 -0.0513  0.8884
 8446SOL    HW236975   3.378   2.694   9.765 -2.0671 -1.4709 -1.8824
 8447SOL     OW36976   1.615   3.348   2.945  0.4060 -0.2852 -0.1986
 8447SOL    HW136977   1.570   3.266   2.925  0.0170 -0.4354  1.3039
 8447SOL    HW236978   1.623   3.390   2.859 -2.0759 -0.0412 -0.3001
 8448SOL     OW36979   1.314   4.324   4.659  0.1771  0.0675 -0.0567
 8448SOL    HW136980   1.237   4.361   4.616  0.5029  1.0044  0.1552
 8448SOL    HW236981   1.372   4.343   4.586 -0.6237  0.9225 -0.4680
 8449SOL     OW36982   3.724   3.318   8.546 -0.0643  0.2560 -0.0191
 8449SOL    HW136983   3.655   3.319   8.612 -0.8062 -2.7708 -0.7218
 8449SOL    HW236984   3.785   3.259   8.590 -0.5677 -0.1596  0.1384
 8450SOL     OW36985   3.851   0.384   6.910 -0.0398  0.5170  0.4328
 8450SOL    HW136986   3.791   0.372   6.984 -2.7225 -0.4945 -1.8937
 8450SOL    HW236987   3.936   0.353   6.940  0.4116  0.6169 -0.7453
 8451SOL     OW36988   0.725   1.108  14.640  0.0995  0.1002  0.1236
 8451SOL    HW136989   0.797   1.168  14.660  1.1151 -1.3069  0.6476
 8451SOL    HW236990   0.697   1.147  14.557 -2.5562  3.0062  2.3962
 8452SOL     OW36991   3.946   1.055   4.179  0.1076 -0.1834  0.4663
 8452SOL    HW136992   3.873   1.103   4.142  0.5093  1.0837  1.3226
 8452SOL    HW236993   4.008   1.066   4.107  0.6504 -0.8634  0.8224
 8453SOL     OW36994   3.303   2.431   5.744  0.3574 -0.1857  0.1170
 8453SOL    HW136995   3.318   2.476   5.827 -1.1884 -0.6382  0.6315
 8453SOL    HW236996   3.362   2.357   5.762 -0.0847 -0.7993 -0.9352
 8454SOL     OW36997   2.943   0.166   2.450 -0.2951 -0.2548  0.3182
 8454SOL    HW136998   2.892   0.110   2.393 -0.6321 -1.1853  1.5296
 8454SOL    HW236999   2.871   0.197   2.505  0.7174  0.3399  1.3151
 8455SOL     OW37000   0.864   3.472   4.021  0.1527  0.4705  0.8294
 8455SOL    HW137001   0.858   3.535   3.949 -0.7543 -0.6671 -0.0824
 8455SOL    HW237002   0.887   3.396   3.968 -1.4479  0.6116 -0.0460
 8456SOL     OW37003   1.233   2.773   0.454  0.2461  1.1887 -0.3102
 8456SOL    HW137004   1.185   2.805   0.377 -0.9991 -2.5645 -1.0828
 8456SOL    HW237005   1.267   2.853   0.494 -0.3018  1.3401 -0.1393
 8457SOL     OW37006   0.712   0.603   2.608  0.5448 -0.3698 -0.3288
 8457SOL    HW137007   0.766   0.525   2.596  0.9447 -0.7210  3.7083
 8457SOL    HW237008   0.751   0.642   2.686  0.5446 -1.7684  0.3757
 8458SOL     OW37009   1.853   1.872   0.365 -0.6910 -0.0534 -0.0027
 8458SOL    HW137010   1.835   1.808   0.297 -1.1790 -1.4596  1.4666
 8458SOL    HW237011   1.888   1.808   0.427  2.4618  0.3930 -1.3609
 8459SOL     OW37012   0.587   4.687  14.163  0.3909 -0.1709  0.1732
 8459SOL    HW137013   0.666   4.731  14.193  0.7901 -0.6145 -0.2514
 8459SOL    HW237014   0.593   4.669  14.070 -0.9514 -1.2501  0.2973
 8460SOL     OW37015   1.307   2.593   8.929  0.5008 -0.0859 -0.0381
 8460SOL    HW137016   1.340   2.645   8.856  0.4933 -1.6213 -1.1260
 8460SOL    HW237017   1.253   2.524   8.892  1.6472 -0.9128 -0.1622
 8461SOL     OW37018   2.938   4.509   9.163  0.1646  0.3871  0.9639
 8461SOL    HW137019   2.940   4.594   9.206  1.9589  0.8650 -0.0821
 8461SOL    HW237020   2.938   4.466   9.248 -1.9012  0.2963  0.9238
 8462SOL     OW37021   1.776   1.326   5.866  0.2815 -0.1067 -0.7855
 8462SOL    HW137022   1.830   1.405   5.875  0.7601 -0.5529  0.2723
 8462SOL    HW237023   1.735   1.320   5.953  1.5324  2.1327 -0.0341
 8463SOL     OW37024   0.332   1.328  11.588  0.4400 -0.1860  0.3508
 8463SOL    HW137025   0.296   1.240  11.572 -0.9983  0.0428  2.5100
 8463SOL    HW237026   0.259   1.369  11.633  2.4071  1.7542  1.7615
 8464SOL     OW37027   3.574   2.510   6.418 -0.2736  0.3268  0.0427
 8464SOL    HW137028   3.558   2.459   6.338  1.4125  0.1783 -0.1991
 8464SOL    HW237029   3.559   2.442   6.484 -1.3253  1.1430  0.6440
 8465SOL     OW37030   3.732   0.096   2.923  0.3356 -0.4245  0.2061
 8465SOL    HW137031   3.766   0.116   2.835  0.9350  1.4505  0.8597
 8465SOL    HW237032   3.641   0.127   2.920  1.2798  2.2281 -1.1831
 8466SOL     OW37033   3.908   3.468   7.335  0.5987  0.1843 -0.3146
 8466SOL    HW137034   3.832   3.439   7.386  0.2945  0.3283 -0.6867
 8466SOL    HW237035   3.870   3.554   7.316 -1.0229 -0.1577  1.3668
 8467SOL     OW37036   3.250   2.033   8.410 -0.0439  0.4067 -0.6448
 8467SOL    HW137037   3.240   1.938   8.421 -2.2826  0.6814 -0.2940
 8467SOL    HW237038   3.337   2.044   8.373  0.4141  0.3972  0.4331
 8468SOL     OW37039   2.935   0.560   6.750 -0.5019 -0.2216  0.0491
 8468SOL    HW137040   2.975   0.533   6.833  0.9349  2.5563  0.2564
 8468SOL    HW237041   2.992   0.635   6.731  0.9309 -1.5493 -0.9130
 8469SOL     OW37042   1.295   1.911   6.401 -0.2968  0.0815  0.1035
 8469SOL    HW137043   1.334   1.843   6.345  1.7957  0.5864  0.9264
 8469SOL    HW237044   1.331   1.877   6.483  0.1024  1.7034  0.5993
 8470SOL     OW37045   2.377   4.104   8.723 -0.3508  0.1258 -0.8365
 8470SOL    HW137046   2.316   4.032   8.739 -0.7218  0.5965 -0.1113
 8470SOL    HW237047   2.440   4.090   8.794 -0.1078  0.7426 -0.9284
 8471SOL     OW37048   3.402   3.165   2.414 -0.2929  0.0114  0.1615
 8471SOL    HW137049   3.348   3.234   2.453 -0.8989 -0.0720 -0.5420
 8471SOL    HW237050   3.360   3.093   2.461  0.2483  0.3080  1.1022
 8472SOL     OW37051   0.932   0.880  14.094  0.8209  0.3860  0.0636
 8472SOL    HW137052   0.919   0.883  13.999  2.7512  2.7202 -0.1351
 8472SOL    HW237053   0.858   0.935  14.120 -0.0552 -0.2027 -1.1853
 8473SOL     OW37054   4.157   4.270   8.996  0.6889  0.0326 -0.6417
 8473SOL    HW137055   4.180   4.362   8.983 -0.2783  0.2387 -0.9181
 8473SOL    HW237056   4.246   4.234   8.999  0.4207 -0.5290  0.4644
 8474SOL     OW37057   0.685   0.618   8.847  0.0329  0.2515 -0.0961
 8474SOL    HW137058   0.601   0.639   8.806  0.5580  1.5974 -0.5026
 8474SOL    HW237059   0.736   0.698   8.832 -0.7572  0.6377 -0.7718
 8475SOL     OW37060   3.127   1.094   6.906  0.1350 -0.5943 -0.1844
 8475SOL    HW137061   3.047   1.056   6.870  0.0738 -0.6055 -0.0376
 8475SOL    HW237062   3.097   1.176   6.944 -1.9172 -1.6112  0.4082
 8476SOL     OW37063   2.520   4.437   1.063  0.0332 -0.6684  0.0225
 8476SOL    HW137064   2.498   4.461   0.973 -0.2090 -0.3878  0.1575
 8476SOL    HW237065   2.506   4.343   1.049 -1.2933 -0.9073  2.9217
 8477SOL     OW37066   0.550   1.176   7.140  0.1358  0.4422 -0.0458
 8477SOL    HW137067   0.547   1.082   7.121  0.5448  0.5720 -0.7264
 8477SOL    HW237068   0.491   1.166   7.215  0.2996 -0.9530 -0.1043
 8478SOL     OW37069   3.397   2.977   9.549  0.3336 -0.3487  0.2767
 8478SOL    HW137070   3.345   3.015   9.620  0.0030 -0.2694 -0.0098
 8478SOL    HW237071   3.468   3.041   9.540  1.4007 -1.4516  0.6980
 8479SOL     OW37072   3.757   1.640   2.826 -0.4099 -0.1046 -0.1085
 8479SOL    HW137073   3.797   1.638   2.913  1.3925 -0.0404 -0.9465
 8479SOL    HW237074   3.825   1.680   2.773  0.8446  0.6847  2.1056
 8480SOL     OW37075   3.459   3.455   8.495  0.2802  0.6765 -0.1616
 8480SOL    HW137076   3.462   3.548   8.516 -1.7163  0.5273  0.7947
 8480SOL    HW237077   3.489   3.430   8.583 -0.7727 -0.5131 -0.1430
 8481SOL     OW37078   0.905   0.864  15.773 -0.0041 -0.1491  0.4505
 8481SOL    HW137079   0.858   0.850  15.691 -0.8613  1.2722  0.6976
 8481SOL    HW237080   0.929   0.956  15.783  0.6100 -0.3633  0.9317
 8482SOL     OW37081   3.176   4.688   8.480  0.5820  0.3595 -0.0294
 8482SOL    HW137082   3.092   4.722   8.451  0.6405 -0.6384 -1.3510
 8482SOL    HW237083   3.235   0.014   8.438 -0.9950  1.8272 -0.0895
 8483SOL     OW37084   3.833   0.891   8.903 -0.2472 -0.5725  0.0817
 8483SOL    HW137085   3.822   0.805   8.943  3.5452  0.1414  2.6471
 8483SOL    HW237086   3.912   0.873   8.852 -0.9549 -1.5931 -0.6542
 8484SOL     OW37087   1.015   3.077  12.354  0.5524 -0.4705 -0.3894
 8484SOL    HW137088   0.931   3.071  12.308  0.9638 -1.6179 -0.9755
 8484SOL    HW237089   0.991   3.035  12.437  1.0016 -0.8988 -0.4821
 8485SOL     OW37090   2.496   4.382   4.965  0.4762 -0.7498  0.5211
 8485SOL    HW137091   2.526   4.396   5.055  0.1188 -2.3039  0.8770
 8485SOL    HW237092   2.573   4.420   4.922 -1.8512  1.2525 -1.8871
 8486SOL     OW37093   2.494   0.235   1.894  0.6362  0.0331 -0.0299
 8486SOL    HW137094   2.500   0.264   1.985  2.0780  2.0191 -0.7610
 8486SOL    HW237095   2.405   0.267   1.881  0.9611  1.1603  0.5485
 8487SOL     OW37096   1.051   4.675   7.223  0.1109  0.9774  0.0288
 8487SOL    HW137097   0.999   4.693   7.302  2.1219  1.5618  1.1998
 8487SOL    HW237098   1.127   4.732   7.227  0.9593 -0.2100  0.7471
 8488SOL     OW37099   1.190   1.703   3.207  0.1505  1.0461  0.0518
 8488SOL    HW137100   1.113   1.646   3.209  1.5870 -0.8099  2.6125
 8488SOL    HW237101   1.253   1.634   3.227 -0.1166  1.0982  1.0806
 8489SOL     OW37102   3.124   4.582   0.398 -0.7189  0.1740 -0.8810
 8489SOL    HW137103   3.049   4.524   0.408  0.4344 -1.0716  0.5696
 8489SOL    HW237104   3.077   4.660   0.370 -0.5562  0.1636 -1.1842
 8490SOL     OW37105   2.604   0.631  16.404 -0.1141 -0.2846  0.0878
 8490SOL    HW137106   2.688   0.670  16.379  1.3375 -2.2639  1.8525
 8490SOL    HW237107   2.635   0.581  16.480  0.3821  0.3735  0.3240
 8491SOL     OW37108   3.239   1.883   2.186  0.4611  0.0289  0.2931
 8491SOL    HW137109   3.255   1.892   2.280 -2.4121 -1.2992  0.9144
 8491SOL    HW237110   3.223   1.972   2.154  1.1213 -0.3018 -0.9913
 8492SOL     OW37111   1.547   1.287   6.420  0.5957 -0.0349 -0.0174
 8492SOL    HW137112   1.607   1.359   6.440  1.2474 -1.3188  2.7360
 8492SOL    HW237113   1.488   1.287   6.495 -0.0385  0.0935 -0.5278
 8493SOL     OW37114   0.884   3.208   8.526 -0.5948 -0.3099  0.3968
 8493SOL    HW137115   0.905   3.299   8.546 -1.0600 -0.3563  1.1245
 8493SOL    HW237116   0.789   3.213   8.529 -0.6658 -2.0440  0.9229
 8494SOL     OW37117   3.680   1.732   3.594 -0.5575  0.3605 -0.5997
 8494SOL    HW137118   3.762   1.766   3.630 -0.4623 -0.2777 -0.1973
 8494SOL    HW237119   3.703   1.758   3.505 -0.6076 -0.6350 -0.9032
 8495SOL     OW37120   1.332   4.120   2.246 -0.1880 -0.2046 -0.3355
 8495SOL    HW137121   1.286   4.183   2.190  0.6906  0.4337 -0.3329
 8495SOL    HW237122   1.316   4.041   2.194 -3.2980  0.7840 -0.9139
 8496SOL     OW37123   4.549   0.022   4.208 -0.1427  0.1923  0.0364
 8496SOL    HW137124   4.494   4.688   4.243  0.4738  0.3057  1.2150
 8496SOL    HW237125   4.488   0.095   4.222 -1.4483 -1.0712  1.0242
 8497SOL     OW37126   0.191   0.871   8.039  0.0156  0.1365 -0.1387
 8497SOL    HW137127   0.240   0.802   8.084  0.0686 -0.5371 -1.2394
 8497SOL    HW237128   0.220   0.854   7.950 -2.0342  1.6913 -1.1064
 8498SOL     OW37129   1.466   2.128   5.073 -0.2787 -0.2343 -0.7030
 8498SOL    HW137130   1.492   2.193   5.008  2.5057 -0.3260  0.3226
 8498SOL    HW237131   1.548   2.110   5.119 -0.5272 -0.1718 -0.2245
 8499SOL     OW37132   1.501   1.380   5.115 -0.4482 -0.4596  0.0068
 8499SOL    HW137133   1.578   1.329   5.140 -0.7962 -0.1935  1.5985
 8499SOL    HW237134   1.452   1.335   5.046  0.0823 -0.4562 -0.3706
 8500SOL     OW37135   2.292   2.578   1.478  0.2893  0.4319 -0.4449
 8500SOL    HW137136   2.265   2.547   1.391 -2.4080 -1.5135  1.0909
 8500SOL    HW237137   2.385   2.593   1.459  0.7005 -1.1466  0.3112
 8501SOL     OW37138   3.454   2.215   5.801 -0.0598  0.4334 -0.5753
 8501SOL    HW137139   3.429   2.180   5.887  0.1527  0.0808 -0.6576
 8501SOL    HW237140   3.549   2.208   5.798 -0.0681  0.9103 -1.7266
 8502SOL     OW37141   0.623   2.856   9.890  0.4339 -0.1365  0.1173
 8502SOL    HW137142   0.650   2.868   9.799  0.2168 -0.4063  0.0189
 8502SOL    HW237143   0.686   2.792   9.923 -1.0953 -2.4511 -1.5340
 8503SOL     OW37144   3.267   0.422   3.127 -0.2515 -0.0419 -0.0025
 8503SOL    HW137145   3.275   0.509   3.089  2.7474 -1.8354 -3.4502
 8503SOL    HW237146   3.186   0.428   3.178  0.2044  0.8900  0.6169
 8504SOL     OW37147   3.488   2.827   4.280 -0.3051  0.0586  0.8170
 8504SOL    HW137148   3.419   2.791   4.224 -0.4652  0.8848  0.4917
 8504SOL    HW237149   3.437   2.887   4.334  1.2581 -0.3262  2.7244
 8505SOL     OW37150   0.554   1.848   6.302  0.1857  0.2979  0.2277
 8505SOL    HW137151   0.567   1.790   6.227  0.5373 -2.3484  2.3024
 8505SOL    HW237152   0.608   1.920   6.269 -1.6776  0.9018 -1.4573
 8506SOL     OW37153   1.281   4.567   9.508 -0.6021  0.0954  0.0045
 8506SOL    HW137154   1.371   4.586   9.482 -0.6814  1.0145  0.3826
 8506SOL    HW237155   1.278   4.473   9.522 -0.9324  0.1432  0.2547
 8507SOL     OW37156   0.407   1.008  15.585 -0.2065  0.2677  0.2840
 8507SOL    HW137157   0.461   1.006  15.664 -0.1213 -2.1561  0.1566
 8507SOL    HW237158   0.472   1.035  15.520  0.1367 -2.7478 -0.6316
 8508SOL     OW37159   0.386   0.727   0.384  0.1407 -0.5988  0.0336
 8508SOL    HW137160   0.426   0.765   0.306 -1.0134 -0.7400 -0.6356
 8508SOL    HW237161   0.309   0.687   0.343  1.1260  0.0807 -2.4251
 8509SOL     OW37162   2.926   2.298  17.673 -0.4998  0.1280  0.0227
 8509SOL    HW137163   2.847   2.246  17.692  0.1366 -0.5679  0.7755
 8509SOL    HW237164   2.951   2.328   0.018 -1.3302 -0.6763  0.5447
 8510SOL     OW37165   0.414   3.568   7.777 -0.6490  0.1088 -0.4254
 8510SOL    HW137166   0.344   3.631   7.757 -0.3066  2.1749  4.6308
 8510SOL    HW237167   0.365   3.487   7.788  0.7492 -0.4450  1.6759
 8511SOL     OW37168   2.680   0.036   8.386 -0.5511  0.6803  0.2784
 8511SOL    HW137169   2.639   0.009   8.305  1.6328 -0.0525 -0.5918
 8511SOL    HW237170   2.605   0.075   8.430 -0.2723 -0.1996  1.5563
 8512SOL     OW37171   1.235   0.843   9.287 -0.0397 -0.2944 -0.1691
 8512SOL    HW137172   1.313   0.832   9.232 -0.3401  2.3221 -1.1142
 8512SOL    HW237173   1.169   0.784   9.251 -0.2987 -2.0427  3.0738
 8513SOL     OW37174   3.090   4.389   3.818 -0.4439  0.1068 -0.0009
 8513SOL    HW137175   3.151   4.317   3.833  0.1225  0.6396  0.2742
 8513SOL    HW237176   3.131   4.470   3.849  2.7464 -0.5693 -2.4858
 8514SOL     OW37177   1.191   0.140   5.004 -0.9520  0.1888  0.1000
 8514SOL    HW137178   1.214   0.139   5.097 -1.6640  0.6832  0.2801
 8514SOL    HW237179   1.105   0.098   5.003 -0.2395 -1.3269  1.1925
 8515SOL     OW37180   0.323   4.330   3.390  0.3855 -0.0655 -0.2012
 8515SOL    HW137181   0.359   4.405   3.438 -3.7544  1.9779 -0.2917
 8515SOL    HW237182   0.230   4.351   3.378  0.4237  0.3571  0.2419
 8516SOL     OW37183   2.190   3.913  16.009 -0.0075  0.2504 -0.1391
 8516SOL    HW137184   2.191   3.824  15.973 -1.0039 -0.6315  1.9462
 8516SOL    HW237185   2.278   3.920  16.044  0.0357  0.1623 -0.2306
 8517SOL     OW37186   4.712   2.837   5.284 -0.5635  0.3545 -0.1253
 8517SOL    HW137187   4.704   2.874   5.372  0.1006 -0.4791  0.2891
 8517SOL    HW237188   0.069   2.856   5.266 -1.0225  1.5197 -1.2636
 8518SOL     OW37189   3.728   2.276   5.856  0.3800  0.4651 -0.3726
 8518SOL    HW137190   3.813   2.294   5.897  0.2983 -1.4656  0.6304
 8518SOL    HW237191   3.752   2.196   5.810 -0.6957  0.2551 -0.5532
 8519SOL     OW37192   1.108   4.362   4.486 -0.4503 -0.2956  0.3107
 8519SOL    HW137193   1.050   4.291   4.514  0.1364 -1.1911 -0.7015
 8519SOL    HW237194   1.158   4.318   4.417 -1.7994 -0.3549 -0.6337
 8520SOL     OW37195   2.315   3.594  16.129  0.0492 -0.4763 -0.1218
 8520SOL    HW137196   2.379   3.524  16.121 -0.1723 -0.8800  1.6695
 8520SOL    HW237197   2.260   3.587  16.051 -1.1866 -0.3485  0.7277
 8521SOL     OW37198   0.590   4.674   2.996 -0.2269 -0.0415 -0.1760
 8521SOL    HW137199   0.642   4.648   3.072 -0.4766  0.3612  0.1298
 8521SOL    HW237200   0.597   0.033   3.000  1.7280 -0.1601 -0.6980
 8522SOL     OW37201   1.723   4.660  16.531  0.1839  0.6387  0.1151
 8522SOL    HW137202   1.729   4.650  16.436 -0.2568  0.7108  0.0787
 8522SOL    HW237203   1.804   4.619  16.561  0.5448  1.1126 -0.2183
 8523SOL     OW37204   3.418   1.375   4.295  0.0924  0.2739  0.1477
 8523SOL    HW137205   3.383   1.417   4.217 -0.8166  0.3331  0.5898
 8523SOL    HW237206   3.513   1.382   4.283  0.1026  0.1260  0.1442
 8524SOL     OW37207   2.485   3.512   0.425  0.1500 -0.3779  0.5156
 8524SOL    HW137208   2.430   3.555   0.360  1.3743  0.4386  0.0236
 8524SOL    HW237209   2.517   3.444   0.366 -0.4718 -0.2272  0.0067
 8525SOL     OW37210   2.502   0.944   3.438  0.0813 -0.1732  0.1915
 8525SOL    HW137211   2.453   0.978   3.363 -2.3533 -0.1167  1.8004
 8525SOL    HW237212   2.497   0.850   3.424  0.5316 -0.3829  1.4522
 8526SOL     OW37213   0.894   0.013   8.315 -0.4563 -0.6182  0.0093
 8526SOL    HW137214   0.801   4.736   8.295 -0.0665 -2.8301 -0.3508
 8526SOL    HW237215   0.925   4.660   8.331 -1.0734 -0.5238  1.6517
 8527SOL     OW37216   3.491   4.456   4.185 -0.3931  0.3328  0.5648
 8527SOL    HW137217   3.425   4.391   4.162  0.8872 -0.7517 -0.0163
 8527SOL    HW237218   3.438   4.536   4.181  2.0512  2.0365  1.8979
 8528SOL     OW37219   3.393   2.707   2.557  0.2454 -0.7805  0.3716
 8528SOL    HW137220   3.458   2.646   2.521 -2.3259 -2.3199 -1.6225
 8528SOL    HW237221   3.321   2.644   2.563 -0.5858 -0.0407 -2.0051
 8529SOL     OW37222   3.523   1.486  16.103  0.3827 -0.0984  0.2888
 8529SOL    HW137223   3.566   1.511  16.185  0.5339 -0.3009  0.2685
 8529SOL    HW237224   3.585   1.420  16.074  1.0152  1.6770 -2.4351
 8530SOL     OW37225   1.128   3.229   0.854  0.0970  0.2579 -0.0223
 8530SOL    HW137226   1.204   3.171   0.856  0.6167  0.9818  1.0800
 8530SOL    HW237227   1.147   3.277   0.774  0.2398  4.5369  2.5541
 8531SOL     OW37228   1.713   2.520   3.826  0.1550  0.0339 -0.0521
 8531SOL    HW137229   1.677   2.609   3.833  2.2690  0.9366 -0.8888
 8531SOL    HW237230   1.801   2.543   3.855  0.5799 -2.1656  0.3500
 8532SOL     OW37231   0.486   2.339   6.012 -0.2168 -0.3490 -0.3595
 8532SOL    HW137232   0.446   2.407   6.067 -1.5323 -1.8476  0.5271
 8532SOL    HW237233   0.448   2.348   5.925  1.4598  0.9555 -0.9618
 8533SOL     OW37234   0.216   2.410  11.638  0.1389  0.2270  0.0376
 8533SOL    HW137235   0.205   2.321  11.605 -0.4503  0.1118  0.5248
 8533SOL    HW237236   0.185   2.457  11.561  0.1398 -1.6388 -1.0906
 8534SOL     OW37237   2.381   4.411   9.257 -0.6628 -0.0488  0.1191
 8534SOL    HW137238   2.458   4.455   9.220 -0.0289 -0.2279  1.2389
 8534SOL    HW237239   2.421   4.338   9.304  1.4091  1.9763  1.4883
 8535SOL     OW37240   1.716   2.323   4.703  0.2451  0.4640  0.1080
 8535SOL    HW137241   1.805   2.310   4.668 -0.4392  0.0915 -1.4942
 8535SOL    HW237242   1.733   2.309   4.796  0.8594  2.6079  0.3344
 8536SOL     OW37243   1.454   2.555   3.309 -0.1334 -0.4733 -0.6867
 8536SOL    HW137244   1.389   2.555   3.380  0.0277  0.1146 -0.5399
 8536SOL    HW237245   1.508   2.481   3.336  1.9075  0.8299 -1.1867
 8537SOL     OW37246   2.934   2.152   5.307  0.0802 -0.0024  0.1991
 8537SOL    HW137247   2.937   2.244   5.334  1.6270  0.1714 -0.5484
 8537SOL    HW237248   3.025   2.124   5.316 -0.0980 -0.9618 -1.1073
 8538SOL     OW37249   4.691   0.298  15.588  0.4428 -0.5419 -0.1904
 8538SOL    HW137250   4.671   0.389  15.610  0.4752 -0.5184 -0.2603
 8538SOL    HW237251   4.614   0.272  15.538  0.3901  2.2618 -1.5235
 8539SOL     OW37252   1.871   4.278   8.542  0.3539  0.0827  0.0987
 8539SOL    HW137253   1.800   4.316   8.490  0.5159  0.0256 -0.1617
 8539SOL    HW237254   1.948   4.327   8.512  0.6999 -1.0801 -0.9324
 8540SOL     OW37255   1.138   0.236  15.993  0.2745  0.4899  0.2113
 8540SOL    HW137256   1.171   0.277  15.913 -0.4559  0.4618 -0.1031
 8540SOL    HW237257   1.062   0.291  16.011 -0.9361 -0.9653 -0.3882
 8541SOL     OW37258   3.607   3.282   5.352 -0.2284  0.4607  0.3415
 8541SOL    HW137259   3.647   3.366   5.328  0.0512  0.0573 -0.5885
 8541SOL    HW237260   3.630   3.282   5.445  2.9462 -2.0844 -0.4633
 8542SOL     OW37261   4.065   1.243  17.697  0.7235  0.6655  0.0270
 8542SOL    HW137262   4.126   1.315  17.681  1.8337  0.1543  1.9125
 8542SOL    HW237263   4.063   1.250   0.049 -1.7828  0.1211 -0.0010
 8543SOL     OW37264   0.124   1.783   6.055  0.4790  0.4347 -0.2420
 8543SOL    HW137265   0.198   1.814   6.106  0.1574 -0.3194  0.6776
 8543SOL    HW237266   0.128   1.694   6.091 -1.5891 -0.2126 -1.5935
 8544SOL     OW37267   1.005   3.916   3.629  0.1599 -0.0908 -0.5557
 8544SOL    HW137268   0.989   3.999   3.674  0.7150  0.6447 -1.6919
 8544SOL    HW237269   1.100   3.906   3.634  0.2043  0.2354 -0.7371
 8545SOL     OW37270   3.864   0.116   3.623 -0.4716  0.5457 -0.6179
 8545SOL    HW137271   3.800   0.101   3.553 -0.2852 -0.2156 -0.6185
 8545SOL    HW237272   3.829   0.075   3.702 -2.8397  2.6359 -0.5878
 8546SOL     OW37273   2.225   2.314   3.557 -0.2872  0.1032 -0.0966
 8546SOL    HW137274   2.261   2.319   3.645  0.4786 -1.0233 -0.3516
 8546SOL    HW237275   2.247   2.398   3.518 -0.8225  0.5335  0.5160
 8547SOL     OW37276   1.406   2.815   5.873 -0.3426 -0.6806  0.0306
 8547SOL    HW137277   1.412   2.876   5.800 -2.7162 -0.2544  0.1682
 8547SOL    HW237278   1.460   2.745   5.838 -0.0029  0.0364 -0.8875
 8548SOL     OW37279   0.376   2.036   6.441 -0.1990 -0.4214 -0.1914
 8548SOL    HW137280   0.437   1.971   6.476  0.5191 -0.0173 -0.7001
 8548SOL    HW237281   0.418   2.039   6.355  3.2682 -0.2115  1.4982
 8549SOL     OW37282   4.226   0.678  11.909  0.0421  0.0582  0.5942
 8549SOL    HW137283   4.145   0.674  11.960  0.7905 -1.3202  1.6679
 8549SOL    HW237284   4.269   0.750  11.955 -0.8347  1.2168 -0.3978
 8550SOL     OW37285   1.325   0.660   4.139  0.9715 -0.0472  0.0450
 8550SOL    HW137286   1.284   0.705   4.065 -0.1533  1.6713  1.7269
 8550SOL    HW237287   1.252   0.608   4.172  1.6594 -2.0509 -1.6224
 8551SOL     OW37288   2.939   3.600   5.375  0.1427  0.5564 -0.3546
 8551SOL    HW137289   2.933   3.595   5.470 -1.9418  1.1815 -0.4316
 8551SOL    HW237290   2.854   3.560   5.355 -0.3933  1.1682  0.7017
 8552SOL     OW37291   3.042   2.587   5.894 -0.5218 -0.2379 -0.0994
 8552SOL    HW137292   3.097   2.662   5.870  0.0041 -0.8185 -0.6921
 8552SOL    HW237293   3.062   2.533   5.818  1.5604 -0.8285  0.8599
 8553SOL     OW37294   3.864   3.555   4.700 -0.0230 -0.1810  0.0092
 8553SOL    HW137295   3.801   3.587   4.766 -0.9758 -0.1216 -0.9289
 8553SOL    HW237296   3.950   3.569   4.739 -1.1768 -0.4515  2.6717
 8554SOL     OW37297   0.843   3.781   3.205 -0.1369  0.5125  0.3044
 8554SOL    HW137298   0.848   3.853   3.143  1.3096 -1.6387 -2.0844
 8554SOL    HW237299   0.810   3.826   3.283  0.9355  0.5759  0.7158
 8555SOL     OW37300   2.401   0.863  10.014  0.1110  0.1223 -0.0971
 8555SOL    HW137301   2.389   0.864  10.109 -1.0529 -1.1788 -0.2409
 8555SOL    HW237302   2.461   0.790  10.003  1.2022  0.6896  1.9107
 8556SOL     OW37303   2.124   2.713   2.280 -0.4107  0.0803  0.2392
 8556SOL    HW137304   2.180   2.773   2.331  0.4567 -0.3585 -0.1973
 8556SOL    HW237305   2.095   2.770   2.209  0.6930 -1.3198 -1.3300
 8557SOL     OW37306   0.840   3.730   6.497  0.2620 -0.2469  0.0859
 8557SOL    HW137307   0.886   3.786   6.560  2.1469 -1.0923 -0.5393
 8557SOL    HW237308   0.918   3.681   6.470  0.1474  0.7793 -2.1334
 8558SOL     OW37309   0.033   3.291   0.090 -0.2125 -0.5303  0.0568
 8558SOL    HW137310   0.043   3.349   0.015 -0.5271 -3.1450 -2.0369
 8558SOL    HW237311   4.680   3.260   0.073 -1.1949  1.6283  1.3131
 8559SOL     OW37312   1.428   1.939   6.106 -0.7583 -0.6967 -0.2540
 8559SOL    HW137313   1.412   1.865   6.164  0.8161  0.4998  1.7218
 8559SOL    HW237314   1.431   1.891   6.023  0.0931 -4.5914  2.0634
 8560SOL     OW37315   1.635   1.389   3.589  0.1790  0.0394 -0.0679
 8560SOL    HW137316   1.708   1.353   3.539  1.3122 -1.2400  2.4744
 8560SOL    HW237317   1.684   1.405   3.670  1.0007 -1.3353 -0.3017
 8561SOL     OW37318   4.640   0.457  15.838 -0.5524 -0.0776 -0.5999
 8561SOL    HW137319   4.686   0.524  15.787  0.7146 -1.4995 -1.2959
 8561SOL    HW237320   4.694   0.471  15.915 -1.4326  0.8933 -0.1546
 8562SOL     OW37321   3.691   1.549   8.273  0.2507  0.3529  0.2648
 8562SOL    HW137322   3.783   1.572   8.287  0.6416 -0.6599 -0.6314
 8562SOL    HW237323   3.702   1.459   8.243 -0.7278 -0.1653  1.4966
 8563SOL     OW37324   0.744   2.003   6.194  0.4068 -0.8890  0.2036
 8563SOL    HW137325   0.736   2.088   6.150 -1.6665 -0.3746  1.5982
 8563SOL    HW237326   0.784   1.952   6.124 -2.1979  0.1556 -2.0214
 8564SOL     OW37327   0.105   3.451   4.759  0.3460  0.6374  0.1667
 8564SOL    HW137328   0.052   3.388   4.808 -1.0399  1.2902 -0.5025
 8564SOL    HW237329   0.176   3.449   4.824  0.7817  0.2591 -0.3194
 8565SOL     OW37330   1.657   3.074   6.758 -0.3921 -0.2353 -0.1561
 8565SOL    HW137331   1.626   3.055   6.847  1.0563 -1.7576  0.0249
 8565SOL    HW237332   1.697   3.159   6.775  0.5792 -0.7134 -0.0177
 8566SOL     OW37333   0.648   3.823   5.272  0.0326  0.3580  0.6055
 8566SOL    HW137334   0.656   3.777   5.355 -0.5628 -1.8337 -0.5504
 8566SOL    HW237335   0.559   3.858   5.279 -0.7662 -0.3870 -6.2218
 8567SOL     OW37336   1.984   3.465   1.760  0.4600  0.0230  0.0671
 8567SOL    HW137337   1.956   3.512   1.681  0.3975  3.2866  2.0518
 8567SOL    HW237338   1.936   3.503   1.833 -0.5029 -0.0071 -0.5388
 8568SOL     OW37339   4.333   2.755   8.918  0.1289  0.1298 -0.0622
 8568SOL    HW137340   4.292   2.723   8.838  0.6390  0.6259 -0.5266
 8568SOL    HW237341   4.249   2.744   8.963 -0.0443 -0.3041 -0.5025
 8569SOL     OW37342   0.444   1.460   0.008 -0.3731 -0.2004 -0.5248
 8569SOL    HW137343   0.350   1.454  17.737 -0.2177 -0.0770 -1.7411
 8569SOL    HW237344   0.458   1.541  17.701  1.6535 -0.2668 -0.0805
 8570SOL     OW37345   3.979   0.213  11.515 -0.2449 -0.1035  0.9047
 8570SOL    HW137346   4.073   0.217  11.537  0.2555 -0.0965 -1.3020
 8570SOL    HW237347   3.973   0.167  11.432  0.6470  0.8570  0.3126
 8571SOL     OW37348   1.357   2.079  12.245 -0.0891 -0.5579  0.3321
 8571SOL    HW137349   1.431   2.131  12.214  0.6818 -1.5888  0.4814
 8571SOL    HW237350   1.339   2.020  12.172 -0.2155  0.8660 -0.7941
 8572SOL     OW37351   0.248   2.890  15.140 -0.0217  0.4235  0.0683
 8572SOL    HW137352   0.290   2.879  15.225  1.7033  1.7065 -0.6426
 8572SOL    HW237353   0.321   2.928  15.092  0.6969  0.1138  0.9361
 8573SOL     OW37354   2.286   2.521   8.013 -0.1124 -0.8817  0.0531
 8573SOL    HW137355   2.323   2.467   7.943 -1.7843  0.5224 -1.9100
 8573SOL    HW237356   2.295   2.468   8.092  1.0305  3.2907  2.6971
 8574SOL     OW37357   3.239   3.388   1.226 -0.1005 -0.3144  0.1627
 8574SOL    HW137358   3.262   3.449   1.157  1.7304  2.5605  3.3350
 8574SOL    HW237359   3.317   3.392   1.281 -0.1500  0.9817  0.1163
 8575SOL     OW37360   1.869   3.793   4.938  0.3023  0.3556  0.0552
 8575SOL    HW137361   1.839   3.816   4.850 -0.1403 -0.4619 -0.0062
 8575SOL    HW237362   1.917   3.873   4.962  0.5847  0.4961 -0.9824
 8576SOL     OW37363   2.196   4.711   7.862  0.1427  0.2719 -0.4420
 8576SOL    HW137364   2.270   4.708   7.802  0.6379 -0.9512  0.2243
 8576SOL    HW237365   2.139   4.643   7.825  1.1665 -2.2414  2.5480
 8577SOL     OW37366   4.374   3.241   4.037  0.1332 -0.3489  0.6863
 8577SOL    HW137367   4.342   3.154   4.059 -1.1320  0.6377  2.8023
 8577SOL    HW237368   4.338   3.253   3.949 -0.5701  1.0141  1.1544
 8578SOL     OW37369   3.593   4.538   8.170 -0.4047  0.3210  0.0146
 8578SOL    HW137370   3.536   4.610   8.143 -0.0681  0.8035  0.5768
 8578SOL    HW237371   3.681   4.570   8.152  0.0062 -0.5845  0.4207
 8579SOL     OW37372   4.156   1.945   5.127  0.3349  0.4605  0.0238
 8579SOL    HW137373   4.081   1.942   5.187  0.2950  1.0101  0.0084
 8579SOL    HW237374   4.217   2.004   5.171  0.8855  0.2754 -0.5073
 8580SOL     OW37375   3.179   0.639   3.510 -0.1426 -0.3790  0.6573
 8580SOL    HW137376   3.243   0.574   3.482 -1.3352 -1.0557 -0.4952
 8580SOL    HW237377   3.232   0.684   3.576 -2.1883  0.4174  1.7576
 8581SOL     OW37378   1.593   0.145   2.314 -0.4174  0.0412 -0.1826
 8581SOL    HW137379   1.624   0.097   2.237  1.8391  1.1436  0.0420
 8581SOL    HW237380   1.533   0.080   2.352 -2.3374  1.5386 -0.6730
 8582SOL     OW37381   1.279   1.720  16.916  0.7820  0.2429  0.7353
 8582SOL    HW137382   1.336   1.643  16.924 -0.9401 -1.1058 -0.0061
 8582SOL    HW237383   1.295   1.742  16.824  1.6036 -0.7157  0.6415
 8583SOL     OW37384   4.081   4.417   7.088  0.0403  0.3361  0.8652
 8583SOL    HW137385   4.122   4.350   7.143  0.5375 -1.2276 -1.4074
 8583SOL    HW237386   4.153   4.480   7.090 -0.5178  1.0850 -3.0128
 8584SOL     OW37387   1.349   1.758   8.904  0.0176  0.3751  0.7172
 8584SOL    HW137388   1.372   1.802   8.822  0.1193  0.9574  1.0560
 8584SOL    HW237389   1.440   1.731   8.916  0.5454  0.0020 -4.0134
 8585SOL     OW37390   1.864   4.666  11.466  0.0419 -0.1075 -0.3130
 8585SOL    HW137391   1.886   4.709  11.384 -1.0405 -0.6431 -0.8854
 8585SOL    HW237392   1.924   4.591  11.466  0.5491  0.2991 -0.6922
 8586SOL     OW37393   4.183   4.650   6.863 -0.4473  0.0328 -0.2550
 8586SOL    HW137394   4.220   4.650   6.951 -0.5176  1.3620 -0.2227
 8586SOL    HW237395   4.241   4.713   6.821 -1.6375  0.1660 -1.6758
 8587SOL     OW37396   3.864   3.943   7.389 -0.3496 -0.2238 -0.5621
 8587SOL    HW137397   3.889   3.936   7.297 -0.0865  0.2336 -0.5221
 8587SOL    HW237398   3.933   4.003   7.416 -2.6972  1.5094  1.5641
 8588SOL     OW37399   0.471   0.965   3.255  0.2290  0.4727 -0.3526
 8588SOL    HW137400   0.559   0.997   3.233 -0.4644  3.1438  0.7647
 8588SOL    HW237401   0.444   1.030   3.320 -0.4477 -1.6010  1.4323
 8589SOL     OW37402   3.406   3.156   8.092  0.3014  0.2585  0.0105
 8589SOL    HW137403   3.375   3.238   8.054 -1.4924  0.4104  1.8045
 8589SOL    HW237404   3.420   3.185   8.182 -0.7650 -1.2879  0.6713
 8590SOL     OW37405   2.921   2.834   7.884 -0.0677  0.9131  0.6894
 8590SOL    HW137406   2.947   2.861   7.796  0.3638  0.6313  0.7295
 8590SOL    HW237407   3.007   2.827   7.924  0.6935  2.6645 -0.6318
 8591SOL     OW37408   4.394   2.588   2.993 -0.1978  0.1856  0.1090
 8591SOL    HW137409   4.424   2.501   2.967 -1.9025 -0.2868 -0.3229
 8591SOL    HW237410   4.343   2.605   2.914  1.1448 -2.2777 -1.2776
 8592SOL     OW37411   0.820   2.455  11.131 -0.1940  0.3415 -0.2430
 8592SOL    HW137412   0.792   2.529  11.077  1.3901 -0.0339 -1.5919
 8592SOL    HW237413   0.827   2.500  11.215 -0.6839  1.0764 -0.5898
 8593SOL     OW37414   4.655   0.794   1.515 -0.2365 -0.5526  0.1713
 8593SOL    HW137415   4.622   0.883   1.509 -0.4021 -0.7974 -2.6626
 8593SOL    HW237416   4.709   0.802   1.594  0.7784 -0.1499 -0.5535
 8594SOL     OW37417   3.074   0.313   5.314  0.7362 -0.0879 -0.0682
 8594SOL    HW137418   3.008   0.375   5.345 -0.0442 -0.3574 -1.1866
 8594SOL    HW237419   3.030   0.230   5.333 -0.0248  0.4789  0.6336
 8595SOL     OW37420   3.813   4.229   3.407 -0.0455  0.0692 -0.1625
 8595SOL    HW137421   3.775   4.142   3.417  3.5233 -1.4299  0.2255
 8595SOL    HW237422   3.804   4.254   3.499 -2.0913 -3.2243  0.5506
 8596SOL     OW37423   4.721   2.680   0.293 -0.2957  0.0577 -0.1945
 8596SOL    HW137424   4.636   2.691   0.335  0.0943  1.0093  0.3551
 8596SOL    HW237425   4.701   2.694   0.201 -1.4768 -2.5311 -0.3299
 8597SOL     OW37426   3.176   4.413   5.519  0.3833 -0.1797  0.0514
 8597SOL    HW137427   3.264   4.427   5.485  0.5294 -1.5184 -0.1405
 8597SOL    HW237428   3.159   4.331   5.472 -0.0382 -0.0374 -0.0383
 8598SOL     OW37429   2.862   2.653  10.753  0.4228  0.1817  0.4990
 8598SOL    HW137430   2.946   2.640  10.710 -0.7705 -1.0114 -1.4716
 8598SOL    HW237431   2.801   2.617  10.688  0.2639  1.5044 -0.0832
 8599SOL     OW37432   0.156   3.441   8.568 -0.1894 -0.0311  0.2175
 8599SOL    HW137433   0.171   3.438   8.474  1.3460  0.5515  0.4446
 8599SOL    HW237434   0.233   3.392   8.596 -0.3968 -0.9739 -0.8737
 8600SOL     OW37435   0.785   1.739   4.798  0.0826  0.3888 -0.1929
 8600SOL    HW137436   0.808   1.664   4.853  2.6064 -0.9021 -3.0113
 8600SOL    HW237437   0.848   1.728   4.727  1.2405 -0.5447  0.9892
 8601SOL     OW37438   2.785   2.578   7.856  0.5558 -0.6496  0.4672
 8601SOL    HW137439   2.774   2.546   7.946 -2.1750 -1.2045 -0.0502
 8601SOL    HW237440   2.802   2.671   7.867  3.2963 -0.9387 -1.2206
 8602SOL     OW37441   1.084   2.075   3.661 -0.4078 -0.3012 -0.0591
 8602SOL    HW137442   1.175   2.060   3.637 -0.2160  2.4166 -0.9223
 8602SOL    HW237443   1.074   2.007   3.728  3.2923 -0.2612  0.5254
 8603SOL     OW37444   3.836   3.983   9.361 -0.4847 -0.3057 -0.2673
 8603SOL    HW137445   3.745   3.961   9.341  0.2387 -3.0061 -0.5772
 8603SOL    HW237446   3.855   3.933   9.440  0.7824 -1.6225 -1.3978
 8604SOL     OW37447   0.301   4.525   8.733 -0.1824 -0.1095  0.1253
 8604SOL    HW137448   0.312   4.575   8.814 -1.2374 -1.5416  1.1503
 8604SOL    HW237449   0.221   4.570   8.703 -0.4623 -0.8233 -0.1954
 8605SOL     OW37450   0.456   3.338   7.616 -0.5942  0.0492  0.3473
 8605SOL    HW137451   0.494   3.337   7.528  0.7318  1.2329  0.9115
 8605SOL    HW237452   0.362   3.334   7.595  0.0989 -0.0657 -2.7147
 8606SOL     OW37453   1.390   1.151   4.545  0.1948 -0.2996 -0.6179
 8606SOL    HW137454   1.399   1.137   4.451  1.7952 -0.9002 -0.3701
 8606SOL    HW237455   1.318   1.088   4.554 -1.1894  0.7965 -4.1472
 8607SOL     OW37456   2.880   4.661  12.637  0.5254  0.2667  0.3574
 8607SOL    HW137457   2.856   4.612  12.558  0.4622  0.2514  0.3857
 8607SOL    HW237458   2.810   4.726  12.642  1.4720  1.3776 -0.9689
 8608SOL     OW37459   3.026   1.435  11.436 -0.3318 -0.6743 -0.1193
 8608SOL    HW137460   2.993   1.490  11.507 -1.7577  0.2059 -1.4800
 8608SOL    HW237461   3.095   1.488  11.396 -1.1349 -0.6290 -1.4346
 8609SOL     OW37462   2.056   0.407   4.198 -0.2277  0.3796 -0.2986
 8609SOL    HW137463   1.995   0.462   4.149  0.0689  0.9897  0.0217
 8609SOL    HW237464   1.997   0.334   4.216 -1.6392  1.7382  0.5311
 8610SOL     OW37465   0.324   3.076   9.302 -0.2918 -0.0536 -0.2721
 8610SOL    HW137466   0.232   3.101   9.301  0.5255  2.9685  0.7777
 8610SOL    HW237467   0.355   3.151   9.352 -2.1393 -0.1088  0.9210
 8611SOL     OW37468   3.666   2.749   0.229 -0.1645  0.2008  0.0015
 8611SOL    HW137469   3.608   2.789   0.294  3.5414  1.0956  2.7143
 8611SOL    HW237470   3.739   2.726   0.287 -1.2417 -0.2849  1.1658
 8612SOL     OW37471   0.083   2.798  16.890  0.2686 -0.0614 -0.5483
 8612SOL    HW137472   0.089   2.893  16.904  4.1651 -0.1477 -1.5241
 8612SOL    HW237473   0.091   2.770  16.982  1.0514  1.2831 -0.1949
 8613SOL     OW37474   1.420   1.453  16.972  0.0467 -0.0757 -0.2570
 8613SOL    HW137475   1.458   1.479  17.056 -0.2087  0.1656 -0.2194
 8613SOL    HW237476   1.479   1.504  16.917  0.1955  0.0829  0.0466
 8614SOL     OW37477   0.333   0.266  14.797 -0.3070  0.1825 -0.4490
 8614SOL    HW137478   0.268   0.257  14.866  0.8013  0.3138  0.6040
 8614SOL    HW237479   0.405   0.214  14.832 -1.3393 -0.2383  1.0411
 8615SOL     OW37480   2.600   4.081   2.652  0.1073 -0.3626 -0.3042
 8615SOL    HW137481   2.611   3.987   2.661  1.0703 -0.1545  0.6471
 8615SOL    HW237482   2.643   4.097   2.568  0.3867 -0.3914 -0.1640
 8616SOL     OW37483   4.277   0.976   5.402 -0.0903 -0.2361  0.0723
 8616SOL    HW137484   4.294   0.951   5.493  0.0726 -2.3854 -0.5401
 8616SOL    HW237485   4.182   0.963   5.405 -0.1916  1.0477  2.4456
 8617SOL     OW37486   0.735   0.195   7.013  0.3601 -0.1718  0.5247
 8617SOL    HW137487   0.753   0.103   6.994 -0.5939 -0.3239  0.3559
 8617SOL    HW237488   0.655   0.200   6.962 -0.2584 -0.8841  1.4219
 8618SOL     OW37489   2.395   3.970  16.654  0.4716  0.2041 -0.1895
 8618SOL    HW137490   2.318   3.925  16.618  0.2202  0.3457  0.1671
 8618SOL    HW237491   2.466   3.947  16.595  1.0383  1.2893  0.0728
 8619SOL     OW37492   3.422   4.441  12.668 -0.4981  0.0154 -0.1357
 8619SOL    HW137493   3.481   4.452  12.593 -0.1879 -0.9374 -0.0288
 8619SOL    HW237494   3.382   4.356  12.649 -1.4551  0.2618  0.8079
 8620SOL     OW37495   0.537   1.224   7.984 -0.4529 -0.3764  0.7114
 8620SOL    HW137496   0.459   1.243   8.037 -1.4499  0.9036 -1.1617
 8620SOL    HW237497   0.506   1.254   7.898 -0.7690 -0.4130  0.8101
 8621SOL     OW37498   4.244   1.254   5.344  0.5132 -0.3886  0.2716
 8621SOL    HW137499   4.319   1.277   5.289 -0.2407 -2.5310 -1.6585
 8621SOL    HW237500   4.266   1.161   5.351  4.2248  0.5376  1.0563
 8622SOL     OW37501   1.912   3.989   8.985  0.5252  0.0062  0.3330
 8622SOL    HW137502   1.856   4.017   8.913  0.0946 -1.2723  0.1678
 8622SOL    HW237503   1.965   3.926   8.935 -0.8425  0.5879 -1.8585
 8623SOL     OW37504   2.125   3.042   7.456 -0.2187 -0.1922 -0.1184
 8623SOL    HW137505   2.044   3.056   7.506 -0.2565 -1.7458  0.2619
 8623SOL    HW237506   2.098   3.060   7.366 -2.6915 -1.5646  0.3153
 8624SOL     OW37507   3.619   0.877   6.705  0.2284 -0.1216 -0.6633
 8624SOL    HW137508   3.598   0.912   6.618 -0.8787 -0.2984 -0.4644
 8624SOL    HW237509   3.569   0.796   6.705  1.1754 -0.7021  2.2029
 8625SOL     OW37510   3.901   1.079   8.033  0.2438 -0.1582  0.6147
 8625SOL    HW137511   3.816   1.118   8.055  1.0422  0.7873  2.0162
 8625SOL    HW237512   3.964   1.150   8.045 -0.6380  0.5683  1.0032
 8626SOL     OW37513   0.167   2.854   0.412 -0.0327  0.0088  0.6786
 8626SOL    HW137514   0.147   2.931   0.359 -0.2473 -0.5358 -0.0436
 8626SOL    HW237515   0.098   2.796   0.380 -0.8578  0.3298  1.8810
 8627SOL     OW37516   4.189   2.716   8.699  0.4296  0.0685  0.1570
 8627SOL    HW137517   4.225   2.745   8.615 -1.0990  0.8056 -0.2469
 8627SOL    HW237518   4.101   2.753   8.705 -0.3833 -1.4001 -2.4879
 8628SOL     OW37519   4.508   3.591   2.197 -0.2816  0.1218  0.5790
 8628SOL    HW137520   4.535   3.534   2.125 -1.2545 -0.2917  0.5325
 8628SOL    HW237521   4.418   3.560   2.211  0.3021 -0.9990  1.8427
 8629SOL     OW37522   1.828   1.719   0.100 -0.4155 -0.1368  0.0254
 8629SOL    HW137523   1.816   1.633   0.140 -2.2963  0.1200 -0.0001
 8629SOL    HW237524   1.745   1.733   0.055 -1.8377 -1.5536  2.2029
 8630SOL     OW37525   1.728   3.587   2.431 -0.1751 -0.2805 -0.1774
 8630SOL    HW137526   1.740   3.681   2.440  0.9116 -0.4816  0.5813
 8630SOL    HW237527   1.819   3.556   2.429 -0.4696 -1.3104  1.6865
 8631SOL     OW37528   2.479   3.509   4.377  0.3379  0.7640 -0.0584
 8631SOL    HW137529   2.535   3.516   4.299  0.1542  0.8606 -0.1813
 8631SOL    HW237530   2.452   3.417   4.371  0.1290  0.7620  0.9164
 8632SOL     OW37531   0.529   1.633   0.934  0.5439  0.4310 -0.7245
 8632SOL    HW137532   0.604   1.691   0.922  0.1899  1.0618  0.0754
 8632SOL    HW237533   0.459   1.685   0.974  0.7603 -0.1761  0.4464
 8633SOL     OW37534   3.837   2.157   4.090  0.3078  0.1750 -0.0837
 8633SOL    HW137535   3.851   2.095   4.161  0.2748  0.9045  0.5667
 8633SOL    HW237536   3.750   2.194   4.106  0.6556  0.7732  0.4106
 8634SOL     OW37537   1.751   1.881   9.832 -0.4315 -0.1682  0.9392
 8634SOL    HW137538   1.805   1.813   9.871  0.2626 -0.0513  0.1701
 8634SOL    HW237539   1.735   1.928   9.914  1.7178  0.3910  1.0253
 8635SOL     OW37540   4.224   0.223  15.760  0.0262  0.1856 -0.5058
 8635SOL    HW137541   4.148   0.166  15.749 -0.5142  0.8604 -0.2293
 8635SOL    HW237542   4.288   0.156  15.734 -1.2968 -1.1548 -0.2465
 8636SOL     OW37543   0.453   4.071   0.704 -0.0467  0.6410 -0.1296
 8636SOL    HW137544   0.444   4.132   0.777  3.1267 -0.1979  0.9167
 8636SOL    HW237545   0.371   4.022   0.701  0.9389 -0.7743 -3.6453
 8637SOL     OW37546   0.225   1.173   6.853  0.2013 -0.2199 -0.2168
 8637SOL    HW137547   0.315   1.144   6.840  0.7271  0.9949  0.5905
 8637SOL    HW237548   0.220   1.222   6.771 -1.5817 -2.8794 -1.7020
 8638SOL     OW37549   3.207   4.524   6.878  0.1053  0.2242  0.2298
 8638SOL    HW137550   3.286   4.470   6.884  0.4715  0.5391 -1.8499
 8638SOL    HW237551   3.171   4.522   6.967 -0.4418  3.2391  0.0771
 8639SOL     OW37552   1.409   0.562   7.574  0.0364 -0.4763 -0.4375
 8639SOL    HW137553   1.314   0.552   7.566 -0.5898  5.1490 -0.6024
 8639SOL    HW237554   1.452   0.554   7.489  1.9362 -2.3056  0.7061
 8640SOL     OW37555   1.708   1.644   4.246 -0.5213  0.3730 -0.2763
 8640SOL    HW137556   1.712   1.548   4.249 -0.1403  0.3533 -1.6699
 8640SOL    HW237557   1.644   1.667   4.314 -0.5648 -1.4655  0.3068
 8641SOL     OW37558   3.588   3.207   2.991 -0.4204  0.2252 -0.2664
 8641SOL    HW137559   3.548   3.213   2.904 -1.7233 -1.5025  0.2250
 8641SOL    HW237560   3.637   3.125   2.986  1.1856  1.1005  0.8529
 8642SOL     OW37561   2.704   1.310   7.067 -0.0418 -0.0890 -0.3943
 8642SOL    HW137562   2.683   1.225   7.105 -0.0977 -0.0991 -0.4474
 8642SOL    HW237563   2.717   1.289   6.975  0.8378  2.0703 -0.7735
 8643SOL     OW37564   2.440   2.672   9.578 -0.4559  0.1129 -0.5906
 8643SOL    HW137565   2.431   2.585   9.538 -0.0873 -0.3581  0.3299
 8643SOL    HW237566   2.352   2.691   9.610  0.2523  2.6826 -0.2158
 8644SOL     OW37567   1.487   2.878  16.748 -0.3903  0.0592 -0.2417
 8644SOL    HW137568   1.557   2.864  16.812 -1.0763 -3.4702 -0.2463
 8644SOL    HW237569   1.512   2.812  16.683  0.9957  1.2245 -0.8851
 8645SOL     OW37570   2.301   1.277   2.047  0.0082  0.4999 -0.0350
 8645SOL    HW137571   2.221   1.284   1.996 -1.2591 -0.1326  1.8884
 8645SOL    HW237572   2.366   1.319   1.991  1.1531  0.2520  1.1022
 8646SOL     OW37573   1.137   3.117   5.408 -0.3800  0.5859  0.4536
 8646SOL    HW137574   1.173   3.109   5.496  0.3004 -0.6913  0.0553
 8646SOL    HW237575   1.172   3.044   5.357  0.1763  0.2216  1.3671
 8647SOL     OW37576   2.134   1.395   7.899 -0.0441  0.4704 -0.0720
 8647SOL    HW137577   2.165   1.314   7.857 -2.2286 -2.0822  3.2765
 8647SOL    HW237578   2.116   1.454   7.825 -0.2159  0.6124  0.0851
 8648SOL     OW37579   4.583   1.692   6.897 -0.1034 -0.3983  0.3598
 8648SOL    HW137580   4.643   1.722   6.965 -0.4249  2.5162 -0.6590
 8648SOL    HW237581   4.519   1.629   6.932 -0.4649 -0.3713 -0.2529
 8649SOL     OW37582   3.869   1.776  10.662  0.1151 -0.0048 -0.1680
 8649SOL    HW137583   3.891   1.684  10.644  0.6833 -0.5751  3.5217
 8649SOL    HW237584   3.949   1.810  10.701 -0.8199  0.6462  1.1485
 8650SOL     OW37585   3.491   2.023   1.668  0.0816 -0.3447 -0.1092
 8650SOL    HW137586   3.488   2.040   1.574 -1.8333  0.8729  0.1763
 8650SOL    HW237587   3.522   2.106   1.703  0.6469  0.2187 -1.9951
 8651SOL     OW37588   3.398   0.251  16.708 -0.3722  0.3190 -0.2195
 8651SOL    HW137589   3.367   0.165  16.681 -0.3764  0.2748 -0.0756
 8651SOL    HW237590   3.423   0.279  16.620  0.2702 -0.5763 -0.3201
 8652SOL     OW37591   1.092   1.190   3.741 -0.0997 -0.4379  0.4172
 8652SOL    HW137592   1.091   1.271   3.689  0.7486 -0.9979 -0.4725
 8652SOL    HW237593   1.006   1.152   3.726 -0.6205  0.3669  1.3582
 8653SOL     OW37594   2.759   4.628   3.805  0.1737 -0.3425 -0.3429
 8653SOL    HW137595   2.685   4.679   3.772 -0.3243 -2.1429 -2.0353
 8653SOL    HW237596   2.827   4.696   3.803 -0.8081  0.5888 -1.6402
 8654SOL     OW37597   4.705   1.302   3.144  0.3238  0.3350  0.0905
 8654SOL    HW137598   0.044   1.253   3.179  0.5503  1.7526  1.5813
 8654SOL    HW237599   4.729   1.316   3.052 -1.1525  1.0097 -0.1890
 8655SOL     OW37600   4.022   1.286   4.998 -0.2197  0.1708  0.3805
 8655SOL    HW137601   3.944   1.304   5.050 -1.7036 -0.4766 -1.5838
 8655SOL    HW237602   4.085   1.353   5.023  1.8222 -2.4639  2.2885
 8656SOL     OW37603   2.211   2.413   4.901 -0.0871 -0.6146  0.5270
 8656SOL    HW137604   2.162   2.353   4.957 -0.5545  0.7504  1.5790
 8656SOL    HW237605   2.168   2.405   4.815  0.3220  0.0697  0.2559
 8657SOL     OW37606   4.552   3.852  17.430  0.1779  0.0076 -0.2561
 8657SOL    HW137607   4.646   3.858  17.445 -0.5469  3.8954  2.8471
 8657SOL    HW237608   4.540   3.757  17.436 -1.6018  0.3498  1.5222
 8658SOL     OW37609   0.391   2.433   2.680  0.6543 -0.0170  0.4949
 8658SOL    HW137610   0.404   2.356   2.624 -0.2987  0.4586 -0.3665
 8658SOL    HW237611   0.334   2.490   2.630  0.7571 -0.2724  0.0848
 8659SOL     OW37612   2.348   0.013  16.342  0.6242  0.0470 -0.6469
 8659SOL    HW137613   2.329   0.014  16.248 -1.0384 -0.7149 -0.3200
 8659SOL    HW237614   2.385   4.661  16.352 -0.7595 -0.3811  0.6748
 8660SOL     OW37615   1.466   3.145   2.840 -0.4768  0.0550  0.0057
 8660SOL    HW137616   1.448   3.078   2.774  0.8378 -0.3045 -0.0020
 8660SOL    HW237617   1.377   3.176   2.856 -1.4897 -2.2180 -1.2184
 8661SOL     OW37618   2.009   0.559   5.123 -0.1579 -0.1347  0.9522
 8661SOL    HW137619   1.994   0.654   5.126  3.7426  0.5387 -0.5968
 8661SOL    HW237620   2.031   0.558   5.030 -1.7026 -2.6464  0.5943
 8662SOL     OW37621   2.672   4.629   5.979  0.1407  0.1960  0.0222
 8662SOL    HW137622   2.766   4.629   5.995  0.7522 -1.9369 -3.5462
 8662SOL    HW237623   2.682   4.610   5.885  1.7155 -1.1533  0.4707
 8663SOL     OW37624   1.710   2.542   2.866  0.2513  0.0098  0.6928
 8663SOL    HW137625   1.790   2.519   2.820 -0.3939 -2.6570  0.8634
 8663SOL    HW237626   1.667   2.617   2.825  0.3656  0.2002  0.9276
 8664SOL     OW37627   0.085   4.691   7.631 -0.2795 -0.3391  0.1058
 8664SOL    HW137628   0.062   4.667   7.721 -0.3603  0.4204  0.2872
 8664SOL    HW237629   0.004   4.726   7.594 -1.0144 -2.6268 -0.4192
 8665SOL     OW37630   2.498   3.362  11.378 -0.7316 -0.1758  0.7829
 8665SOL    HW137631   2.458   3.282  11.344 -0.0911  0.2050 -0.8208
 8665SOL    HW237632   2.506   3.400  11.291  1.6558 -0.2633  0.9670
 8666SOL     OW37633   1.649   4.681   3.339  0.6801  0.8396  0.2688
 8666SOL    HW137634   1.682   4.591   3.338 -2.3368 -0.2652 -0.4500
 8666SOL    HW237635   1.647   4.693   3.244 -0.0558  0.1446  0.1968
 8667SOL     OW37636   3.040   0.004   6.974 -0.5716  0.4518  0.5827
 8667SOL    HW137637   3.124   0.023   6.931  0.0772 -0.3547  1.4886
 8667SOL    HW237638   3.057   4.663   7.028 -1.3709  0.8049  1.3463
 8668SOL     OW37639   3.078   1.036   1.227  0.4765  0.7262 -0.0066
 8668SOL    HW137640   3.078   0.975   1.153 -2.8193  2.1470 -1.1863
 8668SOL    HW237641   3.169   1.065   1.236  0.2773  1.3822 -0.1264
 8669SOL     OW37642   3.526   3.712  15.231 -0.0764 -0.1975  0.1569
 8669SOL    HW137643   3.473   3.680  15.158  0.0669 -1.0511  0.4309
 8669SOL    HW237644   3.611   3.672  15.217 -0.1855 -0.1952 -0.5211
 8670SOL     OW37645   3.115   3.936   9.251  0.4337  0.2153  0.2319
 8670SOL    HW137646   3.046   3.989   9.290 -1.7249 -2.3934  0.0531
 8670SOL    HW237647   3.162   3.993   9.191  2.4045 -2.3983 -0.7359
 8671SOL     OW37648   2.413   3.873   9.498  0.5306  0.1254  0.1753
 8671SOL    HW137649   2.444   3.812   9.431  2.1599 -0.0288  1.0621
 8671SOL    HW237650   2.320   3.879   9.475  0.7617 -0.6663 -0.9490
 8672SOL     OW37651   0.474   2.636   5.198 -0.2045  0.1026  0.0745
 8672SOL    HW137652   0.385   2.665   5.218 -0.3310 -0.8983  0.9406
 8672SOL    HW237653   0.516   2.719   5.175  0.8473 -0.6883 -0.9073
 8673SOL     OW37654   1.352   1.910  11.526 -0.2616 -0.1109 -0.2754
 8673SOL    HW137655   1.357   1.870  11.439  5.5994 -0.9362  0.4375
 8673SOL    HW237656   1.335   2.000  11.499  1.6730  0.1491 -0.6417
 8674SOL     OW37657   4.301   1.263   2.529  0.0012 -0.0987 -0.0264
 8674SOL    HW137658   4.213   1.284   2.497 -0.5701 -0.0978  1.5488
 8674SOL    HW237659   4.317   1.348   2.570  3.2909 -1.2353  1.0573
 8675SOL     OW37660   1.587   2.408   0.559 -0.3674 -0.2612  0.1225
 8675SOL    HW137661   1.552   2.368   0.638 -1.5220  1.5616  0.5311
 8675SOL    HW237662   1.647   2.473   0.598  3.0240 -3.0568 -0.4562
 8676SOL     OW37663   1.216   0.496  15.441  0.7208 -0.4195  0.4343
 8676SOL    HW137664   1.150   0.454  15.385 -0.1942  0.1110  1.1020
 8676SOL    HW237665   1.269   0.513  15.363  0.6682 -0.5071  0.3797
 8677SOL     OW37666   3.707   0.977   3.657  0.0234 -0.8168  0.3101
 8677SOL    HW137667   3.703   0.970   3.562  0.0340  1.0150  0.1811
 8677SOL    HW237668   3.613   0.984   3.674 -0.6962 -2.4324 -3.0159
 8678SOL     OW37669   0.841   3.196   7.096 -0.3725  0.3997  0.1514
 8678SOL    HW137670   0.896   3.164   7.024  0.3765  0.7487  0.5681
 8678SOL    HW237671   0.903   3.180   7.168 -1.3955  2.3248  1.4540
 8679SOL     OW37672   1.707   3.137   2.663 -0.4813  0.1731 -0.0878
 8679SOL    HW137673   1.641   3.069   2.648 -1.0329  0.3465  1.5893
 8679SOL    HW237674   1.705   3.149   2.758 -2.3497 -0.0541 -0.0972
 8680SOL     OW37675   1.868   1.041   2.778 -0.4005  0.2892 -0.3532
 8680SOL    HW137676   1.794   0.982   2.765 -0.7113  0.8094 -0.9145
 8680SOL    HW237677   1.822   1.107   2.830  1.4513  0.3391  1.2477
 8681SOL     OW37678   3.498   0.225   2.827 -0.6128  0.3916  0.6059
 8681SOL    HW137679   3.431   0.257   2.768 -1.2768  0.1540  1.2279
 8681SOL    HW237680   3.584   0.255   2.797 -0.0305 -0.2524  1.6124
 8682SOL     OW37681   3.705   1.867   1.809  0.0058 -0.7280 -0.0043
 8682SOL    HW137682   3.727   1.958   1.789 -1.7027 -0.1935  0.5397
 8682SOL    HW237683   3.667   1.835   1.726 -1.0320 -0.2249  0.2791
 8683SOL     OW37684   4.236   1.795   0.894  0.1700 -0.9308  0.1308
 8683SOL    HW137685   4.148   1.810   0.928  1.6257  2.5917  2.3526
 8683SOL    HW237686   4.249   1.871   0.837  1.7431 -1.5440 -0.3350
 8684SOL     OW37687   2.543   4.560   2.228  0.7141  0.3797 -0.3929
 8684SOL    HW137688   2.491   4.620   2.281 -0.6367 -2.5668  1.5710
 8684SOL    HW237689   2.628   4.603   2.224  1.5924 -1.1803  1.6610
 8685SOL     OW37690   0.915   1.917  16.698 -0.3703 -0.6563  0.1080
 8685SOL    HW137691   0.951   1.875  16.776  0.3693  1.9625  1.1928
 8685SOL    HW237692   0.961   2.000  16.707 -1.2509 -0.0224 -1.1873
 8686SOL     OW37693   1.870   2.282  10.823 -0.7042  0.5975 -0.4746
 8686SOL    HW137694   1.855   2.310  10.733  0.9006  0.5222 -0.7674
 8686SOL    HW237695   1.798   2.219  10.826  0.2242 -0.4351 -0.1724
 8687SOL     OW37696   3.552   3.411  16.310 -0.1924 -0.1889 -0.2010
 8687SOL    HW137697   3.525   3.501  16.289  1.4655  0.8137  1.9422
 8687SOL    HW237698   3.631   3.398  16.258 -0.9947 -0.1345 -1.4408
 8688SOL     OW37699   3.160   2.428  12.134  0.1809 -0.2818 -0.0454
 8688SOL    HW137700   3.175   2.385  12.219 -0.5658 -1.4438 -0.5054
 8688SOL    HW237701   3.198   2.514  12.156 -1.0968  0.6982 -1.6772
 8689SOL     OW37702   0.978   4.538   5.648 -0.5707  0.0590  0.4743
 8689SOL    HW137703   0.971   4.445   5.624  0.3933  0.3160 -0.8256
 8689SOL    HW237704   0.913   4.583   5.594 -1.4309  1.4269  2.6507
 8690SOL     OW37705   3.401   2.140   2.350 -0.4670  0.0262 -0.0575
 8690SOL    HW137706   3.414   2.047   2.368 -0.5573  0.0787  0.2929
 8690SOL    HW237707   3.483   2.169   2.309  0.4421 -0.7330  1.1784
 8691SOL     OW37708   4.735   2.800   9.095  0.4479 -0.5550  0.4806
 8691SOL    HW137709   0.037   2.717   9.124  1.2324 -0.5615 -0.5991
 8691SOL    HW237710   0.068   2.829   9.037  0.7016 -0.5179  0.8001
 8692SOL     OW37711   2.323   1.084   1.723 -0.6668  0.3121 -0.0637
 8692SOL    HW137712   2.317   1.161   1.779  2.2799  0.8311 -0.5113
 8692SOL    HW237713   2.418   1.078   1.717 -0.5400  0.8711  1.4571
 8693SOL     OW37714   0.959   3.474   9.381  0.1032 -0.5076 -0.3936
 8693SOL    HW137715   0.986   3.526   9.457 -1.7741 -1.4912  0.9359
 8693SOL    HW237716   0.888   3.422   9.419 -0.5290  1.0280  0.5106
 8694SOL     OW37717   0.564   0.459   0.137 -0.4181 -0.5245  0.0581
 8694SOL    HW137718   0.619   0.521   0.089 -0.0172 -0.6106  0.4092
 8694SOL    HW237719   0.591   0.482   0.226  1.9657  1.0912 -1.0901
 8695SOL     OW37720   2.331   4.569  13.742 -0.3330 -1.0202 -0.0305
 8695SOL    HW137721   2.342   4.477  13.765  1.0948 -0.9530 -0.4766
 8695SOL    HW237722   2.237   4.572  13.724  0.0605 -2.1223 -2.1980
 8696SOL     OW37723   1.011   1.490   4.156 -1.2962 -0.1525  0.0570
 8696SOL    HW137724   1.002   1.413   4.100  0.4744 -0.9312  0.8499
 8696SOL    HW237725   0.968   1.459   4.236  1.9179 -2.3514  0.9287
 8697SOL     OW37726   2.413   2.047   1.220  0.0667  0.2635  0.1015
 8697SOL    HW137727   2.386   2.030   1.310  1.0884 -0.3814  0.2843
 8697SOL    HW237728   2.426   1.960   1.183 -1.1673  0.3762 -0.6071
 8698SOL     OW37729   3.976   3.235   4.089  0.1029  0.1707  0.2409
 8698SOL    HW137730   4.030   3.314   4.098  1.4525 -0.1493 -4.9202
 8698SOL    HW237731   3.967   3.223   4.183  1.5980 -0.2122  0.3399
 8699SOL     OW37732   4.040   0.743  10.150  0.0061  0.3566  0.3832
 8699SOL    HW137733   4.071   0.833  10.148  1.3648 -0.1182  0.0559
 8699SOL    HW237734   3.987   0.730  10.229 -1.6539 -2.7605 -1.2068
 8700SOL     OW37735   1.770   0.701  10.351  0.0831 -0.0977 -0.4300
 8700SOL    HW137736   1.692   0.670  10.398  0.8626 -1.6319 -0.1449
 8700SOL    HW237737   1.724   0.738  10.276  0.5305 -1.2283 -1.2536
 8701SOL     OW37738   2.806   0.276   4.910 -0.4159 -0.0476  0.5087
 8701SOL    HW137739   2.829   0.335   4.838  2.4923 -0.4685  1.1340
 8701SOL    HW237740   2.885   0.299   4.958  0.7369 -0.8668 -0.9720
 8702SOL     OW37741   4.344   2.865   1.658 -0.1659  0.4767  0.4991
 8702SOL    HW137742   4.299   2.828   1.735  0.1202 -1.9268 -0.4820
 8702SOL    HW237743   4.352   2.788   1.601 -1.2615 -0.1005  1.1221
 8703SOL     OW37744   2.839   0.934   4.307  0.3877  0.5181 -0.0805
 8703SOL    HW137745   2.874   0.871   4.243 -2.1709 -0.5203 -0.4606
 8703SOL    HW237746   2.793   0.988   4.243  1.1014  0.2068 -0.8579
 8704SOL     OW37747   1.167   0.920   8.604 -0.1772  0.0165  0.3481
 8704SOL    HW137748   1.082   0.898   8.566  1.3189 -3.9105 -0.7187
 8704SOL    HW237749   1.187   0.844   8.659 -0.0272  0.4351  0.8708
 8705SOL     OW37750   3.281   0.647  15.917 -0.3480 -0.1182  0.3116
 8705SOL    HW137751   3.307   0.660  15.826  0.3390 -0.7654  0.4233
 8705SOL    HW237752   3.286   0.552  15.925  0.3929 -0.2681 -1.9108
 8706SOL     OW37753   2.349   3.246  16.784  0.2029 -0.3445 -0.2583
 8706SOL    HW137754   2.309   3.168  16.744  1.8636 -1.1773 -0.2887
 8706SOL    HW237755   2.334   3.313  16.717 -2.3668  1.3365  2.0215
 8707SOL     OW37756   4.718   2.537   3.631 -0.1174 -0.5213 -0.3856
 8707SOL    HW137757   4.704   2.575   3.544 -0.0133 -0.2218 -0.2716
 8707SOL    HW237758   4.675   2.596   3.693  1.4016  1.7092 -1.4392
 8708SOL     OW37759   2.001   4.672   3.317 -0.0838  0.0318 -0.0342
 8708SOL    HW137760   1.934   4.703   3.378 -2.1124 -0.5108 -2.0009
 8708SOL    HW237761   1.965   4.709   3.237 -1.2656 -0.7698  0.1357
 8709SOL     OW37762   0.550   1.061   3.704 -0.1569  0.0586  0.7314
 8709SOL    HW137763   0.507   1.130   3.655 -0.6640 -0.2026  0.8101
 8709SOL    HW237764   0.486   0.989   3.699 -1.7802  1.7045 -2.1803
 8710SOL     OW37765   3.688   1.496  16.344 -0.3791  0.0871 -0.1212
 8710SOL    HW137766   3.751   1.515  16.273 -0.6410 -0.2136 -0.4338
 8710SOL    HW237767   3.751   1.514  16.414  0.5177 -0.3354 -0.8097
 8711SOL     OW37768   3.241   4.369   2.560 -0.1829 -0.0929 -0.5896
 8711SOL    HW137769   3.305   4.306   2.591 -0.5942  0.1003  0.6488
 8711SOL    HW237770   3.228   4.427   2.635  1.6764  1.0784 -1.1771
 8712SOL     OW37771   0.819   2.676  11.334  0.7665 -0.9814 -0.1592
 8712SOL    HW137772   0.913   2.692  11.320  1.2547 -1.5069  2.6407
 8712SOL    HW237773   0.818   2.685  11.429  0.8644  0.4328 -0.2925
 8713SOL     OW37774   3.667   0.046   5.703 -0.6205 -0.0599 -0.0910
 8713SOL    HW137775   3.591   0.007   5.746 -0.6260  2.8254  2.4517
 8713SOL    HW237776   3.626   0.132   5.693 -0.3291 -0.3375 -3.7238
 8714SOL     OW37777   2.869   0.443   2.109 -0.5346 -0.4803 -0.2522
 8714SOL    HW137778   2.961   0.459   2.090 -0.6765 -2.3373 -2.4732
 8714SOL    HW237779   2.861   0.504   2.182  0.7863 -0.8990  0.2234
 8715SOL     OW37780   0.317   0.919   5.300 -0.0782  0.2871 -0.2834
 8715SOL    HW137781   0.368   0.877   5.231 -1.2408  1.6775 -1.9992
 8715SOL    HW237782   0.398   0.950   5.341 -1.7919 -1.1161  4.1392
 8716SOL     OW37783   0.065   1.686  13.890 -0.5682  0.0753 -0.0433
 8716SOL    HW137784   0.070   1.772  13.933  1.5625  0.0110 -0.1562
 8716SOL    HW237785   4.711   1.674  13.920 -1.0399  1.2138 -1.0271
 8717SOL     OW37786   3.796   3.752   4.962 -0.5042  0.4463  0.2346
 8717SOL    HW137787   3.742   3.752   5.041  0.7112 -0.7271  1.0411
 8717SOL    HW237788   3.804   3.845   4.939  0.7754  0.5413  1.0593
 8718SOL     OW37789   1.231   0.308   6.216 -0.1948 -0.1836  0.0272
 8718SOL    HW137790   1.228   0.278   6.125 -0.6890 -1.1876  0.3703
 8718SOL    HW237791   1.320   0.342   6.224 -0.0835 -0.7687  1.2830
 8719SOL     OW37792   2.511   1.553   3.657  0.0066  0.4685 -0.2806
 8719SOL    HW137793   2.583   1.495   3.681 -1.1005 -0.2958  1.1504
 8719SOL    HW237794   2.449   1.537   3.728  0.6982 -0.0427  0.2113
 8720SOL     OW37795   4.531   2.048   6.200 -0.1715  0.1841  0.6851
 8720SOL    HW137796   4.479   2.124   6.176 -2.1027 -0.5117  2.7414
 8720SOL    HW237797   4.480   2.025   6.277 -1.2304 -1.4529 -0.4891
 8721SOL     OW37798   4.701   3.099   2.833 -0.0196 -0.3814  0.5558
 8721SOL    HW137799   0.008   3.086   2.917  0.6687  0.5090  0.3390
 8721SOL    HW237800   4.663   3.187   2.831 -3.3836 -1.8387  0.5104
 8722SOL     OW37801   4.324   0.545  16.153 -0.1703  0.5132  0.0032
 8722SOL    HW137802   4.319   0.518  16.061  0.3757  2.7621 -0.6819
 8722SOL    HW237803   4.281   0.630  16.141 -0.4646  0.4310  0.4912
 8723SOL     OW37804   0.031   1.409  14.344 -0.3178 -0.5243  0.4586
 8723SOL    HW137805   0.094   1.342  14.367  1.2210 -0.1086 -2.6219
 8723SOL    HW237806   0.062   1.442  14.260  2.4752 -1.2877  1.1901
 8724SOL     OW37807   0.289   2.761  17.126 -0.3687 -0.3829  0.3491
 8724SOL    HW137808   0.281   2.711  17.208  3.8829 -1.0514  0.3859
 8724SOL    HW237809   0.287   2.849  17.163 -0.0952  0.6783 -2.2053
 8725SOL     OW37810   4.311   1.896  10.916 -0.4474 -0.3240 -0.0694
 8725SOL    HW137811   4.345   1.977  10.877 -0.6781 -0.6910 -1.0255
 8725SOL    HW237812   4.353   1.828  10.863  1.4611  0.6947  0.1166
 8726SOL     OW37813   3.013   4.473  10.266 -0.2305  0.3791 -0.5752
 8726SOL    HW137814   2.987   4.564  10.280 -2.7704 -1.0482  3.7902
 8726SOL    HW237815   3.073   4.487  10.192 -1.5194  1.4734 -1.4272
 8727SOL     OW37816   2.780   2.545   8.121 -0.0764  0.1883  0.3498
 8727SOL    HW137817   2.798   2.628   8.165  0.3821 -0.5373  1.5357
 8727SOL    HW237818   2.831   2.482   8.171  0.0349  1.5676  1.9544
 8728SOL     OW37819   0.105   3.454   0.549  0.0675  0.0303 -0.2474
 8728SOL    HW137820   0.136   3.516   0.483  1.0706  0.3184  0.4976
 8728SOL    HW237821   0.150   3.375   0.517 -3.0080 -2.3303  1.2433
 8729SOL     OW37822   1.844   4.452   3.303  0.5194  0.1319 -0.6675
 8729SOL    HW137823   1.888   4.376   3.263  0.7943  0.6784 -1.4112
 8729SOL    HW237824   1.915   4.511   3.328 -0.9774  1.5645  0.1948
 8730SOL     OW37825   1.642   1.323   3.281 -0.2908  0.0790  0.0307
 8730SOL    HW137826   1.719   1.376   3.298 -0.1412 -0.4223  0.9406
 8730SOL    HW237827   1.669   1.242   3.326  0.4558  1.3225  1.8080
 8731SOL     OW37828   3.037   3.932  10.671  0.1113 -0.5035 -0.2062
 8731SOL    HW137829   3.094   3.953  10.598 -1.4957 -0.1563 -1.3684
 8731SOL    HW237830   2.954   3.942  10.624  0.1677 -0.7370 -0.3592
 8732SOL     OW37831   3.603   2.965   4.658 -0.0750 -0.1887 -0.6605
 8732SOL    HW137832   3.566   3.053   4.651  0.7616  0.5181  3.7908
 8732SOL    HW237833   3.672   2.962   4.591  1.8177 -0.7432  1.3470
 8733SOL     OW37834   3.627   2.233   1.322 -0.1773 -0.2203  0.2052
 8733SOL    HW137835   3.621   2.295   1.395 -0.4253 -1.5481  1.3111
 8733SOL    HW237836   3.700   2.272   1.275 -0.9887  2.2432  0.9882
 8734SOL     OW37837   3.079   3.139   4.899 -0.0388 -0.0855  0.0819
 8734SOL    HW137838   3.140   3.066   4.906 -0.1026  0.1275  3.1277
 8734SOL    HW237839   2.999   3.088   4.890  0.3700 -0.7606  0.2793
 8735SOL     OW37840   2.900   3.956  11.631  0.0406 -0.1456 -0.4372
 8735SOL    HW137841   2.986   3.919  11.650 -0.4656 -0.9668  0.2554
 8735SOL    HW237842   2.929   4.029  11.577  3.8620 -1.8220 -0.6534
 8736SOL     OW37843   2.766   3.508  10.573 -0.1283 -0.8598  0.4577
 8736SOL    HW137844   2.740   3.543  10.488  2.9182  1.1253  0.3406
 8736SOL    HW237845   2.858   3.536  10.576 -0.3514  0.0868 -1.5784
 8737SOL     OW37846   4.388   3.645   6.086  0.4591  0.0296 -0.1798
 8737SOL    HW137847   4.380   3.740   6.078 -0.1083  0.0425  0.6387
 8737SOL    HW237848   4.471   3.638   6.133 -0.5302  0.3201  1.6098
 8738SOL     OW37849   4.143   0.299  13.786 -0.1734  0.6868 -0.3565
 8738SOL    HW137850   4.149   0.222  13.730  1.0469 -0.4715  1.3614
 8738SOL    HW237851   4.086   0.267  13.856 -0.0330 -0.5514 -0.7946
 8739SOL     OW37852   2.709   2.860   3.517 -0.0507  0.1163  0.4636
 8739SOL    HW137853   2.683   2.781   3.565  0.9995 -1.6841 -1.9491
 8739SOL    HW237854   2.632   2.881   3.464  1.7658  1.6921 -1.5159
 8740SOL     OW37855   3.049   1.277   5.852 -0.9482 -0.5320  0.0356
 8740SOL    HW137856   3.046   1.247   5.942  2.2213  0.0321  0.3493
 8740SOL    HW237857   3.083   1.204   5.798  1.0172  0.0996  0.4065
 8741SOL     OW37858   2.195   4.076  13.075 -0.4245 -0.4938  0.2308
 8741SOL    HW137859   2.264   4.097  13.137  0.2825  3.9945 -2.0592
 8741SOL    HW237860   2.232   4.027  13.001  1.4880 -0.5678  1.2440
 8742SOL     OW37861   3.046   0.486  14.978  0.2264 -0.2038  0.0201
 8742SOL    HW137862   3.031   0.573  15.014  0.3458 -0.1095 -0.1580
 8742SOL    HW237863   2.959   0.454  14.953  0.8267 -2.6105  1.0246
 8743SOL     OW37864   1.926   0.066   9.032 -0.1504 -0.2945 -0.1388
 8743SOL    HW137865   2.019   0.048   9.022 -0.6220 -2.9234  0.1986
 8743SOL    HW237866   1.917   0.115   9.113 -0.4983 -1.0673  0.2931
 8744SOL     OW37867   2.128   3.453   3.225 -0.0370 -0.2388 -0.3027
 8744SOL    HW137868   2.088   3.413   3.302 -0.2425 -0.8631 -0.7421
 8744SOL    HW237869   2.211   3.407   3.212  0.6837  1.1152 -0.5735
 8745SOL     OW37870   1.918   0.339   4.836  0.4373  0.0540  0.3145
 8745SOL    HW137871   1.963   0.419   4.863  2.2801 -1.2081  0.9296
 8745SOL    HW237872   1.964   0.324   4.753 -1.0968  0.2732 -0.5700
 8746SOL     OW37873   1.734   0.647   2.440 -0.0541 -0.1015 -0.6998
 8746SOL    HW137874   1.643   0.658   2.466  0.6670  0.8824  1.3397
 8746SOL    HW237875   1.706   0.650   2.348 -0.2206 -1.0930 -0.6796
 8747SOL     OW37876   1.286   4.615   4.243 -0.4610  0.2249  0.3305
 8747SOL    HW137877   1.292   4.645   4.334  1.8951  0.0882  0.2155
 8747SOL    HW237878   1.343   4.674   4.194  0.4206  0.3042  1.4622
 8748SOL     OW37879   0.752   2.972   5.856  0.2443 -0.2976  0.4777
 8748SOL    HW137880   0.677   3.009   5.904 -0.0660  0.7427 -0.7809
 8748SOL    HW237881   0.821   2.980   5.922  0.6652 -1.9931  0.2337
 8749SOL     OW37882   3.137   2.775   9.956 -0.8840  0.3362  0.4716
 8749SOL    HW137883   3.227   2.745   9.967 -0.2179  1.5950 -1.4651
 8749SOL    HW237884   3.091   2.760  10.038 -1.7644  0.8103  0.0610
 8750SOL     OW37885   2.759   0.371   5.880  0.4560  0.0405  0.3350
 8750SOL    HW137886   2.683   0.394   5.827 -0.5268 -1.1177  1.2606
 8750SOL    HW237887   2.764   0.447   5.938  0.4074  0.9074 -0.8116
 8751SOL     OW37888   4.481   4.235   5.350 -0.0839 -0.3652 -0.0626
 8751SOL    HW137889   4.448   4.313   5.305  1.3544  0.7400  0.8084
 8751SOL    HW237890   4.545   4.205   5.284 -0.8892  0.3557 -1.1662
 8752SOL     OW37891   0.913   2.989   5.223 -0.1530  0.1438  0.2244
 8752SOL    HW137892   1.005   2.976   5.247  0.1181 -1.2017 -1.5624
 8752SOL    HW237893   0.917   3.058   5.157 -0.0097 -0.2698 -0.1988
 8753SOL     OW37894   1.353   1.552   4.292  0.5194 -0.6398  0.4519
 8753SOL    HW137895   1.322   1.486   4.229 -0.7426 -0.4073  0.8306
 8753SOL    HW237896   1.433   1.511   4.324  1.9565  0.6833 -1.4238
 8754SOL     OW37897   0.108   1.678  11.437  0.2848 -0.0486  0.3338
 8754SOL    HW137898   0.019   1.702  11.410  0.9182  3.6486  1.5317
 8754SOL    HW237899   0.128   1.738  11.509 -0.4591  1.1149 -0.4209
 8755SOL     OW37900   3.270   3.974  17.143 -0.3691  0.3542  0.5065
 8755SOL    HW137901   3.250   3.903  17.204 -0.2448 -1.1083 -1.1556
 8755SOL    HW237902   3.233   4.041  17.202 -0.7553 -0.4406  1.1715
 8756SOL     OW37903   4.660   0.949  14.954 -0.0537  0.6086  0.1458
 8756SOL    HW137904   4.666   0.944  15.049  0.5126 -0.1806  0.0704
 8756SOL    HW237905   0.003   0.904  14.924  0.3698 -0.2522  2.6080
 8757SOL     OW37906   2.876   4.401   8.923  0.1982  0.1066 -0.6300
 8757SOL    HW137907   2.895   4.487   8.885  1.9783  0.6159  1.3852
 8757SOL    HW237908   2.872   4.437   9.012 -0.8431 -0.5780 -0.4050
 8758SOL     OW37909   2.847   3.345  12.467  0.6565  0.1005  0.0102
 8758SOL    HW137910   2.794   3.424  12.456 -1.2425 -1.0636  0.9717
 8758SOL    HW237911   2.848   3.334  12.562 -0.5983 -0.2214 -0.0211
 8759SOL     OW37912   4.100   4.596   8.146  0.3117  0.4976 -0.2259
 8759SOL    HW137913   4.187   4.633   8.134  0.6483 -0.6322 -1.2521
 8759SOL    HW237914   4.121   4.529   8.212 -0.1024  1.5693  0.9993
 8760SOL     OW37915   1.504   1.216  16.805  0.2599 -0.0845  0.0598
 8760SOL    HW137916   1.589   1.248  16.834  0.2100  1.3509 -1.3706
 8760SOL    HW237917   1.449   1.271  16.861  0.0655 -2.2370  1.9818
 8761SOL     OW37918   4.020   4.162   7.447 -0.0673 -0.4255  0.3108
 8761SOL    HW137919   4.003   4.191   7.537  0.1038  0.1084  0.1672
 8761SOL    HW237920   3.934   4.182   7.409 -0.1947 -1.0334  0.2855
 8762SOL     OW37921   4.163   2.587  13.859 -0.3135  0.2206  0.0315
 8762SOL    HW137922   4.256   2.564  13.858 -0.3879 -0.0258 -1.1904
 8762SOL    HW237923   4.161   2.682  13.870  0.5199  0.2265  0.0921
 8763SOL     OW37924   0.080   4.216   4.670 -0.2432  0.5080  0.3763
 8763SOL    HW137925   0.065   4.206   4.576 -3.0405  4.1531  0.3922
 8763SOL    HW237926   0.002   4.174   4.705 -0.2024  0.1126 -0.0162
 8764SOL     OW37927   3.329   0.190   6.179  0.0983  0.4977  0.1052
 8764SOL    HW137928   3.268   0.128   6.219 -0.1642  2.2463  2.4601
 8764SOL    HW237929   3.307   0.177   6.087  0.8368 -1.7656  0.2563
 8765SOL     OW37930   4.190   2.522   1.783  0.0809  0.1627  0.4927
 8765SOL    HW137931   4.142   2.572   1.717 -0.6180  0.3712  1.1591
 8765SOL    HW237932   4.227   2.590   1.840 -0.1576  0.0758  0.7518
 8766SOL     OW37933   3.855   2.652   6.280  0.2484  0.6348  0.2097
 8766SOL    HW137934   3.878   2.726   6.336 -0.5672  1.0198  0.0324
 8766SOL    HW237935   3.811   2.590   6.338  1.4372 -0.8289 -0.4488
 8767SOL     OW37936   3.876   3.168   8.698 -0.0080 -0.6965 -0.1486
 8767SOL    HW137937   3.940   3.234   8.672  0.5537 -1.7152 -1.3371
 8767SOL    HW237938   3.927   3.114   8.759  0.7180  0.6587  0.4560
 8768SOL     OW37939   4.092   0.721   7.811  0.0354 -0.0759 -0.1174
 8768SOL    HW137940   4.055   0.808   7.798 -1.9322 -0.7300  1.0059
 8768SOL    HW237941   4.165   0.739   7.871  1.9140 -0.5234 -2.2864
 8769SOL     OW37942   0.657   0.476  16.429  0.3036  0.3678 -0.5960
 8769SOL    HW137943   0.678   0.518  16.512 -0.4523  0.8819 -0.6629
 8769SOL    HW237944   0.738   0.480  16.378 -0.0353 -0.0288 -1.1673
 8770SOL     OW37945   2.049   2.600  16.332 -0.2294  0.5755 -0.3319
 8770SOL    HW137946   2.091   2.595  16.418 -1.6632 -0.1793  0.3283
 8770SOL    HW237947   2.108   2.658  16.283 -0.5903  1.1710 -0.0676
 8771SOL     OW37948   4.534   4.010   3.807  0.2884  0.3503 -0.2352
 8771SOL    HW137949   4.525   4.032   3.714  2.4012 -0.9406 -0.7430
 8771SOL    HW237950   4.577   4.089   3.842  1.0960 -0.6510  1.0265
 8772SOL     OW37951   2.700   0.762  12.384  0.4107  0.5512  0.1419
 8772SOL    HW137952   2.713   0.692  12.321 -1.0499 -0.9306  1.5042
 8772SOL    HW237953   2.661   0.826  12.326  3.0278  0.1298 -2.0937
 8773SOL     OW37954   3.092   1.922   9.927  0.1664  0.2454  0.2867
 8773SOL    HW137955   3.076   1.833   9.960  0.6543 -0.5571 -1.6526
 8773SOL    HW237956   3.167   1.942   9.983 -0.2517  0.8568  0.6222
 8774SOL     OW37957   0.042   4.671  16.716 -0.7103  0.2841 -0.0928
 8774SOL    HW137958   0.072   4.711  16.635  1.7439 -1.6086 -0.1087
 8774SOL    HW237959   4.697   4.722  16.720 -0.9817 -0.1379 -0.1938
 8775SOL     OW37960   4.023   0.044   5.494 -0.0592  0.3442 -0.1261
 8775SOL    HW137961   3.995   0.013   5.580 -1.6029  0.8193 -0.4558
 8775SOL    HW237962   3.939   0.082   5.469 -0.6978 -0.3589  0.9330
 8776SOL     OW37963   0.367   4.570   2.879  0.1209 -0.6389 -0.1379
 8776SOL    HW137964   0.366   4.504   2.949 -0.4183 -1.6906 -1.1376
 8776SOL    HW237965   0.448   4.614   2.904 -0.7012  0.2354  0.9854
 8777SOL     OW37966   0.496   2.878  10.403 -0.0172 -0.1180 -0.2791
 8777SOL    HW137967   0.473   2.904  10.314 -0.6423 -1.0240 -0.3782
 8777SOL    HW237968   0.413   2.884  10.451  0.1730 -1.1595  0.1718
 8778SOL     OW37969   2.454   3.691  17.185  0.3656  0.9482  0.5239
 8778SOL    HW137970   2.406   3.609  17.195  0.7073  0.5624 -0.8983
 8778SOL    HW237971   2.450   3.725  17.274 -1.0453  3.7042 -0.6086
 8779SOL     OW37972   1.079   2.175   5.324  0.2753 -0.4398  0.2794
 8779SOL    HW137973   1.094   2.164   5.230 -0.5594  0.2654  0.0606
 8779SOL    HW237974   1.164   2.160   5.365  0.4113  2.4429  1.0967
 8780SOL     OW37975   2.800   1.909   1.827 -0.5896 -0.0416 -0.2936
 8780SOL    HW137976   2.821   1.817   1.806  1.3305  0.3112  0.0687
 8780SOL    HW237977   2.853   1.946   1.757 -2.8183  1.5990 -1.1038
 8781SOL     OW37978   3.120   3.355   4.054 -0.5204  0.0489  0.0568
 8781SOL    HW137979   3.091   3.438   4.093  1.9193  0.1273  1.6880
 8781SOL    HW237980   3.137   3.299   4.130 -2.1176 -0.1506  0.2733
 8782SOL     OW37981   3.003   4.278   1.624  0.3147 -0.0629  0.2725
 8782SOL    HW137982   3.025   4.345   1.688  0.0609 -0.9776  1.3263
 8782SOL    HW237983   3.090   4.238   1.627  0.2616 -0.2238 -0.2785
 8783SOL     OW37984   1.955   2.970  13.595 -0.1225  0.0609 -0.5405
 8783SOL    HW137985   1.960   3.065  13.580  0.3936  0.4215  1.8235
 8783SOL    HW237986   1.867   2.953  13.561 -0.8556 -1.2242  1.9569
 8784SOL     OW37987   1.398   3.719   7.175  0.6059 -0.3612  0.3852
 8784SOL    HW137988   1.421   3.807   7.143  1.4139 -0.0517  1.8269
 8784SOL    HW237989   1.351   3.679   7.102  0.7824 -1.7834  1.0492
 8785SOL     OW37990   3.614   2.435   6.089  0.7215  0.4924 -0.1774
 8785SOL    HW137991   3.616   2.384   6.008  2.5098 -1.7936  1.3206
 8785SOL    HW237992   3.531   2.482   6.083  0.8165  0.9081  1.5862
 8786SOL     OW37993   2.023   4.314  13.836  0.1320  0.0261  0.9550
 8786SOL    HW137994   2.015   4.393  13.783  1.0121 -0.4205  0.1609
 8786SOL    HW237995   2.078   4.263  13.777  0.4305  0.3848  0.9263
 8787SOL     OW37996   3.259   1.573   1.791 -0.1070  0.3404  0.5385
 8787SOL    HW137997   3.209   1.506   1.838  0.4577 -0.2797  0.2486
 8787SOL    HW237998   3.323   1.595   1.859  0.6981  0.7507 -0.3644
 8788SOL     OW37999   3.370   2.150   6.081  0.6091  0.0705  0.1086
 8788SOL    HW138000   3.301   2.196   6.129  0.7942  2.2298 -1.7051
 8788SOL    HW238001   3.446   2.173   6.136 -0.2754  0.4195  1.1902
 8789SOL     OW38002   3.492   3.441  13.778 -0.1894 -0.0817 -0.2019
 8789SOL    HW138003   3.423   3.469  13.839  1.2719  2.9343  0.0630
 8789SOL    HW238004   3.499   3.346  13.792  0.9489 -0.3400 -2.6694
 8790SOL     OW38005   1.643   0.096   5.256 -0.0115 -0.3858  0.3615
 8790SOL    HW138006   1.596   0.078   5.338 -0.9580 -0.7039 -0.2528
 8790SOL    HW238007   1.667   0.005   5.240  0.8412 -0.0384 -0.3275
 8791SOL     OW38008   1.384   4.065   5.128 -0.0321 -0.2995 -0.0581
 8791SOL    HW138009   1.374   4.059   5.033 -2.0237 -0.4380  0.1578
 8791SOL    HW238010   1.373   3.975   5.157  3.8014 -0.2165  1.5901
 8792SOL     OW38011   4.339   1.573   3.370 -0.3129 -1.3175 -1.0775
 8792SOL    HW138012   4.376   1.492   3.405  3.2123  0.0653 -1.6006
 8792SOL    HW238013   4.257   1.586   3.418  1.1410 -2.1614  1.6614
 8793SOL     OW38014   3.463   1.342   6.037 -0.1291 -0.1660 -0.8431
 8793SOL    HW138015   3.408   1.360   5.961  0.3546  1.6698 -0.7628
 8793SOL    HW238016   3.542   1.395   6.027 -1.0651  1.2048 -0.9394
 8794SOL     OW38017   3.123   1.247  10.027  0.7880 -0.2219 -0.0564
 8794SOL    HW138018   3.186   1.214  10.092 -0.7311 -3.1196 -0.0361
 8794SOL    HW238019   3.159   1.328   9.993 -0.9083 -1.0414 -3.7927
 8795SOL     OW38020   0.554   0.907   8.919  0.5657  0.2771  0.4928
 8795SOL    HW138021   0.541   0.988   8.869 -0.9924  0.8941  1.8984
 8795SOL    HW238022   0.649   0.895   8.916  0.4436 -0.1995 -1.4974
 8796SOL     OW38023   3.264   4.654  10.352 -0.2437 -0.4746  0.2267
 8796SOL    HW138024   3.260   4.616  10.440 -2.5148 -5.0386 -1.8766
 8796SOL    HW238025   3.176   4.682  10.327  0.7350  0.6619 -1.9714
 8797SOL     OW38026   1.693   1.280   6.818 -0.0988 -0.0930  0.2728
 8797SOL    HW138027   1.686   1.366   6.859  1.0855 -0.4727  1.2837
 8797SOL    HW238028   1.689   1.297   6.724  1.8075  2.1315  0.6025
 8798SOL     OW38029   4.480   2.879   9.134  0.4291 -0.1000 -0.5762
 8798SOL    HW138030   4.566   2.865   9.093  1.0825 -2.4287  1.5810
 8798SOL    HW238031   4.427   2.838   9.065  0.9909 -0.6907 -0.6589
 8799SOL     OW38032   2.437   1.657  10.757  0.4401 -0.0551 -0.4319
 8799SOL    HW138033   2.346   1.661  10.727  0.5567 -2.6787 -1.1492
 8799SOL    HW238034   2.420   1.610  10.839 -0.9627  0.3230 -0.5024
 8800SOL     OW38035   2.846   4.301  12.235 -0.4705  0.3321 -0.3876
 8800SOL    HW138036   2.817   4.250  12.159  2.4718  0.3867 -1.5646
 8800SOL    HW238037   2.888   4.229  12.283 -1.8103 -1.0583 -1.2970
 8801SOL     OW38038   2.543   4.278  13.962  0.2646  0.8576  0.0254
 8801SOL    HW138039   2.473   4.218  13.987 -0.6318  2.6122  1.6711
 8801SOL    HW238040   2.488   4.333  13.907 -0.3060  1.2047  0.9458
 8802SOL     OW38041   1.387   0.040   6.812  0.1968 -0.6577  0.4077
 8802SOL    HW138042   1.436   0.072   6.736 -1.5517  0.0227 -0.4413
 8802SOL    HW238043   1.296   0.054   6.785  0.2485 -1.4242 -0.1279
 8803SOL     OW38044   1.530   1.482   9.159  0.0470 -0.3057  0.4671
 8803SOL    HW138045   1.517   1.530   9.077 -1.3543 -1.2556  0.1339
 8803SOL    HW238046   1.603   1.423   9.140 -1.0538 -1.6755  0.4685
 8804SOL     OW38047   0.541   3.815   4.188 -0.3954  0.2062  0.1330
 8804SOL    HW138048   0.549   3.908   4.207 -1.6637  0.4380 -0.4606
 8804SOL    HW238049   0.558   3.774   4.273 -0.3488 -0.5415 -0.2324
 8805SOL     OW38050   2.288   1.837   2.545  0.6022  0.1786 -0.3083
 8805SOL    HW138051   2.210   1.796   2.506 -0.4669  1.6808  0.2681
 8805SOL    HW238052   2.264   1.816   2.635  1.5678 -2.2384 -0.6157
 8806SOL     OW38053   4.292   4.557  16.733  0.4471  0.2613  0.3279
 8806SOL    HW138054   4.265   4.485  16.675  0.0057  0.8111 -0.1500
 8806SOL    HW238055   4.378   4.526  16.761  0.5671  0.3559  0.0623
 8807SOL     OW38056   2.622   1.780  14.436 -0.2326 -0.1314 -0.1750
 8807SOL    HW138057   2.714   1.799  14.452 -0.5393  0.6324  0.7109
 8807SOL    HW238058   2.581   1.832  14.506  0.6675  3.6089 -2.3990
 8808SOL     OW38059   4.406   4.634   8.178 -0.0617 -0.0154  0.1511
 8808SOL    HW138060   4.433   4.623   8.087  0.9349  0.7953  0.3382
 8808SOL    HW238061   4.445   4.560   8.224 -0.7917  0.9687  2.3481
 8809SOL     OW38062   1.651   2.491   3.113  0.0026 -0.3415 -0.6791
 8809SOL    HW138063   1.583   2.547   3.149 -0.3821 -1.0356 -0.3162
 8809SOL    HW238064   1.645   2.503   3.019  1.3862 -0.3849 -0.7823
 8810SOL     OW38065   4.590   2.394   9.202 -0.1599  0.1479  0.0453
 8810SOL    HW138066   4.654   2.355   9.263  2.5464  0.3093 -2.7077
 8810SOL    HW238067   4.528   2.427   9.267 -1.0112  1.2776 -1.3452
 8811SOL     OW38068   1.265   1.538   6.333  0.2949  0.3708 -0.1187
 8811SOL    HW138069   1.283   1.446   6.356 -0.5856  0.2969  0.3033
 8811SOL    HW238070   1.169   1.537   6.340  0.3715 -1.4713  0.8708
 8812SOL     OW38071   3.405   1.571  12.061 -0.1504 -0.2396 -0.0210
 8812SOL    HW138072   3.464   1.496  12.066  0.5692  0.3774  0.6665
 8812SOL    HW238073   3.446   1.623  11.992 -1.0204  0.7897  0.2328
 8813SOL     OW38074   3.485   1.623   7.278  0.1719  0.2634  0.9534
 8813SOL    HW138075   3.435   1.649   7.355 -0.1086  0.6612  0.6416
 8813SOL    HW238076   3.513   1.537   7.308 -0.4698  0.2930  1.6512
 8814SOL     OW38077   2.637   3.635   4.582 -0.6124  0.3806  0.0096
 8814SOL    HW138078   2.579   3.620   4.657  0.3211  1.8876  1.0064
 8814SOL    HW238079   2.576   3.601   4.516  1.2264 -2.2634 -0.3369
 8815SOL     OW38080   0.214   0.209   3.528  0.2025 -0.8663  0.6201
 8815SOL    HW138081   0.258   0.244   3.606 -0.5412 -0.1252  0.7063
 8815SOL    HW238082   0.124   0.192   3.557  0.1722 -2.2875 -0.3214
 8816SOL     OW38083   4.227   4.599   5.400 -0.7393 -0.5333  0.8370
 8816SOL    HW138084   4.147   4.648   5.420 -2.9760 -2.7309 -2.7216
 8816SOL    HW238085   4.258   4.655   5.329 -0.9054 -0.9536  0.4337
 8817SOL     OW38086   1.716   2.131   8.811  0.1036  0.4331  0.0748
 8817SOL    HW138087   1.749   2.207   8.860  0.0716 -0.1711  1.0278
 8817SOL    HW238088   1.772   2.057   8.834 -0.7613 -0.7656 -1.7361
 8818SOL     OW38089   3.995   0.055   7.147 -0.2825 -0.8844 -0.3701
 8818SOL    HW138090   4.026   4.705   7.176 -0.4023 -0.2783  1.5310
 8818SOL    HW238091   3.927   0.067   7.214  2.0309 -2.3149  2.2323
 8819SOL     OW38092   2.375   1.514   5.602 -0.2420  0.3115  0.0099
 8819SOL    HW138093   2.421   1.583   5.648 -0.6947  1.4538 -1.2433
 8819SOL    HW238094   2.339   1.565   5.529  1.4929  3.4235  1.3296
 8820SOL     OW38095   0.307   3.273  10.092 -0.4647 -0.0218 -0.1511
 8820SOL    HW138096   0.388   3.226  10.111 -1.1929 -1.8371 -1.6139
 8820SOL    HW238097   0.312   3.342  10.159  1.5501  0.1234 -0.4548
 8821SOL     OW38098   2.855   3.104   4.385 -0.7094  0.5576  0.2492
 8821SOL    HW138099   2.941   3.120   4.423 -0.5067 -0.6893  0.3061
 8821SOL    HW238100   2.804   3.097   4.465 -0.6501 -0.3288  0.2109
 8822SOL     OW38101   2.990   1.691  10.885  0.2963  0.5615  0.0049
 8822SOL    HW138102   3.059   1.720  10.825  2.1009  0.7362  2.1657
 8822SOL    HW238103   2.911   1.720  10.839  0.7367 -1.0828 -1.7997
 8823SOL     OW38104   1.028   2.187  16.690  0.2440 -0.1897 -0.6268
 8823SOL    HW138105   0.978   2.263  16.720  1.8076  1.1013 -1.2764
 8823SOL    HW238106   1.036   2.194  16.595  3.1683  2.0442 -0.2424
 8824SOL     OW38107   1.151   1.507   9.224  0.1350  0.5280 -0.4072
 8824SOL    HW138108   1.079   1.543   9.276  1.8952  3.5717 -0.0470
 8824SOL    HW238109   1.165   1.423   9.266  1.4083 -0.3592 -2.6081
 8825SOL     OW38110   3.517   1.565   6.877  0.2410  0.5556 -0.2553
 8825SOL    HW138111   3.504   1.492   6.817  1.6915 -0.3341  0.5014
 8825SOL    HW238112   3.534   1.636   6.815 -0.5578  1.3159  0.3902
 8826SOL     OW38113   4.639   2.262   3.671  0.0348  0.1082 -0.7818
 8826SOL    HW138114   4.690   2.218   3.603  0.6094  1.6587 -1.3656
 8826SOL    HW238115   4.673   2.351   3.682 -0.5005  0.2955 -0.6573
 8827SOL     OW38116   3.781   0.693   4.384  0.3678  0.2254 -0.0676
 8827SOL    HW138117   3.705   0.749   4.400  1.6725  1.9201  0.1473
 8827SOL    HW238118   3.739   0.616   4.344 -2.1047  0.1598  2.6628
 8828SOL     OW38119   3.148   3.189   4.301  0.3324  0.3111 -0.2379
 8828SOL    HW138120   3.110   3.139   4.373 -0.0570 -0.9137 -1.3109
 8828SOL    HW238121   3.170   3.268   4.352  0.4161 -0.7797  1.4336
 8829SOL     OW38122   0.280   3.226  14.762  0.0613  0.1633 -0.4496
 8829SOL    HW138123   0.312   3.271  14.684 -0.6670 -2.6496 -2.3692
 8829SOL    HW238124   0.226   3.161  14.717  0.2947  0.9550 -1.8803
 8830SOL     OW38125   2.485   0.589   2.171 -0.7461  0.5350 -0.0302
 8830SOL    HW138126   2.518   0.607   2.084  1.8530 -1.0446  0.6400
 8830SOL    HW238127   2.395   0.615   2.151 -1.5401 -1.7106  0.5862
 8831SOL     OW38128   2.156   0.980   4.828 -0.0206 -0.4847 -0.0154
 8831SOL    HW138129   2.204   1.052   4.788 -0.5821 -0.5456 -0.7955
 8831SOL    HW238130   2.172   0.970   4.922  2.9952 -0.3186 -0.5069
 8832SOL     OW38131   0.333   0.742   3.161 -0.2494 -0.0067  0.2485
 8832SOL    HW138132   0.255   0.785   3.125  0.9246  1.0015 -1.0957
 8832SOL    HW238133   0.359   0.812   3.220  0.8891 -0.3495  0.1463
 8833SOL     OW38134   2.458   0.832   8.099 -0.1378  0.2311  0.2230
 8833SOL    HW138135   2.549   0.808   8.081 -0.2178 -0.1139  0.2666
 8833SOL    HW238136   2.470   0.914   8.145  1.2357  1.5132 -2.4120
 8834SOL     OW38137   2.114   4.385   3.170  0.0448  0.2951 -0.2830
 8834SOL    HW138138   2.178   4.418   3.106 -1.1304  2.7488 -0.1802
 8834SOL    HW238139   2.155   4.404   3.254  1.3075 -4.3692  0.1922
 8835SOL     OW38140   4.187   2.404  10.281  0.4194 -0.2266 -0.8270
 8835SOL    HW138141   4.178   2.447  10.196  0.3480 -0.7573 -1.0859
 8835SOL    HW238142   4.150   2.471  10.338 -1.3025 -1.5100 -0.4556
 8836SOL     OW38143   1.318   4.011   6.779  0.8867 -0.1340  0.3770
 8836SOL    HW138144   1.402   3.969   6.763  0.3009 -1.0128 -0.3793
 8836SOL    HW238145   1.338   4.102   6.756  0.5657 -0.3413 -0.7444
 8837SOL     OW38146   4.266   0.400   2.353 -0.0928 -0.1349 -0.0032
 8837SOL    HW138147   4.224   0.434   2.432 -2.7261  1.9019 -2.3157
 8837SOL    HW238148   4.290   0.485   2.315 -0.3287  1.2554  2.9856
 8838SOL     OW38149   4.477   0.554   5.100  0.2613 -0.1532 -0.1926
 8838SOL    HW138150   4.551   0.610   5.126  0.1762 -0.2620  0.2791
 8838SOL    HW238151   4.424   0.572   5.177  0.0575 -0.2388 -0.3151
 8839SOL     OW38152   2.372   3.109   0.200  0.2311  0.4943  0.2886
 8839SOL    HW138153   2.366   3.170   0.126  2.4277 -0.1086 -0.3769
 8839SOL    HW238154   2.337   3.032   0.157 -1.6309  1.1899  0.5745
 8840SOL     OW38155   4.393   1.862   3.982  0.2114  0.1631  0.2776
 8840SOL    HW138156   4.417   1.850   3.891  1.8481  1.5009  0.5367
 8840SOL    HW238157   4.466   1.816   4.025  1.8870  2.2100 -0.4055
 8841SOL     OW38158   3.465   0.221   0.115 -0.1429 -0.8928  0.2290
 8841SOL    HW138159   3.501   0.259   0.195 -0.2463  0.0551 -0.1692
 8841SOL    HW238160   3.474   0.286   0.046 -1.2754  0.2481  1.1396
 8842SOL     OW38161   2.023   3.575   7.935  0.3321  0.8588 -0.3090
 8842SOL    HW138162   2.065   3.541   7.856 -1.8160 -0.1626 -1.0223
 8842SOL    HW238163   2.088   3.632   7.977 -1.2688  0.5956  2.5421
 8843SOL     OW38164   2.734   2.127   8.526 -0.1640  0.1930  0.2349
 8843SOL    HW138165   2.667   2.137   8.593 -1.5941 -2.7184 -0.7531
 8843SOL    HW238166   2.756   2.034   8.521  2.7029  0.8323  1.0517
 8844SOL     OW38167   1.966   3.731   6.901 -0.1059 -0.0249  0.2011
 8844SOL    HW138168   1.883   3.746   6.857 -0.8251  0.3291  1.6856
 8844SOL    HW238169   1.962   3.795   6.972  0.3771  1.8699 -1.4734
 8845SOL     OW38170   4.284   0.379   8.510  0.1439 -0.0207  0.0183
 8845SOL    HW138171   4.219   0.390   8.579  0.4683  0.6904  0.2051
 8845SOL    HW238172   4.230   0.363   8.433 -2.1318 -0.4742  1.7114
 8846SOL     OW38173   0.079   3.175  15.011  0.2199  0.3682  0.1078
 8846SOL    HW138174   0.116   3.256  14.975  1.6928 -0.6187 -0.6235
 8846SOL    HW238175   4.732   3.221  15.007 -1.6579 -2.8754  1.6183
 8847SOL     OW38176   0.973   1.523  11.436 -0.1264 -0.1132  0.2403
 8847SOL    HW138177   0.930   1.467  11.372 -0.4123  0.3303  0.0451
 8847SOL    HW238178   1.063   1.490  11.445  0.2285  0.9293  0.5086
 8848SOL     OW38179   4.197   3.032   4.080  0.0737 -0.4367 -0.1927
 8848SOL    HW138180   4.111   3.073   4.070 -0.2312 -0.9290  0.3900
 8848SOL    HW238181   4.163   2.946   4.106 -0.0615 -0.8838 -1.8451
 8849SOL     OW38182   3.401   1.052  11.785  0.1510  0.0265  0.0180
 8849SOL    HW138183   3.423   1.010  11.702  0.8569  0.8342 -0.1972
 8849SOL    HW238184   3.331   0.994  11.818 -0.1682  0.8020  0.7105
 8850SOL     OW38185   0.061   0.837   8.454  0.3000 -0.0117 -0.0883
 8850SOL    HW138186   0.073   0.905   8.387  1.3702  1.0059  1.1389
 8850SOL    HW238187   4.702   0.831   8.461  0.2175 -1.4611 -2.3126
 8851SOL     OW38188   0.469   4.588   6.037 -0.3779  0.2740 -0.0347
 8851SOL    HW138189   0.504   4.565   5.951  1.8103 -2.2622  1.5215
 8851SOL    HW238190   0.385   4.626   6.010  0.3420  2.6785  1.0466
 8852SOL     OW38191   3.879   3.225  13.842 -0.7716  0.3162  0.3875
 8852SOL    HW138192   3.927   3.305  13.865  1.6442 -1.3968  1.2972
 8852SOL    HW238193   3.831   3.202  13.922  2.2883 -0.3759  2.0619
 8853SOL     OW38194   4.641   2.358  10.974  0.3875  0.2227  0.1935
 8853SOL    HW138195   4.637   2.402  10.890  0.0301  0.5352  0.3719
 8853SOL    HW238196   4.591   2.281  10.949 -1.5103  2.1354 -1.8734
 8854SOL     OW38197   1.893   4.631   6.284 -0.2333 -0.1054 -0.2450
 8854SOL    HW138198   1.890   4.556   6.225 -1.0247 -1.3295  1.3384
 8854SOL    HW238199   1.877   4.706   6.227 -1.3145 -0.1952 -0.0568
 8855SOL     OW38200   0.355   2.725   3.810 -0.1280  0.4265 -0.0267
 8855SOL    HW138201   0.361   2.735   3.905 -0.2269 -0.3194  0.0542
 8855SOL    HW238202   0.285   2.788   3.794 -0.5115  0.0402  0.1372
 8856SOL     OW38203   0.612   3.862   8.016  0.4238 -0.0294 -0.0414
 8856SOL    HW138204   0.555   3.809   8.072  1.4116 -0.1571  0.8287
 8856SOL    HW238205   0.562   3.943   8.003 -0.9328 -0.4785  2.3776
 8857SOL     OW38206   1.825   4.003   4.464  0.2261 -0.6160  0.1359
 8857SOL    HW138207   1.796   3.996   4.373 -0.4379  0.6795  0.2586
 8857SOL    HW238208   1.921   4.010   4.461  0.0731  0.7747 -1.6439
 8858SOL     OW38209   2.844   4.144   1.447  0.1331  0.2154  0.1364
 8858SOL    HW138210   2.917   4.177   1.500  0.1645  0.8353 -0.2995
 8858SOL    HW238211   2.819   4.063   1.492  1.1094 -1.3095 -2.1020
 8859SOL     OW38212   1.142   4.679   3.144 -0.1414  0.6167 -0.0139
 8859SOL    HW138213   1.210   4.613   3.155 -1.6219 -0.5070  2.4769
 8859SOL    HW238214   1.177   0.012   3.201 -1.9753 -0.1179  2.0202
 8860SOL     OW38215   0.959   2.594   3.423  0.1682 -0.3162 -0.5203
 8860SOL    HW138216   0.984   2.589   3.330  1.0794  2.6724 -0.4472
 8860SOL    HW238217   0.890   2.527   3.426 -1.0105  1.0119  2.0584
 8861SOL     OW38218   0.256   0.688  17.389  0.2520 -0.3955  0.0115
 8861SOL    HW138219   0.292   0.606  17.355 -0.9646 -1.0601  0.3410
 8861SOL    HW238220   0.163   0.669  17.397  0.4110 -0.6415  1.2130
 8862SOL     OW38221   1.271   4.324   9.598  0.7702  0.1637  0.2278
 8862SOL    HW138222   1.210   4.269   9.549 -1.5906  2.9517  0.0085
 8862SOL    HW238223   1.253   4.292   9.686  3.0773  0.0883  0.6864
 8863SOL     OW38224   1.371   1.165   4.848 -0.3416 -0.1288  0.4660
 8863SOL    HW138225   1.336   1.091   4.898  0.7319 -0.7765  0.2503
 8863SOL    HW238226   1.386   1.130   4.760  0.2107  0.0508  0.4904
 8864SOL     OW38227   0.871   3.656   7.150 -0.4479  0.0036  0.7666
 8864SOL    HW138228   0.928   3.582   7.126 -1.8961 -1.5571  2.1507
 8864SOL    HW238229   0.873   3.644   7.245 -3.7348  0.5976  0.9064
 8865SOL     OW38230   0.865   1.863  14.620 -0.7055 -0.0662  0.0939
 8865SOL    HW138231   0.800   1.923  14.656 -0.7010 -0.5781  0.9630
 8865SOL    HW238232   0.834   1.780  14.658  0.3929  0.5803  2.3913
 8866SOL     OW38233   4.323   1.158   8.118  0.0398  0.1244  0.0986
 8866SOL    HW138234   4.418   1.145   8.124  0.1237  0.9028  0.5501
 8866SOL    HW238235   4.285   1.122   8.198 -1.0824  0.7037 -0.1644
 8867SOL     OW38236   4.453   1.965  14.661  0.3847  0.0424  0.2339
 8867SOL    HW138237   4.375   1.913  14.681 -0.2185  1.4135  1.4856
 8867SOL    HW238238   4.442   2.029  14.731  0.1816 -1.9978  2.0553
 8868SOL     OW38239   0.460   1.987   6.790 -0.2056 -0.4776 -0.1218
 8868SOL    HW138240   0.540   1.963   6.745  1.3331  3.5349  0.4925
 8868SOL    HW238241   0.448   2.069   6.743  0.0327 -0.7754 -0.7034
 8869SOL     OW38242   4.599   3.900   1.608  0.0758  0.2444 -0.0819
 8869SOL    HW138243   4.625   3.929   1.521  0.6963  3.2713  1.0966
 8869SOL    HW238244   4.544   3.824   1.586  1.8101 -0.8292 -0.6561
 8870SOL     OW38245   0.551   4.511   6.293 -0.2996 -0.1005  0.3923
 8870SOL    HW138246   0.468   4.471   6.321 -0.1580 -2.1404 -2.1322
 8870SOL    HW238247   0.515   4.567   6.224  0.8842  1.0776  0.7376
 8871SOL     OW38248   2.265   1.630  11.554  0.3887 -0.3193 -0.5385
 8871SOL    HW138249   2.186   1.679  11.577 -0.6026 -1.9544 -0.4720
 8871SOL    HW238250   2.339   1.689  11.568 -0.1601 -0.1566  1.6955
 8872SOL     OW38251   0.942   1.329   4.602  0.1782 -0.5077  0.2631
 8872SOL    HW138252   1.003   1.380   4.655 -1.8117  0.9109  1.2082
 8872SOL    HW238253   0.866   1.344   4.659  1.0948  0.5809  1.2082
 8873SOL     OW38254   3.570   3.038  15.124  0.2146 -0.4871 -0.5820
 8873SOL    HW138255   3.565   3.027  15.219  1.6105  0.6288 -0.3848
 8873SOL    HW238256   3.521   3.120  15.110  1.8412  0.7570  0.9859
 8874SOL     OW38257   2.017   3.001  13.851 -0.0554 -0.0454 -0.6117
 8874SOL    HW138258   1.998   2.963  13.766  0.5440  1.5976 -1.4840
 8874SOL    HW238259   2.099   2.953  13.866 -0.4721 -1.2815 -2.3758
 8875SOL     OW38260   1.140   0.221   9.683  0.7232 -0.0303 -0.1355
 8875SOL    HW138261   1.120   0.252   9.772  2.3426  0.5752  0.0160
 8875SOL    HW238262   1.115   0.128   9.680 -0.6626  0.2903  0.9108
 8876SOL     OW38263   2.967   1.398   8.245  0.2262  0.5998 -0.8450
 8876SOL    HW138264   2.999   1.480   8.207 -1.6150  1.2972 -0.8877
 8876SOL    HW238265   3.042   1.367   8.296 -1.4628 -2.0344  0.0550
 8877SOL     OW38266   3.559   0.104   4.783  0.6103  1.1833  0.4745
 8877SOL    HW138267   3.624   0.138   4.720  0.0260 -0.7004 -1.1185
 8877SOL    HW238268   3.596   0.017   4.800 -2.3047 -0.2882 -0.8546
 8878SOL     OW38269   2.431   1.567   1.108 -0.2469  0.2723 -0.2127
 8878SOL    HW138270   2.505   1.619   1.076  0.1147 -0.1700 -0.0961
 8878SOL    HW238271   2.472   1.481   1.097 -1.9780 -1.0291  3.5418
 8879SOL     OW38272   0.502   2.897   5.110 -0.7261  0.0510  0.3886
 8879SOL    HW138273   0.433   2.962   5.117 -0.0826  0.5859  1.5820
 8879SOL    HW238274   0.575   2.955   5.129 -0.7712  1.1902 -2.7926
 8880SOL     OW38275   0.279   3.437  14.924 -0.0400  0.6335 -0.1796
 8880SOL    HW138276   0.327   3.407  15.001  1.7406  3.1159 -0.3036
 8880SOL    HW238277   0.277   3.363  14.862 -0.3174 -0.1770  0.8012
 8881SOL     OW38278   2.388   2.251   3.789  0.1864  0.3416 -0.1098
 8881SOL    HW138279   2.343   2.196   3.853  0.3022  0.9870  0.5313
 8881SOL    HW238280   2.451   2.184   3.763  1.1940  1.9732 -1.9096
 8882SOL     OW38281   4.339   2.245  10.497 -0.3892  0.6158 -0.2668
 8882SOL    HW138282   4.294   2.285  10.423  0.2223 -1.7685 -1.9079
 8882SOL    HW238283   4.280   2.170  10.494 -1.5674  1.4142  3.2362
 8883SOL     OW38284   1.439   4.686   2.406 -0.0958  0.5090 -0.0071
 8883SOL    HW138285   1.361   4.648   2.364  0.4964 -0.2252 -0.4479
 8883SOL    HW238286   1.401   4.689   2.494 -0.1315  0.8008 -0.0331
 8884SOL     OW38287   4.098   2.214   2.942  0.5925 -0.0363 -0.3580
 8884SOL    HW138288   4.135   2.258   2.865  0.3841 -0.7040 -0.8492
 8884SOL    HW238289   4.176   2.212   2.998  1.1833 -1.1305 -1.1991
 8885SOL     OW38290   0.679   2.249   2.868  0.0524 -0.3885 -0.0188
 8885SOL    HW138291   0.742   2.197   2.817 -0.6373 -1.2927  0.0370
 8885SOL    HW238292   0.645   2.187   2.932  3.6793 -1.2519  1.0542
 8886SOL     OW38293   3.030   1.675   3.441 -0.1427 -0.4603 -0.6659
 8886SOL    HW138294   2.946   1.691   3.483  0.9663 -1.3030  1.8561
 8886SOL    HW238295   3.001   1.620   3.367 -0.6568  1.1630 -1.6585
 8887SOL     OW38296   4.659   4.372  14.621 -0.6035  0.1299 -0.3562
 8887SOL    HW138297   4.663   4.336  14.709  2.0959 -0.1549 -0.5892
 8887SOL    HW238298   0.005   4.421  14.631 -0.6368  0.0023  0.5444
 8888SOL     OW38299   3.903   4.231   9.291 -0.0212  0.1348 -0.1141
 8888SOL    HW138300   3.879   4.144   9.323 -0.1548  0.5017  0.7804
 8888SOL    HW238301   3.976   4.244   9.352  1.8809 -2.4213 -1.7862
 8889SOL     OW38302   2.887   3.886  12.036 -0.3416  0.1157  0.3951
 8889SOL    HW138303   2.876   3.847  12.122 -0.7389 -1.4630 -0.3794
 8889SOL    HW238304   2.859   3.978  12.041  2.8177  1.1017 -0.0371
 8890SOL     OW38305   0.450   1.355   8.993  0.7000  0.1914 -0.3906
 8890SOL    HW138306   0.439   1.415   9.067  0.3704  1.3878 -1.4144
 8890SOL    HW238307   0.388   1.287   9.020 -0.0503  0.0944 -2.3659
 8891SOL     OW38308   4.408   1.489   9.097  0.0906 -0.1661 -0.3660
 8891SOL    HW138309   4.495   1.489   9.058  1.3454  0.5414  2.3698
 8891SOL    HW238310   4.426   1.512   9.189 -0.9223 -0.4284 -0.1019
 8892SOL     OW38311   1.909   1.842   4.246 -0.2420  0.3431 -0.3195
 8892SOL    HW138312   1.839   1.778   4.229  0.0818  0.2528 -1.3365
 8892SOL    HW238313   1.946   1.825   4.333 -1.7469  2.1614  0.6565
 8893SOL     OW38314   1.196   4.640   8.084 -0.1552  0.3537  0.2593
 8893SOL    HW138315   1.191   4.684   8.168 -1.6794  0.3523  0.1651
 8893SOL    HW238316   1.247   4.705   8.035 -0.0652 -1.6747 -2.3800
 8894SOL     OW38317   4.003   2.602  11.773 -0.4760 -0.0498  0.5917
 8894SOL    HW138318   3.978   2.619  11.864  0.7615  0.3003  0.8635
 8894SOL    HW238319   4.098   2.596  11.785 -0.2618  0.6830 -0.7350
 8895SOL     OW38320   0.217   1.158  13.703 -0.0826 -0.0130 -0.4894
 8895SOL    HW138321   0.211   1.172  13.798  1.5638 -1.5083 -0.1688
 8895SOL    HW238322   0.238   1.245  13.670 -2.3643  0.2656 -1.2078
 8896SOL     OW38323   1.850   1.670   6.249  0.4231 -0.3295  0.1049
 8896SOL    HW138324   1.945   1.672   6.262  0.4549  2.6261 -0.6909
 8896SOL    HW238325   1.842   1.672   6.154 -0.2235 -0.6876  0.1473
 8897SOL     OW38326   2.115   2.710   6.196 -0.2274 -0.2017  0.2411
 8897SOL    HW138327   2.202   2.674   6.212 -0.8997 -1.3010  1.4011
 8897SOL    HW238328   2.119   2.791   6.247 -1.5114  1.0236 -1.6098
 8898SOL     OW38329   0.812   0.997  12.775  0.4545 -0.2219 -0.4731
 8898SOL    HW138330   0.897   0.976  12.813 -0.6291  0.0392  2.0539
 8898SOL    HW238331   0.792   0.924  12.716  0.8304 -1.2124  0.6389
 8899SOL     OW38332   3.275   2.931   7.339 -0.4018 -0.1863  0.7505
 8899SOL    HW138333   3.243   2.918   7.428  0.3248 -1.8469  0.7684
 8899SOL    HW238334   3.220   2.868   7.293  1.2211 -0.2685 -1.0854
 8900SOL     OW38335   4.175   1.919   7.691 -0.0591  0.4680 -0.2781
 8900SOL    HW138336   4.163   1.998   7.638  0.5992  3.0901  3.5285
 8900SOL    HW238337   4.224   1.867   7.627 -0.5840 -0.4077  0.0251
 8901SOL     OW38338   0.415   0.750   7.512 -0.0726 -0.1603 -0.2342
 8901SOL    HW138339   0.403   0.726   7.603  2.6164  1.1391  0.4686
 8901SOL    HW238340   0.482   0.818   7.523  0.6390 -0.9689  0.4089
 8902SOL     OW38341   3.608   1.893   0.413 -0.5416  0.0473  0.3788
 8902SOL    HW138342   3.698   1.899   0.444  0.1993 -1.4214 -1.5323
 8902SOL    HW238343   3.627   1.827   0.347  1.2378 -0.1217  1.0600
 8903SOL     OW38344   3.551   4.636   7.710  0.9238  0.9948  0.4371
 8903SOL    HW138345   3.591   4.680   7.785 -0.9108  0.1159  1.9264
 8903SOL    HW238346   3.615   4.566   7.695 -0.4455 -0.4374  1.2589
 8904SOL     OW38347   0.914   1.667   0.917 -0.2779  0.6345  0.2378
 8904SOL    HW138348   0.863   1.748   0.913  1.9890  2.0462 -0.2731
 8904SOL    HW238349   0.875   1.625   0.841 -0.2456  0.1758  0.4732
 8905SOL     OW38350   4.552   0.869  14.596  0.0770  0.1888  0.4143
 8905SOL    HW138351   4.542   0.830  14.683 -2.1200 -2.0913 -0.8717
 8905SOL    HW238352   4.499   0.948  14.607  0.9156  0.7684  0.2246
 8906SOL     OW38353   2.534   4.726  14.460  0.8716  0.5248  0.0261
 8906SOL    HW138354   2.467   0.059  14.463 -0.5589 -0.8991  0.3975
 8906SOL    HW238355   2.592   0.028  14.394  0.8007  0.4001 -0.1079
 8907SOL     OW38356   0.010   1.222  14.570  0.2016  0.8888  0.3308
 8907SOL    HW138357   4.680   1.171  14.617  0.2845 -0.0597 -0.5683
 8907SOL    HW238358   0.063   1.147  14.543  1.9770  1.4517  2.3416
 8908SOL     OW38359   1.256   2.033  16.736  0.0937  0.1842  0.0845
 8908SOL    HW138360   1.191   2.098  16.707  1.0486  0.4075 -1.5726
 8908SOL    HW238361   1.249   1.951  16.687  1.8370  0.2356 -0.2296
 8909SOL     OW38362   2.361   1.237  10.269  0.4688  0.0837 -0.1789
 8909SOL    HW138363   2.316   1.287  10.201 -0.5641  0.9101  1.1291
 8909SOL    HW238364   2.414   1.303  10.312 -0.9952  0.6179  0.7871
 8910SOL     OW38365   3.375   1.881  13.147 -0.1100 -0.7541  0.6913
 8910SOL    HW138366   3.443   1.878  13.214 -1.1949 -3.2654  1.6985
 8910SOL    HW238367   3.300   1.891  13.206  1.0321  2.2294  1.6220
 8911SOL     OW38368   1.660   0.164   4.724  0.2758 -0.0005  0.0873
 8911SOL    HW138369   1.567   0.144   4.730  0.0130  0.7611 -1.4057
 8911SOL    HW238370   1.652   0.254   4.754 -1.0443 -0.1133  0.0504
 8912SOL     OW38371   4.435   1.712  16.249  0.0934  0.3548 -0.0851
 8912SOL    HW138372   4.517   1.741  16.208 -0.6300  3.4060  0.5945
 8912SOL    HW238373   4.462   1.644  16.310 -2.9072 -1.5143 -0.8615
 8913SOL     OW38374   2.886   1.771  16.224 -0.2954  0.2512 -0.1492
 8913SOL    HW138375   2.863   1.831  16.153 -1.6623 -0.4999 -0.3429
 8913SOL    HW238376   2.971   1.811  16.245 -0.3066 -0.2747  0.8715
 8914SOL     OW38377   4.648   2.574  10.437 -0.0120 -0.1561 -0.0604
 8914SOL    HW138378   4.605   2.599  10.519  1.3566 -0.1566  0.6608
 8914SOL    HW238379   4.678   2.485  10.454  2.9962  0.6987 -0.7624
 8915SOL     OW38380   4.400   1.934   5.940 -0.1244  0.1201  0.6056
 8915SOL    HW138381   4.437   2.016   5.972 -0.1550  0.8065 -1.0931
 8915SOL    HW238382   4.461   1.919   5.867 -1.5732  2.2828 -1.0559
 8916SOL     OW38383   0.270   2.652   6.651  0.1755 -0.1072  0.0295
 8916SOL    HW138384   0.239   2.588   6.587 -1.7833  1.6456 -0.7618
 8916SOL    HW238385   0.334   2.602   6.702 -1.1003 -1.1864  0.5942
 8917SOL     OW38386   3.443   3.647   3.751  0.2088  0.6795  0.6585
 8917SOL    HW138387   3.478   3.674   3.666 -1.5979  0.5444 -0.1242
 8917SOL    HW238388   3.365   3.596   3.727  0.7347 -0.7275  1.9660
 8918SOL     OW38389   4.526   1.386   1.708 -0.1360  0.3490 -0.2269
 8918SOL    HW138390   4.498   1.455   1.768  3.5930 -1.0602  3.1096
 8918SOL    HW238391   4.618   1.399   1.728 -0.0280 -1.5271  0.4490
 8919SOL     OW38392   0.277   0.432   3.423 -0.3212  0.8361 -0.6389
 8919SOL    HW138393   0.188   0.466   3.431 -0.5401 -0.0790  0.7728
 8919SOL    HW238394   0.258   0.338   3.420 -0.3498  0.8322 -0.3113
 8920SOL     OW38395   2.534   0.537   8.650  0.7427 -0.0025 -0.2393
 8920SOL    HW138396   2.513   0.611   8.594 -0.3433 -2.2204 -2.7903
 8920SOL    HW238397   2.603   0.495   8.598 -1.7554 -1.8928 -2.0502
 8921SOL     OW38398   3.591   4.038  15.284 -0.4203  0.2767 -0.4876
 8921SOL    HW138399   3.658   3.985  15.241  0.2561 -2.1272  3.5590
 8921SOL    HW238400   3.513   3.983  15.272 -0.6259  0.4869 -0.1110
 8922SOL     OW38401   3.081   0.953   9.188 -0.4104 -0.1590 -0.7385
 8922SOL    HW138402   2.996   0.917   9.214 -0.6439  0.4464 -0.6476
 8922SOL    HW238403   3.141   0.879   9.192 -0.7320 -0.5207 -2.5279
 8923SOL     OW38404   1.451   0.378  14.359 -0.1351  0.0843  0.1814
 8923SOL    HW138405   1.461   0.459  14.408 -0.3616 -0.9938  2.0180
 8923SOL    HW238406   1.532   0.336  14.389  0.7770  1.4506 -0.3591
 8924SOL     OW38407   4.431   1.970   4.393 -0.5214  0.8891 -0.2198
 8924SOL    HW138408   4.355   1.924   4.429 -0.6746  2.6690  1.7930
 8924SOL    HW238409   4.452   2.018   4.474  1.3011  0.1668 -0.2719
 8925SOL     OW38410   0.558   1.928   7.877 -0.0733  0.5608  0.5370
 8925SOL    HW138411   0.541   1.959   7.788  0.0286 -0.9289  0.0094
 8925SOL    HW238412   0.620   1.859   7.854  0.2878  1.1643 -0.3136
 8926SOL     OW38413   4.335   4.251   1.897  0.0873 -0.2856  0.0725
 8926SOL    HW138414   4.411   4.201   1.868 -0.5482 -1.6941  0.8500
 8926SOL    HW238415   4.270   4.183   1.915 -1.4272  0.5572 -2.2536
 8927SOL     OW38416   2.714   2.246   1.877 -0.0608 -0.6205  0.1937
 8927SOL    HW138417   2.772   2.182   1.919 -1.4277 -1.0132  1.5125
 8927SOL    HW238418   2.764   2.256   1.796 -0.6084  1.9761  0.1760
 8928SOL     OW38419   2.947   2.011   6.309 -0.7095 -0.1021 -0.0438
 8928SOL    HW138420   2.978   1.921   6.314 -1.7705 -0.4871 -0.5557
 8928SOL    HW238421   2.920   2.031   6.399 -1.1834  1.3042 -0.4840
 8929SOL     OW38422   4.337   4.651  10.535  0.1493 -0.0175  0.3198
 8929SOL    HW138423   4.286   4.606  10.602 -1.9123  2.1597  0.2071
 8929SOL    HW238424   4.272   4.694  10.480  0.9020  2.5952  1.4767
 8930SOL     OW38425   0.296   3.077   5.132  0.6824  0.2096 -0.1164
 8930SOL    HW138426   0.307   3.140   5.203 -0.2180  1.1818 -0.8331
 8930SOL    HW238427   0.254   2.999   5.170 -0.6693  0.7343 -0.5277
 8931SOL     OW38428   1.343   3.245   5.010  0.0383 -0.8246  0.6753
 8931SOL    HW138429   1.291   3.245   4.930 -1.5307 -1.3261  1.7113
 8931SOL    HW238430   1.386   3.331   5.010 -1.0209 -0.2942 -0.4729
 8932SOL     OW38431   1.270   1.408   0.313  0.2161 -0.8299  0.1372
 8932SOL    HW138432   1.329   1.342   0.348  0.6495 -0.6789 -0.3189
 8932SOL    HW238433   1.194   1.396   0.371 -1.8963 -0.8204 -2.6179
 8933SOL     OW38434   3.559   4.203   2.294  0.5663 -0.1380 -0.5587
 8933SOL    HW138435   3.590   4.153   2.369  0.3584  1.4040  0.5615
 8933SOL    HW238436   3.605   4.285   2.315  0.8769 -0.0200 -1.6667
 8934SOL     OW38437   2.075   0.870   5.654  0.2027 -0.0037  0.3294
 8934SOL    HW138438   2.078   0.854   5.748  0.0228  0.2475  0.3804
 8934SOL    HW238439   2.159   0.911   5.636  0.3734  0.0179  1.1760
 8935SOL     OW38440   2.711   3.588  13.199 -0.0714 -0.0290 -0.1134
 8935SOL    HW138441   2.777   3.558  13.262  0.1306  0.2498 -0.1894
 8935SOL    HW238442   2.752   3.575  13.114  0.1848  1.8673 -0.2850
 8936SOL     OW38443   3.988   3.277   2.020 -0.3397 -0.1227 -0.6312
 8936SOL    HW138444   4.048   3.203   2.009 -1.2266 -1.0054  0.5366
 8936SOL    HW238445   4.045   3.350   1.993 -0.0471  0.7812  2.4647
 8937SOL     OW38446   1.321   0.381   8.981  0.0471 -0.3772 -0.4381
 8937SOL    HW138447   1.247   0.320   8.979  0.0951 -0.4374 -0.3530
 8937SOL    HW238448   1.339   0.392   9.074  1.8980  1.3310 -1.0056
 8938SOL     OW38449   1.820   1.160   0.544 -0.5037 -0.0090  0.3607
 8938SOL    HW138450   1.802   1.251   0.523  0.0250 -0.3814 -1.7497
 8938SOL    HW238451   1.787   1.125   0.461  1.8838 -1.1964 -0.1189
 8939SOL     OW38452   2.264   3.818  16.461 -0.5604  0.6330 -0.2014
 8939SOL    HW138453   2.223   3.733  16.471  0.2589  0.1032 -1.3513
 8939SOL    HW238454   2.195   3.873  16.498 -3.1166 -3.6462  1.3547
 8940SOL     OW38455   0.653   1.726   5.226  0.3622 -0.3632 -0.0224
 8940SOL    HW138456   0.567   1.764   5.243 -0.1439  0.2011 -3.9124
 8940SOL    HW238457   0.668   1.673   5.304 -1.6234  0.6652  1.0399
 8941SOL     OW38458   3.261   2.447   9.009  0.5871  0.1271 -0.1161
 8941SOL    HW138459   3.188   2.508   8.993  0.8017 -0.0314 -1.6421
 8941SOL    HW238460   3.310   2.489   9.080  0.3505  1.0504 -0.4954
 8942SOL     OW38461   2.864   4.273  11.168  0.1565  0.2574  0.6014
 8942SOL    HW138462   2.783   4.250  11.123  0.2790  0.0598  0.4826
 8942SOL    HW238463   2.858   4.225  11.251 -0.1931  2.1208  1.6595
 8943SOL     OW38464   2.941   0.027   8.346 -0.2331  0.2665 -0.2498
 8943SOL    HW138465   2.848   0.005   8.352 -0.0344 -0.2169  1.1015
 8943SOL    HW238466   2.977   4.732   8.263 -0.2523 -0.0002 -0.1596
 8944SOL     OW38467   1.987   3.993   7.039  0.0878 -0.6755  0.2004
 8944SOL    HW138468   1.934   4.058   7.086  0.1284  0.6173 -1.5461
 8944SOL    HW238469   1.991   4.029   6.950  0.8750 -0.1934  0.4262
 8945SOL     OW38470   1.547   4.210   1.791  0.1290 -0.1765 -0.3963
 8945SOL    HW138471   1.577   4.261   1.715  1.1246  0.6899  0.5694
 8945SOL    HW238472   1.611   4.230   1.860  0.8604 -0.5532 -0.9662
 8946SOL     OW38473   2.972   0.550   5.595  0.1689  0.3468  0.4110
 8946SOL    HW138474   3.004   0.635   5.565  1.4701 -0.3086 -0.0675
 8946SOL    HW238475   3.027   0.553   5.673  0.8817  1.0578 -0.1244
 8947SOL     OW38476   2.235   2.276   5.370  0.3718 -0.4280 -0.0801
 8947SOL    HW138477   2.285   2.297   5.291 -2.7909  0.9375 -1.6965
 8947SOL    HW238478   2.266   2.187   5.387 -0.1467 -1.2361 -3.4314
 8948SOL     OW38479   3.422   1.507   9.551  0.4785 -0.1104 -0.1372
 8948SOL    HW138480   3.491   1.445   9.573  0.3449 -1.7040 -4.3594
 8948SOL    HW238481   3.402   1.498   9.458  0.6031 -0.0598 -0.1694
 8949SOL     OW38482   0.272   3.909   6.486 -0.0962 -0.2488 -0.9215
 8949SOL    HW138483   0.270   3.819   6.518  1.5636 -0.4884 -1.4863
 8949SOL    HW238484   0.248   3.952   6.569 -1.4711  0.2352 -1.5693
 8950SOL     OW38485   4.669   3.794   4.245  0.2543 -0.3570  0.0000
 8950SOL    HW138486   4.696   3.884   4.265 -2.7776  0.4437  0.5103
 8950SOL    HW238487   0.015   3.749   4.261  0.9397  1.1535  0.7399
 8951SOL     OW38488   2.786   0.181   9.564  0.1535 -0.3113  0.1291
 8951SOL    HW138489   2.832   0.261   9.540 -0.2742 -0.3983 -0.9955
 8951SOL    HW238490   2.758   0.148   9.479 -1.9341  1.5559  0.0685
 8952SOL     OW38491   2.519   1.671  14.216 -0.1172 -0.2474  0.1700
 8952SOL    HW138492   2.568   1.722  14.152 -1.9951 -1.2809 -2.0860
 8952SOL    HW238493   2.546   1.711  14.298 -1.3017  1.2280 -0.1508
 8953SOL     OW38494   3.207   3.965   5.873  0.2205 -0.2588 -0.0462
 8953SOL    HW138495   3.289   3.997   5.835  0.6083 -0.8563  0.2921
 8953SOL    HW238496   3.147   3.982   5.801 -1.0485 -0.3661  0.9923
 8954SOL     OW38497   3.109   3.303   0.025 -0.0529  0.5075 -0.2446
 8954SOL    HW138498   3.072   3.336  17.686 -0.7640 -0.4340 -0.2994
 8954SOL    HW238499   3.123   3.211   0.004  0.3146  0.7107 -0.8899
 8955SOL     OW38500   3.344   1.093   5.207 -0.5532  1.1290  0.3696
 8955SOL    HW138501   3.412   1.038   5.246 -0.5906  3.6061  3.9525
 8955SOL    HW238502   3.394   1.170   5.178 -2.2572  1.6066 -1.2800
 8956SOL     OW38503   3.359   3.230  15.271 -0.2059 -0.4433  0.3551
 8956SOL    HW138504   3.375   3.323  15.288  2.4715 -0.6301 -1.0444
 8956SOL    HW238505   3.264   3.233  15.258 -0.1954 -2.1151 -0.0576
 8957SOL     OW38506   0.672   1.140   2.020  0.3880  0.2476  0.2086
 8957SOL    HW138507   0.751   1.086   2.024 -0.0350 -0.4104 -0.3772
 8957SOL    HW238508   0.625   1.102   2.094 -1.5971 -1.9028 -2.1802
 8958SOL     OW38509   1.890   1.989  14.667 -0.3919 -0.8852  0.0209
 8958SOL    HW138510   1.881   1.952  14.754 -3.6648 -0.3201 -0.0996
 8958SOL    HW238511   1.972   1.956  14.629  0.7395 -0.2771  1.9335
 8959SOL     OW38512   3.662   0.489   5.740  0.0599  0.0994  0.1059
 8959SOL    HW138513   3.646   0.539   5.660 -1.4794  0.7340  0.8172
 8959SOL    HW238514   3.732   0.542   5.779  0.9109 -0.8471 -0.1265
 8960SOL     OW38515   4.068   0.939   8.769 -0.7428 -0.5120  0.3416
 8960SOL    HW138516   4.135   1.002   8.796 -0.1980 -0.6040 -0.7977
 8960SOL    HW238517   4.123   0.864   8.745  2.1176  1.8849 -0.4834
 8961SOL     OW38518   0.663   1.557  13.378 -0.3284  0.1556  0.1065
 8961SOL    HW138519   0.714   1.581  13.300 -2.0754  0.8654 -0.8091
 8961SOL    HW238520   0.715   1.491  13.423  0.8205 -1.0562 -2.9721
 8962SOL     OW38521   2.486   4.181   9.853  0.5029  0.1801  0.0962
 8962SOL    HW138522   2.543   4.130   9.911 -0.5055 -0.8524  0.1773
 8962SOL    HW238523   2.529   4.158   9.770 -1.0297 -1.3975 -0.2715
 8963SOL     OW38524   1.230   0.442   5.797  0.1694 -0.6316  0.0921
 8963SOL    HW138525   1.227   0.394   5.880  3.3807 -0.3279  0.3990
 8963SOL    HW238526   1.186   0.380   5.739  0.4474 -0.1121 -0.6689
 8964SOL     OW38527   1.932   2.951  10.305 -0.0492 -0.2969 -0.2200
 8964SOL    HW138528   2.013   2.919  10.344 -0.0128  2.3996  1.9147
 8964SOL    HW238529   1.968   2.992  10.226 -2.5857 -0.1023 -1.2745
 8965SOL     OW38530   1.244   3.980  17.257 -0.0616  0.3929  0.7090
 8965SOL    HW138531   1.190   3.934  17.192 -0.2302 -0.1977  1.2631
 8965SOL    HW238532   1.194   4.062  17.261 -3.3488 -1.6040  1.1797
 8966SOL     OW38533   2.424   0.698   1.172 -0.1193  0.3640  0.3141
 8966SOL    HW138534   2.386   0.769   1.225  0.1018  0.5512  0.2239
 8966SOL    HW238535   2.398   0.732   1.086 -2.8757 -0.8924  0.6608
 8967SOL     OW38536   0.854   1.307   0.498 -0.6241 -0.0817 -0.2287
 8967SOL    HW138537   0.880   1.397   0.478 -2.7781  0.3443 -1.1374
 8967SOL    HW238538   0.784   1.290   0.436 -1.2475 -1.9896  0.9903
 8968SOL     OW38539   2.044   3.356   5.818 -0.2789  0.8480  0.4052
 8968SOL    HW138540   2.054   3.270   5.860 -1.4962  0.0107 -1.0323
 8968SOL    HW238541   2.099   3.358   5.739 -2.6453 -1.3775 -1.2843
 8969SOL     OW38542   2.302   3.389   7.993 -0.4614 -0.2143 -0.1203
 8969SOL    HW138543   2.244   3.314   7.982 -0.1982 -0.2673 -1.1640
 8969SOL    HW238544   2.382   3.352   7.955 -0.1654 -0.1925  0.4731
 8970SOL     OW38545   1.741   3.801  16.051 -0.1075 -0.2148  0.9566
 8970SOL    HW138546   1.696   3.885  16.035  0.2579  0.0766  1.4638
 8970SOL    HW238547   1.820   3.836  16.092  0.4749  0.0347 -0.3701
 8971SOL     OW38548   3.034   0.380   1.605 -0.3628 -0.0824  0.0439
 8971SOL    HW138549   3.015   0.436   1.681  0.0955 -2.3622  1.8441
 8971SOL    HW238550   2.955   0.326   1.604 -0.8505  0.6189  0.3949
 8972SOL     OW38551   2.635   2.937  16.143 -0.0151  0.1229  0.2641
 8972SOL    HW138552   2.709   2.961  16.199  1.0887 -0.1542 -1.0867
 8972SOL    HW238553   2.562   2.976  16.191 -1.1048 -0.0319 -1.2761
 8973SOL     OW38554   0.394   1.483  13.393 -0.0557 -0.5437  0.1155
 8973SOL    HW138555   0.486   1.505  13.384 -0.2888  0.5761  0.4831
 8973SOL    HW238556   0.367   1.445  13.309  1.0037  0.7938 -0.8231
 8974SOL     OW38557   1.407   0.310  11.104 -0.1480  0.2870  0.0407
 8974SOL    HW138558   1.459   0.385  11.077  1.4655 -0.7563  0.2319
 8974SOL    HW238559   1.391   0.339  11.194 -0.0101 -3.4671  1.2905
 8975SOL     OW38560   0.289   1.094   4.156  1.1163  0.0459  0.2709
 8975SOL    HW138561   0.369   1.146   4.171  1.8759 -0.9892 -0.2133
 8975SOL    HW238562   0.319   1.019   4.106  0.3415  1.5798 -2.5107
 8976SOL     OW38563   2.609   0.701   3.278  0.2794 -0.2600  0.6563
 8976SOL    HW138564   2.595   0.633   3.344 -0.3094  1.0362  1.8699
 8976SOL    HW238565   2.699   0.729   3.291 -0.2030  0.1451  3.1889
 8977SOL     OW38566   3.920   4.331  12.313  0.0960  0.2368 -0.5147
 8977SOL    HW138567   3.972   4.362  12.386  0.3167 -2.4561  0.4479
 8977SOL    HW238568   3.846   4.298  12.364  0.6036 -3.1946 -1.9756
 8978SOL     OW38569   1.267   4.329   8.274 -0.2412 -0.1979 -0.3113
 8978SOL    HW138570   1.198   4.267   8.253 -1.4820  0.4968  1.7415
 8978SOL    HW238571   1.227   4.414   8.257  1.4514  0.4180 -1.2974
 8979SOL     OW38572   4.655   1.572   7.772 -0.1452  0.7874  0.0771
 8979SOL    HW138573   4.641   1.481   7.801 -2.0621  0.5254 -1.7222
 8979SOL    HW238574   4.727   1.587   7.834 -1.2580  1.7412  1.1202
 8980SOL     OW38575   2.201   4.290  17.419 -0.3335 -0.0242  0.1277
 8980SOL    HW138576   2.195   4.216  17.479  1.2118  0.4436  0.8837
 8980SOL    HW238577   2.293   4.290  17.392 -0.7360  1.8619 -1.3027
 8981SOL     OW38578   1.208   1.132  13.350  0.3599 -0.1596  0.0448
 8981SOL    HW138579   1.231   1.197  13.417  1.0195  0.8252 -1.1499
 8981SOL    HW238580   1.231   1.056  13.404  2.1452  2.0496  2.3626
 8982SOL     OW38581   3.737   1.453  13.738  0.3720  0.3177  0.6723
 8982SOL    HW138582   3.686   1.528  13.706 -3.1962 -0.9445  3.2988
 8982SOL    HW238583   3.675   1.381  13.727  3.9276 -2.2858 -2.0544
 8983SOL     OW38584   0.056   4.665   5.446 -0.1853  0.2978  0.1867
 8983SOL    HW138585   0.069   4.604   5.519  0.8757 -0.4350 -0.6137
 8983SOL    HW238586   4.705   4.691   5.476 -0.6582 -0.2012 -0.7492
 8984SOL     OW38587   0.810   1.905   8.407  0.1502  0.0364  0.0073
 8984SOL    HW138588   0.794   1.818   8.443 -3.1559  0.4554 -0.4393
 8984SOL    HW238589   0.726   1.951   8.406 -1.0188 -2.1372 -0.5670
 8985SOL     OW38590   1.977   0.910   3.198 -0.1946 -0.2861  1.1238
 8985SOL    HW138591   2.013   0.846   3.137 -0.0952  1.1793 -0.3612
 8985SOL    HW238592   2.021   0.874   3.275  1.3301  0.3804  0.5637
 8986SOL     OW38593   2.297   0.300   3.397  0.3587 -0.0773  0.2104
 8986SOL    HW138594   2.388   0.297   3.366  0.4232  1.2961  0.2637
 8986SOL    HW238595   2.277   0.206   3.398  0.8322 -0.1886 -0.8744
 8987SOL     OW38596   2.977   1.574   9.695  0.3558  0.2171  0.4848
 8987SOL    HW138597   3.047   1.509   9.682 -0.2628 -0.2326 -0.5967
 8987SOL    HW238598   3.003   1.621   9.774 -1.5395  2.3061 -0.1199
 8988SOL     OW38599   4.716   0.170  11.300 -0.3945 -0.2109 -0.3952
 8988SOL    HW138600   0.034   0.112  11.247 -0.0205  1.2852 -1.6665
 8988SOL    HW238601   4.626   0.149  11.274 -0.0773 -2.9375  0.7229
 8989SOL     OW38602   1.504   2.595   9.133 -0.2779  0.0528 -0.7739
 8989SOL    HW138603   1.565   2.522   9.126 -0.0114  0.1463  0.4414
 8989SOL    HW238604   1.444   2.594   9.058 -1.3853 -1.4565  0.1225
 8990SOL     OW38605   2.149   2.511   2.944 -0.3473  0.2266  0.0060
 8990SOL    HW138606   2.109   2.598   2.937 -1.9991 -0.3173  2.7570
 8990SOL    HW238607   2.089   2.463   3.001  0.0589  0.9741  1.0552
 8991SOL     OW38608   2.186   3.719   5.208 -0.1081  0.1041  0.5363
 8991SOL    HW138609   2.193   3.779   5.134 -0.9944  1.4717  1.5678
 8991SOL    HW238610   2.101   3.678   5.195  0.7857 -0.8427 -2.4551
 8992SOL     OW38611   0.122   1.887   2.015 -0.0317 -0.3955  0.2067
 8992SOL    HW138612   0.078   1.851   1.938 -1.1953  1.5059 -0.0039
 8992SOL    HW238613   0.175   1.950   1.967 -1.9713  0.2284 -1.0578
 8993SOL     OW38614   4.207   4.475  13.525  0.0440 -0.1359  0.2972
 8993SOL    HW138615   4.149   4.413  13.568 -0.8828  0.9106  0.5629
 8993SOL    HW238616   4.290   4.464  13.570  1.3880 -1.0405 -2.4396
 8994SOL     OW38617   2.478   4.467   2.557 -0.0059 -0.3256 -0.1126
 8994SOL    HW138618   2.534   4.541   2.532  0.2939 -0.5959 -0.2503
 8994SOL    HW238619   2.449   4.434   2.472 -2.4058  2.5093 -0.3908
 8995SOL     OW38620   2.175   0.415   9.154 -0.8919 -0.3354  0.0673
 8995SOL    HW138621   2.097   0.380   9.196  0.6658 -3.7597  0.1212
 8995SOL    HW238622   2.195   0.474   9.227 -0.0748  0.2961 -0.6638
 8996SOL     OW38623   0.685   3.221   4.851  0.7704 -0.7432  0.7112
 8996SOL    HW138624   0.737   3.143   4.832  2.3246  0.6843 -0.9304
 8996SOL    HW238625   0.696   3.223   4.946  2.1988 -0.8010  0.5440
 8997SOL     OW38626   1.199   4.301   5.002  0.0073  0.3379 -0.1515
 8997SOL    HW138627   1.106   4.281   5.017  0.1433 -1.3422 -1.5556
 8997SOL    HW238628   1.162   4.390   4.996 -1.1122 -0.1517 -0.5086
 8998SOL     OW38629   1.799   1.856  16.248  0.0866 -0.1130 -0.8478
 8998SOL    HW138630   1.749   1.916  16.304 -0.8839 -0.6388 -1.1755
 8998SOL    HW238631   1.730   1.797  16.218  1.9280 -2.0912 -1.2049
 8999SOL     OW38632   3.234   2.745   1.695 -0.3644 -0.0288  0.0434
 8999SOL    HW138633   3.237   2.841   1.704 -0.3963 -0.0141 -0.1123
 8999SOL    HW238634   3.150   2.728   1.652  0.4944  1.7477 -2.3185
 9000SOL     OW38635   1.580   2.018   3.059 -0.1637 -0.2927  0.1721
 9000SOL    HW138636   1.497   2.062   3.077  0.6146  1.4955 -0.6959
 9000SOL    HW238637   1.633   2.086   3.099 -1.1756 -0.0274  1.0794
 9001SOL     OW38638   0.723   4.217   6.520 -0.1617  0.2284  0.3716
 9001SOL    HW138639   0.662   4.201   6.592 -1.7670  0.2926 -0.9763
 9001SOL    HW238640   0.681   4.174   6.445  1.9956 -0.6363 -0.3487
 9002SOL     OW38641   3.678   3.925   8.001 -0.3258 -0.3294  0.1584
 9002SOL    HW138642   3.615   3.929   7.929 -0.0610  1.7058  0.0552
 9002SOL    HW238643   3.755   3.887   7.959 -0.8632 -2.4359  1.0762
 9003SOL     OW38644   3.693   1.243   8.737  0.1276  0.7754 -0.5420
 9003SOL    HW138645   3.729   1.254   8.824  3.2625 -2.1391 -1.4527
 9003SOL    HW238646   3.759   1.289   8.684  0.3492  0.2479 -0.7284
 9004SOL     OW38647   3.592   2.087   6.240 -0.0917 -0.0654  0.1365
 9004SOL    HW138648   3.638   2.011   6.205  0.2926  0.4924 -0.5597
 9004SOL    HW238649   3.661   2.153   6.246 -1.0413  0.8917  0.5377
 9005SOL     OW38650   1.057   1.929  15.647  0.3830  0.1787 -0.3444
 9005SOL    HW138651   1.063   1.856  15.585  2.1605  0.4717 -0.4990
 9005SOL    HW238652   1.143   1.970  15.657  0.2355  0.7540 -1.4138
 9006SOL     OW38653   0.587   2.985  14.785  0.2536  0.5920 -0.0858
 9006SOL    HW138654   0.583   2.949  14.873 -1.1878  0.0342 -0.3757
 9006SOL    HW238655   0.502   2.962  14.747  1.5111 -0.1551 -2.4421
 9007SOL     OW38656   0.224   4.688   8.511 -0.2701 -0.4610  0.5378
 9007SOL    HW138657   0.165   4.669   8.438 -0.5009 -1.5247  0.9970
 9007SOL    HW238658   0.294   4.719   8.454 -0.3990 -1.5224 -0.1963
 9008SOL     OW38659   1.561   4.244   9.232  0.0456  0.3715  0.1834
 9008SOL    HW138660   1.650   4.214   9.246  0.0705 -0.0330 -0.8969
 9008SOL    HW238661   1.563   4.260   9.138 -1.7456  2.5603  0.5051
 9009SOL     OW38662   4.090   4.301   2.575  0.0629 -0.3395 -0.1632
 9009SOL    HW138663   4.132   4.287   2.490  0.6112  1.0834 -0.1327
 9009SOL    HW238664   4.157   4.355   2.617 -1.1982  1.9743 -1.1586
 9010SOL     OW38665   1.400   4.288   2.543  0.1190  0.1060  0.4821
 9010SOL    HW138666   1.392   4.314   2.451 -0.9698  2.2384  1.1752
 9010SOL    HW238667   1.312   4.301   2.577 -0.8343  1.7850 -2.6468
 9011SOL     OW38668   4.358   0.642   5.992 -0.2407  0.8797 -0.0985
 9011SOL    HW138669   4.330   0.561   6.035  2.6520 -0.8985 -1.5739
 9011SOL    HW238670   4.453   0.636   5.990 -0.2081  0.7576  1.2909
 9012SOL     OW38671   4.287   0.726  12.742  0.0132 -0.1843  0.2154
 9012SOL    HW138672   4.213   0.677  12.705 -0.2006  0.4843 -0.2342
 9012SOL    HW238673   4.347   0.659  12.776  2.6058  1.9245 -0.2511
 9013SOL     OW38674   4.596   2.858   7.692  0.2304 -0.0681  0.1804
 9013SOL    HW138675   4.570   2.945   7.721 -1.4313 -0.3437 -0.4529
 9013SOL    HW238676   4.543   2.843   7.614  0.7166 -4.2135  0.6131
 9014SOL     OW38677   3.749   2.673   7.691  0.0109  0.0098 -0.1153
 9014SOL    HW138678   3.660   2.638   7.693  0.1096 -0.2293  0.0621
 9014SOL    HW238679   3.756   2.715   7.776  1.7799  0.1586 -0.3345
 9015SOL     OW38680   0.702   0.774   2.836 -0.3582  0.2929 -0.1105
 9015SOL    HW138681   0.615   0.794   2.871 -1.2599 -0.3709 -1.9423
 9015SOL    HW238682   0.722   0.699   2.892  2.2656 -1.4465 -3.3455
 9016SOL     OW38683   1.499   1.990  16.802  0.3480 -0.5929 -0.3960
 9016SOL    HW138684   1.413   2.008  16.764  0.0514 -0.7028  0.2251
 9016SOL    HW238685   1.485   2.028  16.889  1.6620 -1.5511  0.2137
 9017SOL     OW38686   3.172   3.155   8.580 -0.0577 -0.1270  0.0630
 9017SOL    HW138687   3.106   3.216   8.612  0.1281  0.5945 -0.9192
 9017SOL    HW238688   3.178   3.091   8.651  0.0658 -1.9703 -1.6029
 9018SOL     OW38689   0.783   1.726   4.137  0.9479 -0.3986 -0.0186
 9018SOL    HW138690   0.831   1.781   4.198  0.1469 -0.2412  0.4651
 9018SOL    HW238691   0.845   1.658   4.110 -0.7584 -1.7706 -0.4959
 9019SOL     OW38692   0.229   3.351   4.457  0.1835 -0.7351 -0.3991
 9019SOL    HW138693   0.161   3.360   4.524  0.7115 -1.3735  0.2184
 9019SOL    HW238694   0.287   3.423   4.484 -1.5589  0.6663 -0.3745
 9020SOL     OW38695   2.143   3.761   2.130  0.0610  0.0745 -0.1327
 9020SOL    HW138696   2.146   3.763   2.226 -0.7278  0.7430 -0.1163
 9020SOL    HW238697   2.112   3.672   2.114  1.9797 -0.2354 -1.9743
 9021SOL     OW38698   1.157   0.548   0.396 -0.4654 -0.2960 -0.2114
 9021SOL    HW138699   1.113   0.633   0.399 -2.3434 -1.2867  0.3400
 9021SOL    HW238700   1.215   0.555   0.321 -1.4931  0.0792 -0.9768
 9022SOL     OW38701   1.603   4.004   9.436  0.9767  0.3688  0.1993
 9022SOL    HW138702   1.544   4.078   9.418  1.3830  0.6741  0.1084
 9022SOL    HW238703   1.540   3.948   9.482 -0.9094  0.5723 -2.0987
 9023SOL     OW38704   2.900   4.383  16.954  0.4989 -0.4519 -0.7159
 9023SOL    HW138705   2.968   4.419  17.010 -0.7425  1.4446 -0.3953
 9023SOL    HW238706   2.930   4.385  16.864  1.5134 -1.3648 -0.3836
 9024SOL     OW38707   3.533   4.396   6.463  0.7256  0.0062  0.6240
 9024SOL    HW138708   3.618   4.412   6.422  0.1320 -0.4056 -0.7737
 9024SOL    HW238709   3.500   4.333   6.398 -1.7840 -1.4471  3.3204
 9025SOL     OW38710   3.819   0.691   9.729  0.2116 -0.2204  0.8554
 9025SOL    HW138711   3.806   0.785   9.719  0.0239 -0.5334 -1.9247
 9025SOL    HW238712   3.880   0.681   9.657 -2.9554 -1.3679 -1.6806
 9026SOL     OW38713   0.835   2.940   6.207 -0.0323 -0.4214  0.5963
 9026SOL    HW138714   0.810   2.860   6.162 -1.1590 -0.2582  0.9325
 9026SOL    HW238715   0.898   2.899   6.266 -0.6682 -0.6731  1.1074
 9027SOL     OW38716   3.104   2.490  13.056 -0.5295 -0.1125  0.4868
 9027SOL    HW138717   3.153   2.496  12.974  0.4570 -2.7683  0.8703
 9027SOL    HW238718   3.021   2.475  13.012 -0.9887 -1.2704  1.7858
 9028SOL     OW38719   2.413   0.363   6.033 -0.1519 -0.2094 -0.7337
 9028SOL    HW138720   2.400   0.356   6.127  0.7619 -0.2394 -0.6109
 9028SOL    HW238721   2.478   0.297   6.010 -0.3602 -0.3295 -0.9783
 9029SOL     OW38722   0.739   2.017  14.854  0.0060  0.1086  0.0274
 9029SOL    HW138723   0.678   2.054  14.790 -0.3386  2.2728  1.6131
 9029SOL    HW238724   0.692   1.949  14.901 -1.4171  0.5119 -0.8225
 9030SOL     OW38725   2.256   4.528   8.139  0.8653 -0.8928  0.0107
 9030SOL    HW138726   2.229   4.520   8.230 -0.7725 -0.5133 -0.4401
 9030SOL    HW238727   2.226   4.617   8.121  1.4975 -0.9682 -1.4473
 9031SOL     OW38728   2.475   2.839   8.568 -0.1179 -0.0469 -0.6140
 9031SOL    HW138729   2.439   2.833   8.657 -0.1142 -1.8321 -0.7341
 9031SOL    HW238730   2.536   2.912   8.581 -2.4142  2.0379 -1.5334
 9032SOL     OW38731   4.308   0.910  12.041 -0.4409  0.2147 -0.5095
 9032SOL    HW138732   4.391   0.878  12.008  0.2506  1.0590  0.4017
 9032SOL    HW238733   4.291   0.850  12.114 -2.2371  0.3438 -0.8057
 9033SOL     OW38734   0.890   0.035   5.521  0.8343  0.0886 -0.0948
 9033SOL    HW138735   0.850   0.069   5.601  0.5604  2.3598 -1.1808
 9033SOL    HW238736   0.840   0.084   5.455  0.1362 -0.2329  0.1945
 9034SOL     OW38737   3.572   3.577   0.924 -0.7600 -0.0094 -0.3092
 9034SOL    HW138738   3.569   3.665   0.885  1.0941 -0.1616 -0.8367
 9034SOL    HW238739   3.574   3.520   0.847 -0.4130 -0.7624  0.2604
 9035SOL     OW38740   2.655   2.401   5.753 -0.3995  0.0095 -0.3763
 9035SOL    HW138741   2.729   2.342   5.765 -0.6801 -0.6253 -1.6779
 9035SOL    HW238742   2.683   2.488   5.781 -1.8476  0.7118 -1.0987
 9036SOL     OW38743   1.624   1.523   2.289 -0.1684 -0.7652  0.1194
 9036SOL    HW138744   1.561   1.587   2.255  0.7107 -0.6624 -1.3237
 9036SOL    HW238745   1.656   1.493   2.204 -2.1307 -0.9645 -0.5401
 9037SOL     OW38746   0.324   4.732  14.320 -0.1151  0.0250 -0.1191
 9037SOL    HW138747   0.356   4.678  14.247  0.1394  1.3976 -1.0068
 9037SOL    HW238748   0.394   0.060  14.309 -0.2113  0.1281 -0.1246
 9038SOL     OW38749   1.899   3.094   5.136  0.4487 -0.1422 -0.0270
 9038SOL    HW138750   1.891   3.171   5.079  0.9112  0.7119  1.0701
 9038SOL    HW238751   1.875   3.023   5.077  0.2788 -1.7206  1.9482
 9039SOL     OW38752   2.576   2.800   6.039  0.3803 -0.2331  0.3888
 9039SOL    HW138753   2.615   2.758   5.962 -1.4022  2.1962 -1.8793
 9039SOL    HW238754   2.649   2.842   6.084 -0.3666 -0.1614  1.5264
 9040SOL     OW38755   1.292   1.484  11.478 -0.0592 -0.1845  0.2353
 9040SOL    HW138756   1.348   1.503  11.404 -0.9591  1.2134 -0.0804
 9040SOL    HW238757   1.330   1.539  11.546  0.2101  0.8130 -0.7427
 9041SOL     OW38758   0.643   3.613  15.210  0.0898 -0.6149 -0.0076
 9041SOL    HW138759   0.631   3.600  15.116 -1.2254 -0.0654  0.0799
 9041SOL    HW238760   0.682   3.701  15.209  0.2709 -0.7038 -0.7237
 9042SOL     OW38761   1.710   3.415   7.836  0.2570 -0.7531 -0.3821
 9042SOL    HW138762   1.717   3.480   7.906 -1.2246  0.7854 -1.6612
 9042SOL    HW238763   1.615   3.406   7.844  0.4626 -1.5339  1.0156
 9043SOL     OW38764   1.888   0.869   8.439  0.4203 -0.6433 -0.3920
 9043SOL    HW138765   1.796   0.846   8.447 -0.4903  3.0089 -0.1229
 9043SOL    HW238766   1.889   0.964   8.425  1.3635 -0.3695  1.5108
 9044SOL     OW38767   3.532   2.453   7.460  0.6936 -0.3807  0.0322
 9044SOL    HW138768   3.519   2.498   7.543 -1.8519 -1.0627  0.0089
 9044SOL    HW238769   3.626   2.439   7.471  0.4742 -1.3225  0.7353
 9045SOL     OW38770   2.175   4.049   6.033 -0.0631 -0.0992  0.5422
 9045SOL    HW138771   2.258   4.029   5.990  0.2970  2.9363 -0.1222
 9045SOL    HW238772   2.134   4.095   5.960  0.2918 -0.0711  0.3619
 9046SOL     OW38773   3.536   2.174   7.336  0.1870 -0.5444  0.3760
 9046SOL    HW138774   3.464   2.183   7.397 -1.4920  1.9672 -2.0001
 9046SOL    HW238775   3.497   2.129   7.261  0.5107  0.7367 -0.5666
 9047SOL     OW38776   0.870   0.895  14.733 -0.3966  0.2559 -0.3358
 9047SOL    HW138777   0.800   0.830  14.730  1.0060 -1.2508 -0.3280
 9047SOL    HW238778   0.821   0.974  14.710  0.2695  0.2507 -1.7936
 9048SOL     OW38779   4.157   1.091   1.955  0.0536 -0.3438 -0.0723
 9048SOL    HW138780   4.177   1.164   2.014  1.9257  0.1883 -1.3795
 9048SOL    HW238781   4.140   1.132   1.870 -0.1620 -0.5765 -0.1424
 9049SOL     OW38782   3.458   2.676  14.233 -0.0020 -0.2308  0.4449
 9049SOL    HW138783   3.463   2.686  14.328 -2.9652 -0.7677  0.6796
 9049SOL    HW238784   3.544   2.705  14.201  0.0402  0.0344  0.8050
 9050SOL     OW38785   3.045   0.595  16.040  0.5788  0.5295 -0.1316
 9050SOL    HW138786   3.126   0.618  15.994 -0.0264  1.5984 -0.6508
 9050SOL    HW238787   3.004   0.680  16.056  1.6669  0.8923  0.7427
 9051SOL     OW38788   2.166   4.460   3.443 -0.3048  0.7212 -0.2314
 9051SOL    HW138789   2.135   4.550   3.451 -0.3672  0.5657  1.1647
 9051SOL    HW238790   2.112   4.421   3.512 -2.3561  2.5373 -0.8002
 9052SOL     OW38791   2.882   3.512  13.411 -0.4868  0.5058  0.1563
 9052SOL    HW138792   2.958   3.543  13.460 -0.3519  0.2610  0.1047
 9052SOL    HW238793   2.913   3.436  13.361 -0.4645  1.6589 -1.5965
 9053SOL     OW38794   3.126   1.827   1.439  0.3390 -0.5146  0.5852
 9053SOL    HW138795   3.205   1.853   1.391 -0.2308 -0.3977 -0.3015
 9053SOL    HW238796   3.072   1.817   1.360 -1.7320 -0.4156  1.9925
 9054SOL     OW38797   0.643   2.804   7.867 -0.0523 -1.1315  0.6236
 9054SOL    HW138798   0.698   2.866   7.915 -2.3194  0.4317  1.2353
 9054SOL    HW238799   0.554   2.839   7.874  0.0684 -1.3284  3.1842
 9055SOL     OW38800   1.499   3.840  10.438 -0.1786 -0.5596 -0.0342
 9055SOL    HW138801   1.506   3.748  10.412  3.6191 -0.3333  0.2053
 9055SOL    HW238802   1.581   3.857  10.485  0.1753 -2.0668 -0.1031
 9056SOL     OW38803   4.204   1.807   0.512 -0.0358 -0.2353  0.2166
 9056SOL    HW138804   4.238   1.866   0.579  0.2623 -0.5826  0.3726
 9056SOL    HW238805   4.282   1.811   0.457 -0.5107 -0.7686 -0.5044
 9057SOL     OW38806   1.792   2.692   6.264  0.0611 -0.0656  0.4016
 9057SOL    HW138807   1.885   2.714   6.258  0.1599 -0.4095  0.6728
 9057SOL    HW238808   1.756   2.748   6.195 -0.1237  0.4808  0.9429
 9058SOL     OW38809   2.751   1.651   7.686  0.3867 -0.1203 -0.0820
 9058SOL    HW138810   2.758   1.624   7.778  0.1070  1.0012  0.2700
 9058SOL    HW238811   2.664   1.691   7.683  0.0732 -0.9175 -1.5854
 9059SOL     OW38812   0.616   0.493   7.685  0.2015  0.2350 -0.0547
 9059SOL    HW138813   0.687   0.557   7.673 -1.8265  2.6001  0.5359
 9059SOL    HW238814   0.633   0.457   7.772  1.8122  0.5090 -0.2403
 9060SOL     OW38815   2.872   4.202  15.957 -0.7996  0.2134  0.6818
 9060SOL    HW138816   2.962   4.218  15.984 -0.7579  3.1275 -1.0564
 9060SOL    HW238817   2.822   4.254  16.019 -2.6055 -0.1402 -0.4616
 9061SOL     OW38818   0.902   3.990   8.477 -0.0824  0.1613 -0.2615
 9061SOL    HW138819   0.903   3.907   8.429  0.5727  1.1838 -1.9805
 9061SOL    HW238820   0.808   4.009   8.481  0.1596  1.3907 -0.3960
 9062SOL     OW38821   4.355   1.770  11.513 -0.0332 -0.7482 -0.8302
 9062SOL    HW138822   4.305   1.844  11.548 -0.3275 -0.8239 -1.0931
 9062SOL    HW238823   4.290   1.701  11.521 -2.4149  1.6922  0.7583
 9063SOL     OW38824   4.722   0.768   2.340  0.6100 -0.2730  0.4294
 9063SOL    HW138825   4.719   0.783   2.245  1.7153 -1.7155  0.1740
 9063SOL    HW238826   0.041   0.690   2.333 -0.2366 -1.1151  3.1650
 9064SOL     OW38827   3.226   2.298   8.790 -0.0156 -0.4589  0.0413
 9064SOL    HW138828   3.239   2.345   8.872 -0.9315 -0.3269  0.1118
 9064SOL    HW238829   3.133   2.311   8.775 -0.4027 -1.2175  1.8003
 9065SOL     OW38830   3.236   1.250  15.810 -0.1048  0.2207  0.3269
 9065SOL    HW138831   3.215   1.228  15.900  0.5911  1.4182  0.7796
 9065SOL    HW238832   3.280   1.334  15.822 -0.3209  0.9248 -3.5369
 9066SOL     OW38833   1.874   4.514   2.103 -0.9484 -0.0552  0.3100
 9066SOL    HW138834   1.879   4.592   2.047  0.6615 -0.5261 -0.2159
 9066SOL    HW238835   1.931   4.545   2.174  0.4125 -0.7461 -0.4679
 9067SOL     OW38836   2.911   0.351   6.197 -0.3670 -0.4456 -0.0420
 9067SOL    HW138837   3.003   0.366   6.218 -0.6159 -0.2102  0.8803
 9067SOL    HW238838   2.872   0.424   6.245 -1.9246 -0.8940 -0.6281
 9068SOL     OW38839   3.694   2.740  14.165  0.4104  0.0355 -0.1016
 9068SOL    HW138840   3.703   2.832  14.191  3.0646 -0.4522  0.6833
 9068SOL    HW238841   3.784   2.741  14.134  0.8308  1.0257  1.1692
 9069SOL     OW38842   1.506   2.062   2.113 -0.0187  0.0044 -0.3527
 9069SOL    HW138843   1.451   2.134   2.082 -0.9573 -0.7169 -0.3513
 9069SOL    HW238844   1.437   1.999   2.134 -0.5051  1.0778  1.2250
 9070SOL     OW38845   3.812   2.543   2.139  0.3997 -0.0424 -0.0684
 9070SOL    HW138846   3.727   2.506   2.164  0.7371 -0.6517  0.1617
 9070SOL    HW238847   3.793   2.637   2.141 -2.3902 -0.6212  0.8830
 9071SOL     OW38848   4.519   4.594  14.559 -0.4461 -0.3417  0.3827
 9071SOL    HW138849   4.551   4.508  14.587  0.6671  0.4946  1.5949
 9071SOL    HW238850   4.601   4.624  14.520 -2.0777  1.5326 -1.5987
 9072SOL     OW38851   1.053   3.508   7.899  0.2574 -0.8618 -0.0248
 9072SOL    HW138852   1.096   3.507   7.985 -0.1663  0.3276  0.2097
 9072SOL    HW238853   1.019   3.598   7.894  1.0072 -0.4930  1.3899
 9073SOL     OW38854   1.943   1.326   0.782  0.2647  0.1415  0.2180
 9073SOL    HW138855   1.860   1.284   0.804  0.3874 -2.2371 -3.8505
 9073SOL    HW238856   1.971   1.276   0.706  0.0308 -0.2451  0.3863
 9074SOL     OW38857   2.455   1.815   0.421 -0.5308 -0.2293  0.3453
 9074SOL    HW138858   2.361   1.829   0.431 -0.5436 -0.9830  1.2217
 9074SOL    HW238859   2.460   1.723   0.448 -1.9561  0.1202  1.7444
 9075SOL     OW38860   1.876   3.215  13.119 -0.7414 -0.1454  0.1255
 9075SOL    HW138861   1.954   3.269  13.108 -1.6740  1.5964  1.7973
 9075SOL    HW238862   1.844   3.190  13.032  0.3154 -0.6229 -0.1177
 9076SOL     OW38863   2.977   4.206   4.373 -0.3764  0.1899  0.5350
 9076SOL    HW138864   2.973   4.282   4.430  1.7932 -0.2718  1.2906
 9076SOL    HW238865   3.023   4.244   4.298 -1.6917  0.5646 -0.0808
 9077SOL     OW38866   3.312   2.519   5.032  0.0141 -0.2342  0.2101
 9077SOL    HW138867   3.364   2.591   5.068 -1.8017  1.0116  0.3231
 9077SOL    HW238868   3.367   2.498   4.957  1.9670 -2.0020  2.1149
 9078SOL     OW38869   4.416   4.727   5.763  0.2522  0.2175  0.1018
 9078SOL    HW138870   4.467   0.072   5.766  0.0335  0.3863 -0.6878
 9078SOL    HW238871   4.327   0.024   5.747  0.1634 -0.0291  0.0844
 9079SOL     OW38872   2.884   0.295  17.197 -0.2239  0.2780 -0.1335
 9079SOL    HW138873   2.892   0.200  17.194  0.3242  0.3434 -0.9710
 9079SOL    HW238874   2.943   0.326  17.266  0.3290  3.4226 -2.0031
 9080SOL     OW38875   2.987   1.847   9.569 -0.0113 -0.2766 -0.6389
 9080SOL    HW138876   2.979   1.778   9.635 -1.4178  1.1633  0.6966
 9080SOL    HW238877   3.061   1.813   9.519  0.1741  2.2468 -2.0709
 9081SOL     OW38878   0.148   1.874  11.610  0.3524  0.2437 -0.0615
 9081SOL    HW138879   0.057   1.905  11.608  0.0937 -0.4673  0.5944
 9081SOL    HW238880   0.164   1.884  11.704 -1.6341  0.4847  0.2613
 9082SOL     OW38881   2.433   3.628   5.281  0.1835 -0.7234 -0.0512
 9082SOL    HW138882   2.481   3.702   5.245 -0.4622 -0.2029  0.1369
 9082SOL    HW238883   2.347   3.651   5.244 -0.8810  0.0962  2.9131
 9083SOL     OW38884   2.401   0.108   3.661  0.2429 -0.5287 -0.7188
 9083SOL    HW138885   2.327   0.168   3.669  0.3174 -0.4307 -0.7613
 9083SOL    HW238886   2.366   0.040   3.603  0.5903 -1.3961  0.0820
 9084SOL     OW38887   1.967   0.900   1.963  0.2989  0.2860  0.2799
 9084SOL    HW138888   2.035   0.886   1.896 -1.0729  1.2815 -1.3368
 9084SOL    HW238889   2.018   0.952   2.023  0.7788 -1.4279  1.3627
 9085SOL     OW38890   0.410   1.787  13.132 -0.3430 -0.3262  0.0656
 9085SOL    HW138891   0.486   1.844  13.140 -0.3308 -0.6004  1.7821
 9085SOL    HW238892   0.453   1.719  13.080 -0.4363 -0.8025  0.6115
 9086SOL     OW38893   0.730   2.087   1.875 -0.8056 -0.6780 -0.1559
 9086SOL    HW138894   0.733   2.101   1.970  0.5384  1.8917 -0.5853
 9086SOL    HW238895   0.684   2.165   1.846 -0.4758 -0.3980  0.0652
 9087SOL     OW38896   4.592   2.964   4.548 -0.6782 -0.4126  0.2714
 9087SOL    HW138897   4.555   2.911   4.619 -1.1342  0.0982  0.4204
 9087SOL    HW238898   4.624   2.896   4.489 -2.2344  0.5046 -1.6422
 9088SOL     OW38899   1.985   0.621   3.357 -0.7552 -0.1546 -0.3361
 9088SOL    HW138900   2.076   0.615   3.388  0.8388  0.0472 -4.8882
 9088SOL    HW238901   2.000   0.570   3.277 -2.2174  0.3082 -0.8925
 9089SOL     OW38902   1.948   1.607  14.655  0.2945 -0.2916  0.3604
 9089SOL    HW138903   1.891   1.622  14.731 -1.1184 -2.3779 -0.2707
 9089SOL    HW238904   2.023   1.663  14.675  0.6491 -0.6446  0.0061
 9090SOL     OW38905   3.088   1.029   3.973 -0.4619  0.2235  0.3502
 9090SOL    HW138906   3.073   0.987   4.058  2.0889  0.2354  0.7800
 9090SOL    HW238907   3.112   1.118   3.996 -0.4337  0.7493 -1.7248
 9091SOL     OW38908   3.050   1.134   9.397 -0.5691 -0.1008  0.2624
 9091SOL    HW138909   3.064   1.060   9.338  1.0389 -0.5089  1.1393
 9091SOL    HW238910   3.140   1.167   9.396 -0.9491  0.8790 -1.0479
 9092SOL     OW38911   4.000   0.298  14.529 -0.1000  0.6607 -0.2168
 9092SOL    HW138912   4.062   0.357  14.486  1.6197 -0.3117  0.9328
 9092SOL    HW238913   4.056   0.260  14.596 -0.3162  2.4546  0.9935
 9093SOL     OW38914   1.860   3.272   6.786 -0.3657  0.0253  0.4128
 9093SOL    HW138915   1.893   3.193   6.828  0.0376 -0.0150  0.0177
 9093SOL    HW238916   1.880   3.329   6.860 -2.4110 -1.1746  1.8944
 9094SOL     OW38917   3.826   0.437  13.554 -0.4268  0.2835  0.8340
 9094SOL    HW138918   3.756   0.498  13.577 -0.5320 -0.2337  1.9305
 9094SOL    HW238919   3.777   0.355  13.543  2.0562 -1.0646 -0.0245
 9095SOL     OW38920   2.127   1.873   9.455  0.3365 -0.2934  0.1673
 9095SOL    HW138921   2.123   1.962   9.490 -2.6572 -0.5008  0.3512
 9095SOL    HW238922   2.041   1.869   9.414 -0.6559 -0.9444  2.3163
 9096SOL     OW38923   1.846   3.328   9.177 -0.1772 -0.0646  0.4995
 9096SOL    HW138924   1.928   3.350   9.220 -0.6355  0.8233  0.9169
 9096SOL    HW238925   1.857   3.340   9.083  2.9048 -0.2501  0.8639
 9097SOL     OW38926   2.413   1.203   9.569 -0.4645  0.5669 -0.3513
 9097SOL    HW138927   2.344   1.137   9.572  3.1059 -3.0367  2.6558
 9097SOL    HW238928   2.449   1.206   9.480 -0.8767 -0.1222 -0.5449
 9098SOL     OW38929   1.478   0.359   2.795  0.2095 -0.5781 -0.0527
 9098SOL    HW138930   1.426   0.282   2.818 -2.7107  0.9652 -1.4785
 9098SOL    HW238931   1.437   0.380   2.711  0.7232 -2.8418 -0.8674
 9099SOL     OW38932   1.503   0.537   5.839 -0.4492 -0.1106 -0.2421
 9099SOL    HW138933   1.426   0.481   5.827 -0.2161 -0.1799 -1.3805
 9099SOL    HW238934   1.465   0.618   5.803 -1.3307 -0.3992  0.0442
 9100SOL     OW38935   0.289   0.491  13.191 -0.3697  0.2297  0.2178
 9100SOL    HW138936   0.224   0.501  13.121  0.0328  0.0516 -0.1830
 9100SOL    HW238937   0.237   0.446  13.258 -0.5265  0.8467  0.5036
 9101SOL     OW38938   1.448   4.086  12.538 -0.4353  0.0443  0.1886
 9101SOL    HW138939   1.506   4.054  12.607 -0.0530 -1.1431 -0.6923
 9101SOL    HW238940   1.388   4.141  12.588 -0.6880  0.1754 -0.2566
 9102SOL     OW38941   0.506   3.667  13.947 -0.1966 -0.4583  0.5122
 9102SOL    HW138942   0.598   3.645  13.962  0.4329  0.1831 -2.3886
 9102SOL    HW238943   0.484   3.595  13.888  0.9531  0.2762 -0.8175
 9103SOL     OW38944   2.265   1.656   5.370  0.0174  0.1419  0.0207
 9103SOL    HW138945   2.170   1.664   5.383  0.3785  0.5886  2.2194
 9103SOL    HW238946   2.255   1.612   5.285  0.5054 -0.8128  0.4604
 9104SOL     OW38947   3.051   0.697  12.705  0.5298 -0.3170  0.1925
 9104SOL    HW138948   3.006   0.743  12.634  1.9770  0.4814 -0.1966
 9104SOL    HW238949   2.996   0.728  12.777 -0.4451 -0.2249 -0.5888
 9105SOL     OW38950   1.943   4.417   9.277 -0.4100 -0.5892  0.4242
 9105SOL    HW138951   1.887   4.472   9.333  1.6612 -0.3387  2.2555
 9105SOL    HW238952   2.030   4.414   9.316  0.4263 -0.0247 -1.4300
 9106SOL     OW38953   0.941   2.517   4.573  0.2399 -0.1394 -0.1601
 9106SOL    HW138954   0.937   2.543   4.665  1.2122  0.6158 -0.3239
 9106SOL    HW238955   0.864   2.462   4.563  0.5334 -0.4975 -0.4729
 9107SOL     OW38956   0.728   2.872   2.963 -0.1015  0.4372  0.4527
 9107SOL    HW138957   0.721   2.966   2.976 -1.4287  0.5647 -1.1769
 9107SOL    HW238958   0.646   2.862   2.916  1.4160  0.7555 -2.2549
 9108SOL     OW38959   3.735   0.391   3.135 -0.1966 -0.2390 -0.2882
 9108SOL    HW138960   3.783   0.331   3.078  0.6371 -0.7009  0.9114
 9108SOL    HW238961   3.651   0.346   3.145 -0.2147  0.0549  0.9738
 9109SOL     OW38962   0.274   4.086   2.146 -0.0813 -0.5353  0.1218
 9109SOL    HW138963   0.186   4.086   2.109 -1.0210 -1.7548  2.3794
 9109SOL    HW238964   0.319   4.013   2.104  3.5664  1.0571  1.2455
 9110SOL     OW38965   2.842   3.411   9.398  0.8478  0.3189  0.0244
 9110SOL    HW138966   2.886   3.327   9.410  0.8854  0.2203 -0.7574
 9110SOL    HW238967   2.881   3.442   9.316 -2.6672  0.5253 -1.5697
 9111SOL     OW38968   3.715   2.083   2.929  0.0179 -0.3741 -0.2869
 9111SOL    HW138969   3.664   2.161   2.953  0.7224  0.2200 -0.7263
 9111SOL    HW238970   3.741   2.110   2.841  2.8466  1.3840  1.0716
 9112SOL     OW38971   1.551   0.463   8.385  0.5501  0.1757  0.3196
 9112SOL    HW138972   1.490   0.537   8.382 -1.4747 -1.5553 -1.0489
 9112SOL    HW238973   1.626   0.499   8.339  1.0742  2.4321  2.9272
 9113SOL     OW38974   0.198   4.472   4.657 -0.0407 -0.2428 -0.1490
 9113SOL    HW138975   0.159   4.451   4.742 -0.9746 -0.7941 -0.7108
 9113SOL    HW238976   0.212   4.382   4.625  0.3720 -0.0612 -0.4771
 9114SOL     OW38977   2.400   1.783   7.135  0.1074  0.2366 -0.0774
 9114SOL    HW138978   2.367   1.700   7.102 -0.4861  0.1615  0.7218
 9114SOL    HW238979   2.458   1.754   7.205  0.4645  1.0159 -0.0463
 9115SOL     OW38980   2.321   1.503  14.118  0.0309 -0.6448 -0.2234
 9115SOL    HW138981   2.385   1.571  14.138 -0.3085 -0.4795  0.2972
 9115SOL    HW238982   2.292   1.470  14.203 -0.6903 -0.0551 -0.2328
 9116SOL     OW38983   2.742   2.615  17.442 -0.6183 -0.3627 -0.6370
 9116SOL    HW138984   2.802   2.685  17.465 -3.6723  2.1767 -0.3320
 9116SOL    HW238985   2.792   2.583  17.367  0.3104  0.9615 -0.5756
 9117SOL     OW38986   1.210   4.636   7.665  0.7180 -0.3859  0.7895
 9117SOL    HW138987   1.180   4.691   7.592  1.8067 -1.5893 -0.5899
 9117SOL    HW238988   1.136   4.652   7.723  0.3349 -1.0015  0.4737
 9118SOL     OW38989   2.422   4.065   7.640  0.0115  0.4997 -0.3235
 9118SOL    HW138990   2.408   3.987   7.586 -2.3183  1.2391 -0.7876
 9118SOL    HW238991   2.419   4.027   7.728 -0.2788 -1.7324 -1.2866
 9119SOL     OW38992   3.403   0.497   3.412 -0.2516 -0.2587 -0.2988
 9119SOL    HW138993   3.362   0.448   3.341  0.2228 -2.3860  0.8970
 9119SOL    HW238994   3.492   0.462   3.411  0.4651  1.4529  1.8271
 9120SOL     OW38995   2.144   0.128   4.298 -0.2425  0.3080  0.0671
 9120SOL    HW138996   2.153   0.096   4.388  0.9678 -1.8213 -0.8170
 9120SOL    HW238997   2.224   0.180   4.290 -0.6132  1.0332  1.0841
 9121SOL     OW38998   2.506   2.311   5.550  0.0400  0.3678  0.3477
 9121SOL    HW138999   2.456   2.392   5.542 -0.0087  0.1758 -1.4256
 9121SOL    HW239000   2.547   2.354   5.625  2.1312 -0.4528 -0.3224
 9122SOL     OW39001   2.687   3.115   8.218  0.0980  0.0152  0.6011
 9122SOL    HW139002   2.627   3.176   8.173 -0.4358 -0.4967  0.6117
 9122SOL    HW239003   2.697   3.034   8.167 -0.5818 -0.4806  1.2502
 9123SOL     OW39004   1.223   3.258   3.214  0.0524  1.1345  0.6150
 9123SOL    HW139005   1.274   3.277   3.293 -0.4914  2.6550  0.5833
 9123SOL    HW239006   1.155   3.203   3.254  0.5498 -0.3628 -0.6076
 9124SOL     OW39007   1.065   1.932   6.519  0.5398 -0.0739  0.4681
 9124SOL    HW139008   1.087   2.003   6.579 -0.8742  1.6391 -1.0681
 9124SOL    HW239009   1.144   1.913   6.469 -1.0027 -2.0318 -1.2443
 9125SOL     OW39010   4.165   0.033  13.603 -0.4600  0.9268  0.4529
 9125SOL    HW139011   4.251   0.066  13.576 -1.1402  3.4331  1.3906
 9125SOL    HW239012   4.151   4.692  13.547 -0.5631 -0.2151  2.0717
 9126SOL     OW39013   0.872   1.862   5.101  0.0914 -0.2480  0.1474
 9126SOL    HW139014   0.789   1.822   5.126 -0.3953 -0.3462 -1.6108
 9126SOL    HW239015   0.930   1.792   5.131  1.7674  0.9650 -0.2435
 9127SOL     OW39016   0.486   2.778   4.498 -0.2256 -0.1644 -0.2504
 9127SOL    HW139017   0.508   2.685   4.504 -0.6254 -0.2123  0.5699
 9127SOL    HW239018   0.467   2.796   4.590  1.5282  0.1464  0.0421
 9128SOL     OW39019   3.782   1.189  12.060 -0.1939 -0.3934 -0.4225
 9128SOL    HW139020   3.779   1.253  11.989  2.4850 -1.1505 -1.2256
 9128SOL    HW239021   3.732   1.115  12.025 -0.6498  0.2401 -1.0886
 9129SOL     OW39022   2.751   3.772   0.864  0.2573  0.2605  0.5687
 9129SOL    HW139023   2.679   3.720   0.829  2.0854 -1.5813 -0.4657
 9129SOL    HW239024   2.702   3.842   0.908  0.3048  0.3317  0.5092
 9130SOL     OW39025   1.040   0.775   5.345 -0.6813  0.8492  0.5763
 9130SOL    HW139026   0.953   0.760   5.310 -0.5142 -2.4162  1.5953
 9130SOL    HW239027   1.035   0.706   5.411 -0.7132 -1.6575 -2.0492
 9131SOL     OW39028   4.694   4.500   2.913 -0.6391  0.4305 -0.6320
 9131SOL    HW139029   4.684   4.548   2.831  0.6837 -1.1844 -1.7444
 9131SOL    HW239030   4.661   4.414   2.889 -1.3739 -0.3565  3.1579
 9132SOL     OW39031   1.647   3.557  16.811  0.2969 -0.5440  0.6168
 9132SOL    HW139032   1.580   3.602  16.863 -0.4905  0.7805 -1.5400
 9132SOL    HW239033   1.616   3.469  16.832 -1.1328 -0.1328  0.2278
 9133SOL     OW39034   3.815   2.296   6.243 -0.8112 -0.7616 -0.2454
 9133SOL    HW139035   3.741   2.345   6.207  0.2616  0.2747 -1.0303
 9133SOL    HW239036   3.819   2.335   6.330 -1.3686 -0.5467 -0.3168
 9134SOL     OW39037   1.230   3.389  13.535  0.3291 -0.1974 -0.3530
 9134SOL    HW139038   1.195   3.402  13.447  1.1048 -2.6676 -1.0234
 9134SOL    HW239039   1.249   3.296  13.534  0.2842 -0.2390  1.8583
 9135SOL     OW39040   2.014   1.289  16.458 -0.1666  0.7304 -0.4604
 9135SOL    HW139041   2.032   1.251  16.544  0.4199 -0.0220 -0.9127
 9135SOL    HW239042   1.990   1.211  16.408  1.1088  0.6448 -0.9604
 9136SOL     OW39043   0.335   2.597   7.489 -0.5988 -0.2088  0.5040
 9136SOL    HW139044   0.240   2.606   7.499 -0.6735 -1.1595  0.6990
 9136SOL    HW239045   0.362   2.600   7.581 -0.7255 -1.6509  0.5839
 9137SOL     OW39046   3.377   0.774   7.594 -0.1727  0.1778 -0.0761
 9137SOL    HW139047   3.284   0.788   7.577 -0.8122 -1.1091  2.3458
 9137SOL    HW239048   3.395   0.846   7.655 -0.6965  0.9540 -0.8395
 9138SOL     OW39049   4.341   2.465  11.063  0.0193  0.3674  0.0105
 9138SOL    HW139050   4.400   2.524  11.017 -0.1948  0.1679 -0.5200
 9138SOL    HW239051   4.376   2.457  11.152 -1.1025 -1.5489  0.2903
 9139SOL     OW39052   4.710   2.319  11.227 -0.1115  0.0284 -0.3535
 9139SOL    HW139053   4.681   2.333  11.137  3.5404  0.5963 -1.4435
 9139SOL    HW239054   0.042   2.252  11.220 -0.1428 -0.0742  0.3444
 9140SOL     OW39055   2.396   1.070  15.435 -0.3919 -0.5577  0.0954
 9140SOL    HW139056   2.363   0.991  15.479 -1.1835  0.1253  0.7490
 9140SOL    HW239057   2.313   1.118  15.435 -0.4572 -0.6668  0.5786
 9141SOL     OW39058   1.993   1.733   4.913  0.4538 -0.6050 -0.1363
 9141SOL    HW139059   1.988   1.664   4.846 -0.2534 -0.3457 -0.3532
 9141SOL    HW239060   2.079   1.771   4.895 -1.2481  1.5586 -3.7397
 9142SOL     OW39061   3.830   3.450   8.115 -0.2392 -0.2122 -0.0155
 9142SOL    HW139062   3.787   3.466   8.199 -0.8375 -0.9599 -0.1763
 9142SOL    HW239063   3.760   3.416   8.059 -1.8930  1.2808  1.1397
 9143SOL     OW39064   1.566   0.486   5.508  0.2002 -0.2311  0.1048
 9143SOL    HW139065   1.619   0.431   5.566 -3.5936 -1.9420  1.8794
 9143SOL    HW239066   1.495   0.430   5.477 -0.2173  0.5773 -0.3995
 9144SOL     OW39067   3.247   4.577   4.605 -0.1713 -0.2393 -0.5046
 9144SOL    HW139068   3.325   4.559   4.657 -0.3576  2.4931  0.6807
 9144SOL    HW239069   3.211   4.659   4.638  2.5174  0.0996  1.5630
 9145SOL     OW39070   2.941   4.234   9.678  0.2038  0.5795  0.5084
 9145SOL    HW139071   2.960   4.263   9.767 -1.7291 -0.5822  1.2869
 9145SOL    HW239072   3.021   4.261   9.634 -0.5743 -1.4946 -2.2332
 9146SOL     OW39073   1.038   3.904   8.220  0.5936  0.3612 -0.4501
 9146SOL    HW139074   1.030   3.883   8.127  0.0067 -1.6589  0.0621
 9146SOL    HW239075   1.133   3.908   8.231  0.8288 -2.7942 -1.3287
 9147SOL     OW39076   2.277   1.246   2.316 -0.0105 -0.3867 -0.1686
 9147SOL    HW139077   2.328   1.167   2.335  0.4232 -0.5513 -1.9812
 9147SOL    HW239078   2.321   1.262   2.233  0.0875  1.2560  0.2034
 9148SOL     OW39079   0.590   0.750   7.918  0.3841  0.2979 -0.4934
 9148SOL    HW139080   0.649   0.676   7.911 -1.5038 -1.2222 -0.4124
 9148SOL    HW239081   0.595   0.761   8.013 -0.7520  1.1635 -0.5280
 9149SOL     OW39082   1.786   1.352   5.241 -0.1811  0.0878 -0.1762
 9149SOL    HW139083   1.841   1.420   5.202 -0.4489 -0.4485 -1.4909
 9149SOL    HW239084   1.849   1.281   5.250  0.3771  0.4611 -1.1683
 9150SOL     OW39085   4.467   3.976  12.284 -0.2205  0.0487 -0.0677
 9150SOL    HW139086   4.504   3.904  12.336  0.5090 -0.2668 -0.9991
 9150SOL    HW239087   4.403   3.930  12.229  0.1753  0.5917 -0.9893
 9151SOL     OW39088   3.140   1.961   3.464  0.4202 -0.1496 -0.2398
 9151SOL    HW139089   3.056   1.985   3.424 -0.9386 -0.5157  2.3527
 9151SOL    HW239090   3.131   1.867   3.449  1.5009 -0.3110  0.1353
 9152SOL     OW39091   4.174   0.800   6.159 -0.2006 -0.1278  0.8276
 9152SOL    HW139092   4.225   0.871   6.197 -1.5478  0.7343  1.0188
 9152SOL    HW239093   4.239   0.774   6.093 -0.0517 -0.0377  0.9379
 9153SOL     OW39094   0.634   0.105   6.176 -0.4679 -0.3310 -0.3985
 9153SOL    HW139095   0.564   0.086   6.238  0.1759  0.6961  0.6384
 9153SOL    HW239096   0.583   0.150   6.108 -1.7363 -0.2856  0.5681
 9154SOL     OW39097   1.302   3.045   1.782  0.0695  0.3175 -0.0985
 9154SOL    HW139098   1.278   3.011   1.696  1.4768  1.8383 -1.0886
 9154SOL    HW239099   1.372   2.988   1.814  0.4344  0.0573 -1.3342
 9155SOL     OW39100   2.847   2.908   6.102  0.6905  0.5359 -0.4569
 9155SOL    HW139101   2.929   2.862   6.085  1.2805  1.4982 -0.1410
 9155SOL    HW239102   2.855   2.916   6.197 -1.0299 -0.8953 -0.1673
 9156SOL     OW39103   2.410   3.980   5.909  0.4812 -0.1544 -0.7578
 9156SOL    HW139104   2.468   4.042   5.953  0.2818  0.1401 -0.9083
 9156SOL    HW239105   2.411   3.901   5.963  0.2272 -0.0181 -0.5520
 9157SOL     OW39106   1.947   4.464  16.573  0.3312 -0.3092 -0.1340
 9157SOL    HW139107   1.932   4.392  16.634  1.3344  1.1361  1.8180
 9157SOL    HW239108   2.012   4.509  16.627  1.5198 -1.2569 -0.7727
 9158SOL     OW39109   3.075   0.984  14.959  0.7221 -0.1515 -0.4956
 9158SOL    HW139110   3.108   0.997  14.870  1.0968 -2.8479 -0.7425
 9158SOL    HW239111   3.116   1.063  14.994  0.7600  0.6052 -2.2345
 9159SOL     OW39112   2.836   4.672   4.735  0.0383  0.2980  0.2463
 9159SOL    HW139113   2.774   0.008   4.746  3.1712  2.9939  0.0850
 9159SOL    HW239114   2.914   4.717   4.768 -0.2096  0.1890  0.9911
 9160SOL     OW39115   3.402   4.593   7.118 -0.7266 -0.0067 -0.1885
 9160SOL    HW139116   3.492   4.578   7.089  0.5112  0.3940  3.4481
 9160SOL    HW239117   3.350   4.519   7.085  1.5275 -1.2662 -0.9301
 9161SOL     OW39118   3.551   4.733   5.274 -0.2708 -0.1948 -0.2289
 9161SOL    HW139119   3.595   4.713   5.191 -1.3891  0.2376 -0.9103
 9161SOL    HW239120   3.462   0.011   5.244 -0.5856  1.6929  1.6072
 9162SOL     OW39121   1.374   3.216   8.849 -0.4199  0.0429 -0.3211
 9162SOL    HW139122   1.371   3.298   8.899  0.0415 -0.0573 -0.1324
 9162SOL    HW239123   1.452   3.239   8.799 -0.8096 -0.0286 -0.9764
 9163SOL     OW39124   2.308   2.180  14.043 -0.6258 -0.2387 -0.7077
 9163SOL    HW139125   2.318   2.100  13.991  1.1449  0.4020 -1.3569
 9163SOL    HW239126   2.245   2.236  13.997 -0.1717  0.2991 -0.6751
 9164SOL     OW39127   1.818   4.096   2.297  0.0825  0.1557  0.0499
 9164SOL    HW139128   1.748   4.151   2.261 -0.5929  0.8596  2.4929
 9164SOL    HW239129   1.874   4.167   2.327 -0.5608  0.4459  0.5566
 9165SOL     OW39130   3.031   0.546  17.640 -0.0574  0.5039 -0.2572
 9165SOL    HW139131   3.118   0.586  17.640  0.5347 -0.7758  1.4498
 9165SOL    HW239132   3.022   0.550  17.735  1.9171  0.3784 -0.0654
 9166SOL     OW39133   2.186   0.620   2.017 -0.8877  0.1143 -0.0814
 9166SOL    HW139134   2.099   0.625   1.977 -0.1904 -1.4345 -1.7890
 9166SOL    HW239135   2.201   0.690   2.081 -0.4703  0.4806 -0.5835
 9167SOL     OW39136   3.534   1.655  17.037  0.0108  0.0867  0.2396
 9167SOL    HW139137   3.628   1.673  17.034 -0.4237  1.9091 -2.7945
 9167SOL    HW239138   3.522   1.669  17.131 -0.3410  1.5656 -0.0305
 9168SOL     OW39139   2.998   4.633   5.572  0.0839 -0.0423  0.0478
 9168SOL    HW139140   3.055   4.556   5.571  0.2963  0.1077  0.5771
 9168SOL    HW239141   3.012   4.666   5.483  0.6585 -2.4736 -0.7429
 9169SOL     OW39142   1.322   3.953  13.809  0.0248  0.1714  0.8844
 9169SOL    HW139143   1.252   3.932  13.748  2.3968  0.0826 -1.8049
 9169SOL    HW239144   1.395   3.892  13.793  0.1437  0.9016 -1.3510
 9170SOL     OW39145   0.672   1.011   4.581  0.8606  0.0612  0.1716
 9170SOL    HW139146   0.629   0.993   4.665 -1.3200 -0.4295 -1.0722
 9170SOL    HW239147   0.608   0.988   4.514 -1.0572  0.0315  2.0158
 9171SOL     OW39148   1.182   3.719   6.205  0.3555  0.6134 -0.0843
 9171SOL    HW139149   1.131   3.796   6.182 -0.3115  0.0283 -0.5886
 9171SOL    HW239150   1.240   3.700   6.132  1.9625  0.6661  1.1818
 9172SOL     OW39151   3.064   2.766  14.465 -0.3849  0.5750 -0.0108
 9172SOL    HW139152   3.096   2.698  14.405 -1.5134  1.6391 -1.8213
 9172SOL    HW239153   3.114   2.751  14.546 -2.6269  2.2133  1.6664
 9173SOL     OW39154   4.454   2.266   5.685 -0.0448  0.3393  0.2347
 9173SOL    HW139155   4.413   2.333   5.739 -1.9572 -1.5430  1.0887
 9173SOL    HW239156   4.501   2.222   5.756 -1.0661 -0.1427  0.6152
 9174SOL     OW39157   1.830   1.872   8.916 -0.2908  0.3553 -0.4831
 9174SOL    HW139158   1.916   1.903   8.943  0.1068  0.0467 -1.4063
 9174SOL    HW239159   1.772   1.891   8.991  0.3274  0.1455  0.0465
 9175SOL     OW39160   1.271   0.103   4.472  0.7621  0.1265  0.2125
 9175SOL    HW139161   1.351   0.054   4.489 -0.5965 -1.9970  0.4317
 9175SOL    HW239162   1.200   0.046   4.501  0.5803 -0.3442 -1.1543
 9176SOL     OW39163   1.849   3.170   4.670  0.0618  0.0715 -0.2835
 9176SOL    HW139164   1.846   3.158   4.575  0.9587  4.6956 -0.9303
 9176SOL    HW239165   1.907   3.099   4.696  0.5950  0.7005  0.2694
 9177SOL     OW39166   3.064   4.476   5.844 -0.1616  0.0124 -0.0929
 9177SOL    HW139167   3.075   4.407   5.909  0.6439 -1.3154 -1.6284
 9177SOL    HW239168   3.097   4.435   5.764 -1.1653 -1.5211  0.2804
 9178SOL     OW39169   0.060   4.145   6.398  0.5390  0.9393 -0.5277
 9178SOL    HW139170   0.021   4.230   6.378 -0.3765  0.2919 -1.4356
 9178SOL    HW239171   4.725   4.092   6.434  0.2299  1.7614  0.0834
 9179SOL     OW39172   1.149   3.328   4.565  0.2205 -0.5636 -0.6763
 9179SOL    HW139173   1.163   3.257   4.503  1.0990 -0.9158 -0.0710
 9179SOL    HW239174   1.158   3.411   4.519  1.6603 -0.0903  0.4655
 9180SOL     OW39175   1.437   4.536   3.680  0.3129  0.1473  0.0008
 9180SOL    HW139176   1.362   4.511   3.627  1.4387 -0.1243 -1.4672
 9180SOL    HW239177   1.437   4.469   3.749  0.0450 -0.0148 -0.1553
 9181SOL     OW39178   1.542   1.305   0.329 -0.5502  0.3029  0.0781
 9181SOL    HW139179   1.532   1.303   0.424  0.7473 -0.3698  0.1975
 9181SOL    HW239180   1.581   1.218   0.317  0.6842  0.9006 -0.2517
 9182SOL     OW39181   3.397   2.652   1.889 -0.0806 -0.1267 -0.6555
 9182SOL    HW139182   3.462   2.720   1.907 -0.7743  0.5695 -0.7670
 9182SOL    HW239183   3.340   2.695   1.825 -1.8729 -0.3132  0.8294
 9183SOL     OW39184   1.534   4.161  15.446 -0.3723  0.6923 -0.3069
 9183SOL    HW139185   1.614   4.189  15.402 -0.9894  1.6796 -0.8005
 9183SOL    HW239186   1.504   4.242  15.487  0.5459  0.8790 -0.0117
 9184SOL     OW39187   1.154   1.637  10.872  0.4258  0.0653  0.1212
 9184SOL    HW139188   1.148   1.575  10.944 -0.3120 -1.6875 -1.4540
 9184SOL    HW239189   1.244   1.670  10.876 -0.2384  1.7969  1.0093
 9185SOL     OW39190   1.289   2.212   5.712  0.4000 -0.1903 -0.4193
 9185SOL    HW139191   1.376   2.247   5.732  0.0677  2.1206 -2.9273
 9185SOL    HW239192   1.260   2.276   5.646 -0.5190 -2.7140 -2.4776
 9186SOL     OW39193   2.509   0.780   1.965  0.1985 -0.2112 -0.0568
 9186SOL    HW139194   2.515   0.858   2.021 -0.9592 -1.2977  1.5471
 9186SOL    HW239195   2.600   0.754   1.981 -0.1371 -1.2394  0.1642
 9187SOL     OW39196   2.007   2.783   1.857  0.6725 -0.5484  0.7042
 9187SOL    HW139197   1.924   2.736   1.853  1.4674 -1.7814 -1.0376
 9187SOL    HW239198   2.061   2.728   1.800  0.1511 -0.3150 -0.0076
 9188SOL     OW39199   4.302   4.731  17.289  0.7456 -0.0337 -0.5662
 9188SOL    HW139200   4.337   4.723  17.377  1.2729 -1.2974 -0.8984
 9188SOL    HW239201   4.249   4.652  17.286  0.5052  0.0561  1.6380
 9189SOL     OW39202   0.691   2.398  11.774  0.0732 -0.3307  0.3006
 9189SOL    HW139203   0.730   2.311  11.776 -1.6418 -1.1322 -0.3198
 9189SOL    HW239204   0.610   2.368  11.731 -0.9576  2.6096  0.1796
 9190SOL     OW39205   3.471   1.880   2.495 -0.2407 -0.4362  0.4400
 9190SOL    HW139206   3.521   1.879   2.576  2.6882  1.4031 -1.3394
 9190SOL    HW239207   3.546   1.890   2.436  0.4530 -1.5723  1.1158
 9191SOL     OW39208   1.269   1.638   2.385 -0.4244  0.3633  0.0555
 9191SOL    HW139209   1.211   1.566   2.412  1.3356 -1.3920 -0.8690
 9191SOL    HW239210   1.330   1.641   2.458 -0.6485  0.5231  0.2362
 9192SOL     OW39211   3.249   0.412  15.498  0.4193 -0.0939  0.0483
 9192SOL    HW139212   3.193   0.484  15.527 -0.1059 -0.3853 -0.2575
 9192SOL    HW239213   3.301   0.386  15.574  0.3367 -1.2060 -0.2843
 9193SOL     OW39214   0.957   1.780   2.690 -0.3745 -0.1914 -0.9842
 9193SOL    HW139215   0.968   1.691   2.657 -0.3126 -0.3110 -0.6474
 9193SOL    HW239216   1.042   1.812   2.721 -1.2063  0.1117  0.9910
 9194SOL     OW39217   0.400   2.942  14.594  0.1794 -0.2311  0.5348
 9194SOL    HW139218   0.330   2.987  14.546  1.3921  2.4569  1.3078
 9194SOL    HW239219   0.368   2.852  14.588 -2.0282  0.5334  0.8890
 9195SOL     OW39220   0.391   0.518   7.366  0.3851 -0.5999 -0.4868
 9195SOL    HW139221   0.436   0.524   7.282  0.1086 -4.1022 -0.9051
 9195SOL    HW239222   0.420   0.601   7.404 -0.9425  0.2086 -1.2790
 9196SOL     OW39223   2.798   1.659  14.101 -0.0114 -0.0208  0.3269
 9196SOL    HW139224   2.843   1.578  14.123 -0.8296 -0.8205 -0.9614
 9196SOL    HW239225   2.857   1.723  14.142  1.0993 -0.6634 -0.2672
 9197SOL     OW39226   3.699   4.332   8.809  0.3488 -0.5243 -0.4265
 9197SOL    HW139227   3.714   4.355   8.717 -2.7828 -0.0681 -0.8333
 9197SOL    HW239228   3.618   4.282   8.801 -0.0349  0.4110 -2.4135
 9198SOL     OW39229   3.209   1.201  15.023 -0.1619 -0.0380 -0.1893
 9198SOL    HW139230   3.298   1.180  15.052 -0.5358  0.7206  1.5288
 9198SOL    HW239231   3.200   1.284  15.070 -2.7823 -1.3532  1.6188
 9199SOL     OW39232   0.427   4.027  10.814 -0.0977 -0.1653  0.7914
 9199SOL    HW139233   0.441   3.989  10.901  2.5824 -1.4164 -0.1930
 9199SOL    HW239234   0.502   3.991  10.766  0.6385 -1.3534  2.8129
 9200SOL     OW39235   0.561   2.019   8.394 -0.7711  0.5582  0.0805
 9200SOL    HW139236   0.533   2.099   8.348 -0.8735  0.6432  0.2901
 9200SOL    HW239237   0.494   1.954   8.374 -0.5884  0.2263  0.5677
 9201SOL     OW39238   3.567   1.118  15.939 -0.1509 -0.2617  0.6027
 9201SOL    HW139239   3.502   1.112  16.008 -0.0085  1.2001  0.8647
 9201SOL    HW239240   3.514   1.124  15.860  0.4150 -1.2428  0.1432
 9202SOL     OW39241   0.519   2.533   8.068  0.1474  0.5294 -0.1476
 9202SOL    HW139242   0.481   2.457   8.022  0.8425  0.0430  0.0805
 9202SOL    HW239243   0.612   2.518   8.079  0.4399  0.9952 -1.9171
 9203SOL     OW39244   3.746   2.790   6.820 -0.5118  0.0834  0.3729
 9203SOL    HW139245   3.735   2.824   6.909  2.9197  0.3919  0.6718
 9203SOL    HW239246   3.782   2.866   6.774 -3.4807  0.7938 -0.8270
 9204SOL     OW39247   1.772   0.426   9.994  0.0192 -0.2951 -0.5406
 9204SOL    HW139248   1.794   0.396   9.906 -0.7574 -0.0737 -0.8081
 9204SOL    HW239249   1.855   0.420  10.042 -0.7755 -0.0713  0.8555
 9205SOL     OW39250   1.195   2.334  11.001 -0.0550  0.2206  0.2600
 9205SOL    HW139251   1.233   2.347  11.088  1.4557  1.1298 -0.5294
 9205SOL    HW239252   1.111   2.302  11.033  0.0592  0.5451  0.8853
 9206SOL     OW39253   2.144   2.671   3.679 -0.1196 -0.5957  0.1233
 9206SOL    HW139254   2.236   2.699   3.678 -0.5639  0.8334 -0.0722
 9206SOL    HW239255   2.145   2.634   3.591  1.3039 -0.1376 -0.0534
 9207SOL     OW39256   1.506   3.444   7.079  0.4163 -0.2097 -0.4321
 9207SOL    HW139257   1.564   3.482   7.144  1.0357 -2.1528  0.1559
 9207SOL    HW239258   1.556   3.366   7.053  0.2581 -0.1793 -0.8316
 9208SOL     OW39259   0.889   2.018  13.245  0.3463  0.2321 -0.0664
 9208SOL    HW139260   0.907   2.076  13.171  0.5824  0.6769  0.3394
 9208SOL    HW239261   0.950   1.946  13.229  2.2603  1.4212  1.9724
 9209SOL     OW39262   2.831   2.014   6.560  0.3444  0.1854  0.6076
 9209SOL    HW139263   2.736   2.021   6.567  0.4219  0.5966  1.1725
 9209SOL    HW239264   2.853   1.978   6.646  0.3719  1.3369  1.0856
 9210SOL     OW39265   0.560   0.594   5.210  0.3994 -0.1347 -0.0462
 9210SOL    HW139266   0.521   0.538   5.278  0.3573  0.0837  0.1098
 9210SOL    HW239267   0.516   0.553   5.135  1.8401  2.6148 -2.3654
 9211SOL     OW39268   0.990   1.157   1.834 -0.0228  0.0568 -0.2139
 9211SOL    HW139269   0.958   1.233   1.785  2.6013 -0.0196 -2.0826
 9211SOL    HW239270   1.054   1.192   1.895 -0.6283  0.4683  0.1768
 9212SOL     OW39271   4.606   1.124   0.671  0.0945  0.0649 -0.4182
 9212SOL    HW139272   4.638   1.119   0.761 -2.5986 -1.4541  0.4394
 9212SOL    HW239273   4.689   1.135   0.624  1.3923 -0.3210  1.7594
 9213SOL     OW39274   3.773   4.177  13.256  0.1971 -0.7169  0.1523
 9213SOL    HW139275   3.698   4.237  13.260  0.1679 -0.6055 -1.9761
 9213SOL    HW239276   3.810   4.216  13.177 -0.5258  1.4480  0.8539
 9214SOL     OW39277   1.850   2.854  12.144  0.8163 -0.3832 -0.6750
 9214SOL    HW139278   1.795   2.927  12.114  1.4203  0.1913 -0.3822
 9214SOL    HW239279   1.821   2.830  12.232  0.3890 -2.6118 -1.4171
 9215SOL     OW39280   2.863   0.359   0.354  0.1645 -0.3811  0.4178
 9215SOL    HW139281   2.816   0.324   0.278  1.1758 -1.1972  0.1663
 9215SOL    HW239282   2.916   0.282   0.375 -1.3819 -2.1020 -1.9371
 9216SOL     OW39283   3.476   0.934   5.639  0.5260 -0.0017  0.1730
 9216SOL    HW139284   3.452   1.011   5.691 -0.7903  2.0105 -3.4209
 9216SOL    HW239285   3.525   0.882   5.703  2.0391  0.7519 -0.3785
 9217SOL     OW39286   2.324   3.829   8.727 -0.2004  1.0319 -0.4580
 9217SOL    HW139287   2.293   3.742   8.754 -0.4574  1.9586  2.2096
 9217SOL    HW239288   2.390   3.802   8.662  0.8587  2.3162  0.0846
 9218SOL     OW39289   1.900   4.032   7.602  0.0184 -0.3743 -0.5657
 9218SOL    HW139290   1.940   3.956   7.560 -1.1141 -0.4990 -1.4130
 9218SOL    HW239291   1.963   4.098   7.575 -2.1579  1.2227 -1.8007
 9219SOL     OW39292   1.826   1.531   3.281 -0.5524  0.0940  0.3969
 9219SOL    HW139293   1.738   1.567   3.292  0.1760  2.3817 -1.2332
 9219SOL    HW239294   1.863   1.593   3.219  1.3996  0.0921  1.5720
 9220SOL     OW39295   3.805   1.689  13.191  0.0131 -0.1825  0.4294
 9220SOL    HW139296   3.891   1.730  13.195 -0.3773  0.6397  0.4486
 9220SOL    HW239297   3.833   1.605  13.155 -1.1149 -0.7861  0.9575
 9221SOL     OW39298   4.294   1.048   4.183  0.8060 -0.0409 -0.0823
 9221SOL    HW139299   4.276   1.103   4.107  1.5065 -1.7005 -1.4659
 9221SOL    HW239300   4.217   1.060   4.238  1.5145 -1.9850  1.3319
 9222SOL     OW39301   0.646   3.112   3.031 -0.5088 -0.3511 -0.1125
 9222SOL    HW139302   0.552   3.100   3.043 -0.7817  1.4241 -0.4149
 9222SOL    HW239303   0.658   3.177   3.101  1.4473 -0.8720  0.0226
 9223SOL     OW39304   4.213   3.606  10.737  0.4146  0.3040  0.2272
 9223SOL    HW139305   4.159   3.675  10.776 -1.0637 -1.2294  0.9368
 9223SOL    HW239306   4.287   3.658  10.706  1.6983 -2.1778 -0.8811
 9224SOL     OW39307   1.406   3.311   0.029 -0.2286 -0.0567  0.0433
 9224SOL    HW139308   1.449   3.266  17.699  1.5807 -0.0506  1.1058
 9224SOL    HW239309   1.414   3.404   0.007  0.7852  0.0008  0.6592
 9225SOL     OW39310   0.397   3.406   8.219 -0.3100 -0.2113 -0.1175
 9225SOL    HW139311   0.381   3.330   8.164  0.2459 -1.0395  0.8840
 9225SOL    HW239312   0.441   3.465   8.158 -0.3927 -2.8634 -2.6830
 9226SOL     OW39313   4.009   2.999   7.511  0.4922  0.4882  0.2454
 9226SOL    HW139314   4.004   2.972   7.602  2.1543  0.9824  0.4944
 9226SOL    HW239315   3.925   2.990   7.466  0.0133  2.2710  0.7728
 9227SOL     OW39316   3.160   0.758   8.492  0.4554 -0.0365  0.5357
 9227SOL    HW139317   3.212   0.826   8.448 -0.2780  0.0663 -0.1733
 9227SOL    HW239318   3.075   0.798   8.507  1.2877  1.6860  0.6819
 9228SOL     OW39319   2.509   0.673  14.476 -0.1998  0.0826 -0.4415
 9228SOL    HW139320   2.565   0.699  14.403 -1.1976  1.2922 -0.7933
 9228SOL    HW239321   2.498   0.757  14.521 -0.7269 -1.2088  1.8214
 9229SOL     OW39322   3.108   0.978   5.301 -0.1746  0.4677  0.7091
 9229SOL    HW139323   3.175   0.998   5.235 -0.0421 -0.1687  0.6530
 9229SOL    HW239324   3.025   1.002   5.259 -0.0750 -0.1009  0.1837
 9230SOL     OW39325   0.153   2.681   6.033  0.1259  0.0989 -0.1372
 9230SOL    HW139326   0.243   2.704   6.012 -0.3759 -0.5811 -2.9599
 9230SOL    HW239327   0.107   2.726   5.962  0.8616 -0.1324 -0.7652
 9231SOL     OW39328   2.216   0.597   3.969 -0.3653  0.2190  0.3090
 9231SOL    HW139329   2.160   0.646   4.029 -1.4141  0.6619 -1.0302
 9231SOL    HW239330   2.300   0.643   3.967  0.6210 -1.5358  0.6973
 9232SOL     OW39331   1.866   1.729   3.501  0.1642  0.2297 -0.9413
 9232SOL    HW139332   1.854   1.699   3.411 -0.1169 -1.5428 -0.3121
 9232SOL    HW239333   1.803   1.801   3.499 -1.3713 -1.0805  1.0659
 9233SOL     OW39334   3.002   0.863  16.079  0.0628  0.0141  0.4156
 9233SOL    HW139335   2.936   0.923  16.115 -0.7435 -2.1090  2.5237
 9233SOL    HW239336   3.065   0.919  16.035  0.4473  1.0818  2.3510
 9234SOL     OW39337   2.486   2.374   6.160  0.1495  0.1045  0.1036
 9234SOL    HW139338   2.432   2.296   6.173  1.0373 -0.9647 -2.5918
 9234SOL    HW239339   2.534   2.371   6.244  1.1904 -0.8997 -0.5241
 9235SOL     OW39340   4.139   2.314  15.585  0.3787 -0.5407 -0.1074
 9235SOL    HW139341   4.216   2.362  15.615  0.1113 -1.0668  1.4248
 9235SOL    HW239342   4.105   2.359  15.508 -0.7202 -2.0709 -0.5039
 9236SOL     OW39343   3.300   0.782   0.824 -0.8722 -0.3787 -0.2922
 9236SOL    HW139344   3.342   0.705   0.786  1.5681  1.6016 -1.6431
 9236SOL    HW239345   3.336   0.851   0.769  2.3336 -0.1317  2.0909
 9237SOL     OW39346   4.168   1.960  11.632  0.4180  0.2007 -0.2522
 9237SOL    HW139347   4.087   1.911  11.644  0.8828 -0.2921  0.8836
 9237SOL    HW239348   4.148   2.024  11.563 -1.7301 -1.2294 -0.9472
 9238SOL     OW39349   0.690   4.526   8.502 -0.0297 -0.5335 -0.2341
 9238SOL    HW139350   0.668   4.597   8.442  1.8817  1.3982  1.3583
 9238SOL    HW239351   0.608   4.476   8.508  0.9709 -2.1018  0.3483
 9239SOL     OW39352   0.060   1.944   1.469  0.0424 -0.5717  0.5616
 9239SOL    HW139353   0.114   1.929   1.547 -1.3349 -1.2099  1.3865
 9239SOL    HW239354   0.103   2.028   1.450  0.1715 -0.7952 -0.1375
 9240SOL     OW39355   3.352   2.955  16.970 -0.0763 -0.2588 -0.4272
 9240SOL    HW139356   3.282   2.950  16.904  0.8616 -1.0416 -1.3717
 9240SOL    HW239357   3.355   2.862  16.994 -0.1803  0.2811  1.6537
 9241SOL     OW39358   1.473   4.092   3.575 -0.4240 -0.2050  0.2186
 9241SOL    HW139359   1.547   4.048   3.533 -0.3132 -0.5004  0.7216
 9241SOL    HW239360   1.497   4.182   3.553 -0.3809 -0.1588  0.4465
 9242SOL     OW39361   4.375   1.685   8.275 -0.2194  0.1617 -0.4681
 9242SOL    HW139362   4.440   1.724   8.216 -2.6105  1.6605 -2.1273
 9242SOL    HW239363   4.377   1.755   8.340 -2.5212  0.1903 -0.4351
 9243SOL     OW39364   3.214   1.756   8.395 -0.1023  0.0693  0.0979
 9243SOL    HW139365   3.277   1.691   8.366  2.0057  2.8410 -1.5301
 9243SOL    HW239366   3.153   1.700   8.444  1.2375  0.4230  2.1670
 9244SOL     OW39367   1.635   1.428   8.728  0.1527 -0.0004  0.1841
 9244SOL    HW139368   1.711   1.375   8.751 -0.3413 -0.9113 -0.2608
 9244SOL    HW239369   1.596   1.382   8.653  0.2305 -1.5067  1.0559
 9245SOL     OW39370   4.684   4.533   8.723 -0.2254  0.5150  0.1012
 9245SOL    HW139371   4.644   4.447   8.740 -0.9495  1.6767  4.3483
 9245SOL    HW239372   4.669   4.549   8.630  0.8457 -0.3277 -0.2178
 9246SOL     OW39373   4.178   1.214  13.226  0.1328 -0.2224 -0.2234
 9246SOL    HW139374   4.204   1.284  13.166  1.8513 -0.4262  0.2896
 9246SOL    HW239375   4.132   1.155  13.166 -1.1603 -1.4228  1.9713
 9247SOL     OW39376   1.329   4.355   1.909  0.2124  0.0004  0.0594
 9247SOL    HW139377   1.342   4.447   1.888  0.4787  0.1921  1.0873
 9247SOL    HW239378   1.405   4.311   1.870 -0.6769 -1.3372 -0.1645
 9248SOL     OW39379   3.408   2.569  15.699 -0.0714 -0.1498 -0.0544
 9248SOL    HW139380   3.378   2.583  15.789  1.4448 -2.0621  0.7349
 9248SOL    HW239381   3.345   2.501  15.676 -2.3716  1.6899  0.7670
 9249SOL     OW39382   1.447   1.382   7.478  0.0789 -0.0609 -0.3032
 9249SOL    HW139383   1.484   1.300   7.511 -2.7679 -0.2983  2.2603
 9249SOL    HW239384   1.397   1.419   7.551 -1.2638 -1.5573 -0.4419
 9250SOL     OW39385   4.551   0.805  15.606 -1.0424 -0.0471  0.1705
 9250SOL    HW139386   4.529   0.896  15.625  0.8621  0.3808  0.3506
 9250SOL    HW239387   4.564   0.804  15.511 -2.3286  0.9218 -0.0256
 9251SOL     OW39388   3.594   3.931   8.778  0.2540 -0.1374 -0.1758
 9251SOL    HW139389   3.680   3.973   8.772  0.3476 -0.5152 -1.6382
 9251SOL    HW239390   3.571   3.946   8.686  1.9408  1.2478 -0.3755
 9252SOL     OW39391   3.184   4.280   4.879  0.6858  0.0724  1.0174
 9252SOL    HW139392   3.172   4.198   4.831  1.2365  0.3010  0.4822
 9252SOL    HW239393   3.141   4.343   4.822 -2.5614 -1.9394  1.2469
 9253SOL     OW39394   2.109   1.031   9.058  0.0406 -0.1034  0.9371
 9253SOL    HW139395   2.170   0.968   9.019 -3.7023 -2.2787 -1.4119
 9253SOL    HW239396   2.177   1.080   9.104  0.3361 -1.1077  1.5772
 9254SOL     OW39397   3.988   3.182   4.863 -0.2918  0.0188  0.2013
 9254SOL    HW139398   4.029   3.213   4.944  0.8659  0.1330 -0.4308
 9254SOL    HW239399   3.907   3.232   4.867 -0.6562 -0.4568 -1.1415
 9255SOL     OW39400   1.023   2.615   2.208 -0.6785  0.2845 -0.3965
 9255SOL    HW139401   1.015   2.523   2.182 -0.3331  0.7539 -2.1764
 9255SOL    HW239402   0.967   2.666   2.150  0.6084 -0.6250 -2.4559
 9256SOL     OW39403   3.748   0.935  16.475 -0.9335  0.4077  0.0639
 9256SOL    HW139404   3.683   0.920  16.544 -1.6518 -1.5995 -1.0266
 9256SOL    HW239405   3.709   1.008  16.427 -2.8682  1.1600  2.7618
 9257SOL     OW39406   0.879   3.897   8.921  0.1099  0.4039 -0.1106
 9257SOL    HW139407   0.821   3.838   8.873 -0.0296  0.1014  0.4279
 9257SOL    HW239408   0.838   3.981   8.902  1.2347  0.4647 -2.2023
 9258SOL     OW39409   3.289   1.565   7.545  0.5015  0.2130  0.2460
 9258SOL    HW139410   3.327   1.544   7.631  0.6657 -1.4617 -0.2503
 9258SOL    HW239411   3.226   1.636   7.560 -0.2411 -0.4464  0.2750
 9259SOL     OW39412   4.388   3.054   6.298 -0.2891 -0.0126 -0.2636
 9259SOL    HW139413   4.429   3.011   6.373  1.0813  0.6529 -0.6351
 9259SOL    HW239414   4.311   2.998   6.289  0.7534 -1.3748 -0.7742
 9260SOL     OW39415   4.645   2.450   1.911  0.6584  0.0958  0.5158
 9260SOL    HW139416   4.629   2.356   1.912 -2.8709  0.7150  1.1454
 9260SOL    HW239417   4.655   2.467   1.817 -1.0446  0.1212  0.3438
 9261SOL     OW39418   3.805   2.852   5.089  0.0847 -0.5465  0.1881
 9261SOL    HW139419   3.865   2.913   5.133 -0.7080  0.7449 -0.5070
 9261SOL    HW239420   3.863   2.797   5.037 -0.4165 -0.7823 -0.1285
 9262SOL     OW39421   2.543   1.829   5.288 -0.2603  0.1262 -0.5421
 9262SOL    HW139422   2.615   1.766   5.293 -0.9762 -0.5669  0.8476
 9262SOL    HW239423   2.588   1.899   5.239  2.6007 -1.5259 -0.2567
 9263SOL     OW39424   3.453   2.607   2.896  0.4362 -0.2639 -0.2146
 9263SOL    HW139425   3.407   2.535   2.939  1.7480 -0.9904 -0.0516
 9263SOL    HW239426   3.384   2.674   2.900  1.1740  0.4414  0.7461
 9264SOL     OW39427   2.269   2.697   5.308 -0.3708  0.1918  0.5113
 9264SOL    HW139428   2.259   2.674   5.215  3.9495 -2.5125  0.7220
 9264SOL    HW239429   2.187   2.747   5.311  0.8862  2.2333  0.4472
 9265SOL     OW39430   1.805   2.592   5.915  0.2737  0.6030  0.2828
 9265SOL    HW139431   1.762   2.641   5.845 -1.5914 -0.3374  0.7653
 9265SOL    HW239432   1.726   2.550   5.948 -0.2733 -0.2362 -2.1093
 9266SOL     OW39433   1.246   3.384   7.762  0.2157 -0.5412  0.6010
 9266SOL    HW139434   1.255   3.288   7.767  0.8140 -0.4689  0.9336
 9266SOL    HW239435   1.157   3.385   7.798 -0.4787  1.6157 -1.1780
 9267SOL     OW39436   1.431   0.255   8.754 -0.3248 -0.1341 -0.0371
 9267SOL    HW139437   1.403   0.327   8.811  0.9972 -0.9776  1.6584
 9267SOL    HW239438   1.509   0.289   8.711  0.1663 -2.5135 -1.0252
 9268SOL     OW39439   3.646   0.498   9.607  0.0377 -0.1850 -0.3040
 9268SOL    HW139440   3.626   0.432   9.674  2.0503 -1.2736 -0.7550
 9268SOL    HW239441   3.688   0.563   9.663 -0.7149  0.2084 -0.2039
 9269SOL     OW39442   3.408   4.194   2.995 -0.0243  0.6819  0.2207
 9269SOL    HW139443   3.473   4.137   3.036  0.0036 -1.3472 -2.6744
 9269SOL    HW239444   3.399   4.153   2.909  0.7349  1.5909 -0.2944
 9270SOL     OW39445   1.923   0.959   7.136  0.0897 -0.4664 -0.4794
 9270SOL    HW139446   1.853   0.976   7.199  0.5250  0.3243 -0.2073
 9270SOL    HW239447   1.888   0.969   7.047 -1.6294 -1.4286  0.0922
 9271SOL     OW39448   2.484   0.172   7.633  0.1178  0.0503 -0.3795
 9271SOL    HW139449   2.447   0.156   7.547  0.7529 -1.2929 -0.3945
 9271SOL    HW239450   2.573   0.142   7.613 -0.0171 -0.2835 -0.4696
 9272SOL     OW39451   0.348   0.915  14.528  0.4488 -0.0422  0.5711
 9272SOL    HW139452   0.254   0.915  14.549  0.0963 -1.6348 -0.9184
 9272SOL    HW239453   0.338   0.882  14.438 -1.8290 -0.3115  0.9142
 9273SOL     OW39454   2.796   0.366   5.539  0.1814  0.3497  0.3034
 9273SOL    HW139455   2.864   0.431   5.551  1.1480 -0.8531  1.3446
 9273SOL    HW239456   2.729   0.408   5.593 -1.6141 -0.1664 -1.5084
 9274SOL     OW39457   2.818   1.239  14.287  0.1653 -0.1181 -0.1120
 9274SOL    HW139458   2.815   1.157  14.338  1.8549 -1.3513 -2.0032
 9274SOL    HW239459   2.728   1.264  14.268  0.6978  0.5197 -1.7913
 9275SOL     OW39460   1.485   1.107  11.462  0.2864 -0.2763 -0.5172
 9275SOL    HW139461   1.514   1.160  11.536 -1.0333 -0.3751  0.0690
 9275SOL    HW239462   1.459   1.175  11.399  0.7119  0.0093 -0.3857
 9276SOL     OW39463   2.056   4.065   3.731 -0.6266 -0.5124 -0.2073
 9276SOL    HW139464   2.071   4.028   3.645  2.0184  1.2454 -0.5049
 9276SOL    HW239465   1.978   4.118   3.717 -0.7402 -0.7210 -0.3593
 9277SOL     OW39466   3.130   0.658   1.660 -0.1645  0.0177  0.5362
 9277SOL    HW139467   3.189   0.667   1.586  0.3074 -0.5157  0.8511
 9277SOL    HW239468   3.165   0.721   1.723 -0.5503  0.4853  0.2767
 9278SOL     OW39469   0.443   3.518  13.238 -0.3630  0.2835 -0.0677
 9278SOL    HW139470   0.369   3.547  13.291  1.4788  0.7756  2.2520
 9278SOL    HW239471   0.510   3.505  13.305  0.3966  2.9047 -0.3276
 9279SOL     OW39472   1.120   4.579   6.217  0.3623 -0.4338  0.7623
 9279SOL    HW139473   1.054   4.616   6.159  1.8320 -1.6318 -1.6533
 9279SOL    HW239474   1.062   4.575   6.293 -1.7262  2.6913 -0.6577
 9280SOL     OW39475   4.657   2.116   6.603  0.0133 -0.3154  0.0951
 9280SOL    HW139476   4.623   2.028   6.616 -0.1313 -0.6077 -2.1802
 9280SOL    HW239477   0.012   2.087   6.607  0.2337  0.4627  0.7214
 9281SOL     OW39478   4.123   1.826   6.822  0.0534 -0.1667 -0.1911
 9281SOL    HW139479   4.150   1.824   6.914  2.2653 -3.0731 -0.9127
 9281SOL    HW239480   4.028   1.821   6.834  0.1141  0.3810  0.5339
 9282SOL     OW39481   2.490   3.572   3.778  0.6142  0.1477  0.2616
 9282SOL    HW139482   2.478   3.663   3.807 -0.3755  0.0258  0.2064
 9282SOL    HW239483   2.545   3.536   3.848 -0.0247  0.4963  0.9413
 9283SOL     OW39484   2.783   4.389  10.399 -0.1795  0.0068 -0.0755
 9283SOL    HW139485   2.752   4.473  10.435  1.8206  0.2611  1.0368
 9283SOL    HW239486   2.840   4.415  10.327 -1.3673 -1.0953 -1.4153
 9284SOL     OW39487   4.433   2.871   8.112  0.2052 -0.4150  0.6272
 9284SOL    HW139488   4.386   2.945   8.073  0.3308  0.2822  1.7892
 9284SOL    HW239489   4.449   2.908   8.198 -0.4054 -0.1694  0.6366
 9285SOL     OW39490   2.318   2.087   8.260  0.2251  0.2572 -0.8463
 9285SOL    HW139491   2.244   2.077   8.319 -1.6960  2.1421 -2.9744
 9285SOL    HW239492   2.297   2.173   8.223  3.4988  1.7294  0.6520
 9286SOL     OW39493   0.393   4.072   3.342  0.5882  0.1631  0.0493
 9286SOL    HW139494   0.475   4.033   3.373  0.5129  0.8889  1.1731
 9286SOL    HW239495   0.394   4.163   3.371  2.3133 -0.0203  0.5528
 9287SOL     OW39496   1.957   4.301   5.806 -0.1400 -0.0696 -0.4467
 9287SOL    HW139497   1.953   4.218   5.759 -0.1181 -0.4570  0.2316
 9287SOL    HW239498   1.865   4.325   5.797 -0.3375 -1.4648 -1.9982
 9288SOL     OW39499   2.960   1.031   3.472 -0.1059  0.2201  0.3650
 9288SOL    HW139500   3.025   1.082   3.423 -0.8014  0.9032  0.1591
 9288SOL    HW239501   3.018   0.998   3.541  0.4113 -2.2770 -1.2459
 9289SOL     OW39502   2.181   2.277   1.356  0.1979 -0.0835  0.0001
 9289SOL    HW139503   2.222   2.362   1.339 -1.8444  1.1209  1.1488
 9289SOL    HW239504   2.133   2.295   1.437 -0.9340  0.1992 -0.7388
 9290SOL     OW39505   4.361   2.499   2.301  0.6099  0.4948 -0.2677
 9290SOL    HW139506   4.375   2.500   2.395 -0.8498  0.5017 -0.0507
 9290SOL    HW239507   4.277   2.542   2.287  0.0501 -0.5900 -0.2670
 9291SOL     OW39508   2.088   2.372  10.446  0.1570 -0.7902  0.1828
 9291SOL    HW139509   2.064   2.286  10.479 -0.1665 -0.1305  1.6842
 9291SOL    HW239510   2.120   2.342  10.361  2.8327 -0.8136  1.2250
 9292SOL     OW39511   4.633   4.596   9.148 -0.6267  0.3213  0.1866
 9292SOL    HW139512   4.573   4.650   9.200  1.0983  2.2523  0.1330
 9292SOL    HW239513   4.689   4.561   9.217  0.0065  2.9005  0.9653
 9293SOL     OW39514   1.493   3.860   9.149  0.2846  0.2107 -0.2331
 9293SOL    HW139515   1.400   3.848   9.166 -0.0537  2.0054 -0.8455
 9293SOL    HW239516   1.498   3.955   9.138  0.3075  0.1000 -1.2499
 9294SOL     OW39517   4.631   2.704   2.425 -0.1279  0.2556 -0.3092
 9294SOL    HW139518   4.564   2.687   2.492 -0.5974 -0.4136 -0.9480
 9294SOL    HW239519   4.663   2.787   2.460 -1.1934  1.0130 -1.1337
 9295SOL     OW39520   4.123   3.328   5.073 -0.3793 -0.2263  0.0460
 9295SOL    HW139521   4.201   3.373   5.040 -1.5815  3.1503  1.8063
 9295SOL    HW239522   4.068   3.406   5.075 -1.3861 -0.9006 -2.2943
 9296SOL     OW39523   3.413   2.216   7.891 -0.0502 -0.4809 -0.5690
 9296SOL    HW139524   3.349   2.263   7.837  1.4270 -0.7555 -2.5309
 9296SOL    HW239525   3.480   2.284   7.897 -0.4581 -0.4074  3.1190
 9297SOL     OW39526   4.048   0.299   7.826  0.4815 -0.1191 -0.4423
 9297SOL    HW139527   4.128   0.279   7.875  0.5355  1.1307 -0.0247
 9297SOL    HW239528   4.093   0.365   7.773  0.3274  0.2377 -0.1328
 9298SOL     OW39529   2.560   0.416   3.761 -0.3267  0.9998 -0.0702
 9298SOL    HW139530   2.580   0.341   3.705  1.5257  0.9833  0.6346
 9298SOL    HW239531   2.492   0.458   3.708  0.4457  2.3742  0.0243
 9299SOL     OW39532   3.263   3.996   1.997  0.1120 -0.1022 -0.1610
 9299SOL    HW139533   3.334   4.037   1.947  1.6125  0.1878  2.2305
 9299SOL    HW239534   3.300   3.930   2.056  0.1001 -0.4769 -0.5693
 9300SOL     OW39535   1.383   0.631  17.396 -0.4857 -0.6225  0.1296
 9300SOL    HW139536   1.463   0.613  17.447 -0.4771 -1.9049 -0.3258
 9300SOL    HW239537   1.419   0.680  17.322 -0.0360 -0.2210  0.6176
 9301SOL     OW39538   3.014   1.042   7.798 -0.2679  0.1162  0.1547
 9301SOL    HW139539   3.104   1.009   7.790 -0.9638 -2.1217  1.5716
 9301SOL    HW239540   2.968   0.977   7.745  1.8095 -1.2896  0.0446
 9302SOL     OW39541   0.417   0.902   4.009 -0.1566 -0.1662 -0.8456
 9302SOL    HW139542   0.507   0.936   4.006  0.4026 -1.7855 -2.6907
 9302SOL    HW239543   0.431   0.825   3.953 -1.1654 -0.6750 -0.4059
 9303SOL     OW39544   4.586   0.191   5.123 -0.4821  0.0838 -0.5320
 9303SOL    HW139545   4.591   0.268   5.180  1.5914  0.3978 -1.1387
 9303SOL    HW239546   4.667   0.197   5.073  0.2001  0.6884  0.6525
 9304SOL     OW39547   3.201   4.717   9.802 -0.3319  0.4016 -0.0942
 9304SOL    HW139548   3.225   0.014   9.889  0.7586 -2.6962  0.7716
 9304SOL    HW239549   3.201   0.064   9.754  0.4440 -0.0484 -0.8598
 9305SOL     OW39550   2.667   2.981   7.646  0.2676 -0.3603 -0.0933
 9305SOL    HW139551   2.650   2.997   7.553 -0.9006 -1.8826 -0.1434
 9305SOL    HW239552   2.709   3.062   7.674 -2.5007  1.9456 -2.5898
 9306SOL     OW39553   0.225   4.695   3.354  0.0339  0.2506  0.5445
 9306SOL    HW139554   0.195   0.039   3.396 -1.6780 -0.0870 -0.0484
 9306SOL    HW239555   0.141   4.675   3.314  0.2642  1.9869 -0.8024
 9307SOL     OW39556   1.088   3.720   8.898 -0.3678 -0.3007 -1.0660
 9307SOL    HW139557   1.034   3.799   8.899  0.6830  0.4385 -1.2993
 9307SOL    HW239558   1.066   3.680   8.982  1.3549  0.9404 -0.0243
 9308SOL     OW39559   4.198   4.700   6.378 -0.4492  0.7935  0.2930
 9308SOL    HW139560   4.103   4.692   6.379 -0.0858 -3.3902  1.3793
 9308SOL    HW239561   4.216   0.018   6.301  0.1966  2.1072  1.3701
 9309SOL     OW39562   2.512   1.790  14.975 -0.5256 -0.8730  0.4930
 9309SOL    HW139563   2.493   1.848  14.901  1.0558 -2.6560 -1.3282
 9309SOL    HW239564   2.459   1.722  14.934 -1.2270 -0.3313  0.5101
 9310SOL     OW39565   2.291   1.235   7.103  0.8454  0.1278 -0.0736
 9310SOL    HW139566   2.336   1.294   7.043 -0.6268 -1.3468 -2.6310
 9310SOL    HW239567   2.350   1.236   7.179 -1.1399  1.3425  1.4580
 9311SOL     OW39568   1.050   1.583   7.777 -0.3847  0.1103 -1.0863
 9311SOL    HW139569   1.037   1.648   7.845  1.3696 -0.5430 -0.1394
 9311SOL    HW239570   1.063   1.504   7.830  1.6807  1.2235  0.0775
 9312SOL     OW39571   3.533   2.269   4.980 -0.2137  0.9519 -0.0997
 9312SOL    HW139572   3.477   2.214   4.926 -0.7549 -0.2404  1.6987
 9312SOL    HW239573   3.516   2.354   4.939 -4.0849 -0.1688 -0.8315
 9313SOL     OW39574   0.570   1.218  17.510  0.1836  0.2676  0.3430
 9313SOL    HW139575   0.638   1.181  17.453 -0.4837 -1.4819  0.6956
 9313SOL    HW239576   0.551   1.301  17.466 -0.6621 -0.3764 -0.4960
 9314SOL     OW39577   2.020   4.685   4.140  0.1563 -0.4333 -0.5258
 9314SOL    HW139578   2.072   0.004   4.198 -0.0126 -0.8715  0.0513
 9314SOL    HW239579   1.998   0.014   4.074  0.8089  0.3488  0.0341
 9315SOL     OW39580   2.158   2.414  10.176  0.6422  0.3301 -0.1069
 9315SOL    HW139581   2.148   2.323  10.149  0.1709  0.2952  0.1806
 9315SOL    HW239582   2.226   2.451  10.119  1.3539 -0.6135  0.1411
 9316SOL     OW39583   1.395   3.826  16.334  0.3596  0.4190  0.3455
 9316SOL    HW139584   1.310   3.794  16.363 -0.1013 -1.0204 -2.5924
 9316SOL    HW239585   1.366   3.877  16.259  2.8469  1.4262  0.0534
 9317SOL     OW39586   0.399   3.545   4.196  0.1952  0.1544 -0.0649
 9317SOL    HW139587   0.485   3.514   4.223  0.2945  0.6688  0.2045
 9317SOL    HW239588   0.406   3.526   4.102  0.4299 -0.5728  0.1031
 9318SOL     OW39589   1.590   1.585   4.860 -0.4607  0.6803  0.5892
 9318SOL    HW139590   1.544   1.613   4.939 -0.9294  1.1657  0.1521
 9318SOL    HW239591   1.517   1.542   4.815 -0.0514  0.4512  0.1479
 9319SOL     OW39592   3.776   3.448   2.167 -0.0507 -0.1829 -0.2645
 9319SOL    HW139593   3.821   3.385   2.110 -5.6497 -0.3997 -4.4722
 9319SOL    HW239594   3.729   3.382   2.218  0.9108  1.2150  2.3917
 9320SOL     OW39595   4.421   4.117   7.162  0.2737  0.4544  0.5477
 9320SOL    HW139596   4.436   4.039   7.217  1.6397 -0.3370 -0.9525
 9320SOL    HW239597   4.453   4.080   7.080 -1.1824 -0.0796  0.2311
 9321SOL     OW39598   0.432   2.409   6.413  0.0336  0.1891  0.3990
 9321SOL    HW139599   0.353   2.355   6.412  0.0761  0.1100  1.3624
 9321SOL    HW239600   0.505   2.356   6.444 -1.2466 -3.3943 -2.6759
 9322SOL     OW39601   1.434   4.173   4.208  0.0975  0.3026  0.1997
 9322SOL    HW139602   1.505   4.237   4.203  0.6075 -0.3123 -0.5899
 9322SOL    HW239603   1.358   4.228   4.191  0.3928  0.8243  0.5970
 9323SOL     OW39604   0.941   3.194   3.625 -0.2882  0.2459 -0.4487
 9323SOL    HW139605   0.887   3.120   3.651 -0.7773  1.2797  1.4644
 9323SOL    HW239606   1.026   3.152   3.638  0.4954  1.2521 -2.2380
 9324SOL     OW39607   3.103   2.752  11.833 -0.3219 -0.3121 -0.1546
 9324SOL    HW139608   3.174   2.783  11.889 -1.1895 -0.4238  0.9913
 9324SOL    HW239609   3.143   2.728  11.749 -0.6317 -2.5999  0.3599
 9325SOL     OW39610   1.155   1.247  15.223 -0.2375  0.1511  0.0198
 9325SOL    HW139611   1.127   1.295  15.301  0.1537  1.3278 -0.5762
 9325SOL    HW239612   1.151   1.159  15.261 -2.7997  1.0846  1.8546
 9326SOL     OW39613   4.233   3.548   2.304 -0.0040  0.4768  0.2940
 9326SOL    HW139614   4.203   3.472   2.354 -1.2354  1.4415  1.0354
 9326SOL    HW239615   4.170   3.612   2.339 -0.2930  0.3671 -0.0325
 9327SOL     OW39616   3.535   3.165   7.284 -0.2108 -0.0550 -0.1194
 9327SOL    HW139617   3.495   3.244   7.249  1.2595  0.1405 -1.3775
 9327SOL    HW239618   3.468   3.147   7.350 -2.1738 -1.8809 -2.6076
 9328SOL     OW39619   2.900   1.333   3.859  0.0323 -0.3172 -0.0605
 9328SOL    HW139620   2.977   1.389   3.846  0.3835 -1.1270 -1.5249
 9328SOL    HW239621   2.899   1.319   3.953  0.1390 -0.9055 -0.1440
 9329SOL     OW39622   4.571   2.901   8.853  0.1715 -0.1954  0.3998
 9329SOL    HW139623   4.499   2.839   8.858 -0.1479  0.0429 -1.2621
 9329SOL    HW239624   4.564   2.920   8.759  2.0579 -2.4360 -0.1898
 9330SOL     OW39625   0.729   1.656   0.673  0.4196 -0.1677 -0.3508
 9330SOL    HW139626   0.687   1.587   0.620 -1.9340 -0.4989  1.9141
 9330SOL    HW239627   0.738   1.724   0.607 -2.3777 -0.7800 -1.3557
 9331SOL     OW39628   0.808   1.957   1.637 -0.0168 -0.2147  0.2453
 9331SOL    HW139629   0.898   1.975   1.611 -0.3884  1.8795  0.3522
 9331SOL    HW239630   0.799   2.030   1.698  0.6104  0.5979 -0.6366
 9332SOL     OW39631   1.533   3.089   8.357 -0.5071 -0.2787 -0.0406
 9332SOL    HW139632   1.479   3.164   8.383 -1.4472 -1.7556  2.2103
 9332SOL    HW239633   1.593   3.130   8.295 -0.2288  2.5556  2.0994
 9333SOL     OW39634   4.274   0.360  11.049 -0.1449  0.2336  0.1994
 9333SOL    HW139635   4.298   0.379  10.958  1.4457  0.9660  0.7756
 9333SOL    HW239636   4.259   0.267  11.036 -2.6251  0.7322 -0.4349
 9334SOL     OW39637   0.571   2.087   3.590 -0.3271 -0.0743  0.0633
 9334SOL    HW139638   0.493   2.129   3.625  0.3123  2.5843 -1.7292
 9334SOL    HW239639   0.551   2.104   3.498  1.0304  0.5579 -0.1030
 9335SOL     OW39640   1.894   0.435   6.806 -0.1040  0.4643 -0.1237
 9335SOL    HW139641   1.952   0.381   6.752 -0.2698 -0.8384  0.9980
 9335SOL    HW239642   1.955   0.504   6.833  0.1536  0.3015 -0.2842
 9336SOL     OW39643   0.718   0.075   3.616 -0.0425  0.0436 -0.4384
 9336SOL    HW139644   0.763   0.123   3.686 -2.0059  2.8192 -1.0725
 9336SOL    HW239645   0.730   4.718   3.636 -1.9333 -0.4239 -1.4743
 9337SOL     OW39646   2.720   3.799   9.091 -0.6126  0.6752  0.1529
 9337SOL    HW139647   2.742   3.802   9.184  0.0115  1.6923 -0.0259
 9337SOL    HW239648   2.810   3.810   9.060 -0.3772  1.3918  1.0906
 9338SOL     OW39649   2.481   1.880   5.972 -1.0309 -0.4149  0.2249
 9338SOL    HW139650   2.510   1.861   5.883 -0.9090 -1.9999  0.6040
 9338SOL    HW239651   2.456   1.972   5.960  1.8135  0.6014  1.9099
 9339SOL     OW39652   4.578   4.529  16.489  0.1785 -0.0596 -0.5557
 9339SOL    HW139653   4.566   4.481  16.571 -0.0257  1.8075  0.5096
 9339SOL    HW239654   4.486   4.542  16.467 -0.2018 -0.4801  0.7528
 9340SOL     OW39655   1.377   1.370   7.136 -0.4318 -0.4327 -0.1709
 9340SOL    HW139656   1.413   1.285   7.163 -0.3891 -0.3510  0.0308
 9340SOL    HW239657   1.355   1.406   7.222  0.8864 -1.4683  0.6192
 9341SOL     OW39658   0.547   1.437   8.474  0.8878 -0.2559  0.6179
 9341SOL    HW139659   0.474   1.423   8.534  0.3154  0.6556  0.1501
 9341SOL    HW239660   0.608   1.371   8.506  1.3848 -0.0342  0.1261
 9342SOL     OW39661   3.928   3.717   0.777  0.2296  0.0429 -0.1696
 9342SOL    HW139662   3.978   3.790   0.740 -3.2900  2.0845 -1.0003
 9342SOL    HW239663   3.969   3.704   0.862  0.8612  0.8269 -0.3575
 9343SOL     OW39664   2.082   2.054   5.847 -0.0157 -0.1754  0.3127
 9343SOL    HW139665   2.116   2.088   5.764  0.6697  0.8728  1.0164
 9343SOL    HW239666   2.101   2.133   5.898 -0.3592 -0.5709  1.0487
 9344SOL     OW39667   3.682   0.719   4.006 -0.2652 -0.2354 -0.2001
 9344SOL    HW139668   3.613   0.782   4.027 -0.1270  0.0551 -0.6218
 9344SOL    HW239669   3.764   0.752   4.044 -1.1798  0.7429  0.9175
 9345SOL     OW39670   2.729   3.820   6.440 -0.2140  0.4048 -0.3668
 9345SOL    HW139671   2.670   3.876   6.389 -4.1258 -2.5214  0.9085
 9345SOL    HW239672   2.755   3.743   6.391 -0.4040  0.1957 -0.1361
 9346SOL     OW39673   0.091   2.650  14.932  0.8710 -0.3172 -0.3061
 9346SOL    HW139674   0.011   2.599  14.916 -1.3368  2.1761  2.7180
 9346SOL    HW239675   0.150   2.579  14.956 -1.0792 -1.0429  2.4176
 9347SOL     OW39676   1.966   3.008  10.011  0.6907  0.6566  0.3056
 9347SOL    HW139677   1.883   3.001   9.965  0.9048  0.9144 -0.1186
 9347SOL    HW239678   1.960   3.102  10.030 -2.0176  0.7176 -0.8934
 9348SOL     OW39679   2.167   4.535   5.187  0.2201 -0.3605 -0.2327
 9348SOL    HW139680   2.121   4.458   5.221 -1.0163  0.2861 -0.4849
 9348SOL    HW239681   2.110   4.609   5.206 -2.3460 -2.2633 -0.4827
 9349SOL     OW39682   3.370   4.028   4.369  0.2965  0.2421 -0.1173
 9349SOL    HW139683   3.442   3.968   4.347  1.0709  1.2020 -0.1756
 9349SOL    HW239684   3.417   4.109   4.351  1.0285 -0.2562 -0.4550
 9350SOL     OW39685   1.442   1.667   8.365 -0.2785  0.0896  0.0562
 9350SOL    HW139686   1.430   1.601   8.297 -1.3550 -0.5962  0.9063
 9350SOL    HW239687   1.367   1.725   8.351 -0.1831  0.3315  0.5317
 9351SOL     OW39688   4.250   2.291   6.446 -0.4075  0.7210  0.5046
 9351SOL    HW139689   4.198   2.285   6.366 -2.8340 -1.7262  2.2871
 9351SOL    HW239690   4.193   2.346   6.501 -1.5307 -0.2674  0.3267
 9352SOL     OW39691   3.201   1.675   0.548  0.0878 -0.5980  0.1353
 9352SOL    HW139692   3.178   1.765   0.572  1.9037 -0.4435  1.2463
 9352SOL    HW239693   3.283   1.679   0.596 -0.5567 -0.4041  1.2233
 9353SOL     OW39694   0.304   4.504   0.789 -0.5140  0.4581  0.0989
 9353SOL    HW139695   0.338   4.582   0.832  1.2332 -1.9093  3.0268
 9353SOL    HW239696   0.222   4.487   0.837 -0.9599  3.7713  0.5134
 9354SOL     OW39697   2.165   4.045  14.619  0.7861 -0.3186 -0.1690
 9354SOL    HW139698   2.228   4.115  14.600 -1.4763  2.5134  2.7482
 9354SOL    HW239699   2.217   3.966  14.632 -0.7617 -1.7839 -2.8634
 9355SOL     OW39700   1.708   3.806   5.394  0.3316  0.3170 -0.1063
 9355SOL    HW139701   1.728   3.815   5.301 -0.5365  2.2453 -0.1109
 9355SOL    HW239702   1.727   3.714   5.410  0.0822  0.0261 -1.4325
 9356SOL     OW39703   1.658   2.578  11.990 -0.6214 -0.1937  0.6024
 9356SOL    HW139704   1.683   2.658  12.034 -3.7128  0.6824  0.7524
 9356SOL    HW239705   1.711   2.576  11.910 -1.4052 -1.7653  0.1104
 9357SOL     OW39706   2.848   3.743   8.369  0.3786 -0.6537  0.1812
 9357SOL    HW139707   2.910   3.816   8.363 -1.0945  0.4304 -1.7927
 9357SOL    HW239708   2.768   3.795   8.370  1.5359  1.1438 -0.3044
 9358SOL     OW39709   1.088   4.063   4.416 -0.6766  0.3859 -0.3834
 9358SOL    HW139710   1.150   4.022   4.356  0.3164 -1.2100  1.7555
 9358SOL    HW239711   1.029   4.093   4.347  0.1131 -0.0768 -1.2549
 9359SOL     OW39712   2.084   0.276   2.638 -0.1026 -0.2075  0.0927
 9359SOL    HW139713   2.011   0.311   2.586  0.9881 -0.0346 -1.3124
 9359SOL    HW239714   2.142   0.351   2.648 -1.1948  0.3451  2.1258
 9360SOL     OW39715   1.656   2.814   2.845  0.0826  0.3811 -0.6445
 9360SOL    HW139716   1.718   2.810   2.773 -0.2207  2.5204 -1.0365
 9360SOL    HW239717   1.579   2.852   2.802  1.7817  1.2293 -2.9384
 9361SOL     OW39718   2.821   0.669  16.712  0.3612  0.3130  0.4109
 9361SOL    HW139719   2.849   0.732  16.778  2.2238 -1.0829  0.9744
 9361SOL    HW239720   2.855   0.716  16.637 -1.0913 -0.7743 -0.9161
 9362SOL     OW39721   2.140   1.747   2.806  0.4015 -0.1170 -0.0115
 9362SOL    HW139722   2.102   1.829   2.774 -2.7918 -1.9310 -0.9472
 9362SOL    HW239723   2.062   1.692   2.798  0.6950 -0.7956  1.8681
 9363SOL     OW39724   1.008   1.195   2.455  0.0183  0.2722 -0.0190
 9363SOL    HW139725   1.019   1.100   2.450 -0.3288  0.2875 -1.0069
 9363SOL    HW239726   1.014   1.197   2.550 -0.5325  2.5885 -0.0386
 9364SOL     OW39727   1.459   1.902   7.181 -0.2352 -0.1384 -0.3603
 9364SOL    HW139728   1.393   1.957   7.139 -0.4305 -1.1329 -1.3412
 9364SOL    HW239729   1.460   1.949   7.264  1.0848 -1.2240  0.2384
 9365SOL     OW39730   0.210   3.462   3.015 -0.6241  0.1826 -0.4854
 9365SOL    HW139731   0.206   3.553   3.044  1.0202  0.7027 -1.8720
 9365SOL    HW239732   0.128   3.468   2.965 -0.3934 -0.7182 -0.9686
 9366SOL     OW39733   4.409   0.511   6.794  0.6047  0.4388  0.0702
 9366SOL    HW139734   4.457   0.457   6.858 -1.4229 -3.6659 -1.9271
 9366SOL    HW239735   4.431   0.601   6.821 -0.9379  1.0733 -0.8363
 9367SOL     OW39736   3.667   4.424   2.950  0.2656 -0.0035 -0.6184
 9367SOL    HW139737   3.716   4.357   2.902 -0.3354  0.0069 -1.2286
 9367SOL    HW239738   3.679   4.401   3.043 -1.9176  0.5219 -0.2094
 9368SOL     OW39739   3.230   3.839   7.801  0.3623 -0.0325  0.1989
 9368SOL    HW139740   3.192   3.918   7.764 -0.0673 -0.0113  0.6866
 9368SOL    HW239741   3.221   3.843   7.896  1.3297 -0.8390  0.3222
 9369SOL     OW39742   2.532   0.518   7.184 -0.1061  0.3382  0.6921
 9369SOL    HW139743   2.510   0.473   7.102  0.5935 -0.6325  1.0387
 9369SOL    HW239744   2.620   0.482   7.199 -0.7760 -0.5213  2.5912
 9370SOL     OW39745   1.631   4.026  13.065  0.4200 -0.3330 -0.2728
 9370SOL    HW139746   1.610   4.116  13.090  0.1123 -0.8038  1.1895
 9370SOL    HW239747   1.555   4.011  13.009  0.0158 -1.3695  0.5645
 9371SOL     OW39748   2.612   3.812   3.265  0.6550 -0.0298 -1.1246
 9371SOL    HW139749   2.629   3.788   3.174  1.9338 -2.1110 -0.3473
 9371SOL    HW239750   2.694   3.857   3.285 -0.6065  2.4474 -1.5499
 9372SOL     OW39751   2.256   0.950   5.077 -0.6695  0.1208 -0.1589
 9372SOL    HW139752   2.231   0.973   5.166  2.1586 -0.5691  0.8280
 9372SOL    HW239753   2.308   1.020   5.037 -0.7790 -0.5798 -1.5185
 9373SOL     OW39754   3.651   2.250  11.071  0.0875 -0.0699 -0.4781
 9373SOL    HW139755   3.574   2.262  11.127  1.0829 -0.7185  1.0128
 9373SOL    HW239756   3.613   2.271  10.985 -3.5513 -0.7110  0.9775
 9374SOL     OW39757   0.864   0.101   6.412  0.0452 -0.0316 -0.5672
 9374SOL    HW139758   0.955   0.129   6.415 -0.4813  1.7101 -1.0590
 9374SOL    HW239759   0.819   0.183   6.394  2.3283  1.2097 -0.6325
 9375SOL     OW39760   1.916   1.697   4.000 -0.4581  0.2455  0.7936
 9375SOL    HW139761   1.923   1.648   3.919 -0.6538  0.9061  0.3757
 9375SOL    HW239762   1.829   1.668   4.028  0.5424 -2.0565  1.5078
 9376SOL     OW39763   3.472   4.557  13.067  0.0367 -0.1315  0.5633
 9376SOL    HW139764   3.457   4.584  12.977 -1.8335 -0.0655  0.9047
 9376SOL    HW239765   3.500   4.467  13.050  1.2055 -0.2511  3.0642
 9377SOL     OW39766   0.247   2.867   2.589 -0.2413  0.3744 -0.8727
 9377SOL    HW139767   0.176   2.885   2.528 -0.4904  0.0021 -0.6900
 9377SOL    HW239768   0.198   2.875   2.671 -0.6862  3.8791 -1.4749
 9378SOL     OW39769   1.171   2.835  10.680  0.5107  0.1015 -0.5921
 9378SOL    HW139770   1.152   2.758  10.734 -1.9048  0.9041 -0.2639
 9378SOL    HW239771   1.259   2.819  10.647  1.1583  2.1968  0.1430
 9379SOL     OW39772   0.397   2.524  13.859 -0.0047 -0.4805 -0.5259
 9379SOL    HW139773   0.394   2.432  13.834  1.7726 -1.3256  2.3605
 9379SOL    HW239774   0.317   2.549  13.905  0.4769  1.4974 -0.7615
 9380SOL     OW39775   4.146   3.314   8.763  0.4610 -0.0370 -0.3266
 9380SOL    HW139776   4.065   3.336   8.808  0.3041  1.1967 -1.1976
 9380SOL    HW239777   4.191   3.250   8.818  0.3798 -1.2231 -1.6494
 9381SOL     OW39778   3.157   3.711   3.963  0.1525 -0.8283  0.3072
 9381SOL    HW139779   3.116   3.657   3.895  2.6994 -1.0858 -1.0539
 9381SOL    HW239780   3.098   3.700   4.037  0.9814  0.6423  1.1817
 9382SOL     OW39781   2.891   4.405  17.498  0.3873  0.2174 -0.0767
 9382SOL    HW139782   2.940   4.343  17.551  1.8626  1.0627 -0.4537
 9382SOL    HW239783   2.907   4.376  17.408 -1.5496 -1.2734  0.0769
 9383SOL     OW39784   2.683   0.572  13.441  0.4217  0.2883 -0.6978
 9383SOL    HW139785   2.591   0.566  13.417  0.7704  0.7916 -2.1166
 9383SOL    HW239786   2.718   0.567  13.352 -1.0454  0.5946 -1.2761
 9384SOL     OW39787   1.705   0.591   8.167  0.0330 -0.2094 -0.3678
 9384SOL    HW139788   1.797   0.569   8.152  0.1370 -1.2073  1.7819
 9384SOL    HW239789   1.714   0.687   8.166 -1.2236 -0.0739  1.8523
 9385SOL     OW39790   3.919   1.565   0.888  0.0354 -0.0697 -1.2503
 9385SOL    HW139791   3.992   1.571   0.825  3.5850 -3.8131  2.4361
 9385SOL    HW239792   3.846   1.554   0.828 -0.1379 -0.1723 -1.0178
 9386SOL     OW39793   2.137   0.846   5.932 -0.6570  0.0651 -0.1324
 9386SOL    HW139794   2.067   0.784   5.954 -0.4319  0.0654  0.5591
 9386SOL    HW239795   2.218   0.796   5.937 -1.1610 -0.6109  1.1908
 9387SOL     OW39796   4.568   4.306   6.486  0.3632  0.7218  0.0947
 9387SOL    HW139797   4.578   4.311   6.581 -0.1276 -1.7977  0.2960
 9387SOL    HW239798   4.478   4.274   6.478  1.0067 -1.1523  0.4141
 9388SOL     OW39799   4.074   4.394   7.950 -0.3602 -0.4778  0.1496
 9388SOL    HW139800   4.033   4.322   7.997  0.9516 -1.4831 -0.2810
 9388SOL    HW239801   4.104   4.450   8.021  0.1375 -2.3017  1.3570
 9389SOL     OW39802   4.139   0.000   4.019  0.1812 -0.0237  0.3368
 9389SOL    HW139803   4.224   0.029   4.052  1.0857  0.0315 -2.0106
 9389SOL    HW239804   4.092   0.084   4.023  1.0345  0.4218  1.0160
 9390SOL     OW39805   2.565   1.613   3.196 -0.1815  0.4004 -0.6185
 9390SOL    HW139806   2.503   1.547   3.165 -1.0166  2.0168 -2.3992
 9390SOL    HW239807   2.632   1.589   3.132  0.6396  1.4379 -0.1330
 9391SOL     OW39808   0.291   1.241   5.055 -0.8096 -0.0008 -0.5116
 9391SOL    HW139809   0.221   1.210   5.113  0.1360  0.4562  0.8552
 9391SOL    HW239810   0.360   1.276   5.112  0.3273  1.9732 -3.1251
 9392SOL     OW39811   0.064   2.455   7.917 -0.5044 -0.2574 -0.1962
 9392SOL    HW139812   0.076   2.431   8.009  0.3031  0.6889 -0.0517
 9392SOL    HW239813   4.705   2.448   7.910 -0.6667 -0.5052  2.4380
 9393SOL     OW39814   4.177   3.627  12.668  0.0669  0.1837 -0.1124
 9393SOL    HW139815   4.268   3.633  12.636 -0.7958  1.0107 -2.4015
 9393SOL    HW239816   4.185   3.699  12.730  0.4905 -0.6378  0.7739
 9394SOL     OW39817   3.575   0.333  15.380 -0.1907 -0.1888  0.0520
 9394SOL    HW139818   3.481   0.327  15.363 -0.0329  2.7909 -1.9881
 9394SOL    HW239819   3.611   0.349  15.292 -0.3054 -0.3552 -0.0246
 9395SOL     OW39820   1.964   3.655   3.237  0.1252  0.5274  0.3854
 9395SOL    HW139821   1.882   3.615   3.268 -1.1761  1.1593 -2.2432
 9395SOL    HW239822   2.019   3.577   3.232  2.0570  2.1031 -3.2206
 9396SOL     OW39823   1.412   3.856   0.192 -0.5501 -0.2789 -0.1336
 9396SOL    HW139824   1.371   3.926   0.141 -1.9644 -1.7161 -0.9829
 9396SOL    HW239825   1.439   3.899   0.273 -1.0235 -0.1387 -0.0545
 9397SOL     OW39826   2.896   1.788   4.784 -0.0930  0.2837  0.2414
 9397SOL    HW139827   2.857   1.707   4.753 -1.9378  0.0374  3.2485
 9397SOL    HW239828   2.850   1.850   4.728 -1.0326  0.5378  1.2876
 9398SOL     OW39829   3.624   0.080   7.891 -0.2566 -0.0084  0.1223
 9398SOL    HW139830   3.693   0.138   7.925 -1.5373  2.5105 -1.6404
 9398SOL    HW239831   3.560   0.081   7.962 -1.3619 -1.2553 -0.8630
 9399SOL     OW39832   2.714   4.612   7.627 -0.5570 -0.0813  0.0987
 9399SOL    HW139833   2.770   4.608   7.549  0.8164 -0.0430  1.0765
 9399SOL    HW239834   2.772   4.576   7.694 -0.5644  0.2232  0.2697
 9400SOL     OW39835   1.615   2.942   5.523 -0.8056  0.2204 -0.3659
 9400SOL    HW139836   1.598   3.011   5.459  2.5631  1.7353  0.3561
 9400SOL    HW239837   1.684   2.978   5.579 -2.6785  0.4627  1.7957
 9401SOL     OW39838   1.566   3.417   6.647  0.4839 -0.6702  0.0020
 9401SOL    HW139839   1.545   3.504   6.681  0.0455 -0.7459 -0.0711
 9401SOL    HW239840   1.483   3.369   6.643 -0.2126  0.4674  0.7220
 9402SOL     OW39841   2.461   2.140   3.188  0.1664 -0.3511 -0.0275
 9402SOL    HW139842   2.489   2.049   3.185 -1.3781 -0.8363  0.8599
 9402SOL    HW239843   2.400   2.138   3.115  1.1121 -0.6907 -0.8121
 9403SOL     OW39844   2.572   3.097   5.035 -0.2441 -0.3512  0.0210
 9403SOL    HW139845   2.477   3.093   5.044 -0.2708 -1.4281 -0.7408
 9403SOL    HW239846   2.595   3.120   5.125  0.5322 -1.0638  0.0012
 9404SOL     OW39847   4.233   0.084  11.128 -0.0441 -0.0510 -0.5030
 9404SOL    HW139848   4.317   0.078  11.172 -0.1044 -1.0816 -0.5396
 9404SOL    HW239849   4.252   0.017  11.063 -0.2525  0.0413 -0.6606
 9405SOL     OW39850   1.476   0.774   9.187  0.2326 -0.6352  0.3770
 9405SOL    HW139851   1.566   0.781   9.220  0.1489  2.0813  0.0270
 9405SOL    HW239852   1.470   0.836   9.115 -1.4909 -2.4065 -0.9770
 9406SOL     OW39853   1.396   2.569  11.905  0.9413  0.3716 -0.2693
 9406SOL    HW139854   1.355   2.604  11.984 -0.8277 -3.4948  0.5095
 9406SOL    HW239855   1.485   2.579  11.938 -0.5466  1.2805  3.4500
 9407SOL     OW39856   0.880   2.418  10.757  0.0263  0.0058 -0.2609
 9407SOL    HW139857   0.843   2.336  10.724 -0.8308  0.1481  0.3607
 9407SOL    HW239858   0.838   2.481  10.699 -1.0569 -0.1602  0.3541
 9408SOL     OW39859   3.240   0.533   6.496  0.0606 -0.7003  0.3322
 9408SOL    HW139860   3.288   0.581   6.564 -2.9825  0.3006  1.7498
 9408SOL    HW239861   3.169   0.597   6.497  2.7533  2.3202  0.4244
 9409SOL     OW39862   0.407   4.017   7.139  0.2320 -0.3054  0.5648
 9409SOL    HW139863   0.418   4.057   7.225 -2.1648 -0.5666  1.0017
 9409SOL    HW239864   0.484   4.043   7.088 -0.2623 -0.9997 -0.5444
 9410SOL     OW39865   3.447   3.440  15.382 -0.4173 -0.1633  0.3760
 9410SOL    HW139866   3.521   3.485  15.341 -0.8192  0.4650  0.3402
 9410SOL    HW239867   3.500   3.405  15.454  1.3588  1.3196 -0.2191
 9411SOL     OW39868   0.492   1.445  17.354  0.0901 -0.2564 -0.4029
 9411SOL    HW139869   0.555   1.498  17.403 -1.7198  1.0526  0.5090
 9411SOL    HW239870   0.412   1.488  17.384  0.2131 -0.3654  0.0780
 9412SOL     OW39871   3.365   0.553  11.823  0.1797 -0.2410 -0.1449
 9412SOL    HW139872   3.434   0.592  11.877 -0.1481  0.4411 -0.2244
 9412SOL    HW239873   3.412   0.482  11.778  0.9951  0.3269 -0.1680
 9413SOL     OW39874   4.487   4.248   2.643  0.2907 -0.4459 -0.0454
 9413SOL    HW139875   4.505   4.251   2.549 -1.0430  2.8353 -0.2183
 9413SOL    HW239876   4.577   4.259   2.676  0.1807 -0.5280  0.2849
 9414SOL     OW39877   3.348   4.014   3.236 -0.3878 -0.4391  0.1941
 9414SOL    HW139878   3.353   4.108   3.220  2.0948 -0.4726  0.7790
 9414SOL    HW239879   3.381   3.970   3.158  0.8722  2.1791 -0.7348
 9415SOL     OW39880   0.212   1.568   8.433 -0.1180 -0.3956 -0.3037
 9415SOL    HW139881   0.237   1.605   8.517  1.6838  0.6573 -1.3038
 9415SOL    HW239882   0.119   1.589   8.440  0.3193  1.0207  1.2561
 9416SOL     OW39883   1.169   1.567   8.962 -0.1377  0.5972  0.0617
 9416SOL    HW139884   1.234   1.637   8.958  0.0804  0.3592 -0.5084
 9416SOL    HW239885   1.165   1.555   9.057 -1.1436  1.0222  0.0772
 9417SOL     OW39886   4.660   3.142   3.727  0.3101  0.4446 -0.5069
 9417SOL    HW139887   4.656   3.143   3.822 -2.5032  0.2884 -0.6142
 9417SOL    HW239888   4.696   3.229   3.711 -1.3463  1.3920  0.9678
 9418SOL     OW39889   2.950   3.839   5.241  0.3447 -0.1559  1.0498
 9418SOL    HW139890   2.923   3.791   5.163 -2.4730  1.9440  0.7619
 9418SOL    HW239891   2.965   3.764   5.299  0.7255 -1.0443 -0.1961
 9419SOL     OW39892   2.475   1.349   0.328 -0.0310  0.2292 -0.2413
 9419SOL    HW139893   2.455   1.407   0.254 -0.7516 -0.7350 -0.8242
 9419SOL    HW239894   2.397   1.294   0.339  0.9791 -1.3196 -0.7098
 9420SOL     OW39895   1.097   3.810  16.737  0.1099 -0.1461  0.0236
 9420SOL    HW139896   1.182   3.842  16.706  0.7230 -0.3539  1.5059
 9420SOL    HW239897   1.051   3.837  16.657 -0.7728  0.1538  0.6422
 9421SOL     OW39898   4.395   2.765   3.575 -0.0157 -0.2079  0.0258
 9421SOL    HW139899   4.468   2.823   3.554 -0.2437 -0.0751 -0.4171
 9421SOL    HW239900   4.323   2.819   3.543 -0.4774 -0.1244  1.2279
 9422SOL     OW39901   4.446   0.313   5.975  0.0576  0.1486  0.6684
 9422SOL    HW139902   4.413   0.338   5.889  0.0065  0.4678  0.7775
 9422SOL    HW239903   4.414   0.388   6.026  0.9329  2.1681 -1.7906
 9423SOL     OW39904   3.403   0.679   5.926  0.2660  0.0700  0.3204
 9423SOL    HW139905   3.424   0.607   5.986  0.4525  0.9920  1.3703
 9423SOL    HW239906   3.461   0.682   5.850 -0.2280 -0.3038 -0.0612
 9424SOL     OW39907   0.252   2.275   2.913 -0.1043  0.0167 -0.4517
 9424SOL    HW139908   0.318   2.296   2.847 -1.1073 -2.0840 -2.1067
 9424SOL    HW239909   0.258   2.346   2.978 -1.3768  1.2162 -1.6437
 9425SOL     OW39910   1.724   4.583   4.186 -0.3258 -0.5893  0.1300
 9425SOL    HW139911   1.814   4.611   4.169 -0.9543  0.2911 -1.8232
 9425SOL    HW239912   1.712   4.619   4.273 -1.0459  1.8011 -0.9630
 9426SOL     OW39913   3.556   3.416   8.739 -0.2045  0.3296 -0.4098
 9426SOL    HW139914   3.487   3.421   8.805 -1.0169  0.0172 -1.2338
 9426SOL    HW239915   3.617   3.476   8.781 -0.2645  0.1983 -0.1346
 9427SOL     OW39916   0.812   4.593   8.743 -0.0422  0.1960 -0.1363
 9427SOL    HW139917   0.871   4.518   8.738 -0.1550  0.0871  0.1663
 9427SOL    HW239918   0.774   4.585   8.656  1.8027 -1.8926 -0.7220
 9428SOL     OW39919   4.603   2.477   4.728 -0.2087 -0.0130 -0.3411
 9428SOL    HW139920   4.641   2.428   4.655  3.0940  0.2400  1.1574
 9428SOL    HW239921   4.613   2.567   4.699  0.8726  0.2023  0.6668
 9429SOL     OW39922   3.762   1.662  11.709 -0.2453 -0.1157  0.5235
 9429SOL    HW139923   3.824   1.723  11.749 -0.8259  1.3964 -0.9083
 9429SOL    HW239924   3.687   1.691  11.761 -0.6711 -0.8826  0.3439
 9430SOL     OW39925   3.662   4.555   9.176  0.3759 -0.3090 -0.6169
 9430SOL    HW139926   3.689   4.638   9.214  0.3683 -0.8758  0.6281
 9430SOL    HW239927   3.743   4.520   9.139  1.4109  3.0292 -1.4411
 9431SOL     OW39928   4.186   0.497   7.685  0.2221  0.6670  0.6852
 9431SOL    HW139929   4.266   0.529   7.727  2.3657 -0.9422 -2.2187
 9431SOL    HW239930   4.140   0.579   7.702 -0.5726  0.7016 -1.6338
 9432SOL     OW39931   0.374   2.442   3.692  0.3040 -0.0101  0.0777
 9432SOL    HW139932   0.364   2.444   3.596  0.9586 -2.5165 -0.0503
 9432SOL    HW239933   0.340   2.529   3.713 -0.5075 -0.9628  2.6884
 9433SOL     OW39934   2.841   2.531   3.009  0.5029  0.1472  0.1171
 9433SOL    HW139935   2.853   2.626   3.011 -1.1096  0.3524  0.1052
 9433SOL    HW239936   2.799   2.525   2.923 -2.1900  1.6346  1.3159
 9434SOL     OW39937   1.204   0.614   0.729  0.1686 -0.0801  0.4757
 9434SOL    HW139938   1.230   0.538   0.676  0.5399  0.7975 -0.5987
 9434SOL    HW239939   1.114   0.580   0.734 -0.1479  0.9429  1.5766
 9435SOL     OW39940   2.593   2.396   2.551 -0.4957 -0.5795 -0.1825
 9435SOL    HW139941   2.658   2.358   2.491 -0.1080  2.7769 -1.8852
 9435SOL    HW239942   2.562   2.324   2.606 -0.2433 -0.4295  0.1507
 9436SOL     OW39943   4.713   4.203  14.835  0.4428  0.9411 -0.3151
 9436SOL    HW139944   0.017   4.119  14.814  1.3194  1.5198 -0.9818
 9436SOL    HW239945   0.008   4.212  14.925 -1.0355  0.5809  0.2114
 9437SOL     OW39946   3.045   0.082   4.846  0.0257 -0.0315  0.1342
 9437SOL    HW139947   3.133   0.043   4.840  1.1432  2.8094 -1.9139
 9437SOL    HW239948   3.062   0.173   4.821 -0.7949 -0.8931 -3.6185
 9438SOL     OW39949   0.070   0.659   9.235  0.4719 -0.1187  1.0809
 9438SOL    HW139950   0.031   0.597   9.174  0.5048 -0.7090  1.6675
 9438SOL    HW239951   0.139   0.696   9.180 -0.8616  0.5312 -0.1729
 9439SOL     OW39952   3.159   0.500   3.831 -0.5502  0.9270  0.0040
 9439SOL    HW139953   3.065   0.492   3.813 -0.2960  0.9118 -1.3374
 9439SOL    HW239954   3.199   0.448   3.762 -1.8406  0.0192 -0.0584
 9440SOL     OW39955   1.307   3.215   1.503 -0.1726 -0.6962  0.3516
 9440SOL    HW139956   1.325   3.146   1.439 -1.8953 -2.5139  1.8104
 9440SOL    HW239957   1.211   3.222   1.496  0.0654  1.0616 -1.1220
 9441SOL     OW39958   2.793   3.317   5.738 -0.5488  0.5185  0.3529
 9441SOL    HW139959   2.714   3.343   5.785 -0.3080 -2.3253  2.3459
 9441SOL    HW239960   2.832   3.251   5.795 -3.0822 -1.9552 -0.7774
 9442SOL     OW39961   2.496   4.183   6.047  0.4769  0.2269 -0.2384
 9442SOL    HW139962   2.421   4.229   6.083  1.1872  1.3185 -0.1377
 9442SOL    HW239963   2.568   4.234   6.086  1.7829 -3.4109  2.1376
 9443SOL     OW39964   0.132   1.792  11.887  0.0603 -0.2264  0.3904
 9443SOL    HW139965   0.162   1.873  11.928 -1.3201  0.0221  0.9220
 9443SOL    HW239966   0.045   1.790  11.927  0.3391  1.3853  1.0525
 9444SOL     OW39967   0.362   3.660   0.886  0.0105 -0.2952 -0.1845
 9444SOL    HW139968   0.277   3.703   0.897  0.1518 -0.2007  0.4916
 9444SOL    HW239969   0.413   3.700   0.955 -0.7405 -0.8567  0.6950
 9445SOL     OW39970   1.149   1.391  14.711 -0.1160 -0.0696  0.4190
 9445SOL    HW139971   1.233   1.429  14.687 -0.8475  1.0120 -0.4294
 9445SOL    HW239972   1.159   1.303  14.676 -0.0550  0.4997 -0.9857
 9446SOL     OW39973   1.714   1.185   4.636  0.0301  0.0311 -0.5711
 9446SOL    HW139974   1.808   1.200   4.627  0.1363 -0.0427  0.4940
 9446SOL    HW239975   1.716   1.107   4.691 -1.7440  0.9748  0.8169
 9447SOL     OW39976   2.396   1.577   3.417 -0.3172  0.1665 -0.1605
 9447SOL    HW139977   2.444   1.555   3.497 -0.4909 -1.1993 -0.4304
 9447SOL    HW239978   2.470   1.602   3.362  0.7830 -1.1474  0.7232
 9448SOL     OW39979   1.524   0.378  14.080 -0.3124 -0.2356  0.3327
 9448SOL    HW139980   1.482   0.392  14.165 -1.2355  0.3454 -0.2159
 9448SOL    HW239981   1.599   0.336  14.121  0.7860 -1.1591 -2.5794
 9449SOL     OW39982   4.315   2.470   4.848 -0.1857 -0.0901 -0.3134
 9449SOL    HW139983   4.386   2.490   4.909  0.8836 -1.6557 -1.0447
 9449SOL    HW239984   4.299   2.560   4.818  1.8524  0.0388 -0.9932
 9450SOL     OW39985   3.074   1.339   1.518 -0.1683 -0.4379 -0.2297
 9450SOL    HW139986   3.151   1.361   1.466 -0.0346 -0.9025 -0.2327
 9450SOL    HW239987   3.063   1.411   1.580 -0.7304 -0.5923 -0.1497
 9451SOL     OW39988   2.642   4.116   3.966  0.5417 -0.5418 -0.0410
 9451SOL    HW139989   2.546   4.121   3.967  0.6598  1.6035  0.0149
 9451SOL    HW239990   2.655   4.203   4.005 -0.8800 -0.0053 -0.7667
 9452SOL     OW39991   0.857   1.573  11.143  0.3336  0.2460 -0.0320
 9452SOL    HW139992   0.867   1.494  11.196 -1.7675  0.5094  0.7416
 9452SOL    HW239993   0.871   1.519  11.065  1.6235  0.3196  0.1365
 9453SOL     OW39994   3.730   1.390  10.364  0.0407 -0.1666 -0.0813
 9453SOL    HW139995   3.788   1.428  10.298  0.5385 -0.1766  0.3555
 9453SOL    HW239996   3.788   1.323  10.398 -1.2764 -0.9302  0.6383
 9454SOL     OW39997   0.176   2.357   7.662 -0.0384  0.4761  0.3399
 9454SOL    HW139998   0.124   2.403   7.729 -5.6344 -3.6762 -1.2146
 9454SOL    HW239999   0.107   2.344   7.598  0.4844  1.9370 -0.5272
 9455SOL     OW40000   4.434   3.321   2.637  0.3561  1.1858 -0.3175
 9455SOL    HW140001   4.408   3.379   2.709  0.4318  0.1216  0.5737
 9455SOL    HW240002   4.396   3.234   2.650 -1.6076  1.8865 -1.4936
 9456SOL     OW40003   3.179   0.395   4.129  0.3140 -0.2781  0.0249
 9456SOL    HW140004   3.171   0.456   4.056 -1.2209  0.0901  0.5057
 9456SOL    HW240005   3.089   0.385   4.160  0.8983 -2.2239  1.0825
 9457SOL     OW40006   2.749   3.916  11.101 -0.4985  0.3903 -0.1351
 9457SOL    HW140007   2.820   3.904  11.038  0.2361 -0.0813  0.7730
 9457SOL    HW240008   2.784   3.877  11.182  0.8364  1.0712 -0.3814
 9458SOL     OW40009   4.595   1.862  16.543 -0.3676 -0.5423 -0.2444
 9458SOL    HW140010   4.506   1.877  16.575 -0.8325 -0.7401 -1.4357
 9458SOL    HW240011   4.583   1.875  16.449  1.9444 -2.7008 -0.8612
 9459SOL     OW40012   3.797   1.427   5.457  0.1629 -0.2460 -0.4784
 9459SOL    HW140013   3.871   1.388   5.504  1.3703  0.9033 -1.4359
 9459SOL    HW240014   3.795   1.510   5.505 -1.0139 -0.3896 -0.2800
 9460SOL     OW40015   2.611   1.660   9.068 -0.4343  0.3582 -0.0650
 9460SOL    HW140016   2.585   1.704   9.149 -1.6341  1.4421 -1.0466
 9460SOL    HW240017   2.654   1.738   9.033 -0.5893  0.1823 -0.6384
 9461SOL     OW40018   3.047   0.814   5.951 -0.9275 -0.6585 -0.6712
 9461SOL    HW140019   3.063   0.748   6.019  1.1329 -1.5942 -2.0579
 9461SOL    HW240020   2.964   0.844   5.989 -0.8162  0.5109 -1.3550
 9462SOL     OW40021   0.186   1.325  10.686 -0.0005 -0.6995  0.0759
 9462SOL    HW140022   0.256   1.366  10.736  0.0628 -2.6979  1.6198
 9462SOL    HW240023   0.135   1.267  10.743 -1.9359 -1.5083 -2.4442
 9463SOL     OW40024   1.429   3.412   3.414 -0.3680  0.0435 -0.0014
 9463SOL    HW140025   1.521   3.416   3.389 -0.2128  0.3706  0.6139
 9463SOL    HW240026   1.407   3.503   3.393  1.0358 -0.4307 -3.3643
 9464SOL     OW40027   1.671   0.686  10.748 -0.2830 -0.3884  0.3629
 9464SOL    HW140028   1.751   0.636  10.728  0.6391  1.1425  0.2233
 9464SOL    HW240029   1.599   0.631  10.718  0.1260  0.6076 -2.3497
 9465SOL     OW40030   0.677   3.658   3.581  0.2330 -0.3177  0.7135
 9465SOL    HW140031   0.720   3.683   3.662 -0.1049  1.0114  0.4785
 9465SOL    HW240032   0.694   3.564   3.579  1.0204 -0.1783  1.2963
 9466SOL     OW40033   0.167   2.927   6.830 -0.5242 -0.3359  0.1640
 9466SOL    HW140034   0.243   2.948   6.884 -0.2267  2.1282 -1.2384
 9466SOL    HW240035   0.096   2.933   6.894 -0.3373  0.7407  0.2712
 9467SOL     OW40036   1.286   0.070   5.245 -0.0690 -0.1291 -0.0968
 9467SOL    HW140037   1.367   0.020   5.254  0.0680  0.3157  1.1979
 9467SOL    HW240038   1.220   0.023   5.296  0.2243 -0.8296 -0.3644
 9468SOL     OW40039   0.634   1.766   2.987 -0.4167  0.1218  0.0934
 9468SOL    HW140040   0.610   1.691   2.934 -3.4792  0.0230  1.6178
 9468SOL    HW240041   0.558   1.769   3.045 -0.1941 -1.0472  0.4340
 9469SOL     OW40042   3.825   3.067   3.553  0.3731 -0.1800  0.7940
 9469SOL    HW140043   3.865   3.043   3.469  0.9415  0.4913  0.8765
 9469SOL    HW240044   3.862   3.002   3.612  0.3111 -2.7540 -1.9830
 9470SOL     OW40045   1.509   3.395   8.648 -0.4736 -0.3164  0.5041
 9470SOL    HW140046   1.563   3.431   8.578 -0.0225 -1.5857  0.2127
 9470SOL    HW240047   1.421   3.393   8.610 -0.7985 -1.4233  1.3063
 9471SOL     OW40048   4.615   0.566   5.959 -0.3566 -0.1820 -0.1636
 9471SOL    HW140049   4.679   0.609   6.015 -0.5679  0.6061 -0.5346
 9471SOL    HW240050   4.664   0.567   5.877  2.2615  1.2151  1.4520
 9472SOL     OW40051   1.432   0.665   8.203 -0.1055  0.4112 -0.5223
 9472SOL    HW140052   1.514   0.631   8.169  0.9005  0.4831  1.7827
 9472SOL    HW240053   1.367   0.636   8.139 -0.6306  0.9739 -0.2476
 9473SOL     OW40054   1.945   0.561  16.532 -0.1076 -0.4698  0.5689
 9473SOL    HW140055   1.981   0.551  16.621 -0.2754 -1.9531  0.4744
 9473SOL    HW240056   2.018   0.610  16.495 -0.6512  1.3646  1.9301
 9474SOL     OW40057   2.113   1.748   6.260  0.1635 -0.1286 -0.2513
 9474SOL    HW140058   2.073   1.832   6.283  2.1076  0.9393 -0.8222
 9474SOL    HW240059   2.206   1.761   6.277  0.2062 -0.8195  0.0279
 9475SOL     OW40060   0.205   1.074   8.644  0.3709 -0.0760  0.4041
 9475SOL    HW140061   0.205   1.131   8.567  2.5443 -1.3567 -0.5308
 9475SOL    HW240062   0.126   1.020   8.640 -0.1663  0.8636 -1.7447
 9476SOL     OW40063   2.675   3.557   5.354  0.3883  0.2466 -0.6412
 9476SOL    HW140064   2.595   3.581   5.307  0.9043 -0.9054 -2.1044
 9476SOL    HW240065   2.651   3.577   5.445 -0.2058 -1.7180 -0.3636
 9477SOL     OW40066   3.332   1.881   7.349  0.3088  0.1441 -0.6467
 9477SOL    HW140067   3.311   1.911   7.438 -0.5595 -0.4621 -0.6458
 9477SOL    HW240068   3.249   1.892   7.303 -1.9801 -1.6562  2.9871
 9478SOL     OW40069   0.274   1.411   3.030 -0.5473 -0.4288 -0.2253
 9478SOL    HW140070   0.228   1.371   3.103  2.9414 -0.8924  1.6937
 9478SOL    HW240071   0.214   1.390   2.958 -1.2072  0.9772 -0.0989
 9479SOL     OW40072   1.264   4.145   7.159  0.1852  0.4982  0.4407
 9479SOL    HW140073   1.231   4.217   7.213  1.2066  2.8541 -2.1025
 9479SOL    HW240074   1.280   4.190   7.076 -1.3478  1.0622  0.4601
 9480SOL     OW40075   1.407   0.684   8.580 -0.3202 -0.6330  0.0910
 9480SOL    HW140076   1.442   0.681   8.669 -0.4183  0.3430  0.1586
 9480SOL    HW240077   1.323   0.640   8.591 -0.5842  0.0668  0.8540
 9481SOL     OW40078   4.271   3.617  12.306 -0.5227  0.3082 -0.2694
 9481SOL    HW140079   4.269   3.656  12.219 -2.1802 -1.1276 -0.8623
 9481SOL    HW240080   4.182   3.641  12.332 -0.0700 -0.3279  1.9062
 9482SOL     OW40081   0.131   4.082   8.874 -0.0504  0.8360  0.1649
 9482SOL    HW140082   0.104   4.105   8.785  1.9875  0.7696 -0.4749
 9482SOL    HW240083   0.200   4.146   8.890 -0.9233  1.9179 -0.4144
 9483SOL     OW40084   0.946   4.492   2.542 -0.0616 -0.7659  0.3462
 9483SOL    HW140085   0.930   4.574   2.494  1.5527 -1.1523 -0.8395
 9483SOL    HW240086   0.868   4.491   2.598 -0.2739 -1.2860  0.0461
 9484SOL     OW40087   1.465   2.192   4.394 -0.1656 -0.3109  0.1550
 9484SOL    HW140088   1.530   2.129   4.425  2.7307  1.8980 -1.3410
 9484SOL    HW240089   1.501   2.213   4.307  0.4526 -1.2443  0.1866
 9485SOL     OW40090   0.567   0.349   3.173 -0.1342  0.2486  0.2680
 9485SOL    HW140091   0.540   0.426   3.223 -2.7935 -1.1945  1.0453
 9485SOL    HW240092   0.500   0.337   3.105  1.0587 -0.1153 -0.8449
 9486SOL     OW40093   1.319   3.283   8.417  0.0259 -0.3657 -0.0308
 9486SOL    HW140094   1.271   3.366   8.427  2.3762  1.4510 -3.5720
 9486SOL    HW240095   1.243   3.227   8.401 -1.0816  1.2393 -0.4255
 9487SOL     OW40096   4.365   3.665   6.729  0.6857  0.3482 -0.4639
 9487SOL    HW140097   4.390   3.654   6.638 -0.6849 -0.8734 -0.6970
 9487SOL    HW240098   4.321   3.580   6.731  1.9353 -0.3542 -3.9082
 9488SOL     OW40099   4.305   3.202   0.138  0.1706 -0.2005 -0.7974
 9488SOL    HW140100   4.226   3.157   0.165  2.1348 -1.2951  3.1849
 9488SOL    HW240101   4.281   3.289   0.168  0.9753  0.4985 -2.1539
 9489SOL     OW40102   0.537   2.805  15.026  0.3607 -0.0427 -0.0058
 9489SOL    HW140103   0.609   2.790  15.087 -1.1567 -1.0460  1.5518
 9489SOL    HW240104   0.563   2.738  14.964 -3.6710 -1.0231 -0.6118
 9490SOL     OW40105   0.145   3.766   1.603 -0.5018  0.6716  0.1916
 9490SOL    HW140106   0.072   3.758   1.664 -0.7502  0.6720 -0.1058
 9490SOL    HW240107   0.108   3.834   1.546  0.5053  2.4394  1.6339
 9491SOL     OW40108   2.794   0.805   2.620  0.4628  0.2456  0.3780
 9491SOL    HW140109   2.814   0.721   2.662  1.0276  0.2009  0.0135
 9491SOL    HW240110   2.711   0.785   2.578  1.4364 -1.5219 -0.7301
 9492SOL     OW40111   1.339   0.881   4.727  0.0812 -0.1071 -0.0532
 9492SOL    HW140112   1.321   0.834   4.808 -0.4149 -0.0058 -0.1043
 9492SOL    HW240113   1.341   0.805   4.669  0.9795 -0.3776  0.3402
 9493SOL     OW40114   2.995   3.920   7.020 -0.1118  0.0284 -0.0609
 9493SOL    HW140115   3.038   3.927   6.935  0.4275  3.1186  0.4884
 9493SOL    HW240116   2.905   3.935   6.990 -0.3334  2.2326  1.7038
 9494SOL     OW40117   1.869   1.762   3.059 -0.8761  0.2599  0.6478
 9494SOL    HW140118   1.907   1.834   3.110 -0.7317 -0.5317  1.6672
 9494SOL    HW240119   1.874   1.792   2.969 -2.4266  0.8105  0.7356
 9495SOL     OW40120   1.726   0.540   9.599 -0.5813  0.0750 -0.1448
 9495SOL    HW140121   1.703   0.473   9.663 -2.3430  1.1539  0.3623
 9495SOL    HW240122   1.799   0.495   9.557 -0.2448 -0.3117  0.8632
 9496SOL     OW40123   2.160   3.013  12.283 -0.3843 -0.2100 -0.3986
 9496SOL    HW140124   2.101   3.066  12.229 -0.8189 -1.1788 -0.8748
 9496SOL    HW240125   2.230   3.012  12.219  1.0778 -0.3303  1.1961
 9497SOL     OW40126   4.171   1.904   4.492  0.2754 -0.8718 -0.2203
 9497SOL    HW140127   4.212   1.859   4.566  0.5357  1.6992  1.2127
 9497SOL    HW240128   4.106   1.958   4.538  2.3739  1.3053  0.1810
 9498SOL     OW40129   2.439   1.864   2.993  0.0140  0.6839  0.1789
 9498SOL    HW140130   2.369   1.800   2.979 -1.7031  3.1900 -2.9390
 9498SOL    HW240131   2.510   1.813   2.953 -0.0325  0.7510  0.0079
 9499SOL     OW40132   1.130   3.667  11.457  0.0602 -0.0097  0.3269
 9499SOL    HW140133   1.129   3.625  11.542  1.0754 -1.0648 -0.1859
 9499SOL    HW240134   1.225   3.677  11.445 -0.0749  1.7454  0.6035
 9500SOL     OW40135   1.659   2.796   9.225 -0.8426  0.3612 -0.1627
 9500SOL    HW140136   1.597   2.732   9.191 -1.6984  1.2670 -0.2852
 9500SOL    HW240137   1.603   2.859   9.270 -0.9398  1.5102 -1.8728
 9501SOL     OW40138   3.075   0.399   2.382  0.4448 -0.2406  0.3366
 9501SOL    HW140139   3.075   0.400   2.286  0.5990 -1.9725  0.3274
 9501SOL    HW240140   3.035   0.317   2.411 -1.5852  0.7575  0.4143
 9502SOL     OW40141   1.058   1.298  14.967 -0.2523  0.0231  0.1285
 9502SOL    HW140142   1.119   1.272  15.036 -0.2635 -0.4358 -0.0341
 9502SOL    HW240143   1.110   1.345  14.901 -1.7010  0.6075 -0.6110
 9503SOL     OW40144   1.638   1.691   0.544  0.2341  0.4319  0.8525
 9503SOL    HW140145   1.543   1.701   0.533  0.2264  0.2002  0.7029
 9503SOL    HW240146   1.675   1.779   0.547  0.5517  0.3802 -2.5580
 9504SOL     OW40147   2.320   1.083   6.161  0.2596  0.3094  0.0487
 9504SOL    HW140148   2.396   1.136   6.183 -0.0559  0.8644 -0.1938
 9504SOL    HW240149   2.278   1.136   6.093 -0.0509 -0.2989 -0.2387
 9505SOL     OW40150   0.033   1.621   7.505 -0.2906  0.0668 -0.2513
 9505SOL    HW140151   4.702   1.683   7.476  0.8939  0.2832 -2.4764
 9505SOL    HW240152   4.736   1.600   7.592  2.6535  0.3674  0.9233
 9506SOL     OW40153   1.855   1.322   9.401 -0.0593 -0.7221 -0.3225
 9506SOL    HW140154   1.763   1.322   9.427 -0.4619 -1.6833 -1.7333
 9506SOL    HW240155   1.902   1.297   9.480  0.6404  1.8922  0.0715
 9507SOL     OW40156   2.598   1.695   2.846  0.1984  0.1708 -0.4304
 9507SOL    HW140157   2.615   1.707   2.753  0.5995 -0.9726 -0.5130
 9507SOL    HW240158   2.684   1.675   2.883 -0.3595 -1.7339 -0.1576
 9508SOL     OW40159   3.920   2.213   7.391 -0.0827 -0.0088 -0.1746
 9508SOL    HW140160   3.908   2.127   7.431 -2.0590  1.0469  1.5483
 9508SOL    HW240161   3.901   2.190   7.301 -3.0549  2.1651 -0.1172
 9509SOL     OW40162   1.842   1.168  10.297  0.2828 -0.3915 -0.1253
 9509SOL    HW140163   1.897   1.093  10.278  1.7683  0.5611  0.4320
 9509SOL    HW240164   1.791   1.186  10.218 -0.6662  1.4974  0.9008
 9510SOL     OW40165   1.755   1.330  16.813  0.6532 -0.1394  0.4055
 9510SOL    HW140166   1.840   1.288  16.799 -0.1195 -1.8031  0.7395
 9510SOL    HW240167   1.785   1.418  16.837  0.4538 -0.1824  0.8071
 9511SOL     OW40168   4.714   0.162   6.580  0.2139  0.2430  0.2235
 9511SOL    HW140169   0.031   0.127   6.508  0.2682  0.3115  0.2297
 9511SOL    HW240170   0.045   0.209   6.631 -0.2091  0.6448  0.4099
 9512SOL     OW40171   2.801   3.865   7.901 -0.5229 -1.0072  0.3298
 9512SOL    HW140172   2.778   3.946   7.947 -0.0161 -1.5638  1.5639
 9512SOL    HW240173   2.840   3.813   7.971 -0.6680 -0.3587  0.8971
 9513SOL     OW40174   3.484   3.181  16.927  0.3406  0.3017 -0.1631
 9513SOL    HW140175   3.554   3.148  16.870  0.6694  0.0200  0.4047
 9513SOL    HW240176   3.464   3.098  16.971  2.0952  0.5149  1.0794
 9514SOL     OW40177   2.756   3.639   6.966 -0.4777  0.4670  0.1397
 9514SOL    HW140178   2.702   3.699   7.018 -0.6386  0.1746  0.3067
 9514SOL    HW240179   2.743   3.673   6.878  1.5138  0.1760 -0.2562
 9515SOL     OW40180   4.315   0.959   8.956  0.3867  0.0580 -0.3091
 9515SOL    HW140181   4.404   0.969   8.989  0.3074 -0.0817 -0.0569
 9515SOL    HW240182   4.266   1.011   9.020  4.6838  0.6815  2.4427
 9516SOL     OW40183   3.180   0.089   2.557  0.6081 -0.2110  0.3416
 9516SOL    HW140184   3.095   0.094   2.514  1.5780 -1.7461 -1.7527
 9516SOL    HW240185   3.165   0.087   2.652 -2.2671 -0.2288 -0.1142
 9517SOL     OW40186   3.334   1.074   7.098  0.4136 -0.2255 -0.1328
 9517SOL    HW140187   3.269   1.050   7.031  0.5271  0.0760 -0.3495
 9517SOL    HW240188   3.262   1.076   7.161 -0.2133 -1.2777 -0.8102
 9518SOL     OW40189   1.854   1.175   0.182  1.0170  0.0834 -0.3606
 9518SOL    HW140190   1.929   1.119   0.162  0.6008 -0.3013 -0.8316
 9518SOL    HW240191   1.799   1.133   0.248  1.8112  1.6885  1.3272
 9519SOL     OW40192   1.893   3.085   9.331 -0.1302 -0.1551  0.6159
 9519SOL    HW140193   1.828   3.045   9.274  1.6280 -0.7736 -0.9777
 9519SOL    HW240194   1.886   3.176   9.300  1.5694 -0.0021  0.6915
 9520SOL     OW40195   3.953   1.685  17.303 -0.8973  0.2911 -0.1993
 9520SOL    HW140196   3.893   1.645  17.365 -1.2289  0.9897 -0.0723
 9520SOL    HW240197   3.984   1.760  17.354  1.2669 -0.9784  0.3369
 9521SOL     OW40198   1.797   4.088   1.916  0.1875  0.0960 -0.0554
 9521SOL    HW140199   1.822   4.177   1.892 -0.7411  0.8606  1.8131
 9521SOL    HW240200   1.872   4.048   1.960  0.5722  0.6278 -0.2270
 9522SOL     OW40201   4.375   2.971   5.421 -0.2365 -0.0224  0.3530
 9522SOL    HW140202   4.373   2.902   5.354 -1.6095 -2.1882  2.6240
 9522SOL    HW240203   4.284   3.001   5.425 -0.2127 -0.1283  1.6273
 9523SOL     OW40204   4.522   0.840   8.442  0.8870  0.3846 -0.8195
 9523SOL    HW140205   4.453   0.791   8.399 -1.4369  2.0014  1.0856
 9523SOL    HW240206   4.482   0.853   8.527 -0.5644 -1.1387 -1.2768
 9524SOL     OW40207   1.878   4.186   3.201 -0.1147 -0.0285 -0.1218
 9524SOL    HW140208   1.957   4.213   3.155 -0.0954 -0.6994 -0.4939
 9524SOL    HW240209   1.882   4.090   3.195  0.0387 -0.1478  2.1005
 9525SOL     OW40210   1.224   1.280   9.372  0.4941 -0.3833  0.1020
 9525SOL    HW140211   1.166   1.235   9.433  0.2366  0.6206  0.5997
 9525SOL    HW240212   1.305   1.261   9.420  0.6917  0.8949  0.2879
 9526SOL     OW40213   1.839   4.625   9.747 -0.4860 -0.7388  0.5416
 9526SOL    HW140214   1.773   4.693   9.731 -0.7303 -1.3919 -1.2974
 9526SOL    HW240215   1.872   4.634   9.836 -1.5085  2.4367  0.6106
 9527SOL     OW40216   0.816   2.088  15.112  0.3764  0.0864 -0.2044
 9527SOL    HW140217   0.810   2.095  15.017  1.5994 -2.7301 -0.4700
 9527SOL    HW240218   0.852   2.000  15.116 -0.0711 -0.1652 -1.7985
 9528SOL     OW40219   4.200   4.634   7.701 -0.2221  0.0724 -0.1543
 9528SOL    HW140220   4.133   4.630   7.769  0.4609 -0.6938  0.4681
 9528SOL    HW240221   4.159   4.693   7.638 -0.8898 -1.2537 -0.9504
 9529SOL     OW40222   3.871   0.559   3.494 -0.5326  0.0663  0.4233
 9529SOL    HW140223   3.855   0.621   3.423 -0.4335 -0.8702 -0.4115
 9529SOL    HW240224   3.965   0.543   3.493 -0.4280  0.6649  0.6248
 9530SOL     OW40225   2.783   3.604  17.713 -0.0056 -0.1560 -0.4736
 9530SOL    HW140226   2.785   3.698  17.727  1.0785 -0.3246  0.4854
 9530SOL    HW240227   2.839   3.588  17.637 -0.2296  0.1242 -0.6940
 9531SOL     OW40228   3.769   3.298   5.016  0.4381 -0.5453 -0.0599
 9531SOL    HW140229   3.766   3.290   5.111  0.7411  1.3762  0.1197
 9531SOL    HW240230   3.715   3.226   4.983  1.1526 -0.8092 -0.6508
 9532SOL     OW40231   0.220   3.166   8.905 -0.0161 -0.1479 -0.3756
 9532SOL    HW140232   0.301   3.148   8.953 -1.5927  2.6687  3.3508
 9532SOL    HW240233   0.257   3.186   8.819 -0.5547  1.4842 -0.2293
 9533SOL     OW40234   2.924   0.119   3.726  0.4741  0.0249  0.5352
 9533SOL    HW140235   2.844   0.121   3.673  0.1442  3.0393  1.1769
 9533SOL    HW240236   2.925   0.209   3.758 -0.1744 -0.1710  1.1233
 9534SOL     OW40237   1.789   3.404   4.829  0.2513 -0.1628 -0.3695
 9534SOL    HW140238   1.799   3.326   4.775  0.1632 -0.7899  0.5338
 9534SOL    HW240239   1.693   3.404   4.823  0.2053  0.7451  0.2295
 9535SOL     OW40240   0.992   3.041   6.519 -0.3942  0.1044 -0.4188
 9535SOL    HW140241   1.047   3.033   6.597 -0.5784  0.8016 -0.2177
 9535SOL    HW240242   0.982   3.136   6.521 -0.0053  0.1289  0.1930
 9536SOL     OW40243   2.891   3.687   2.831  0.0246 -0.5796 -0.3392
 9536SOL    HW140244   2.872   3.746   2.758 -0.0680 -1.1513 -0.7777
 9536SOL    HW240245   2.809   3.638   2.840 -0.6773  0.6600 -0.0428
 9537SOL     OW40246   1.329   1.336  16.135 -0.7000  0.0167  0.1283
 9537SOL    HW140247   1.240   1.333  16.171  0.3522 -1.2342  2.6327
 9537SOL    HW240248   1.314   1.318  16.042 -0.8495  1.3486 -0.1022
 9538SOL     OW40249   0.314   3.978   1.863  0.2256  0.5948  0.3141
 9538SOL    HW140250   0.288   3.897   1.908  0.0776  2.0044  2.7982
 9538SOL    HW240251   0.379   3.941   1.804  0.8232  2.6820 -0.3345
 9539SOL     OW40252   2.308   3.796   6.321  0.3047  0.0175  0.7290
 9539SOL    HW140253   2.231   3.823   6.271  1.4156  0.4824 -0.7285
 9539SOL    HW240254   2.350   3.881   6.333  3.5120 -1.4746  0.1812
 9540SOL     OW40255   4.462   0.154   2.444  0.4374 -0.0641 -0.6215
 9540SOL    HW140256   4.442   0.229   2.501  0.4532  0.0237 -0.7300
 9540SOL    HW240257   4.411   0.181   2.368 -2.0171  3.2512  2.1771
 9541SOL     OW40258   4.094   1.307   8.045 -0.9805  0.2104 -0.1074
 9541SOL    HW140259   4.178   1.262   8.057 -1.6014 -0.3691  2.0874
 9541SOL    HW240260   4.104   1.346   7.958  1.3521  0.8298  0.4376
 9542SOL     OW40261   0.699   0.653  17.680 -0.4390 -0.1856  0.0796
 9542SOL    HW140262   0.687   0.748  17.672  0.1936 -0.0843  0.3452
 9542SOL    HW240263   0.687   0.602  17.599 -0.7492 -0.9503  0.6160
 9543SOL     OW40264   0.459   1.085   8.261  0.1005 -0.2343  0.4512
 9543SOL    HW140265   0.472   1.145   8.334 -0.5631  1.7644 -1.0908
 9543SOL    HW240266   0.398   1.135   8.207 -0.1246  1.9748  2.7370
 9544SOL     OW40267   4.476   2.027   1.824  0.3765 -0.0394  0.6138
 9544SOL    HW140268   4.458   1.968   1.897 -1.0286 -0.0965  0.2259
 9544SOL    HW240269   4.398   2.015   1.769  0.7405 -0.6140  0.2170
 9545SOL     OW40270   2.222   4.232   1.658  0.0753  1.0829  1.0538
 9545SOL    HW140271   2.247   4.171   1.727  2.9404 -1.2644 -2.0106
 9545SOL    HW240272   2.136   4.205   1.627  1.5209 -1.2237 -1.0128
 9546SOL     OW40273   2.626   1.320   0.550 -0.3139 -0.0585 -0.8140
 9546SOL    HW140274   2.596   1.295   0.463  0.2159 -2.3197 -0.3352
 9546SOL    HW240275   2.721   1.309   0.541 -0.3119 -0.5214 -0.2453
 9547SOL     OW40276   2.665   2.662   2.017  0.9723 -0.5692 -0.3637
 9547SOL    HW140277   2.647   2.651   2.110  2.6815 -2.6420 -0.2649
 9547SOL    HW240278   2.716   2.743   2.018  1.4061 -0.9074  4.9544
 9548SOL     OW40279   0.752   4.288   3.286  0.0888  0.4705  0.1622
 9548SOL    HW140280   0.699   4.351   3.237 -0.1245 -0.0286 -0.2618
 9548SOL    HW240281   0.802   4.238   3.221 -0.3720 -0.0566  0.2090
 9549SOL     OW40282   4.113   1.782   7.953 -0.0945 -0.3246  0.0987
 9549SOL    HW140283   4.145   1.829   7.876  0.1225 -0.1454  0.2979
 9549SOL    HW240284   4.197   1.745   7.979  0.3529 -0.2758 -1.2862
 9550SOL     OW40285   3.041   2.273  15.688 -0.0497 -0.3705  0.6500
 9550SOL    HW140286   3.018   2.334  15.618  0.8186 -1.3622 -0.4933
 9550SOL    HW240287   3.133   2.255  15.672  0.2765  1.4253  0.4669
 9551SOL     OW40288   1.452   1.048   5.999 -0.5024 -0.3203 -0.0400
 9551SOL    HW140289   1.515   1.102   6.047  0.8408 -1.8680 -0.0947
 9551SOL    HW240290   1.488   1.058   5.911 -0.5109  2.9652  0.3412
 9552SOL     OW40291   2.633   2.693   5.262 -0.6190  0.2919  0.1208
 9552SOL    HW140292   2.568   2.759   5.287 -4.0330 -3.4848  1.2506
 9552SOL    HW240293   2.717   2.736   5.273 -0.3993  0.1292 -0.8779
 9553SOL     OW40294   4.630   1.647   5.416 -0.5399  0.2832  0.0821
 9553SOL    HW140295   4.547   1.652   5.370 -1.5087  0.1279  1.8118
 9553SOL    HW240296   4.614   1.704   5.491 -0.2995  1.4123 -0.7250
 9554SOL     OW40297   0.643   3.269   0.754 -0.4790  0.4187  0.3759
 9554SOL    HW140298   0.629   3.188   0.803  0.2261  0.9687  1.4835
 9554SOL    HW240299   0.564   3.311   0.788 -0.5898  0.3902  0.1536
 9555SOL     OW40300   4.358   3.634  16.718  0.4384  0.0515  0.0389
 9555SOL    HW140301   4.266   3.650  16.699  0.4859  0.2864  0.0054
 9555SOL    HW240302   4.392   3.648  16.630  1.9334  0.8600  0.7402
 9556SOL     OW40303   4.279   1.693   7.363  0.4142 -0.1459 -0.1206
 9556SOL    HW140304   4.310   1.628   7.425 -2.6430 -2.0065 -0.5334
 9556SOL    HW240305   4.184   1.684   7.369  0.4580 -0.7052 -0.2535
 9557SOL     OW40306   1.241   0.182   8.582  0.1344  0.7409  0.1059
 9557SOL    HW140307   1.295   0.184   8.503 -0.5467  2.1033 -0.3194
 9557SOL    HW240308   1.299   0.210   8.652  1.5823  4.1367 -2.4494
 9558SOL     OW40309   2.813   3.295   6.255 -0.4054  0.6121  0.1301
 9558SOL    HW140310   2.891   3.268   6.303 -1.6056 -0.1802  1.6224
 9558SOL    HW240311   2.855   3.296   6.169  1.7349  0.5568  1.1584
 9559SOL     OW40312   1.854   1.490  16.395 -0.0614  0.2576  0.6235
 9559SOL    HW140313   1.799   1.452  16.327 -1.0723  2.1192  0.3838
 9559SOL    HW240314   1.911   1.415  16.413  0.1325  0.6636  1.7462
 9560SOL     OW40315   1.872   2.598   2.303 -0.3368  1.0671  0.9389
 9560SOL    HW140316   1.828   2.631   2.225 -0.2055  0.0474  0.4283
 9560SOL    HW240317   1.938   2.667   2.292  1.0849 -0.1963  1.5912
 9561SOL     OW40318   3.044   1.223   9.771 -0.3450 -0.4435  0.2522
 9561SOL    HW140319   3.079   1.299   9.724 -1.1350  0.8724  1.7759
 9561SOL    HW240320   3.061   1.234   9.864  0.0860  0.1848  0.1007
 9562SOL     OW40321   3.054   1.568   8.692  0.2108  0.2681  0.2188
 9562SOL    HW140322   3.067   1.662   8.706  0.2202  0.2125  0.5910
 9562SOL    HW240323   3.005   1.554   8.773 -1.4817 -0.9224 -1.0144
 9563SOL     OW40324   1.169   4.323  17.582 -0.2163 -0.9343  0.4981
 9563SOL    HW140325   1.146   4.289  17.496 -0.3885 -1.5149  0.7688
 9563SOL    HW240326   1.146   4.245  17.633  0.1109 -1.4819 -0.1906
 9564SOL     OW40327   1.890   2.378   6.361  0.0152 -0.2151  0.3901
 9564SOL    HW140328   1.927   2.410   6.279  1.2445 -0.2975  0.9259
 9564SOL    HW240329   1.809   2.338   6.329  1.1896 -0.1284 -2.6968
 9565SOL     OW40330   0.556   2.536   4.632  0.0984  0.6199 -0.1111
 9565SOL    HW140331   0.510   2.522   4.715  0.8070  0.0561  0.1889
 9565SOL    HW240332   0.608   2.456   4.640 -1.5145 -0.2445  1.8371
 9566SOL     OW40333   2.891   3.716   8.117  0.0989 -1.0620 -0.4849
 9566SOL    HW140334   2.854   3.629   8.100  0.6106 -0.9311 -2.2739
 9566SOL    HW240335   2.883   3.720   8.212 -0.3029 -1.8529 -0.4828
 9567SOL     OW40336   1.363   3.039   0.519 -0.4967 -0.7791 -0.2636
 9567SOL    HW140337   1.380   3.083   0.435  2.7519  2.2765  1.9772
 9567SOL    HW240338   1.317   3.104   0.571  0.6012  0.6754 -1.1042
 9568SOL     OW40339   2.750   0.537   0.863 -0.2825  0.5056 -0.1701
 9568SOL    HW140340   2.681   0.545   0.798 -0.7240  0.6800  0.3216
 9568SOL    HW240341   2.807   0.613   0.852  1.3529 -0.6997 -0.1155
 9569SOL     OW40342   0.500   2.940   2.496  0.0917 -0.1297 -0.1320
 9569SOL    HW140343   0.410   2.925   2.525  1.2904 -0.7858  3.1938
 9569SOL    HW240344   0.542   2.863   2.535  2.0022 -0.3094 -2.5429
   4.73602   4.73602  17.74269
