Membrane in water
40344
    1TMC1    C1    1   1.977   0.765  11.156  0.1894 -0.1711 -0.9209
    1TMC1    C2    2   2.076   0.758  11.061  0.4833 -0.6252 -0.0672
    1TMC1    C3    3   2.106   0.867  10.987  0.0860  0.9442 -0.5746
    1TMC1    C4    4   1.909   0.883  11.177 -0.9214 -0.0166 -0.2801
    1TMC1    C5    5   1.947   0.989  11.101  0.3214  0.4373 -0.4942
    1TMC1    C6    6   2.023   0.972  10.990 -0.7650  0.4934 -0.0428
    1TMC1     C    7   1.930   0.652  11.227  0.1489  0.5087  0.1572
    1TMC1     O    8   1.839   0.671  11.306  0.1981  0.3893  0.4114
    1TMC1     H    9   2.129   0.666  11.039  1.3136 -0.1587  0.0137
    1TMC1    H1   10   1.851   0.895  11.267 -1.2803 -0.2244 -0.4860
    1TMC1    H2   11   2.058   1.056  10.931 -0.7503  0.2690 -0.3525
    1TMC1    C7   12   1.897   1.118  11.139 -0.0957 -0.0961  1.0622
    1TMC1    C8   13   2.171   0.845  10.857  0.5399 -0.2992  0.1651
    1TMC1    O1   14   1.796   1.134  11.212  0.0356  0.3381 -0.3369
    1TMC1    O2   15   2.107   0.857  10.756 -0.3780  0.0231 -0.0070
    1TMC1    O3   16   1.992   1.212  11.122 -0.0623 -0.5997  0.1717
    1TMC1    H3   17   2.080   1.194  11.082  0.6466  3.3374  0.0059
    1TMC1    O5   18   2.277   0.776  10.876 -0.4187  0.2833 -0.2745
    1TMC1    H5   19   2.309   0.779  10.969  1.3142 -0.5096 -0.8419
    2MPD2     C   20   1.854   0.148  11.259 -0.8621 -0.2222  0.1480
    2MPD2    C1   21   1.790   0.249  11.327  0.0065 -0.2852 -0.0780
    2MPD2    C2   22   1.831   0.381  11.304 -0.7689  0.1445  0.7528
    2MPD2    C3   23   1.928   0.406  11.206  0.2731  0.7663  0.5946
    2MPD2    C4   24   2.001   0.302  11.150 -0.0117  0.5397  0.2603
    2MPD2    C5   25   1.963   0.171  11.177 -0.4953 -0.0123  0.1832
    2MPD2     H   26   1.781   0.465  11.352 -2.2337 -0.4365  0.2250
    2MPD2    H1   27   2.080   0.320  11.078  0.9292 -0.1127  1.1272
    2MPD2    H2   28   1.827   0.044  11.272 -0.2796 -0.5004 -0.8427
    2MPD2    H3   29   2.014   0.085  11.137 -0.7008  1.1230 -2.5239
    2MPD2     N   30   1.978   0.535  11.175  0.3272 -0.3952 -0.1458
    2MPD2    H5   31   2.057   0.530  11.112  1.9566 -2.0559  2.0208
    2MPD2    N1   32   1.678   0.220  11.409  0.3408  0.0735 -0.2563
    2MPD2    H7   33   1.629   0.296  11.454 -0.5867 -0.3056 -0.6358
    3TMC1    C1   34   0.678   0.931  10.855 -0.4101 -0.1830  0.8423
    3TMC1    C2   35   0.804   0.950  10.801  0.5567  0.1249  0.6343
    3TMC1    C3   36   0.868   0.844  10.746  0.1861 -0.5666  0.2396
    3TMC1    C4   37   0.622   0.804  10.859  0.2839  0.5848  0.2613
    3TMC1    C5   38   0.688   0.704  10.795 -0.1878  0.0733  0.4555
    3TMC1    C6   39   0.810   0.720  10.738  0.0262  0.4831 -0.1951
    3TMC1     C   40   0.627   1.038  10.938  0.3349 -0.4724 -0.1580
    3TMC1     O   41   0.657   1.151  10.907 -0.3035 -0.6094  0.3895
    3TMC1     H   42   0.853   1.043  10.827  1.0334  0.7493 -2.4805
    3TMC1    H1   43   0.520   0.796  10.894  0.7064 -0.4983  1.2726
    3TMC1    H2   44   0.866   0.632  10.706 -2.4262 -0.5865 -1.5124
    3TMC1    C7   45   0.633   0.573  10.786  0.3017  0.7320 -0.2581
    3TMC1    C8   46   0.998   0.844  10.694  0.4682 -0.0130 -0.0952
    3TMC1    O1   47   0.614   0.511  10.682 -0.0002  0.1029 -0.3087
    3TMC1    O2   48   1.063   0.744  10.667 -0.4890 -0.2710  0.2259
    3TMC1    O3   49   0.548   0.565  10.889  0.0481 -0.0181 -0.3806
    3TMC1    H3   50   0.567   0.624  10.965  0.7789 -0.4295 -0.2457
    3TMC1    O5   51   1.030   0.968  10.643  0.3304  0.9360  0.0266
    3TMC1    H5   52   0.968   1.043  10.655 -0.4253  0.5892 -1.7090
    4MPD2     C   53   0.354   1.185  11.349  0.7587  0.2446  0.4845
    4MPD2    C1   54   0.425   1.259  11.257  0.2507 -0.2817 -0.1191
    4MPD2    C2   55   0.488   1.197  11.152  0.5398 -0.3328  0.2249
    4MPD2    C3   56   0.502   1.058  11.149  0.0198 -0.0366 -0.5615
    4MPD2    C4   57   0.438   0.987  11.250 -0.0053  0.6059  0.1736
    4MPD2    C5   58   0.362   1.050  11.348 -0.7420 -0.1104 -0.4855
    4MPD2     H   59   0.548   1.258  11.086  0.6932 -0.7414 -0.0150
    4MPD2    H1   60   0.441   0.878  11.253 -0.6685  0.5437 -1.2631
    4MPD2    H2   61   0.293   1.228  11.427  0.0917 -2.2765  1.3677
    4MPD2    H3   62   0.330   0.985  11.428 -0.8875  0.7687  0.1624
    4MPD2     N   63   0.575   0.983  11.054  0.0986  0.2538 -0.5673
    4MPD2    H5   64   0.566   0.883  11.070 -0.9516  0.1863 -1.5575
    4MPD2    N1   65   0.419   1.397  11.268 -0.1386 -0.6335  0.5927
    4MPD2    H7   66   0.452   1.447  11.187  1.0672 -0.7533  0.9953
    5TCq1    O1   67   2.246   2.588  11.665 -0.2580 -0.3605  0.2645
    5TCq1    C1   68   2.174   2.612  11.778 -0.1743  0.1114 -1.0229
    5TCq1    O2   69   2.195   2.567  11.885  0.0599 -0.4469  0.1565
    5TCq1    C2   70   2.106   2.743  11.746 -0.1581 -0.0856 -0.2653
    5TCq1    C3   71   2.078   2.827  11.846  0.5045  0.0573 -0.0303
    5TCq1    C4   72   2.011   2.941  11.810  0.0270 -0.0334 -0.6893
    5TCq1    C5   73   1.979   2.966  11.680  0.4610 -0.4985  0.3662
    5TCq1    C6   74   2.014   2.879  11.582  0.0787 -0.1987  0.1989
    5TCq1    C7   75   2.066   2.759  11.618 -0.4261 -1.0561  0.4459
    5TCq1    C8   76   1.974   2.893  11.440 -0.0725 -0.4222  0.3610
    5TCq1    O4   77   2.018   2.812  11.359  0.0834  0.3396  0.6310
    5TCq1    C9   78   1.954   3.031  11.909 -0.2202  0.0981  1.1842
    5TCq1    O5   79   1.978   3.012  12.035  0.5976 -0.1174  0.2237
    5TCq1    O6   80   1.852   3.096  11.862 -0.2524 -0.1696  0.1254
    5TCq1    H1   81   2.222   2.643  11.587  1.4544  0.9978  0.6845
    5TCq1    H2   82   2.107   2.811  11.949  1.4301 -0.4002 -0.3648
    5TCq1    H3   83   1.927   3.058  11.655  4.3116  1.9544  1.4238
    5TCq1    H4   84   2.066   2.676  11.549  0.7028 -2.2451  1.8822
    6MPD2     C   85   1.731   3.123  11.296  0.0570  0.2906  0.3739
    6MPD2    C1   86   1.818   3.018  11.296 -0.4311 -0.3438  0.2549
    6MPD2    C2   87   1.837   2.945  11.182 -0.6304 -0.1594 -0.0610
    6MPD2    C3   88   1.778   2.990  11.064  0.1577  0.1555 -0.5203
    6MPD2    C4   89   1.694   3.097  11.063  0.4252  0.4743  0.2923
    6MPD2    C5   90   1.662   3.155  11.184 -0.1770 -0.0657  0.4091
    6MPD2     H   91   1.900   2.857  11.181  0.3572  0.5396  0.5719
    6MPD2    H1   92   1.646   3.125  10.970  1.7584 -1.0389 -0.8506
    6MPD2    H2   93   1.708   3.181  11.385  0.4710 -0.7639  1.1649
    6MPD2    H3   94   1.588   3.234  11.193 -0.7097 -0.6371  1.0312
    6MPD2     N   95   1.798   2.904  10.950 -0.4890 -0.2999 -0.6537
    6MPD2    H5   96   1.856   2.822  10.964 -1.3842 -0.8247 -0.0282
    6MPD2    N1   97   1.886   2.998  11.418  1.0907  0.5768  0.3786
    6MPD2    H7   98   1.868   3.062  11.494  2.0919  0.0135  1.0818
    7TCq1    O1   99   3.996   2.780  13.343 -0.3768  0.2053 -0.5189
    7TCq1    C1  100   3.966   2.661  13.385 -0.7675  0.1718  0.7112
    7TCq1    O2  101   3.998   2.613  13.495  0.2250  0.1622  0.5889
    7TCq1    C2  102   3.891   2.582  13.291 -0.9728 -0.7114  0.7481
    7TCq1    C3  103   3.913   2.585  13.152 -0.0575 -0.4593 -0.0551
    7TCq1    C4  104   3.862   2.484  13.072  0.1831  0.1944  0.0756
    7TCq1    C5  105   3.789   2.388  13.130  0.0548 -0.3905 -1.0726
    7TCq1    C6  106   3.779   2.377  13.266  0.1940  0.0491  0.5346
    7TCq1    C7  107   3.830   2.474  13.347 -0.1078  0.3143 -0.1711
    7TCq1    C8  108   3.740   2.250  13.329  0.4689 -0.0926  0.0152
    7TCq1    O4  109   3.745   2.245  13.451  0.1699  0.3480  0.3233
    7TCq1    C9  110   3.882   2.480  12.930  0.0870  0.7912  0.2509
    7TCq1    O5  111   3.909   2.587  12.868 -0.9256 -0.3034  0.0087
    7TCq1    O6  112   3.825   2.388  12.865 -0.0312 -0.3006 -0.3297
    7TCq1    H1  113   3.941   2.796  13.263 -0.0623  1.0859 -0.5648
    7TCq1    H2  114   3.961   2.670  13.103 -0.0657 -1.6404 -2.0973
    7TCq1    H3  115   3.768   2.304  13.065  0.1855 -1.9333  0.8518
    7TCq1    H4  116   3.818   2.466  13.454  0.2708 -1.7905 -0.2933
    8MPD2     C  117   3.680   1.737  13.259 -0.3209  0.2305  0.0140
    8MPD2    C1  118   3.757   1.815  13.344  0.3324 -0.8955 -0.1668
    8MPD2    C2  119   3.746   1.954  13.344 -0.0746 -0.4463  0.2825
    8MPD2    C3  120   3.664   2.021  13.256  0.1640  0.6444  0.4945
    8MPD2    C4  121   3.576   1.941  13.184 -0.1898 -0.4179 -0.0317
    8MPD2    C5  122   3.588   1.804  13.188 -0.6986 -0.1310  0.5444
    8MPD2     H  123   3.807   2.013  13.411  0.2956  1.2607 -1.5503
    8MPD2    H1  124   3.494   1.985  13.128  0.4635 -0.3618 -0.9330
    8MPD2    H2  125   3.690   1.629  13.256 -2.8796  0.0179 -0.5726
    8MPD2    H3  126   3.530   1.736  13.127  0.5921 -0.0394 -0.7642
    8MPD2     N  127   3.666   2.165  13.243  0.0598  0.6735 -0.5761
    8MPD2    H5  128   3.627   2.198  13.155  2.5576 -0.1208 -1.9669
    8MPD2    N1  129   3.843   1.746  13.432 -0.2480  0.7818 -0.1409
    8MPD2    H7  130   3.853   1.646  13.418  1.1563  0.8270  0.4846
    9TMC1    C1  131   1.360   1.991  11.284 -0.6181  0.5938  0.8061
    9TMC1    C2  132   1.486   1.938  11.290  0.1625 -0.2661  0.2304
    9TMC1    C3  133   1.565   1.948  11.179  0.6358 -1.1690 -0.1252
    9TMC1    C4  134   1.321   2.058  11.170 -0.1297  0.1278  0.4108
    9TMC1    C5  135   1.402   2.062  11.059 -0.2741 -0.5244  0.0373
    9TMC1    C6  136   1.522   2.006  11.059 -0.1079  0.5824  0.4853
    9TMC1     C  137   1.260   1.948  11.382  0.2090 -0.5965 -0.1343
    9TMC1     O  138   1.185   2.037  11.420 -0.0307 -0.4276 -0.4366
    9TMC1     H  139   1.523   1.885  11.377 -0.4929 -0.2783  0.5011
    9TMC1    H1  140   1.220   2.098  11.166 -0.7894 -1.4729  1.3780
    9TMC1    H2  141   1.584   2.002  10.971 -0.1000  0.5093  0.4940
    9TMC1    C7  142   1.340   2.096  10.933  0.1804 -0.6627 -0.3687
    9TMC1    C8  143   1.694   1.885  11.193 -0.4855  0.7279  0.0220
    9TMC1    O1  144   1.252   2.184  10.925 -0.0225 -0.1492  0.3511
    9TMC1    O2  145   1.734   1.844  11.297 -0.2170 -0.2303  0.1559
    9TMC1    O3  146   1.316   1.973  10.875 -0.5968  0.7580  0.7664
    9TMC1    H3  147   1.364   1.895  10.908  2.2605  2.0573 -0.2847
    9TMC1    O5  148   1.709   1.803  11.092 -0.4552  0.4927  0.0578
    9TMC1    H5  149   1.679   1.823  11.000  0.2816  1.5192  0.0435
   10MPD2     C  150   1.103   1.809  11.586  0.5006  0.0668 -0.4562
   10MPD2    C1  151   1.217   1.756  11.526  0.1330  0.4148 -0.7503
   10MPD2    C2  152   1.268   1.642  11.576 -0.7797 -0.5823 -0.1057
   10MPD2    C3  153   1.207   1.578  11.684 -0.0387 -0.1542 -0.5010
   10MPD2    C4  154   1.097   1.635  11.750 -0.0069  0.5040 -0.3971
   10MPD2    C5  155   1.046   1.752  11.699  0.7506  0.4209 -0.0942
   10MPD2     H  156   1.366   1.616  11.538 -0.7267  0.5265 -0.7347
   10MPD2    H1  157   1.058   1.592  11.842 -0.3167  2.6007  0.4376
   10MPD2    H2  158   1.068   1.906  11.556 -0.2443 -0.2228 -0.5376
   10MPD2    H3  159   0.969   1.803  11.755  1.2854  1.2592 -0.1274
   10MPD2     N  160   1.269   1.467  11.747  0.3452 -0.3743 -0.1631
   10MPD2    H5  161   1.221   1.438  11.832  0.8455 -0.6536  0.0243
   10MPD2    N1  162   1.277   1.815  11.412 -0.4942 -1.2814 -0.4899
   10MPD2    H7  163   1.355   1.766  11.369 -0.3304 -1.2769 -0.2012
   11TCq1    O1  164   1.863   1.656  14.007 -0.0125 -0.5320  0.1522
   11TCq1    C1  165   1.775   1.551  14.006  0.2410 -0.2558 -0.4626
   11TCq1    O2  166   1.671   1.545  13.941  0.0721  0.1081 -0.1688
   11TCq1    C2  167   1.828   1.436  14.080  0.3651 -0.0251  0.7019
   11TCq1    C3  168   1.946   1.435  14.155 -0.2950 -0.0232  0.6130
   11TCq1    C4  169   2.008   1.313  14.180  0.8067 -0.2391  0.0120
   11TCq1    C5  170   1.943   1.194  14.165 -0.8088  0.1708  0.5227
   11TCq1    C6  171   1.829   1.202  14.094 -0.3643  0.6369 -0.0169
   11TCq1    C7  172   1.774   1.319  14.043  0.0081  0.5062  0.3230
   11TCq1    C8  173   1.756   1.081  14.072 -0.0866  0.8208  0.1689
   11TCq1    O4  174   1.803   1.004  13.983  0.8183  0.2637  0.1987
   11TCq1    C9  175   2.147   1.309  14.220 -0.0557  0.5040 -0.2014
   11TCq1    O5  176   2.219   1.410  14.196 -0.1445  0.9690 -0.0992
   11TCq1    O6  177   2.184   1.206  14.273 -0.1133 -0.0852  0.4043
   11TCq1    H1  178   1.937   1.632  14.066  2.7055 -1.1339 -3.5419
   11TCq1    H2  179   2.003   1.519  14.191  2.9084 -1.4245 -1.2171
   11TCq1    H3  180   1.992   1.099  14.182 -0.9534 -0.3334 -1.8602
   11TCq1    H4  181   1.687   1.314  13.979  0.2458  0.4122  0.0039
   12MPD2     C  182   1.395   1.030  14.129  0.2970 -1.0404 -0.7578
   12MPD2    C1  183   1.518   1.007  14.075  0.7485  0.4711 -0.4446
   12MPD2    C2  184   1.525   0.896  13.995 -0.1004 -0.4242 -0.1967
   12MPD2    C3  185   1.417   0.821  13.957  0.3793  0.0458  0.3839
   12MPD2    C4  186   1.303   0.847  14.016 -0.7213  0.7449 -0.1136
   12MPD2    C5  187   1.285   0.947  14.105  0.0788  0.4991 -1.2645
   12MPD2     H  188   1.624   0.870  13.959 -1.0502 -2.4533 -1.3324
   12MPD2    H1  189   1.216   0.785  13.998 -0.5997  0.5306  0.0406
   12MPD2    H2  190   1.385   1.114  14.196 -2.9407 -1.3701 -0.8305
   12MPD2    H3  191   1.186   0.958  14.147 -0.2242 -0.7943 -1.6324
   12MPD2     N  192   1.426   0.706  13.872 -0.2286  0.4198  0.5932
   12MPD2    H5  193   1.347   0.642  13.864 -0.9173  1.4080 -0.5479
   12MPD2    N1  194   1.629   1.087  14.122 -0.5905  0.3740 -0.5260
   12MPD2    H7  195   1.610   1.149  14.200 -1.0652 -1.3159  0.7060
   13TCq1    O1  196   1.757   1.201  10.879 -0.3413 -0.3355 -0.4568
   13TCq1    C1  197   1.764   1.313  10.796  0.1254  0.1810 -1.0206
   13TCq1    O2  198   1.866   1.378  10.775  0.8596 -0.6468 -0.1884
   13TCq1    C2  199   1.627   1.365  10.793 -0.6410  0.4150  0.8912
   13TCq1    C3  200   1.625   1.497  10.823  0.3197  0.2870 -0.2002
   13TCq1    C4  201   1.505   1.559  10.842 -0.2219 -0.7058 -0.4893
   13TCq1    C5  202   1.389   1.483  10.855 -0.9748 -0.1038 -0.1609
   13TCq1    C6  203   1.396   1.353  10.831  0.2609  0.2297 -0.2098
   13TCq1    C7  204   1.515   1.284  10.802 -0.0053  0.0457  0.3584
   13TCq1    C8  205   1.272   1.278  10.862 -0.0023  0.0275  0.1706
   13TCq1    O4  206   1.171   1.339  10.900 -0.8323 -0.3122 -0.2146
   13TCq1    C9  207   1.512   1.699  10.874 -0.2332 -0.3979  0.6238
   13TCq1    O5  208   1.410   1.741  10.931  0.6076  1.0061 -0.3798
   13TCq1    O6  209   1.616   1.768  10.850  0.2094 -0.3456 -0.0952
   13TCq1    H1  210   1.665   1.168  10.895  0.1366 -1.2766  0.3583
   13TCq1    H2  211   1.716   1.554  10.809  1.8707 -2.4618 -1.3818
   13TCq1    H3  212   1.299   1.536  10.885 -1.0688  0.0421 -0.7002
   13TCq1    H4  213   1.508   1.184  10.760  1.9249  0.9145 -2.0186
   14MPD2     C  214   1.236   0.925  10.964 -0.1510  0.1577  0.1188
   14MPD2    C1  215   1.205   1.056  10.955  0.6551  0.3452  0.0949
   14MPD2    C2  216   1.090   1.094  11.026 -0.2209 -0.2122 -0.1403
   14MPD2    C3  217   1.009   1.000  11.087  0.0547 -0.1883 -0.6442
   14MPD2    C4  218   1.046   0.868  11.089  0.4300 -0.3745 -0.6763
   14MPD2    C5  219   1.162   0.836  11.029  0.1882  0.1542  1.2009
   14MPD2     H  220   1.061   1.198  11.019 -3.3370 -1.0883 -0.5998
   14MPD2    H1  221   0.994   0.789  11.142  2.1427  0.6106  2.4201
   14MPD2    H2  222   1.324   0.882  10.915 -0.9262 -1.4701  0.1462
   14MPD2    H3  223   1.177   0.729  11.036 -0.4045 -0.2387 -3.7939
   14MPD2     N  224   0.912   1.054  11.174 -0.5037  0.6263  0.5177
   14MPD2    H5  225   0.895   1.154  11.169 -0.4002  0.5958 -0.5182
   14MPD2    N1  226   1.293   1.143  10.886 -0.2380 -0.1885  0.0701
   14MPD2    H7  227   1.380   1.101  10.854 -0.7598  0.4678 -2.2094
   15TCq1    O1  228   2.689   0.247   1.262  0.3069  0.7713  0.0327
   15TCq1    C1  229   2.815   0.220   1.209 -0.1740 -0.5516  0.1262
   15TCq1    O2  230   2.857   0.254   1.097 -0.1829 -0.3684  0.3168
   15TCq1    C2  231   2.891   0.163   1.318 -0.8111 -0.4774  0.0127
   15TCq1    C3  232   2.891   0.226   1.439  0.5765  0.2083 -0.0459
   15TCq1    C4  233   2.983   0.186   1.531 -0.1506 -0.6631 -0.0764
   15TCq1    C5  234   3.042   0.063   1.510 -0.0132 -0.0501  0.3055
   15TCq1    C6  235   3.043   0.002   1.390 -0.9031  0.8187 -0.2669
   15TCq1    C7  236   2.971   0.056   1.290  0.5782 -0.5690 -0.3257
   15TCq1    C8  237   3.164   4.657   1.369 -0.4323 -0.0092 -0.3693
   15TCq1    O4  238   3.254   4.668   1.451 -0.1188  0.6718  0.2438
   15TCq1    C9  239   3.010   0.260   1.652  0.1983  0.3079 -0.9299
   15TCq1    O5  240   2.928   0.352   1.681  0.7361 -0.3200 -0.1186
   15TCq1    O6  241   3.103   0.224   1.731  0.4789 -0.0603  0.2036
   15TCq1    H1  242   2.677   0.212   1.353 -0.9816 -0.4962 -0.6359
   15TCq1    H2  243   2.851   0.327   1.446 -0.5955 -0.0703 -2.5103
   15TCq1    H3  244   3.103   0.038   1.597  1.4621  2.7277  0.0899
   15TCq1    H4  245   2.968   0.022   1.187 -0.1538 -0.1540 -0.4415
   16MPD2     C  246   3.182   4.435   1.084  0.1019 -0.3435  0.7250
   16MPD2    C1  247   3.228   4.496   1.196 -0.4057 -0.2534  0.1892
   16MPD2    C2  248   3.341   4.452   1.257 -0.3149  0.5615 -0.3837
   16MPD2    C3  249   3.417   4.351   1.200 -0.1602 -0.6170 -0.0582
   16MPD2    C4  250   3.362   4.290   1.082 -0.5093 -0.2077 -1.0002
   16MPD2    C5  251   3.243   4.321   1.029 -0.1987 -0.1672 -0.5102
   16MPD2     H  252   3.373   4.499   1.349 -0.4455  1.1185 -0.6204
   16MPD2    H1  253   3.411   4.206   1.033 -1.7139 -1.1359 -0.6144
   16MPD2    H2  254   3.086   4.466   1.046  0.2508  0.8944  1.3644
   16MPD2    H3  255   3.204   4.271   0.942 -0.4009 -0.0538 -0.4853
   16MPD2     N  256   3.547   4.323   1.252  0.0841  0.1586  0.6229
   16MPD2    H5  257   3.583   4.365   1.337 -1.2505 -1.5260  2.0372
   16MPD2    N1  258   3.147   4.592   1.252 -0.3512 -0.1792  0.0706
   16MPD2    H7  259   3.061   4.605   1.199  0.0319 -0.5557 -0.6489
   17TMC1    C1  260   0.889   0.986  11.834  0.7772 -0.2492 -1.1171
   17TMC1    C2  261   0.794   1.041  11.909  0.8195  0.1315 -0.5019
   17TMC1    C3  262   0.719   0.958  11.983  0.6157  0.3624  0.2093
   17TMC1    C4  263   0.906   0.855  11.822 -0.4288 -0.2745 -0.0639
   17TMC1    C5  264   0.824   0.776  11.887  0.3140  0.2489 -0.1564
   17TMC1    C6  265   0.734   0.829  11.974  0.6547  0.0149  0.7068
   17TMC1     C  266   0.963   1.073  11.749  0.0486  0.4989 -0.2622
   17TMC1     O  267   0.964   1.188  11.784  0.1224 -0.4305  0.0178
   17TMC1     H  268   0.785   1.149  11.922 -0.2816 -0.0080 -0.0972
   17TMC1    H1  269   0.989   0.819  11.762  0.7325  1.7099  0.3351
   17TMC1    H2  270   0.663   0.769  12.029  1.1460 -0.5745  0.6967
   17TMC1    C7  271   0.811   0.634  11.854 -0.0742 -0.7666  0.2752
   17TMC1    C8  272   0.648   1.005  12.101 -0.0446 -0.3437 -0.3158
   17TMC1    O1  273   0.766   0.550  11.929  0.4864  0.3532 -0.9242
   17TMC1    O2  274   0.533   0.970  12.131 -0.5373 -0.3926 -0.0118
   17TMC1    O3  275   0.869   0.598  11.736  0.4090  0.6356  0.1016
   17TMC1    H3  276   0.882   0.663  11.664 -2.6319  0.1681 -0.8992
   17TMC1    O5  277   0.715   1.113  12.144 -0.3834 -0.4348  0.0058
   17TMC1    H5  278   0.813   1.111  12.145 -0.4143 -0.2934  2.0997
   18MPD2     C  279   1.092   1.222  11.510 -0.8106 -0.2119  0.3045
   18MPD2    C1  280   1.085   1.083  11.528 -0.0198 -0.1051 -0.5366
   18MPD2    C2  281   1.170   1.008  11.448 -0.2374  0.2219  0.3186
   18MPD2    C3  282   1.272   1.070  11.375 -0.3532 -0.7375 -0.0827
   18MPD2    C4  283   1.273   1.207  11.360  0.4233 -0.6880  0.2578
   18MPD2    C5  284   1.183   1.287  11.426 -0.5247 -0.2030 -0.0048
   18MPD2     H  285   1.167   0.900  11.457 -2.3723  0.2081 -0.6091
   18MPD2    H1  286   1.346   1.259  11.300  1.5869 -0.7905  1.5916
   18MPD2    H2  287   1.025   1.282  11.571 -0.9178  0.2621 -0.2785
   18MPD2    H3  288   1.173   1.392  11.401 -0.4526 -0.2442 -0.2130
   18MPD2     N  289   1.371   0.994  11.295 -0.0416 -0.3731 -0.6581
   18MPD2    H5  290   1.427   1.056  11.238 -0.5044  0.5004 -0.1826
   18MPD2    N1  291   1.008   1.015  11.627 -0.0743  0.3765 -0.0515
   18MPD2    H7  292   1.005   0.914  11.620 -0.8458  0.4699 -0.9625
   19TMC2    C1  293   2.703   1.245  14.271  0.3129  0.3931 -0.1327
   19TMC2    C2  294   2.626   1.318  14.359 -0.0279  0.0058 -0.0086
   19TMC2    C3  295   2.507   1.263  14.399 -0.6556 -0.5055  0.7224
   19TMC2    C4  296   2.671   1.125  14.222 -0.1825  0.3735 -0.0629
   19TMC2    C5  297   2.551   1.077  14.265 -0.1099  0.1978 -0.4472
   19TMC2    C6  298   2.468   1.142  14.354  0.6555 -0.0876 -0.2550
   19TMC2     C  299   2.833   1.299  14.238 -0.6572  0.9303 -0.6341
   19TMC2     O  300   2.834   1.420  14.216 -0.1716 -0.1936  0.5542
   19TMC2     H  301   2.661   1.411  14.402  0.4182 -0.6647  1.0737
   19TMC2    H1  302   2.730   1.061  14.158  2.3811  2.7279 -0.0738
   19TMC2    H2  303   2.383   1.091  14.398  0.0305  0.5501 -0.7274
   19TMC2    C7  304   2.491   0.982  14.179 -0.1008  0.0165  0.3661
   19TMC2    C8  305   2.441   1.337  14.489  0.0182 -0.1337  0.4724
   19TMC2    O1  306   2.557   0.916  14.102  0.0377  0.3620  0.0772
   19TMC2    O2  307   2.497   1.412  14.568 -0.6750 -0.2748 -0.1423
   19TMC2    O5  308   2.315   1.301  14.487  0.3714 -0.0052 -0.2817
   19TMC2    H5  309   2.295   1.238  14.414  1.5378 -2.1557  1.2476
   20MPD2     C  310   3.093   1.338  14.121 -0.2249  0.5236 -0.2138
   20MPD2    C1  311   3.060   1.219  14.185 -0.2627  0.3210  0.0194
   20MPD2    C2  312   3.160   1.127  14.211  0.1233 -0.2269 -0.4681
   20MPD2    C3  313   3.291   1.148  14.172  0.3217  0.2760  0.0393
   20MPD2    C4  314   3.317   1.272  14.111 -0.2837 -0.7250 -0.5096
   20MPD2    C5  315   3.221   1.363  14.092  0.0454 -0.6080 -0.1726
   20MPD2     H  316   3.150   1.032  14.262 -1.2039 -0.0443 -0.4005
   20MPD2    H1  317   3.413   1.315  14.089 -2.1019  3.3218 -0.4921
   20MPD2    H2  318   3.029   1.422  14.096 -2.0984 -1.2350 -1.3976
   20MPD2    H3  319   3.248   1.449  14.031  2.3442 -1.9574 -1.0372
   20MPD2     N  320   3.402   1.060  14.191 -0.1564 -0.7265 -0.0581
   20MPD2    H5  321   3.494   1.098  14.171  0.4742 -2.2297  0.0202
   20MPD2    N1  322   2.930   1.199  14.223  0.4394 -0.0359  0.7764
   20MPD2    H7  323   2.910   1.110  14.267 -1.5167  0.2581  0.4787
   21TMC2    C1  324   0.645   0.736  14.306 -0.1085 -0.2100 -0.6643
   21TMC2    C2  325   0.718   0.623  14.322 -0.1658  0.0480  0.5752
   21TMC2    C3  326   0.711   0.550  14.437  0.3202 -0.0236  0.2381
   21TMC2    C4  327   0.552   0.776  14.396  0.7213 -0.0507  0.6540
   21TMC2    C5  328   0.544   0.700  14.511 -0.4571  0.3170 -0.1100
   21TMC2    C6  329   0.625   0.590  14.537 -0.9073 -0.9622  0.3909
   21TMC2     C  330   0.654   0.807  14.183 -0.1152 -0.4201  0.3571
   21TMC2     O  331   0.701   0.749  14.087  0.4177  0.1139  0.7684
   21TMC2     H  332   0.789   0.584  14.250  0.1492 -1.4260  1.6945
   21TMC2    H1  333   0.486   0.859  14.374  2.1604  1.0304  0.4040
   21TMC2    H2  334   0.616   0.553  14.639  2.2358  0.0031  1.0256
   21TMC2    C7  335   0.526   0.778  14.636  0.4784  0.4142 -0.0416
   21TMC2    C8  336   0.798   0.438  14.451 -0.1675  0.2335 -1.0228
   21TMC2    O1  337   0.581   0.742  14.738 -0.6071  0.1608  0.2120
   21TMC2    O2  338   0.908   0.433  14.402  0.3590 -0.2506 -0.3781
   21TMC2    O5  339   0.733   0.328  14.494 -0.6505  0.2983  0.1155
   21TMC2    H5  340   0.641   0.345  14.522 -0.3978 -1.4383  2.0401
   22MPD2     C  341   0.703   1.263  14.421  0.5982 -0.5444  0.5319
   22MPD2    C1  342   0.761   1.135  14.445  0.2188  0.0157  0.6075
   22MPD2    C2  343   0.741   1.030  14.361  0.1335 -0.3566 -0.1457
   22MPD2    C3  344   0.655   1.049  14.249 -0.3209 -0.5152 -0.1832
   22MPD2    C4  345   0.609   1.170  14.214  0.1665 -0.5635 -0.3488
   22MPD2    C5  346   0.622   1.277  14.306 -0.0597  0.2993  0.0509
   22MPD2     H  347   0.778   0.930  14.385  0.3662 -0.4466 -0.8998
   22MPD2    H1  348   0.534   1.176  14.135  0.0104 -0.6291 -0.2053
   22MPD2    H2  349   0.693   1.339  14.497 -1.1123 -2.7111  2.4662
   22MPD2    H3  350   0.570   1.371  14.294 -1.3362 -0.3795  0.3234
   22MPD2     N  351   0.619   0.936  14.170 -0.6048 -0.2462 -0.4076
   22MPD2    H5  352   0.577   0.964  14.081  1.1030 -1.8361 -1.7246
   22MPD2    N1  353   0.817   1.095  14.560  0.0331 -0.4823  0.2991
   22MPD2    H7  354   0.843   0.997  14.564 -2.0164 -0.9095  2.8625
   23TMC2    C1  355   2.071   2.027  14.706 -0.5440 -0.1358 -0.4499
   23TMC2    C2  356   2.063   2.131  14.619 -0.2640  0.7063 -0.6971
   23TMC2    C3  357   1.950   2.150  14.545  0.3559 -0.0169  0.1968
   23TMC2    C4  358   1.964   1.939  14.716 -0.3952  0.0148  0.7747
   23TMC2    C5  359   1.854   1.962  14.640  0.0691 -0.0506 -0.1363
   23TMC2    C6  360   1.848   2.061  14.548 -0.4452  0.3694 -0.1153
   23TMC2     C  361   2.132   2.056  14.830  0.2110 -0.4439 -0.4299
   23TMC2     O  362   2.095   1.994  14.924  0.2448 -0.0132 -0.2170
   23TMC2     H  363   2.143   2.202  14.604  1.3047 -0.9853 -0.2236
   23TMC2    H1  364   1.975   1.856  14.784  0.7262  0.9664  1.7449
   23TMC2    H2  365   1.769   2.067  14.474 -1.9929  0.2925  1.5260
   23TMC2    C7  366   1.748   1.869  14.661  0.1495 -0.0021 -0.3825
   23TMC2    C8  367   1.958   2.247  14.439  0.5807  0.2176 -0.8620
   23TMC2    O1  368   1.771   1.754  14.698  0.2224 -0.4597 -0.1608
   23TMC2    O2  369   2.069   2.290  14.399 -0.5971 -0.3412  0.0187
   23TMC2    O5  370   1.840   2.297  14.413 -0.2728  0.5910 -0.4728
   23TMC2    H5  371   1.771   2.255  14.469  0.2892 -1.8937 -1.6240
   24MPD2     C  372   2.364   2.331  15.193 -0.7404  0.1880 -0.0182
   24MPD2    C1  373   2.309   2.200  15.195  0.4954  0.1766  0.1621
   24MPD2    C2  374   2.257   2.147  15.079  0.1541 -0.3021 -0.0448
   24MPD2    C3  375   2.262   2.215  14.959 -0.0213 -0.2361  0.1332
   24MPD2    C4  376   2.322   2.341  14.957 -0.1477  0.3286  0.4075
   24MPD2    C5  377   2.367   2.396  15.070 -0.2266 -0.1281  0.5139
   24MPD2     H  378   2.227   2.043  15.086  1.9277 -0.7657  0.7360
   24MPD2    H1  379   2.329   2.400  14.867  2.8393 -1.7170 -0.6731
   24MPD2    H2  380   2.413   2.371  15.281  0.3255  0.0596 -0.5541
   24MPD2    H3  381   2.423   2.489  15.071 -1.3333  0.5392  0.5568
   24MPD2     N  382   2.206   2.177  14.838 -0.0459 -0.3274  0.0868
   24MPD2    H5  383   2.203   2.250  14.767  1.0790  0.3005  0.6711
   24MPD2    N1  384   2.319   2.117  15.306 -0.2349  0.3281  0.3268
   24MPD2    H7  385   2.292   2.019  15.299 -0.9569  0.6014 -0.6241
   25TMC2    C1  386   1.145   3.983  11.315  0.4007  0.4838  0.0832
   25TMC2    C2  387   1.266   4.029  11.340  0.0163  0.1987  0.0733
   25TMC2    C3  388   1.284   4.127  11.439  0.1058 -0.0731  0.2448
   25TMC2    C4  389   1.043   4.016  11.397 -0.0222  0.0755 -0.1349
   25TMC2    C5  390   1.067   4.104  11.501 -0.1401  0.0155  0.4791
   25TMC2    C6  391   1.183   4.162  11.526  0.0934 -0.1251 -0.2410
   25TMC2     C  392   1.140   3.860  11.230  0.3984  0.0445  0.6138
   25TMC2     O  393   1.236   3.783  11.232  0.8068  0.7336  0.4731
   25TMC2     H  394   1.346   3.989  11.279  2.1282  2.2855  1.4714
   25TMC2    H1  395   0.953   3.957  11.388  1.3429 -1.9917 -0.4301
   25TMC2    H2  396   1.197   4.241  11.599  2.9132 -1.5796  0.7542
   25TMC2    C7  397   0.964   4.149  11.579 -1.0104 -0.9054 -0.8671
   25TMC2    C8  398   1.415   4.144  11.484 -0.6563 -0.2435  0.1437
   25TMC2    O1  399   0.990   4.227  11.669  0.2138 -0.4785  0.3027
   25TMC2    O2  400   1.499   4.067  11.444 -0.0360 -0.3409  0.2726
   25TMC2    O5  401   1.432   4.281  11.506  0.2731  0.0496 -0.2790
   25TMC2    H5  402   1.341   4.317  11.511  0.5808  0.7744  0.0346
   26MPD2     C  403   0.974   3.589  10.840  0.2506 -0.3988 -0.6017
   26MPD2    C1  404   0.872   3.603  10.935 -0.1771  1.0957 -0.1690
   26MPD2    C2  405   0.887   3.698  11.034  0.1281 -0.2257  0.1480
   26MPD2    C3  406   1.004   3.762  11.051 -0.5500  0.4109  0.3938
   26MPD2    C4  407   1.112   3.739  10.965 -0.9231 -0.0260 -0.0336
   26MPD2    C5  408   1.091   3.659  10.862  0.3351 -0.5683  0.7401
   26MPD2     H  409   0.805   3.729  11.097 -0.3657  1.5823 -1.3889
   26MPD2    H1  410   1.207   3.789  10.980  0.3790 -1.2267 -4.3498
   26MPD2    H2  411   0.971   3.512  10.764  0.4631 -0.4424 -0.5667
   26MPD2    H3  412   1.171   3.644  10.790  0.7715 -1.5384  1.4168
   26MPD2     N  413   1.019   3.838  11.167 -0.0726  0.5405 -0.5816
   26MPD2    H5  414   0.941   3.895  11.198 -0.2011 -0.6027  1.1949
   26MPD2    N1  415   0.751   3.530  10.907 -0.0120 -0.3976  0.6812
   26MPD2    H7  416   0.748   3.478  10.820  0.6167  3.1433 -1.4876
   27TMC2    C1  417   0.048   2.296  12.009 -0.5555 -0.0216 -0.2928
   27TMC2    C2  418   0.104   2.321  11.885 -0.5982  0.3598 -0.4569
   27TMC2    C3  419   0.242   2.326  11.895 -0.1730 -0.0391  0.2521
   27TMC2    C4  420   0.120   2.285  12.128 -0.3931  0.4093 -0.4801
   27TMC2    C5  421   0.255   2.299  12.128 -0.4075 -0.8303 -0.0682
   27TMC2    C6  422   0.321   2.315  12.011  0.9129 -0.0902 -0.2469
   27TMC2     C  423   4.642   2.309  12.013 -0.3112 -0.2088  0.4193
   27TMC2     O  424   4.590   2.334  11.905  1.0448 -1.0255  0.1759
   27TMC2     H  425   0.051   2.309  11.792  0.5419 -2.4941 -0.7324
   27TMC2    H1  426   0.069   2.272  12.223 -0.6875  1.8037 -0.4499
   27TMC2    H2  427   0.430   2.314  12.005  0.9959  0.7778  1.2411
   27TMC2    C7  428   0.329   2.270  12.245  0.6270  0.6106 -0.2874
   27TMC2    C8  429   0.300   2.350  11.769 -0.7201 -0.1186 -0.8298
   27TMC2    O1  430   0.266   2.216  12.339 -0.1606 -0.0923  0.1647
   27TMC2    O2  431   0.233   2.400  11.684 -0.1838  0.1194 -0.0553
   27TMC2    O5  432   0.385   2.245  11.746  0.1940  0.0333  0.0102
   27TMC2    H5  433   0.406   2.199  11.830  3.7715  2.2098  0.2969
   28MPD2     C  434   4.170   2.287  12.220 -0.2112  0.3349  0.7475
   28MPD2    C1  435   4.249   2.200  12.290  0.5157  0.6474 -0.6583
   28MPD2    C2  436   4.386   2.203  12.261 -0.9482 -0.0671 -0.7396
   28MPD2    C3  437   4.438   2.264  12.149 -0.2845  1.2637 -0.3207
   28MPD2    C4  438   4.355   2.336  12.067 -0.0698 -0.0859  0.3087
   28MPD2    C5  439   4.225   2.348  12.104 -0.2066 -0.0455 -0.2387
   28MPD2     H  440   4.460   2.153  12.321 -0.7160  0.5645 -0.5031
   28MPD2    H1  441   4.382   2.377  11.971 -0.0572 -0.4333  0.1635
   28MPD2    H2  442   4.064   2.306  12.235 -0.3549  0.9856 -1.0657
   28MPD2    H3  443   4.154   2.393  12.036  1.8543  0.8163 -1.8114
   28MPD2     N  444   4.579   2.256  12.127 -0.5427  0.0499  0.3672
   28MPD2    H5  445   4.624   2.187  12.187 -0.3738  1.5865  1.9978
   28MPD2    N1  446   4.191   2.122  12.392  0.1316 -0.5114 -0.3327
   28MPD2    H7  447   4.092   2.142  12.401  0.2260  0.2354 -0.9520
   29TMC2    C1  448   3.955   4.398  13.847 -0.0991  0.5289 -0.5968
   29TMC2    C2  449   3.818   4.367  13.863 -0.2077  0.4061 -0.3037
   29TMC2    C3  450   3.745   4.460  13.936  0.5024  0.3282 -0.5937
   29TMC2    C4  451   4.010   4.504  13.913  0.1039  0.7249  0.2786
   29TMC2    C5  452   3.927   4.594  13.973 -0.5189  0.6234  0.5974
   29TMC2    C6  453   3.792   4.580  13.989 -0.0740  0.0514 -0.3292
   29TMC2     C  454   4.043   4.303  13.780 -0.0697 -0.4466  0.2103
   29TMC2     O  455   4.150   4.279  13.835  0.6074 -0.4182  0.4107
   29TMC2     H  456   3.770   4.292  13.801 -0.2113  1.0255 -1.0489
   29TMC2    H1  457   4.115   4.526  13.897 -0.1210  0.1239 -2.0934
   29TMC2    H2  458   3.735   4.647  14.052  2.3428  1.1909  0.6352
   29TMC2    C7  459   3.997   4.703  14.039 -0.0594 -0.4549  0.1382
   29TMC2    C8  460   3.608   4.419  13.942  0.6006  0.5607  0.1199
   29TMC2    O1  461   4.114   4.678  14.073 -0.1183 -0.2269  0.4400
   29TMC2    O2  462   3.554   4.345  13.861 -0.4481 -0.1348  0.2931
   29TMC2    O5  463   3.548   4.489  14.037 -0.2009  0.0411 -0.0013
   29TMC2    H5  464   3.613   4.528  14.099 -0.2842  0.6509 -0.2998
   30MPD2     C  465   4.076   3.886  13.488  0.2217 -0.6789  0.8650
   30MPD2    C1  466   4.161   3.926  13.590  0.3113  0.8651 -0.4599
   30MPD2    C2  467   4.126   4.043  13.660  0.2631  0.1734  0.5495
   30MPD2    C3  468   4.023   4.128  13.614 -0.8470 -0.4449 -0.0909
   30MPD2    C4  469   3.949   4.089  13.501 -0.7400 -1.6028 -0.2850
   30MPD2    C5  470   3.979   3.971  13.438 -0.2195 -0.0077 -0.2121
   30MPD2     H  471   4.191   4.064  13.745  0.6534  2.2764 -0.2600
   30MPD2    H1  472   3.868   4.152  13.468  0.6110  0.3857  0.1863
   30MPD2    H2  473   4.078   3.789  13.442 -0.4668 -1.4919  2.5360
   30MPD2    H3  474   3.922   3.944  13.350 -0.6673 -0.3734  0.1895
   30MPD2     N  475   3.978   4.247  13.679 -0.0608 -0.3973 -0.3544
   30MPD2    H5  476   3.906   4.308  13.642 -0.2252  0.5825  1.6134
   30MPD2    N1  477   4.264   3.831  13.616 -0.1990  0.4201  0.0880
   30MPD2    H7  478   4.262   3.743  13.565 -0.0518  0.2292  0.4061
   31TMC2    C1  479   1.956   2.865  15.622  0.5412 -0.5517 -0.4335
   31TMC2    C2  480   1.828   2.890  15.667 -0.3485  0.8631 -0.3244
   31TMC2    C3  481   1.805   2.883  15.798 -0.0969 -0.1044  0.1126
   31TMC2    C4  482   2.053   2.829  15.708  0.0230  0.3477 -0.3982
   31TMC2    C5  483   2.022   2.821  15.836 -0.2719 -0.0266 -0.0243
   31TMC2    C6  484   1.898   2.862  15.887 -0.1518 -0.3191 -0.7656
   31TMC2     C  485   1.982   2.907  15.490  0.0413 -0.1077 -0.2357
   31TMC2     O  486   1.914   2.991  15.432 -0.7334 -0.4424 -0.4592
   31TMC2     H  487   1.749   2.926  15.604 -1.7969 -2.6197 -0.5026
   31TMC2    H1  488   2.146   2.792  15.667  1.2683  1.5867  1.3411
   31TMC2    H2  489   1.870   2.854  15.992  1.0863 -0.5963 -0.4466
   31TMC2    C7  490   2.117   2.791  15.935  0.2404  0.6304  0.2628
   31TMC2    C8  491   1.679   2.826  15.845 -0.4310  0.0634  0.1131
   31TMC2    O1  492   2.174   2.679  15.940 -0.0502  0.5463  0.0513
   31TMC2    O2  493   1.676   2.728  15.919  0.6521 -0.3551 -0.8382
   31TMC2    O5  494   1.579   2.876  15.782 -0.3560 -0.0803  0.7641
   31TMC2    H5  495   1.607   2.963  15.745 -0.5549  0.1777  1.2217
   32MPD2     C  496   2.193   2.804  15.040  0.1061  0.3456 -0.4066
   32MPD2    C1  497   2.129   2.918  15.082  0.2510  0.6408  0.0929
   32MPD2    C2  498   2.086   2.923  15.207 -0.0177  0.3545  0.1232
   32MPD2    C3  499   2.123   2.827  15.301  0.1354  0.1570 -0.2077
   32MPD2    C4  500   2.191   2.721  15.254 -0.4483 -0.0505  0.3582
   32MPD2    C5  501   2.222   2.709  15.127 -0.1840  0.2405 -0.3336
   32MPD2     H  502   2.037   3.014  15.237  0.5615  0.7401 -0.1055
   32MPD2    H1  503   2.225   2.644  15.322  1.8278  1.8078  1.3135
   32MPD2    H2  504   2.227   2.789  14.938 -2.1318  3.0685 -1.5547
   32MPD2    H3  505   2.277   2.624  15.087  3.0032  2.4562 -0.6283
   32MPD2     N  506   2.080   2.828  15.443  0.8561 -0.1352  1.3331
   32MPD2    H5  507   2.115   2.751  15.499  1.8385  0.7026  1.8583
   32MPD2    N1  508   2.111   3.024  14.987 -0.6515 -0.6115  0.1008
   32MPD2    H7  509   2.052   3.100  15.019 -1.8761 -0.9505 -1.3697
   33TMC2    C1  510   1.353   1.247  10.374 -0.2757  0.5685  0.5609
   33TMC2    C2  511   1.219   1.261  10.398  0.5838  0.4917  0.5584
   33TMC2    C3  512   1.157   1.354  10.326  0.5297  0.3665  0.3653
   33TMC2    C4  513   1.420   1.321  10.274  0.0311 -0.2954 -0.0975
   33TMC2    C5  514   1.347   1.418  10.212  0.2157  0.3160  0.7189
   33TMC2    C6  515   1.219   1.431  10.233  0.3217 -0.4338 -0.0499
   33TMC2     C  516   1.429   1.162  10.464  1.2370 -0.6518 -0.3280
   33TMC2     O  517   1.372   1.120  10.568 -0.9854  0.0013 -0.2594
   33TMC2     H  518   1.164   1.205  10.472  1.9158  0.2377  1.3640
   33TMC2    H1  519   1.528   1.332  10.276  0.3379 -3.0355 -1.2601
   33TMC2    H2  520   1.158   1.505  10.183  0.3660 -0.3250  0.0570
   33TMC2    C7  521   1.426   1.521  10.150 -0.5062 -0.2299  0.5116
   33TMC2    C8  522   1.024   1.379  10.356  0.3794 -0.0884  0.6589
   33TMC2    O1  523   1.535   1.488  10.111 -0.5229 -0.1008  0.3994
   33TMC2    O2  524   0.939   1.398  10.267  0.3134 -0.0416  0.2946
   33TMC2    O5  525   1.016   1.415  10.486  0.1074  0.0868  0.0298
   33TMC2    H5  526   1.107   1.429  10.517 -0.1286  1.4170  0.0951
   34MPD2     C  527   1.831   0.863  10.595 -0.5060 -0.2044 -0.2526
   34MPD2    C1  528   1.716   0.892  10.662  0.6438  0.5120 -0.2794
   34MPD2    C2  529   1.619   0.972  10.605 -0.0828  0.1657  0.9404
   34MPD2    C3  530   1.646   1.034  10.484  0.2168  0.2290  0.4603
   34MPD2    C4  531   1.769   1.015  10.423 -0.6364  0.0503 -0.3001
   34MPD2    C5  532   1.860   0.927  10.477 -0.6262 -0.0099  0.5788
   34MPD2     H  533   1.518   0.963  10.644 -1.3764 -2.6540 -3.0257
   34MPD2    H1  534   1.783   1.075  10.334  2.8208 -0.8576 -0.3760
   34MPD2    H2  535   1.905   0.801  10.644 -0.5890  1.3035  1.7653
   34MPD2    H3  536   1.951   0.916  10.418 -1.0029  1.8981 -0.3706
   34MPD2     N  537   1.559   1.132  10.424  0.8874  0.4569 -0.5695
   34MPD2    H5  538   1.590   1.186  10.345  1.1012  0.8071 -0.2445
   34MPD2    N1  539   1.696   0.831  10.786  0.2381  0.1638  0.2415
   34MPD2    H7  540   1.757   0.755  10.813  1.5234  0.7482 -1.0191
   35TMC2    C1  541   3.144   2.201  11.394  0.2562  0.0739  0.1555
   35TMC2    C2  542   3.034   2.209  11.311 -0.2929 -0.2525 -0.0106
   35TMC2    C3  543   2.960   2.090  11.305  0.1749 -0.2568 -0.6957
   35TMC2    C4  544   3.186   2.085  11.452 -0.8183  0.6249  0.0647
   35TMC2    C5  545   3.106   1.977  11.444 -0.3894  0.0916  0.1684
   35TMC2    C6  546   2.991   1.977  11.377  0.4709 -0.3818 -0.0009
   35TMC2     C  547   3.234   2.314  11.388 -0.2237  0.3344 -0.0139
   35TMC2     O  548   3.201   2.408  11.318  0.3344 -0.0952 -0.2882
   35TMC2     H  549   2.998   2.308  11.282  1.8483  1.5556  3.5463
   35TMC2    H1  550   3.277   2.081  11.511  0.6703 -2.1260 -2.4109
   35TMC2    H2  551   2.924   1.892  11.364  0.7553 -0.3825 -1.4501
   35TMC2    C7  552   3.145   1.854  11.519  0.3550 -0.1079  0.5476
   35TMC2    C8  553   2.855   2.083  11.205  0.2058 -0.8470 -0.4736
   35TMC2    O1  554   3.056   1.770  11.533 -0.0568 -0.2985 -0.0468
   35TMC2    O2  555   2.783   1.985  11.184 -0.3670  0.0721  0.4845
   35TMC2    O5  556   2.843   2.200  11.147  0.0806 -0.9637  0.0927
   35TMC2    H5  557   2.919   2.258  11.169  0.1791 -0.9640 -0.2554
   36MPD2     C  558   3.627   2.607  11.578 -0.2995  0.5905 -0.3654
   36MPD2    C1  559   3.629   2.484  11.636 -0.3589 -0.2795  0.0023
   36MPD2    C2  560   3.531   2.391  11.594  0.3868  0.9981  0.3489
   36MPD2    C3  561   3.435   2.412  11.498 -0.6799  0.1138 -0.4510
   36MPD2    C4  562   3.443   2.534  11.440  0.3028  0.1799 -0.6586
   36MPD2    C5  563   3.531   2.634  11.479  0.3033  0.4341  0.0523
   36MPD2     H  564   3.529   2.294  11.642 -0.7693  1.1108  0.5366
   36MPD2    H1  565   3.364   2.564  11.371  1.6258 -0.1410 -2.3204
   36MPD2    H2  566   3.700   2.679  11.613 -0.2449  0.9484 -1.1927
   36MPD2    H3  567   3.511   2.731  11.433  1.1211  1.6165  2.1907
   36MPD2     N  568   3.341   2.310  11.473  0.1268  0.6921  0.4056
   36MPD2    H5  569   3.359   2.223  11.522 -1.5783  0.0354 -0.1424
   36MPD2    N1  570   3.727   2.456  11.735  0.6186  0.0943 -0.2693
   36MPD2    H7  571   3.770   2.528  11.792 -2.8146  1.1263  0.9851
   37TMC2    C1  572   1.819   1.991  11.835  0.0749 -0.0759 -0.2586
   37TMC2    C2  573   1.928   1.909  11.846 -0.0185  0.3950 -0.0787
   37TMC2    C3  574   2.000   1.893  11.734  0.1964  0.0542 -0.0635
   37TMC2    C4  575   1.785   2.062  11.721  0.2151  0.0549  0.6327
   37TMC2    C5  576   1.865   2.034  11.614  0.1440 -0.0609 -0.5823
   37TMC2    C6  577   1.978   1.956  11.617  0.6102  0.1351 -0.0421
   37TMC2     C  578   1.749   2.033  11.955 -0.1164 -0.1860 -0.2346
   37TMC2     O  579   1.662   2.116  11.932  0.3667 -0.3335  0.2506
   37TMC2     H  580   1.971   1.875  11.939  0.1050 -0.4426 -0.4321
   37TMC2    H1  581   1.702   2.131  11.717  1.2045  1.2486  0.6450
   37TMC2    H2  582   2.053   1.956  11.539  1.6118  1.8743  0.9193
   37TMC2    C7  583   1.834   2.104  11.490  0.5611  0.5220 -0.1438
   37TMC2    C8  584   2.114   1.812  11.741 -0.4820 -0.2805 -0.1768
   37TMC2    O1  585   1.742   2.183  11.500 -0.2970 -0.3759  0.2201
   37TMC2    O2  586   2.161   1.788  11.849 -0.5860 -0.6291  0.4177
   37TMC2    O5  587   2.108   1.728  11.640  0.2291  0.2020 -0.3709
   37TMC2    H5  588   2.032   1.736  11.579 -0.5774  2.9561  1.0021
   38MPD2     C  589   1.595   2.012  12.447  0.9204  0.7866  0.0211
   38MPD2    C1  590   1.696   1.922  12.428 -0.4753  0.8170 -0.2270
   38MPD2    C2  591   1.755   1.910  12.307 -0.3905  1.2142  0.7377
   38MPD2    C3  592   1.713   1.986  12.196  0.4688 -0.2850 -0.4067
   38MPD2    C4  593   1.609   2.070  12.212  0.6998 -0.5856  0.4668
   38MPD2    C5  594   1.550   2.086  12.340 -0.6484 -0.0439  0.5587
   38MPD2     H  595   1.843   1.851  12.284 -1.5050 -0.4861  0.8961
   38MPD2    H1  596   1.575   2.144  12.141  1.3326 -0.1476  0.6201
   38MPD2    H2  597   1.559   2.025  12.548  1.4497  0.6259  0.2298
   38MPD2    H3  598   1.480   2.167  12.352  0.6953  1.0287  1.1522
   38MPD2     N  599   1.780   1.963  12.070  0.4157  0.4881 -0.2513
   38MPD2    H5  600   1.850   1.889  12.061 -0.2188  0.2196 -2.9200
   38MPD2    N1  601   1.763   1.850  12.531 -0.2791 -0.0962  0.5119
   38MPD2    H7  602   1.841   1.796  12.496  1.3722  3.5485 -1.3059
   39TMC2    C1  603   4.349   4.308   1.655  0.2916 -0.4172  0.4010
   39TMC2    C2  604   4.462   4.299   1.587 -0.7194  0.7776 -0.6831
   39TMC2    C3  605   4.546   4.404   1.595 -0.6524  0.1339 -0.4076
   39TMC2    C4  606   4.324   4.413   1.740  0.2335 -0.2296  0.0031
   39TMC2    C5  607   4.409   4.518   1.740  1.1908  0.0637 -0.5607
   39TMC2    C6  608   4.525   4.517   1.673  0.1822 -0.3823  0.1345
   39TMC2     C  609   4.240   4.209   1.644  0.6297 -0.8655  0.2172
   39TMC2     O  610   4.124   4.256   1.651 -0.5064 -0.3267 -0.3762
   39TMC2     H  611   4.483   4.222   1.513 -3.2302 -0.1239 -0.4728
   39TMC2    H1  612   4.237   4.414   1.805 -0.9741  1.2824 -1.6272
   39TMC2    H2  613   4.595   4.599   1.690  0.3906 -0.6922  0.7653
   39TMC2    C7  614   4.399   4.601   1.861  0.0614  0.4846  0.2634
   39TMC2    C8  615   4.610   4.419   1.471 -0.2378 -0.2977  0.1652
   39TMC2    O1  616   4.346   4.556   1.959 -0.0244  0.0921  0.3136
   39TMC2    O2  617   4.571   4.367   1.365 -0.2078 -0.2710 -0.1865
   39TMC2    O5  618   0.005   4.449   1.488  0.2465  0.3013  0.0418
   39TMC2    H5  619   0.017   4.465   1.584 -2.4956  0.2313  0.3956
   40MPD2     C  620   4.259   3.841   1.628 -0.2608 -0.6287  1.4343
   40MPD2    C1  621   4.202   3.967   1.602 -0.7476 -0.3726  0.0581
   40MPD2    C2  622   4.070   3.982   1.561  0.5087  0.0081 -0.5578
   40MPD2    C3  623   3.995   3.870   1.534  0.0871 -0.3683  0.8517
   40MPD2    C4  624   4.049   3.749   1.563  0.4464  0.1658 -0.5161
   40MPD2    C5  625   4.179   3.732   1.599 -0.7242 -0.6001  0.4872
   40MPD2     H  626   4.027   4.078   1.537 -1.4376 -1.0703 -1.4256
   40MPD2    H1  627   4.002   3.660   1.523  1.9789 -0.0576 -1.8351
   40MPD2    H2  628   4.359   3.819   1.663 -0.1718 -1.2091  0.8105
   40MPD2    H3  629   4.219   3.632   1.608  1.5724  0.2344 -0.2246
   40MPD2     N  630   3.866   3.870   1.468 -0.1611 -0.0810 -0.1487
   40MPD2    H5  631   3.834   3.784   1.424 -1.5529 -0.5729  1.8072
   40MPD2    N1  632   4.287   4.077   1.622  0.0680 -0.7444  0.4049
   40MPD2    H7  633   4.385   4.063   1.642  1.1159  2.4393 -2.5436
   41TMC2    C1  634   2.765   2.379  13.314  0.2981  0.2380 -1.2480
   41TMC2    C2  635   2.652   2.455  13.300  0.6762 -0.0252  0.0078
   41TMC2    C3  636   2.654   2.551  13.205  0.5835 -0.4210 -1.1348
   41TMC2    C4  637   2.877   2.408  13.242  0.0188 -0.1854 -0.2912
   41TMC2    C5  638   2.872   2.504  13.139 -0.1070  0.5525  0.3741
   41TMC2    C6  639   2.762   2.580  13.123 -0.3629  0.3311 -0.3146
   41TMC2     C  640   2.793   2.309  13.436  0.2102  0.0065  0.0614
   41TMC2     O  641   2.902   2.274  13.470 -0.9959 -0.3244  0.3185
   41TMC2     H  642   2.554   2.431  13.341  0.8504  0.1898  0.5459
   41TMC2    H1  643   2.964   2.347  13.263  0.3756  0.6089  0.5013
   41TMC2    H2  644   2.751   2.644  13.037  0.7048 -0.1695 -0.8298
   41TMC2    C7  645   2.999   2.564  13.096  0.2068  0.0779 -0.3780
   41TMC2    C8  646   2.538   2.631  13.199 -0.2088  0.8935 -0.5494
   41TMC2    O1  647   3.001   2.684  13.091  0.1819 -0.1862 -0.4124
   41TMC2    O2  648   2.424   2.589  13.220 -0.3890 -0.0562  0.9299
   41TMC2    O5  649   2.562   2.753  13.147  0.3235 -0.3558 -0.2584
   41TMC2    H5  650   2.651   2.795  13.153  0.2211 -0.2491  0.5954
   42MPD2     C  651   2.758   2.188  13.710 -0.0945 -0.4570  0.3790
   42MPD2    C1  652   2.672   2.282  13.660 -0.6870 -0.5223 -0.2127
   42MPD2    C2  653   2.563   2.332  13.734  0.6101  0.0281 -0.1176
   42MPD2    C3  654   2.562   2.302  13.868 -0.3058 -0.6761  0.1394
   42MPD2    C4  655   2.670   2.225  13.922  0.5527  0.7173  0.0958
   42MPD2    C5  656   2.755   2.158  13.843  0.4520 -0.0737  0.0369
   42MPD2     H  657   2.494   2.395  13.679  0.1218 -0.9690 -0.6533
   42MPD2    H1  658   2.671   2.189  14.025  2.1334  1.3087  0.2814
   42MPD2    H2  659   2.829   2.137  13.647 -1.0792 -0.2461 -0.8970
   42MPD2    H3  660   2.829   2.094  13.891 -2.7456 -4.1597 -0.4679
   42MPD2     N  661   2.468   2.342  13.960 -0.3288 -0.1821  0.3629
   42MPD2    H5  662   2.489   2.322  14.057 -1.0632  0.1238  0.5895
   42MPD2    N1  663   2.680   2.325  13.525  0.3376 -0.2295 -0.0794
   42MPD2    H7  664   2.599   2.368  13.482 -0.5267 -0.5600  1.2488
   43TMC2    C1  665   4.135   0.483   0.984 -0.3143 -0.0634 -1.1079
   43TMC2    C2  666   4.116   0.349   1.021 -0.6151 -0.0044  0.0448
   43TMC2    C3  667   4.078   0.320   1.148 -0.0249 -0.0482 -0.7300
   43TMC2    C4  668   4.106   0.588   1.072  0.8302 -0.0718 -0.1189
   43TMC2    C5  669   4.067   0.551   1.198 -0.0737  0.0451  0.4290
   43TMC2    C6  670   4.056   0.415   1.238 -0.1559  0.5558  1.0041
   43TMC2     C  671   4.189   0.508   0.852 -0.3518 -0.2799  0.0255
   43TMC2     O  672   4.245   0.415   0.798 -0.6935 -0.5182 -0.0608
   43TMC2     H  673   4.106   0.272   0.945  1.5447  1.7157 -1.9633
   43TMC2    H1  674   4.131   0.691   1.047 -1.6777 -0.1285 -2.8018
   43TMC2    H2  675   4.028   0.390   1.340  1.5276 -0.4666  1.2074
   43TMC2    C7  676   4.053   0.662   1.295  0.1748 -0.3266  0.1302
   43TMC2    C8  677   4.044   0.185   1.181 -0.2889  0.4501 -0.5139
   43TMC2    O1  678   4.049   0.773   1.248  0.8756 -0.8538  0.2609
   43TMC2    O2  679   3.947   0.156   1.248 -0.3417 -0.1400 -0.6450
   43TMC2    O5  680   4.156   0.117   1.166  0.6741 -0.0883  0.0387
   43TMC2    H5  681   4.230   0.175   1.136  0.2369 -0.2471 -1.3133
   44MPD2     C  682   4.286   0.813   0.440  0.0871  0.0348 -0.5254
   44MPD2    C1  683   4.343   0.693   0.483 -0.1073  0.1624 -0.3825
   44MPD2    C2  684   4.292   0.630   0.594 -0.5977  0.0733 -0.3895
   44MPD2    C3  685   4.205   0.684   0.677  0.2053  0.2294  0.9044
   44MPD2    C4  686   4.154   0.806   0.633  0.4926 -0.5723  0.2705
   44MPD2    C5  687   4.193   0.873   0.522 -0.7449  0.1705  0.4136
   44MPD2     H  688   4.333   0.532   0.615  0.3217  0.8627  1.4747
   44MPD2    H1  689   4.093   0.863   0.702  0.5213  0.4614 -0.5451
   44MPD2    H2  690   4.324   0.863   0.351  0.4661 -0.1808 -0.4865
   44MPD2    H3  691   4.150   0.968   0.494 -0.8380 -0.2363 -0.8367
   44MPD2     N  692   4.157   0.629   0.801  0.5218 -0.6196  0.7618
   44MPD2    H5  693   4.106   0.687   0.866  0.3430 -0.2363  0.2844
   44MPD2    N1  694   4.445   0.626   0.414 -0.3329 -0.4713  0.4790
   44MPD2    H7  695   4.494   0.557   0.470 -1.7457 -0.7584  1.3495
   45TMC2    C1  696   4.545   1.386   9.939 -0.4658 -1.2747 -0.1295
   45TMC2    C2  697   4.567   1.320  10.061 -0.0538  0.3303 -0.0368
   45TMC2    C3  698   4.634   1.387  10.161 -0.2735 -0.5121  0.3215
   45TMC2    C4  699   4.583   1.515   9.914  1.0283  0.1043  0.2529
   45TMC2    C5  700   4.651   1.577  10.020 -0.0658  1.3576 -0.4781
   45TMC2    C6  701   4.661   1.521  10.144 -0.0265 -0.1218 -0.0673
   45TMC2     C  702   4.483   1.309   9.833 -0.1886  0.3931 -0.3774
   45TMC2     O  703   4.510   1.190   9.837  0.2869 -0.2170 -0.3687
   45TMC2     H  704   4.543   1.215  10.073 -0.3898  0.5261  1.0074
   45TMC2    H1  705   4.571   1.561   9.817 -0.0117  1.4846  1.0219
   45TMC2    H2  706   4.702   1.580  10.225  0.4759  1.4652 -1.4820
   45TMC2    C7  707   4.704   1.714  10.011  0.3723 -0.4320  0.3132
   45TMC2    C8  708   4.634   1.335  10.296  0.6108  0.1001  0.5741
   45TMC2    O1  709   4.716   1.779  10.117  0.0248  0.3019 -0.6240
   45TMC2    O2  710   4.569   1.388  10.391  0.3940 -0.3429 -0.1692
   45TMC2    O5  711   4.666   1.204  10.287  0.0346 -0.5109  0.7892
   45TMC2    H5  712   4.698   1.185  10.197 -0.6575 -3.0186  1.0641
   46MPD2     C  713   4.301   1.189   9.643  0.2896  0.2555 -0.3796
   46MPD2    C1  714   4.313   1.325   9.653  0.3962  0.0307 -0.5978
   46MPD2    C2  715   4.257   1.413   9.566  0.6148 -0.1198  0.4161
   46MPD2    C3  716   4.172   1.370   9.463 -0.2318  0.0154  0.5084
   46MPD2    C4  717   4.152   1.234   9.454 -0.3792 -0.0053 -0.4122
   46MPD2    C5  718   4.212   1.145   9.546 -0.5442 -0.0384 -0.1991
   46MPD2     H  719   4.281   1.518   9.572  0.7700 -0.0084 -2.1166
   46MPD2    H1  720   4.095   1.186   9.376 -0.4331 -0.4805 -0.0765
   46MPD2    H2  721   4.333   1.117   9.718 -2.1550  1.5996  1.9264
   46MPD2    H3  722   4.191   1.039   9.549 -0.1971 -0.0374  2.0784
   46MPD2     N  723   4.104   1.459   9.377  0.2121 -0.0548 -0.6604
   46MPD2    H5  724   4.134   1.556   9.386  2.3273 -0.7031 -0.7026
   46MPD2    N1  725   4.406   1.381   9.747  0.1960  0.0490 -0.4035
   46MPD2    H7  726   4.397   1.481   9.761 -0.3686 -0.3097  1.7523
   47TMC2    C1  727   2.442   3.814   9.298 -0.3117  0.0659  0.2378
   47TMC2    C2  728   2.482   3.909   9.215  0.1349  0.6372 -0.3044
   47TMC2    C3  729   2.416   3.929   9.098  0.0786  0.1985 -0.1363
   47TMC2    C4  730   2.342   3.725   9.263  0.2545 -0.5226 -0.8114
   47TMC2    C5  731   2.279   3.748   9.140  0.5767 -0.6751 -0.3276
   47TMC2    C6  732   2.311   3.855   9.065  0.8248  0.5432  0.0429
   47TMC2     C  733   2.533   3.777   9.398 -0.3302  0.4121 -0.8360
   47TMC2     O  734   2.613   3.868   9.418 -0.0278  0.3715 -0.3205
   47TMC2     H  735   2.555   3.986   9.237  1.2126 -0.4424 -0.1357
   47TMC2    H1  736   2.295   3.654   9.330  1.1081 -1.1333 -0.8556
   47TMC2    H2  737   2.250   3.875   8.977  1.4281  1.6916 -0.1218
   47TMC2    C7  738   2.148   3.680   9.115 -0.4264  0.1240  1.1551
   47TMC2    C8  739   2.474   3.999   8.991 -0.5441  0.0376  0.0847
   47TMC2    O1  740   2.061   3.752   9.063  0.1803  0.1674  0.8184
   47TMC2    O2  741   2.453   3.981   8.873  0.0315 -0.2020 -0.1341
   47TMC2    O5  742   2.465   4.121   9.045  0.4944  0.0292  0.8002
   47TMC2    H5  743   2.442   4.111   9.140 -0.2610 -0.5596  0.5567
   48MPD2     C  744   2.743   3.641   9.572 -0.4888  0.0380  0.0968
   48MPD2    C1  745   2.641   3.570   9.504 -0.6908  0.3940  0.8115
   48MPD2    C2  746   2.634   3.433   9.512 -0.2352  0.1425 -0.2181
   48MPD2    C3  747   2.724   3.361   9.582  0.2664 -0.5758  0.7843
   48MPD2    C4  748   2.826   3.436   9.637 -0.2756 -0.1550 -0.1470
   48MPD2    C5  749   2.832   3.571   9.646  0.2315  0.7814 -0.0645
   48MPD2     H  750   2.550   3.378   9.470  0.7977 -1.3842 -0.2561
   48MPD2    H1  751   2.899   3.384   9.698 -2.5970 -2.7495  0.4368
   48MPD2    H2  752   2.755   3.749   9.570  3.9744 -0.4472  1.4297
   48MPD2    H3  753   2.906   3.635   9.694  1.0148  1.3046 -1.9980
   48MPD2     N  754   2.717   3.217   9.580 -0.2383 -0.0001 -0.9695
   48MPD2    H5  755   2.628   3.178   9.549 -0.5774  0.3053 -0.3941
   48MPD2    N1  756   2.535   3.639   9.436  0.4467 -0.0792  0.1449
   48MPD2    H7  757   2.466   3.574   9.400  3.6327 -3.2489 -0.2508
   49TMC2    C1  758   0.506   4.574  10.146  0.3018 -1.0092 -0.1961
   49TMC2    C2  759   0.467   4.447  10.114 -0.1375 -1.7569  0.6541
   49TMC2    C3  760   0.474   4.345  10.203  0.7392  0.1358 -0.5650
   49TMC2    C4  761   0.561   4.590  10.270 -0.2971 -0.1225  0.2355
   49TMC2    C5  762   0.556   4.487  10.362 -0.3317  0.3412  0.4962
   49TMC2    C6  763   0.517   4.362  10.332  0.2659  0.2342  0.0841
   49TMC2     C  764   0.518   4.672  10.045 -0.4861 -0.0194 -0.7050
   49TMC2     O  765   0.525   4.629   9.930 -0.1567 -0.3316 -0.2817
   49TMC2     H  766   0.441   4.414  10.014  1.7153 -2.8346  0.5443
   49TMC2    H1  767   0.601   4.687  10.294  3.4402 -1.7374  0.4949
   49TMC2    H2  768   0.497   4.284  10.406 -0.5413 -0.4284 -0.8281
   49TMC2    C7  769   0.598   4.505  10.498 -0.7233 -0.3160  0.2695
   49TMC2    C8  770   0.480   4.213  10.145 -0.4402 -1.1656 -0.1419
   49TMC2    O1  771   0.627   4.404  10.559  0.0710  0.2394 -0.1476
   49TMC2    O2  772   0.404   4.171  10.056  0.3168 -0.0220 -0.3273
   49TMC2    O5  773   0.580   4.137  10.199  0.1573 -0.1544 -0.0367
   49TMC2    H5  774   0.635   4.173  10.272  0.4897  0.2058 -0.4608
   50MPD2     C  775   0.582   0.193   9.901  0.1925 -0.8346 -1.0158
   50MPD2    C1  776   0.549   0.185  10.032 -0.2561  0.0676 -0.7528
   50MPD2    C2  777   0.547   0.302  10.104  0.3055  0.1092  0.3226
   50MPD2    C3  778   0.582   0.424  10.044 -0.0305  0.2884 -0.3858
   50MPD2    C4  779   0.615   0.424   9.910  0.3124 -0.6371  0.2002
   50MPD2    C5  780   0.623   0.309   9.840  0.3100 -0.7234  0.7408
   50MPD2     H  781   0.518   0.301  10.208 -0.6741 -0.5191  0.0426
   50MPD2    H1  782   0.640   0.518   9.862 -3.3615  0.0699 -0.3707
   50MPD2    H2  783   0.598   0.101   9.845  2.4168 -0.8668 -0.3261
   50MPD2    H3  784   0.661   0.295   9.739  0.6479  1.6180  0.5468
   50MPD2     N  785   0.593   0.549  10.112 -0.3866  0.1086  0.5432
   50MPD2    H5  786   0.633   0.625  10.057 -1.3685 -0.1741 -0.5684
   50MPD2    N1  787   0.520   0.061  10.095  0.5529  0.3921  0.0586
   50MPD2    H7  788   0.496   0.066  10.194  0.4252 -3.1451  0.1943
   51TMC2    C1  789   1.152   3.099   1.225 -0.3202  0.4826 -0.0521
   51TMC2    C2  790   1.027   3.131   1.226 -0.3590  0.6063  0.5561
   51TMC2    C3  791   0.989   3.243   1.162  0.0428  0.2860 -0.5658
   51TMC2    C4  792   1.253   3.181   1.168 -0.3408  0.0618 -0.0147
   51TMC2    C5  793   1.214   3.304   1.114  0.3334 -0.5096  0.3608
   51TMC2    C6  794   1.081   3.332   1.099  1.1018 -0.0339  0.3413
   51TMC2     C  795   1.197   2.965   1.256  0.7863  0.3250 -0.5716
   51TMC2     O  796   1.315   2.948   1.292  0.0155  0.0411 -0.1606
   51TMC2     H  797   0.961   3.062   1.278  0.3388 -0.3317  0.1802
   51TMC2    H1  798   1.356   3.149   1.157 -0.4362 -0.4467  0.5341
   51TMC2    H2  799   1.040   3.425   1.061 -0.5093 -0.9214 -0.0981
   51TMC2    C7  800   1.320   3.396   1.079 -0.1902 -0.2320 -0.3834
   51TMC2    C8  801   0.852   3.276   1.168 -0.1850 -0.1649  0.3571
   51TMC2    O1  802   1.431   3.378   1.127  0.1792  0.3776 -0.0061
   51TMC2    O2  803   0.802   3.353   1.087 -0.1671  0.5235 -0.2292
   51TMC2    O5  804   0.793   3.207   1.269 -0.0814  0.3080 -0.1546
   51TMC2    H5  805   0.854   3.181   1.342  0.1929  1.4631  0.0279
   52MPD2     C  806   1.189   2.459   1.159 -0.0347 -1.0445 -0.2196
   52MPD2    C1  807   1.296   2.549   1.160  0.3548  0.3593  0.2798
   52MPD2    C2  808   1.264   2.679   1.184 -0.8682 -1.6070 -0.0827
   52MPD2    C3  809   1.131   2.727   1.205 -0.1995 -0.1902  0.3286
   52MPD2    C4  810   1.030   2.636   1.196 -0.1572 -1.3507 -0.6012
   52MPD2    C5  811   1.061   2.499   1.180  0.0875 -0.5860 -0.1518
   52MPD2     H  812   1.339   2.755   1.167 -2.8461  0.3780  0.1045
   52MPD2    H1  813   0.928   2.666   1.217  0.7218  1.4353 -0.2993
   52MPD2    H2  814   1.203   2.356   1.127  2.0338 -0.1638 -2.1334
   52MPD2    H3  815   0.980   2.432   1.155 -1.3627  0.6819  1.1724
   52MPD2     N  816   1.100   2.869   1.230 -0.1971 -0.5075 -0.6477
   52MPD2    H5  817   1.003   2.893   1.210 -0.2763 -0.0804  0.2234
   52MPD2    N1  818   1.425   2.520   1.122  0.3641  0.3587  0.5476
   52MPD2    H7  819   1.476   2.605   1.101  2.9196 -2.0122 -2.7195
   53TMC2    C1  820   1.603   2.584  11.019  0.2621  0.5888  0.1732
   53TMC2    C2  821   1.522   2.635  10.916  0.1515 -1.2132 -0.2397
   53TMC2    C3  822   1.452   2.753  10.940 -0.4637 -0.5518  0.7749
   53TMC2    C4  823   1.622   2.648  11.137  0.3582 -0.1262 -0.0984
   53TMC2    C5  824   1.555   2.768  11.147  0.5272  0.5610 -0.0700
   53TMC2    C6  825   1.470   2.826  11.045  0.7179 -0.1518  0.4073
   53TMC2     C  826   1.680   2.463  10.984 -0.2369 -0.0210 -0.0960
   53TMC2     O  827   1.680   2.424  10.868 -0.0567  0.2922 -0.1954
   53TMC2     H  828   1.515   2.593  10.816  1.9219 -1.4522 -0.2791
   53TMC2    H1  829   1.699   2.617  11.206 -0.0287 -0.0832  0.3546
   53TMC2    H2  830   1.417   2.919  11.064  0.6554  0.4659 -2.7811
   53TMC2    C7  831   1.531   2.821  11.282  0.2135 -0.0537  0.2318
   53TMC2    C8  832   1.348   2.813  10.854 -0.2175  0.1710 -0.4088
   53TMC2    O1  833   1.455   2.914  11.291  0.5548  0.1960 -0.2119
   53TMC2    O2  834   1.339   2.934  10.836 -0.6775 -0.2063 -0.2133
   53TMC2    O5  835   1.285   2.710  10.791 -0.1853  0.0418 -0.3989
   53TMC2    H5  836   1.297   2.619  10.827 -1.7401 -0.5800 -1.4677
   54MPD2     C  837   1.852   2.235  10.989  0.8104 -0.0045  0.1775
   54MPD2    C1  838   1.790   2.287  11.100  0.3566  0.0394  0.8069
   54MPD2    C2  839   1.815   2.241  11.229 -1.0087 -0.1358  0.3612
   54MPD2    C3  840   1.901   2.138  11.250  0.5660  0.1979 -0.3141
   54MPD2    C4  841   1.972   2.086  11.146 -0.5082 -0.3493  0.1760
   54MPD2    C5  842   1.954   2.144  11.016  0.4467 -0.5100 -0.8587
   54MPD2     H  843   1.762   2.289  11.311  0.2552 -0.5974  1.4616
   54MPD2    H1  844   2.046   2.010  11.167  2.1209  1.7463 -1.4915
   54MPD2    H2  845   1.840   2.259  10.884 -0.1138 -1.3528 -0.0406
   54MPD2    H3  846   2.011   2.111  10.929  1.9008  1.9909 -0.8547
   54MPD2     N  847   1.914   2.072  11.378  0.1256 -0.8687  0.4069
   54MPD2    H5  848   1.990   2.008  11.393 -0.0263 -1.0775  0.2857
   54MPD2    N1  849   1.709   2.399  11.101  0.3665 -0.2255 -0.6131
   54MPD2    H7  850   1.676   2.437  11.188  1.3831 -0.0281 -0.3105
   55TMC2    C1  851   2.475   4.549  17.523 -0.2039  0.5884  0.2184
   55TMC2    C2  852   2.419   4.486  17.410 -0.2514  0.3334  0.2622
   55TMC2    C3  853   2.352   4.371  17.436  0.3689  0.2829 -0.5746
   55TMC2    C4  854   2.459   4.505  17.653 -0.5562 -0.2930 -0.4778
   55TMC2    C5  855   2.391   4.386  17.672  0.8355 -0.2965  0.1578
   55TMC2    C6  856   2.349   4.317  17.561 -0.3944  1.0624 -0.6508
   55TMC2     C  857   2.533   4.682  17.521  0.7009 -0.1883  0.1494
   55TMC2     O  858   2.565   4.726  17.632 -0.2543  0.0460 -0.3167
   55TMC2     H  859   2.452   4.508  17.309  0.2942 -0.2822  0.3075
   55TMC2    H1  860   2.507   4.553  17.737 -1.1760 -2.1292  0.9376
   55TMC2    H2  861   2.305   4.218  17.575  1.2124  0.3206 -0.8557
   55TMC2    C7  862   2.377   4.322   0.056 -0.3208  0.2291  0.3719
   55TMC2    C8  863   2.317   4.281  17.330  0.2560  0.0929  0.0596
   55TMC2    O1  864   2.359   4.201   0.056  0.1300 -0.5503  0.0055
   55TMC2    O2  865   2.314   4.160  17.353 -0.4761  0.5010  0.3016
   55TMC2    O5  866   2.279   4.351  17.219 -0.1465  0.0330 -0.2282
   55TMC2    H5  867   2.290   4.447  17.236 -1.7041  0.2716 -0.6382
   56MPD2     C  868   2.550   0.209  17.268  0.0677 -0.3157  0.5638
   56MPD2    C1  869   2.539   0.153  17.393  0.4096  0.1002 -0.3630
   56MPD2    C2  870   2.528   0.236  17.501 -0.7006  1.2826  0.7736
   56MPD2    C3  871   2.528   0.379  17.494 -1.0897  0.2699  0.4982
   56MPD2    C4  872   2.540   0.424  17.366 -0.5671  0.3268 -0.3106
   56MPD2    C5  873   2.552   0.341  17.254  0.2430  0.2060  0.1269
   56MPD2     H  874   2.515   0.205  17.604  0.8856 -0.6036  0.4227
   56MPD2    H1  875   2.529   0.530  17.349 -1.0552  0.2935 -0.2298
   56MPD2    H2  876   2.540   0.146  17.180 -1.8332 -0.9829  1.2409
   56MPD2    H3  877   2.549   0.392  17.158 -1.0187 -0.4745 -0.1806
   56MPD2     N  878   2.515   0.457  17.614 -0.6564  0.3181  0.6220
   56MPD2    H5  879   2.491   0.413  17.702 -1.4609 -0.0695  0.2071
   56MPD2    N1  880   2.530   0.012  17.404 -0.6698 -0.3000  0.5074
   56MPD2    H7  881   2.515   4.699  17.318 -0.5146 -0.5332  0.6170
   57TMC2    C1  882   1.309   0.647  13.075  0.4320  0.5756 -0.2075
   57TMC2    C2  883   1.248   0.593  12.965  0.3815  0.5533 -0.2364
   57TMC2    C3  884   1.326   0.591  12.849 -0.3127  0.5104  0.5545
   57TMC2    C4  885   1.440   0.686  13.071 -0.5913  0.2629 -1.0223
   57TMC2    C5  886   1.515   0.684  12.957 -0.0287 -0.3573 -0.3674
   57TMC2    C6  887   1.455   0.642  12.838  0.5688 -0.4392  0.0202
   57TMC2     C  888   1.225   0.699  13.182 -0.4750 -0.3092  0.1532
   57TMC2     O  889   1.276   0.784  13.257  0.0661 -0.0793  0.3989
   57TMC2     H  890   1.153   0.542  12.970  0.7342 -0.1085 -0.3444
   57TMC2    H1  891   1.483   0.721  13.164  0.4230  0.3184 -1.5127
   57TMC2    H2  892   1.501   0.648  12.741 -0.3211  0.3814 -0.3512
   57TMC2    C7  893   1.662   0.675  12.972 -0.4158  0.1558  0.2840
   57TMC2    C8  894   1.274   0.520  12.736 -0.5405  0.3133  0.1303
   57TMC2    O1  895   1.702   0.718  13.077  0.9815 -0.0426  0.1177
   57TMC2    O2  896   1.348   0.433  12.697 -0.4300 -0.1558  0.0246
   57TMC2    O5  897   1.138   0.509  12.733 -0.2206 -0.4076 -0.8360
   57TMC2    H5  898   1.093   0.591  12.763  1.1142  0.3122 -0.8231
   58MPD2     C  899   0.745   0.767  13.389  0.4288 -0.3615  0.1124
   58MPD2    C1  900   0.869   0.797  13.439 -0.4580 -0.0122 -0.5315
   58MPD2    C2  901   0.984   0.776  13.353 -0.2246  0.4526  0.2869
   58MPD2    C3  902   0.977   0.720  13.232 -1.1052  0.6159  1.0593
   58MPD2    C4  903   0.851   0.702  13.177 -0.2944 -0.4130  0.3891
   58MPD2    C5  904   0.741   0.733  13.253 -0.7745 -0.0025 -0.2615
   58MPD2     H  905   1.071   0.798  13.414  1.0932  0.9287 -1.7635
   58MPD2    H1  906   0.847   0.636  13.091  2.9651  1.3403 -1.0813
   58MPD2    H2  907   0.647   0.770  13.436 -0.2903 -0.2750 -1.3925
   58MPD2    H3  908   0.647   0.701  13.210 -0.6003 -0.3276 -0.4048
   58MPD2     N  909   1.094   0.675  13.163  0.5663 -0.2239  0.1550
   58MPD2    H5  910   1.081   0.614  13.083 -0.1477  0.7858 -0.4932
   58MPD2    N1  911   0.869   0.850  13.568 -0.6370 -0.0433  0.7998
   58MPD2    H7  912   0.780   0.878  13.607 -0.9668  0.0631 -0.0194
   59TMC2    C1  913   4.158   1.505  12.772 -0.4490 -0.0069  1.3814
   59TMC2    C2  914   4.068   1.404  12.748  0.4064  0.2119  0.4993
   59TMC2    C3  915   4.033   1.373  12.616  0.4239  0.2378 -0.5556
   59TMC2    C4  916   4.227   1.570  12.678 -0.2887 -0.1679 -0.5679
   59TMC2    C5  917   4.185   1.546  12.551  0.6554 -0.1692 -0.1332
   59TMC2    C6  918   4.092   1.445  12.514  0.4215 -0.1642  0.0542
   59TMC2     C  919   4.166   1.554  12.904 -0.1497  0.0470  0.1269
   59TMC2     O  920   4.062   1.539  12.965 -0.0274 -0.0054  0.4165
   59TMC2     H  921   4.014   1.356  12.830  0.2582  0.9028  0.8030
   59TMC2    H1  922   4.298   1.650  12.697  0.7174 -1.0728 -0.4644
   59TMC2    H2  923   4.089   1.412  12.411 -1.2338  0.0859  0.0101
   59TMC2    C7  924   4.244   1.625  12.447 -0.0449 -0.0372 -0.1749
   59TMC2    C8  925   4.007   1.231  12.606  0.1770  0.9643  0.1950
   59TMC2    O1  926   4.352   1.680  12.476 -0.0500  0.4727 -0.0321
   59TMC2    O2  927   4.027   1.153  12.697 -0.1703  0.4458 -0.0241
   59TMC2    O5  928   4.009   1.187  12.478  0.1671  0.1756 -0.3270
   59TMC2    H5  929   3.992   1.255  12.410 -1.4414  0.2326  0.1323
   60MPD2     C  930   4.204   1.699  13.145 -0.3277  0.2019  0.7361
   60MPD2    C1  931   4.310   1.642  13.074 -0.3525  0.0688  0.0679
   60MPD2    C2  932   4.437   1.652  13.123 -0.2901 -0.6253 -0.4129
   60MPD2    C3  933   4.454   1.724  13.241  0.7097  0.6367 -0.1455
   60MPD2    C4  934   4.352   1.773  13.308 -0.5380  0.0091 -0.4525
   60MPD2    C5  935   4.226   1.763  13.262 -0.3959 -0.2619 -0.0029
   60MPD2     H  936   4.523   1.606  13.075 -0.3951  0.5387 -1.7448
   60MPD2    H1  937   4.374   1.834  13.395 -0.7161 -0.4778 -0.0711
   60MPD2    H2  938   4.100   1.694  13.115  0.1018 -2.2461 -0.3528
   60MPD2    H3  939   4.134   1.799  13.306 -1.4336 -1.2510 -1.3693
   60MPD2     N  940   4.584   1.741  13.298 -0.1912 -0.3343 -0.2388
   60MPD2    H5  941   4.576   1.785  13.389  1.1326 -3.0920  1.2154
   60MPD2    N1  942   4.289   1.589  12.946  0.0621  0.3348 -0.4252
   60MPD2    H7  943   4.374   1.555  12.904 -0.7502 -1.6331 -0.4675
   61TMC2    C1  944   3.043   2.148  14.732 -0.5353  0.0387 -0.5222
   61TMC2    C2  945   2.948   2.099  14.817  0.7704 -0.1761 -0.5540
   61TMC2    C3  946   2.881   2.175  14.900  0.3728  0.4215  0.5267
   61TMC2    C4  947   3.063   2.289  14.735  0.1829  0.1871 -0.7524
   61TMC2    C5  948   2.985   2.367  14.819  0.0505 -0.1940 -0.4037
   61TMC2    C6  949   2.895   2.312  14.905 -0.4528  0.2443 -0.8369
   61TMC2     C  950   3.087   2.063  14.617 -0.4134  0.3960 -0.1588
   61TMC2     O  951   3.031   1.957  14.587  0.4570 -0.0402 -0.6251
   61TMC2     H  952   2.941   1.991  14.820 -0.0207 -0.1055 -0.1159
   61TMC2    H1  953   3.144   2.346  14.691 -1.0485  3.8060  1.6209
   61TMC2    H2  954   2.858   2.373  14.987 -1.7819 -0.0346 -1.2249
   61TMC2    C7  955   2.983   2.510  14.807 -0.9295  0.2182 -0.0335
   61TMC2    C8  956   2.786   2.106  14.982 -0.3133  0.1006  0.1335
   61TMC2    O1  957   3.085   2.566  14.768  0.2653  0.6757  0.0937
   61TMC2    O2  958   2.800   1.991  15.021  0.6095  0.2064 -0.5345
   61TMC2    O5  959   2.676   2.178  14.976 -0.3985 -0.2975  0.0068
   61TMC2    H5  960   2.689   2.254  14.915  0.4371 -1.1312 -0.8452
   62MPD2     C  961   3.011   2.080  14.334  0.1527 -0.2624  0.0358
   62MPD2    C1  962   3.105   2.162  14.393  0.1422  0.0037  0.0260
   62MPD2    C2  963   3.151   2.282  14.334 -0.2653 -0.5062  0.1266
   62MPD2    C3  964   3.104   2.314  14.206 -0.2411  0.5173  0.1824
   62MPD2    C4  965   3.009   2.234  14.144 -0.1780  0.0743 -0.2221
   62MPD2    C5  966   2.965   2.119  14.211  0.1419  0.3795  0.0913
   62MPD2     H  967   3.221   2.350  14.382  1.7237 -1.6418 -1.1820
   62MPD2    H1  968   2.967   2.252  14.046 -0.1314 -0.5377 -0.3520
   62MPD2    H2  969   2.973   1.991  14.384 -1.9992  0.5911 -0.0940
   62MPD2    H3  970   2.880   2.059  14.180  0.3098 -0.5992  1.4907
   62MPD2     N  971   3.145   2.428  14.132  0.1134  0.1276  0.7119
   62MPD2    H5  972   3.092   2.445  14.047  1.1847  2.1587  0.4470
   62MPD2    N1  973   3.145   2.151  14.534 -0.5340  0.1765 -0.2342
   62MPD2    H7  974   3.195   2.230  14.575  0.5831 -0.6027 -0.0811
   63TMC2    C1  975   2.118   3.100  10.098 -0.3948  0.3174  0.1015
   63TMC2    C2  976   2.190   3.129  10.211 -0.3921  0.1073  0.5423
   63TMC2    C3  977   2.246   3.252  10.221 -0.6731 -0.4186 -0.4746
   63TMC2    C4  978   2.110   3.194   9.994 -0.1029  0.1117 -0.0040
   63TMC2    C5  979   2.172   3.315  10.009 -1.3071 -0.4032 -0.3254
   63TMC2    C6  980   2.231   3.350  10.124  0.0569 -0.3486 -0.2484
   63TMC2     C  981   2.017   3.002  10.100 -0.2591  0.4356  0.0560
   63TMC2     O  982   1.909   3.045  10.050 -0.7720  0.0969  0.2926
   63TMC2     H  983   2.210   3.057  10.290 -2.0917  0.0224  0.8934
   63TMC2    H1  984   2.063   3.165   9.901 -1.9847  2.1238  0.3188
   63TMC2    H2  985   2.287   3.441  10.144 -0.2378 -0.2123 -0.0464
   63TMC2    C7  986   2.147   3.407   9.900 -0.6543  0.2629 -0.4329
   63TMC2    C8  987   2.319   3.286  10.344  0.2614 -0.4554  0.6359
   63TMC2    O1  988   2.076   3.377   9.808  0.1865 -0.4489 -1.1919
   63TMC2    O2  989   2.369   3.202  10.420  0.1529  0.0803  0.3482
   63TMC2    O5  990   2.226   3.383  10.381 -0.2127  0.2668 -0.3176
   63TMC2    H5  991   2.180   3.447  10.322  0.2624  1.7842  0.9513
   64MPD2     C  992   1.801   2.570  10.204  0.8037  0.0057  0.4513
   64MPD2    C1  993   1.935   2.546  10.185 -0.4812  0.0668  0.0885
   64MPD2    C2  994   2.019   2.655  10.173  1.1273 -0.3900  0.7263
   64MPD2    C3  995   1.971   2.777  10.174 -0.0721  0.0672  0.1827
   64MPD2    C4  996   1.835   2.798  10.191 -0.1939 -0.5740 -0.1281
   64MPD2    C5  997   1.747   2.698  10.209 -0.2113 -0.0698 -0.1901
   64MPD2     H  998   2.127   2.649  10.164  1.3001  2.5501  0.6467
   64MPD2    H1  999   1.799   2.900  10.187  0.4737 -0.3221  0.3589
   64MPD2    H2 1000   1.723   2.497  10.221 -0.8820  2.1319  1.9329
   64MPD2    H3 1001   1.641   2.715  10.229 -0.1531  1.8608 -1.5880
   64MPD2     N 1002   2.055   2.883  10.152  0.2609 -0.1129 -0.0211
   64MPD2    H5 1003   2.152   2.865  10.172  0.5227  1.3365  0.0661
   64MPD2    N1 1004   1.994   2.420  10.176 -0.5995 -0.2074 -0.5494
   64MPD2    H7 1005   2.094   2.421  10.161 -0.5981  0.8177 -0.4865
   65TMC2    C1 1006   4.162   2.180  15.393  0.8029 -0.0864 -0.4914
   65TMC2    C2 1007   4.220   2.109  15.285  0.3074  1.2016 -0.3339
   65TMC2    C3 1008   4.236   2.178  15.171 -0.0115 -0.5750 -0.1774
   65TMC2    C4 1009   4.138   2.311  15.391  0.6820 -0.0684  0.1831
   65TMC2    C5 1010   4.158   2.375  15.270 -0.3746  0.0245 -0.3159
   65TMC2    C6 1011   4.202   2.309  15.159  0.0690  0.6030  0.2531
   65TMC2     C 1012   4.123   2.110  15.518  0.2338 -1.1829 -0.1740
   65TMC2     O 1013   4.122   2.182  15.616 -0.3341  0.8120 -0.9505
   65TMC2     H 1014   4.240   2.002  15.288  2.0849  1.5319 -0.7347
   65TMC2    H1 1015   4.096   2.355  15.480  1.3042 -3.1632  2.0110
   65TMC2    H2 1016   4.248   2.367  15.080  1.4261  1.0075  1.3596
   65TMC2    C7 1017   4.124   2.519  15.252 -0.1557  0.0147  0.4548
   65TMC2    C8 1018   4.314   2.113  15.066 -0.3424 -0.1453 -0.1505
   65TMC2    O1 1019   4.135   2.559  15.136 -0.4036 -0.0466 -0.5602
   65TMC2    O2 1020   4.386   2.019  15.079  0.2563 -0.4863  0.1750
   65TMC2    O5 1021   4.274   2.163  14.949 -0.2237 -0.0217 -0.8229
   65TMC2    H5 1022   4.191   2.215  14.953  1.0145  1.8220  0.6560
   66MPD2     C 1023   4.057   1.909  15.735 -0.5789 -0.0187 -0.6513
   66MPD2    C1 1024   4.058   1.882  15.602  0.2118  0.0874  0.8110
   66MPD2    C2 1025   4.021   1.754  15.566  0.3828  0.5989 -0.3751
   66MPD2    C3 1026   3.995   1.659  15.662  0.5512 -1.2833 -0.0074
   66MPD2    C4 1027   3.992   1.701  15.793 -0.5723  0.0133  0.0733
   66MPD2    C5 1028   4.031   1.823  15.834  0.0771  0.1594  0.4768
   66MPD2     H 1029   4.040   1.731  15.462  1.4681  0.4073 -0.1302
   66MPD2    H1 1030   3.969   1.634  15.875  0.0015  0.4953  0.6298
   66MPD2    H2 1031   4.085   2.007  15.772  1.0873 -0.9817  0.6461
   66MPD2    H3 1032   4.034   1.841  15.940  2.3884  0.1182  0.4291
   66MPD2     N 1033   3.954   1.525  15.630  0.5887  0.5497 -0.2138
   66MPD2    H5 1034   3.925   1.466  15.707 -0.9274  0.9384 -0.4862
   66MPD2    N1 1035   4.093   1.975  15.502  0.1672  0.1910 -0.0754
   66MPD2    H7 1036   4.098   1.942  15.406 -0.4957 -1.0858  0.3273
   67TMC2    C1 1037   4.391   1.716  14.286 -0.5216 -0.3985  0.1377
   67TMC2    C2 1038   4.397   1.849  14.293  0.0590  0.5848  0.4402
   67TMC2    C3 1039   4.495   1.907  14.370  0.2520  1.1748  0.1497
   67TMC2    C4 1040   4.483   1.635  14.351 -0.6062 -0.1480 -0.1056
   67TMC2    C5 1041   4.572   1.695  14.429  0.2437  0.1603 -0.2441
   67TMC2    C6 1042   4.581   1.829  14.443 -0.4097 -0.2037  0.2107
   67TMC2     C 1043   4.269   1.649  14.233 -0.4192  0.4428 -0.0414
   67TMC2     O 1044   4.271   1.529  14.247  0.0453  0.3771  0.5271
   67TMC2     H 1045   4.339   1.917  14.232 -0.6355 -0.8065 -0.4421
   67TMC2    H1 1046   4.477   1.527  14.343 -0.8412 -0.0193 -1.7659
   67TMC2    H2 1047   4.648   1.874  14.514 -1.6330  1.8665  0.0464
   67TMC2    C7 1048   4.665   1.618  14.509 -0.3414  0.2684  0.6961
   67TMC2    C8 1049   4.492   2.052  14.362 -0.2879 -0.6828 -0.8876
   67TMC2    O1 1050   4.717   1.535  14.438  0.6511 -0.4573 -0.3810
   67TMC2    O2 1051   4.439   2.105  14.263  0.5881 -0.1677  0.2063
   67TMC2    O5 1052   4.615   2.082  14.415 -0.1129  0.2832 -0.6468
   67TMC2    H5 1053   4.612   2.057  14.510  1.5216  0.0968 -0.6410
   68MPD2     C 1054   4.012   1.568  14.124 -0.1365 -0.7384  0.5866
   68MPD2    C1 1055   4.066   1.694  14.103  0.1047 -0.2479 -0.3001
   68MPD2    C2 1056   3.989   1.781  14.030 -1.0115  0.5524  0.9535
   68MPD2    C3 1057   3.863   1.754  13.981 -0.4126 -0.1401  0.3759
   68MPD2    C4 1058   3.807   1.630  14.010 -0.1472  0.4691  0.1615
   68MPD2    C5 1059   3.884   1.540  14.078  0.3630 -0.6749 -0.9039
   68MPD2     H 1060   4.027   1.883  14.023 -0.5795  0.4558  1.9302
   68MPD2    H1 1061   3.707   1.600  13.982 -1.0134  0.7557  2.9465
   68MPD2    H2 1062   4.064   1.483  14.165 -1.0664 -1.1362  0.9319
   68MPD2    H3 1063   3.842   1.442  14.096 -0.4903  0.2390  2.1833
   68MPD2     N 1064   3.783   1.834  13.893  0.2942 -0.2074 -0.3852
   68MPD2    H5 1065   3.696   1.798  13.855 -0.5729  0.0368  1.3517
   68MPD2    N1 1066   4.190   1.736  14.157 -0.4136  0.5783  0.5576
   68MPD2    H7 1067   4.223   1.830  14.137  1.5934 -0.2522 -0.0267
   69TMC2    C1 1068   1.556   2.532  12.250  0.5558 -0.6193 -0.0012
   69TMC2    C2 1069   1.450   2.556  12.174 -0.2665  0.4312  0.1775
   69TMC2    C3 1070   1.473   2.589  12.047 -0.0177 -0.2760  0.3834
   69TMC2    C4 1071   1.683   2.554  12.204 -0.4986  0.1086  0.6271
   69TMC2    C5 1072   1.701   2.584  12.074  0.0322  0.5189 -0.3904
   69TMC2    C6 1073   1.596   2.599  11.994  0.7129 -0.4725 -0.0629
   69TMC2     C 1074   1.541   2.485  12.388 -0.6006  0.2087 -0.3566
   69TMC2     O 1075   1.642   2.488  12.460  0.5059  0.3683  0.1193
   69TMC2     H 1076   1.347   2.563  12.209 -0.5583 -0.7371 -0.4260
   69TMC2    H1 1077   1.762   2.589  12.269 -0.1137 -0.1170  0.2847
   69TMC2    H2 1078   1.613   2.616  11.888 -1.5726 -1.1782 -0.5430
   69TMC2    C7 1079   1.810   2.511  12.014  0.8343  0.0427  0.6080
   69TMC2    C8 1080   1.373   2.664  11.977 -0.0568 -0.0093 -0.1162
   69TMC2    O1 1081   1.818   2.523  11.890 -0.1536  0.0543 -0.0933
   69TMC2    O2 1082   1.285   2.720  12.038 -0.3924  0.8735  0.1386
   69TMC2    O5 1083   1.368   2.616  11.851  0.2642 -0.5705  0.7579
   69TMC2    H5 1084   1.435   2.545  11.841  1.2725  0.3308  1.0982
   70MPD2     C 1085   1.252   2.282  12.501  0.0885  1.3787 -0.3886
   70MPD2    C1 1086   1.370   2.346  12.511  0.3372 -0.2777 -0.2754
   70MPD2    C2 1087   1.436   2.343  12.631 -1.2299  0.1101 -0.2484
   70MPD2    C3 1088   1.395   2.261  12.731 -0.4695 -0.0151 -0.6716
   70MPD2    C4 1089   1.274   2.194  12.717  0.0513  0.0061  0.2557
   70MPD2    C5 1090   1.195   2.219  12.604  0.0162  0.3326  0.3465
   70MPD2     H 1091   1.530   2.397  12.643 -0.1947 -1.3576 -1.8322
   70MPD2    H1 1092   1.229   2.131  12.793 -1.7951  1.2474  0.2029
   70MPD2    H2 1093   1.186   2.277  12.415  1.4589  2.9991 -1.5508
   70MPD2    H3 1094   1.100   2.169  12.591 -0.4440  2.0801 -3.0591
   70MPD2     N 1095   1.478   2.237  12.842 -0.0780  0.2633  0.1433
   70MPD2    H5 1096   1.446   2.167  12.908  0.2524 -0.6652 -0.6884
   70MPD2    N1 1097   1.422   2.410  12.399 -0.4862  0.1064  0.0015
   70MPD2    H7 1098   1.365   2.406  12.315  0.0248  2.3592 -0.4526
   71TMC2    C1 1099   3.426   3.145   1.973  0.4190  0.1031  1.0368
   71TMC2    C2 1100   3.373   3.265   2.009  0.5818  0.1855 -0.4200
   71TMC2    C3 1101   3.240   3.257   2.038 -0.0560 -1.0103  0.3430
   71TMC2    C4 1102   3.354   3.027   1.965 -0.4718 -0.7150  0.1070
   71TMC2    C5 1103   3.221   3.029   2.011  0.8431  0.4025  0.4489
   71TMC2    C6 1104   3.160   3.147   2.037 -0.5575 -0.0304  0.2651
   71TMC2     C 1105   3.560   3.145   1.923 -0.5869 -0.0925 -0.7334
   71TMC2     O 1106   3.579   3.065   1.833 -0.1031 -0.3093  0.5628
   71TMC2     H 1107   3.418   3.362   1.994  1.6490 -0.4677 -1.4357
   71TMC2    H1 1108   3.390   2.937   1.915  1.1941 -0.8934  1.6244
   71TMC2    H2 1109   3.055   3.154   2.065 -0.5521  2.8707 -0.4171
   71TMC2    C7 1110   3.138   2.921   1.959 -0.9214  1.3607  0.1325
   71TMC2    C8 1111   3.182   3.387   2.077  0.6894  0.1044  0.8556
   71TMC2    O1 1112   3.192   2.813   1.939 -0.4561 -0.1413 -0.5416
   71TMC2    O2 1113   3.263   3.475   2.106 -0.1660  0.4154 -0.0356
   71TMC2    O5 1114   3.049   3.391   2.072  0.2213  0.0184 -0.3764
   71TMC2    H5 1115   3.007   3.312   2.033  1.6289 -0.9014 -0.0287
   72MPD2     C 1116   4.026   3.344   1.884 -0.6510 -0.2448  0.1840
   72MPD2    C1 1117   3.958   3.261   1.794  0.0470  0.3148  0.1550
   72MPD2    C2 1118   3.831   3.213   1.827  0.5763 -0.0068 -0.0951
   72MPD2    C3 1119   3.774   3.272   1.945 -0.5006  0.0466 -1.0958
   72MPD2    C4 1120   3.840   3.354   2.026  0.1304 -0.5371  0.3145
   72MPD2    C5 1121   3.964   3.385   1.996 -0.2436 -0.8683  0.1179
   72MPD2     H 1122   3.775   3.145   1.764  0.1244  0.4090 -0.1505
   72MPD2    H1 1123   3.801   3.386   2.121 -0.1984  1.1639 -0.3877
   72MPD2    H2 1124   4.128   3.383   1.883 -0.2548 -1.3245 -1.5246
   72MPD2    H3 1125   4.022   3.451   2.060  2.0809  0.0471 -2.8743
   72MPD2     N 1126   3.643   3.231   1.991  0.0875 -0.6282 -0.2039
   72MPD2    H5 1127   3.599   3.275   2.071  1.3376  1.6467 -0.7417
   72MPD2    N1 1128   4.015   3.215   1.667  0.2171  0.0184  0.1980
   72MPD2    H7 1129   3.957   3.165   1.600 -0.0594 -0.0819  0.5115
   73TMC2    C1 1130   2.789   1.217  13.736 -0.3448 -0.2205  0.5067
   73TMC2    C2 1131   2.747   1.172  13.609 -0.9433 -0.4496  0.0053
   73TMC2    C3 1132   2.740   1.036  13.591  0.1473 -0.5731 -0.3581
   73TMC2    C4 1133   2.797   1.128  13.845  0.4453 -0.0346  0.0500
   73TMC2    C5 1134   2.791   0.990  13.815 -0.0719 -0.1856  0.5175
   73TMC2    C6 1135   2.759   0.945  13.690 -0.9079  0.1317  0.1106
   73TMC2     C 1136   2.873   1.330  13.753  0.9473 -0.0158 -1.4740
   73TMC2     O 1137   2.963   1.314  13.832 -0.2852  0.3446  0.1881
   73TMC2     H 1138   2.730   1.253  13.539 -0.8508 -0.1208  0.3595
   73TMC2    H1 1139   2.818   1.167  13.944  1.7456 -3.9698  1.3215
   73TMC2    H2 1140   2.765   0.840  13.664  1.6514  1.2912 -4.0658
   73TMC2    C7 1141   2.920   0.928  13.854  0.0206  0.6204  0.1629
   73TMC2    C8 1142   2.702   0.974  13.464  0.4602 -0.1376 -0.3051
   73TMC2    O1 1143   2.934   0.808  13.834  0.0718  0.5700 -0.0459
   73TMC2    O2 1144   2.624   0.882  13.465 -0.1969  0.1602  0.0713
   73TMC2    O5 1145   2.779   1.016  13.366  0.0344 -0.0474 -0.4341
   73TMC2    H5 1146   2.864   1.048  13.405 -0.0122  1.0632 -1.2608
   74MPD2     C 1147   3.110   1.741  13.574  0.4959 -0.2597  0.5843
   74MPD2    C1 1148   3.159   1.634  13.648  0.0465  0.4936 -0.5386
   74MPD2    C2 1149   3.074   1.530  13.674  0.2786 -0.0943  0.2785
   74MPD2    C3 1150   2.938   1.543  13.635  0.4858 -0.2952 -0.4993
   74MPD2    C4 1151   2.888   1.651  13.562 -0.0966  0.2587  0.8143
   74MPD2    C5 1152   2.979   1.750  13.531 -0.4667  0.3306 -0.1668
   74MPD2     H 1153   3.116   1.436  13.707  3.6684  1.6461  0.9093
   74MPD2    H1 1154   2.788   1.653  13.519  0.0899  0.9873  0.4194
   74MPD2    H2 1155   3.176   1.825  13.554 -1.3754  0.7792 -1.1727
   74MPD2    H3 1156   2.943   1.829  13.465 -0.4879 -0.3489 -0.9676
   74MPD2     N 1157   2.848   1.432  13.662 -0.3264  0.3774 -0.0197
   74MPD2    H5 1158   2.756   1.437  13.620 -0.1040  1.3973 -0.3826
   74MPD2    N1 1159   3.302   1.622  13.660 -0.0775 -0.0655  0.1417
   74MPD2    H7 1160   3.357   1.695  13.617 -0.3274  1.3982  2.3372
   75TMC2    C1 1161   3.716   2.035  13.783 -0.2148  0.2675 -0.3060
   75TMC2    C2 1162   3.705   2.168  13.807 -0.2011 -0.6812 -0.3688
   75TMC2    C3 1163   3.618   2.239  13.729  0.5448 -0.2574 -0.4963
   75TMC2    C4 1164   3.637   1.974  13.682 -0.0566  0.5058  0.0973
   75TMC2    C5 1165   3.540   2.048  13.612  0.0031 -0.5118  1.6379
   75TMC2    C6 1166   3.542   2.187  13.629 -0.4509  0.1371 -0.0018
   75TMC2     C 1167   3.824   1.963  13.849  0.0237 -0.1526  0.0429
   75TMC2     O 1168   3.913   2.029  13.893 -0.0924 -0.6959 -0.0180
   75TMC2     H 1169   3.772   2.227  13.869 -0.4326  0.6038 -1.3245
   75TMC2    H1 1170   3.651   1.869  13.659  0.7014  0.2504  1.7780
   75TMC2    H2 1171   3.489   2.259  13.569 -1.1108 -0.7440 -0.4652
   75TMC2    C7 1172   3.454   1.980  13.517 -0.1260 -0.2195  0.4457
   75TMC2    C8 1173   3.601   2.383  13.747  0.2213  0.3152 -0.0170
   75TMC2    O1 1174   3.458   1.858  13.523  0.1689  0.2208 -0.1331
   75TMC2    O2 1175   3.595   2.425  13.860  0.2073  0.5460  0.5268
   75TMC2    O5 1176   3.670   2.436  13.644 -0.0285 -0.3331 -0.1361
   75TMC2    H5 1177   3.690   2.359  13.587  0.0767 -0.7851  0.5035
   76TMC2    C1 1178   2.863   1.631  12.058  0.0130 -0.1440  0.1038
   76TMC2    C2 1179   2.781   1.526  12.086 -0.4154 -0.1181  0.3685
   76TMC2    C3 1180   2.833   1.405  12.122 -0.2852 -0.3023  0.6328
   76TMC2    C4 1181   2.997   1.615  12.076 -0.1344 -0.5785  0.2899
   76TMC2    C5 1182   3.048   1.494  12.110 -0.2673 -0.9458 -0.3209
   76TMC2    C6 1183   2.967   1.387  12.135 -0.4510 -0.4777  0.7986
   76TMC2     C 1184   2.805   1.739  11.981 -0.0962 -0.7308 -0.4408
   76TMC2     O 1185   2.685   1.738  11.968 -0.2764  0.3536 -0.2923
   76TMC2     H 1186   2.676   1.528  12.060 -0.7311  0.5283  1.7013
   76TMC2    H1 1187   3.072   1.677  12.028 -1.1936  1.7658  1.6472
   76TMC2    H2 1188   3.000   1.289  12.167  0.5093 -0.2848  0.4017
   76TMC2    C7 1189   3.193   1.466  12.107 -0.0850  0.2332  0.0691
   76TMC2    C8 1190   2.745   1.297  12.139  0.0818  1.0098 -0.4122
   76TMC2    O1 1191   3.229   1.351  12.092 -0.0065 -0.1612  0.1884
   76TMC2    O2 1192   2.632   1.315  12.160  0.3673 -0.5755 -0.3043
   76TMC2    O5 1193   2.807   1.190  12.089  0.3383 -0.6861 -0.0067
   76TMC2    H5 1194   2.899   1.202  12.056  0.3036  0.1220  0.1866
   77MPD2     C 1195   2.826   2.131  11.660  0.8115 -0.3640 -0.0307
   77MPD2    C1 1196   2.726   2.041  11.684  0.4110 -0.5921  0.4433
   77MPD2    C2 1197   2.752   1.945  11.777 -0.9812 -0.0726 -0.7327
   77MPD2    C3 1198   2.875   1.927  11.837  0.0586  0.0261 -0.1132
   77MPD2    C4 1199   2.971   2.015  11.809 -0.4496  0.7136 -0.1305
   77MPD2    C5 1200   2.941   2.119  11.728 -0.5829  0.0872 -0.3715
   77MPD2     H 1201   2.664   1.890  11.809  0.0415 -1.8384 -0.9359
   77MPD2    H1 1202   3.073   1.999  11.840 -0.8721 -2.7117 -0.4752
   77MPD2    H2 1203   2.812   2.216  11.594  0.6725  1.2338  2.0666
   77MPD2    H3 1204   3.029   2.176  11.701 -0.7561 -0.3811 -1.9254
   77MPD2     N 1205   2.898   1.822  11.928  0.1897  0.1563 -0.2372
   77MPD2    H5 1206   2.995   1.813  11.958  0.7632  0.0021 -2.1081
   77MPD2    N1 1207   2.597   2.054  11.632 -0.5176  0.1470  0.2302
   77MPD2    H7 1208   2.523   2.000  11.676  2.4622 -1.6412  3.0494
   78TMC2    C1 1209   3.277   3.053   1.550  0.1264  0.3424  0.0361
   78TMC2    C2 1210   3.187   2.982   1.482 -0.8556 -0.3141 -0.0495
   78TMC2    C3 1211   3.222   2.852   1.438 -0.6878  0.1087  0.4296
   78TMC2    C4 1212   3.402   2.996   1.574  0.9151 -0.1057 -0.4628
   78TMC2    C5 1213   3.432   2.868   1.541  0.0891  0.3269  0.1282
   78TMC2    C6 1214   3.346   2.796   1.472 -0.0570 -0.2291  0.4803
   78TMC2     C 1215   3.240   3.177   1.623 -0.3454 -0.3387  0.8091
   78TMC2     O 1216   3.309   3.200   1.719 -0.4230  0.2871  0.7877
   78TMC2     H 1217   3.091   3.024   1.454 -0.6681  0.2130  0.0886
   78TMC2    H1 1218   3.480   3.046   1.629  1.0737  0.4371 -1.1943
   78TMC2    H2 1219   3.381   2.723   1.400  3.3580 -1.4364  3.3655
   78TMC2    C7 1220   3.574   2.829   1.532 -0.3995 -0.2013 -0.3267
   78TMC2    C8 1221   3.149   2.792   1.329 -0.0545 -0.5816  0.3197
   78TMC2    O1 1222   3.606   2.781   1.421  0.4303  0.2498  0.1135
   78TMC2    O2 1223   3.145   2.672   1.313 -1.2558  0.0425  0.1613
   78TMC2    O5 1224   3.160   2.884   1.234  0.1125  0.2298 -0.1167
   78TMC2    H5 1225   3.208   2.958   1.277  2.5600  0.4061 -3.1942
   79MPD1     C 1226   2.919   3.556   1.763  0.4009  0.3197 -0.6949
   79MPD1    C1 1227   3.058   3.538   1.780 -0.0001  0.0793 -0.0483
   79MPD1    C2 1228   3.130   3.433   1.715 -0.2959  0.1038 -0.6959
   79MPD1    C3 1229   3.057   3.344   1.636 -0.3012  0.4560  0.5285
   79MPD1    C4 1230   2.918   3.367   1.608  0.1066 -0.3566 -0.2401
   79MPD1    C5 1231   2.857   3.472   1.680  1.0370 -0.4257  0.1513
   79MPD1     H 1232   3.237   3.419   1.733 -0.7394 -0.5342  1.4636
   79MPD1    H1 1233   2.859   3.305   1.542 -1.4044  1.3874 -0.5268
   79MPD1    H2 1234   2.864   3.634   1.814 -1.9105 -0.5926 -1.7943
   79MPD1    H3 1235   2.753   3.489   1.655  0.6938 -1.9573  0.5308
   79MPD1     N 1236   3.121   3.231   1.582  0.2812  0.3839  0.2355
   79MPD1    H5 1237   3.065   3.185   1.511  0.4097  0.2717  0.2078
   79MPD1    N1 1238   3.136   3.634   1.847 -0.0831 -0.1454  0.2397
   79MPD1    H6 1239   3.092   3.688   1.921  0.7916 -2.9893  2.8453
   79MPD1    H7 1240   3.223   3.588   1.875  0.0486 -2.9683 -4.7498
   80TMC2    C1 1241   1.533   1.659  11.981  0.1361 -0.4224  0.2751
   80TMC2    C2 1242   1.561   1.735  11.875  0.3239 -0.1437 -0.7206
   80TMC2    C3 1243   1.459   1.816  11.835  0.1303  0.0002 -0.0918
   80TMC2    C4 1244   1.412   1.648  12.039  0.1927  0.6958 -0.3708
   80TMC2    C5 1245   1.313   1.729  11.996  0.0681  0.1251  0.3436
   80TMC2    C6 1246   1.332   1.814  11.890  0.0523 -0.0849  0.8117
   80TMC2     C 1247   1.648   1.599  12.048  0.2064  0.0668 -0.5704
   80TMC2     O 1248   1.754   1.659  12.040  0.0156  0.3271 -0.5785
   80TMC2     H 1249   1.664   1.748  11.846 -0.1470  2.9967 -0.9279
   80TMC2    H1 1250   1.391   1.591  12.129  0.7220  0.2212 -0.5416
   80TMC2    H2 1251   1.249   1.866  11.843 -0.3990 -0.9590  0.6509
   80TMC2    C7 1252   1.191   1.747  12.074 -0.1426  0.3320  0.8022
   80TMC2    C8 1253   1.478   1.901  11.718  0.6451  0.3476 -0.8654
   80TMC2    O1 1254   1.124   1.844  12.040  0.0569 -0.5558  0.0146
   80TMC2    O2 1255   1.412   1.995  11.683 -0.2665 -0.1415  0.2463
   80TMC2    O5 1256   1.569   1.838  11.643 -0.7055 -0.5941 -0.1183
   80TMC2    H5 1257   1.592   1.745  11.662  1.5301  0.4371  2.1929
   81MPD2     C 1258   1.654   1.274  12.230  0.0691 -0.4866  0.2276
   81MPD2    C1 1259   1.693   1.405  12.202 -0.4743  0.3490  0.6449
   81MPD2    C2 1260   1.798   1.463  12.274 -0.2576  0.3086 -0.6985
   81MPD2    C3 1261   1.851   1.395  12.381 -0.2772  0.1871  0.8172
   81MPD2    C4 1262   1.820   1.259  12.400  0.0017 -0.0204 -0.5035
   81MPD2    C5 1263   1.725   1.206  12.324  0.9624 -0.6197 -0.4613
   81MPD2     H 1264   1.825   1.567  12.256 -2.8566  0.8987 -1.2093
   81MPD2    H1 1265   1.860   1.200  12.482 -4.0545 -3.2367 -0.8189
   81MPD2    H2 1266   1.563   1.235  12.187 -1.8356  3.1619  0.8472
   81MPD2    H3 1267   1.693   1.104  12.346  1.6892 -0.8625 -0.5283
   81MPD2     N 1268   1.937   1.445  12.486  0.7110 -0.4396 -0.2031
   81MPD2    H5 1269   1.953   1.383  12.565 -1.1343 -0.3513  0.2385
   81MPD2    N1 1270   1.609   1.481  12.112  0.5584  0.1612 -0.0269
   81MPD2    H7 1271   1.529   1.434  12.071 -0.3755 -0.7582  2.8911
   82TMC2    C1 1272   3.952   0.878  10.535  0.1550  0.5486 -0.4494
   82TMC2    C2 1273   4.029   0.969  10.608 -0.4139 -0.1453 -0.9082
   82TMC2    C3 1274   4.112   0.915  10.702 -0.7484 -0.3379 -0.3870
   82TMC2    C4 1275   3.957   0.748  10.567 -0.3279  0.3833  1.0671
   82TMC2    C5 1276   4.033   0.704  10.674  0.3804 -0.1681  0.3221
   82TMC2    C6 1277   4.118   0.787  10.735 -0.5560 -0.0378  0.0345
   82TMC2     C 1278   3.906   0.929  10.410  0.0448  0.6020 -0.5363
   82TMC2     O 1279   3.911   1.048  10.395  0.8151  0.2838  0.1625
   82TMC2     H 1280   4.048   1.072  10.581  0.0917 -0.0215 -0.1045
   82TMC2    H1 1281   3.887   0.680  10.519 -1.7117 -0.0143  3.6289
   82TMC2    H2 1282   4.172   0.757  10.823 -1.5484  1.1608  1.0579
   82TMC2    C7 1283   3.987   0.586  10.750 -0.8962  0.0064 -0.1220
   82TMC2    C8 1284   4.182   0.999  10.795 -0.0384  0.3128 -0.2737
   82TMC2    O1 1285   4.029   0.570  10.866  0.6737  0.2989  0.0068
   82TMC2    O2 1286   4.277   0.953  10.861 -0.6342 -0.2500 -0.0316
   82TMC2    O5 1287   4.106   1.106  10.827  0.0842 -0.2077 -0.2893
   82TMC2    H5 1288   4.032   1.115  10.763 -0.8137  3.4017  1.2274
   83MPD2     C 1289   3.742   0.938   9.949  0.2553 -0.2325 -0.0152
   83MPD2    C1 1290   3.701   1.017  10.054  0.9942  0.4717  0.1887
   83MPD2    C2 1291   3.753   0.979  10.178  0.2788  0.4418  0.0681
   83MPD2    C3 1292   3.833   0.865  10.191 -1.2569 -0.2288 -0.5741
   83MPD2    C4 1293   3.864   0.780  10.086 -0.4467  0.2365  0.2245
   83MPD2    C5 1294   3.809   0.823   9.966 -0.3260 -0.0181 -0.0820
   83MPD2     H 1295   3.730   1.035  10.268 -3.9702 -3.2032  1.2239
   83MPD2    H1 1296   3.916   0.686  10.097  0.1913  0.5648  0.0399
   83MPD2    H2 1297   3.700   0.962   9.852  0.0182  1.7019  0.5634
   83MPD2    H3 1298   3.823   0.756   9.882 -0.9605 -1.0814  0.6702
   83MPD2     N 1299   3.881   0.834  10.318 -0.0630  0.3090  0.3043
   83MPD2    H5 1300   3.903   0.738  10.341 -1.1542  0.2042  0.8868
   83MPD2    N1 1301   3.603   1.116  10.033 -0.3133 -0.5196 -0.0312
   83MPD2    H7 1302   3.564   1.143   9.943 -0.7105 -1.9000 -0.2752
   84TMC2    C1 1303   0.552   0.880  10.437 -0.0940 -0.0499  0.1885
   84TMC2    C2 1304   0.677   0.935  10.413 -0.1809 -0.4178  0.0059
   84TMC2    C3 1305   0.760   0.857  10.331  0.0964  0.2712 -0.3653
   84TMC2    C4 1306   0.504   0.769  10.375  0.0400 -0.3193 -0.2074
   84TMC2    C5 1307   0.586   0.710  10.281  0.4480  0.2816  0.1875
   84TMC2    C6 1308   0.716   0.747  10.272 -0.5665  0.3621  0.1085
   84TMC2     C 1309   0.475   0.926  10.546 -0.3052 -0.0836 -0.1490
   84TMC2     O 1310   0.507   1.034  10.586  0.6079  0.3692  0.1931
   84TMC2     H 1311   0.720   1.020  10.465 -1.5985  0.0196  0.4831
   84TMC2    H1 1312   0.409   0.722  10.395  0.8556 -1.1251  1.7350
   84TMC2    H2 1313   0.782   0.685  10.214  1.3669  1.0871  1.5327
   84TMC2    C7 1314   0.553   0.571  10.243  0.9045  0.3331  0.2346
   84TMC2    C8 1315   0.898   0.893  10.309  0.0340  0.2495 -0.1691
   84TMC2    O1 1316   0.505   0.504  10.335  0.1790  0.1975 -0.3668
   84TMC2    O2 1317   0.996   0.820  10.324 -0.1201 -0.2379  0.2052
   84TMC2    O5 1318   0.901   1.017  10.264  0.6309 -0.1533 -0.1263
   84TMC2    H5 1319   0.810   1.052  10.248  1.3348  1.1386 -1.2948
   85TMC2    C1 1320   1.748   3.465  16.005 -0.4495 -0.2653 -0.6988
   85TMC2    C2 1321   1.644   3.532  16.054  0.0861  0.2589  0.1018
   85TMC2    C3 1322   1.636   3.666  16.021  0.2384  0.5766  0.7874
   85TMC2    C4 1323   1.842   3.511  15.919 -0.4650 -0.5359  0.2075
   85TMC2    C5 1324   1.831   3.647  15.896  0.3037  0.8447  0.0937
   85TMC2    C6 1325   1.724   3.717  15.934  0.3501 -0.2137  0.4141
   85TMC2     C 1326   1.784   3.347  16.076  0.0579  0.1010 -1.2476
   85TMC2     O 1327   1.899   3.322  16.095  0.1615  0.3162 -0.1324
   85TMC2     H 1328   1.579   3.484  16.126 -0.2674  1.4433  0.5767
   85TMC2    H1 1329   1.920   3.442  15.890 -0.5230 -1.0445  1.2643
   85TMC2    H2 1330   1.721   3.825  15.929 -0.0628 -0.2072  0.8414
   85TMC2    C7 1331   1.905   3.689  15.782 -0.0683  0.1621  0.4313
   85TMC2    C8 1332   1.569   3.766  16.103  0.3236 -0.5261  0.3062
   85TMC2    O1 1333   1.993   3.610  15.746  0.3183  0.1914  0.2085
   85TMC2    O2 1334   1.501   3.860  16.064 -0.2718  0.1593  0.3059
   85TMC2    O5 1335   1.624   3.760  16.227 -0.1698  0.1148  0.0006
   85TMC2    H5 1336   1.644   3.666  16.243  1.5951  0.5535  0.3803
   86MPD2     C 1337   1.683   2.873  16.254  0.4228  0.1944 -0.0066
   86MPD2    C1 1338   1.581   2.917  16.168 -0.1137  0.3273 -1.0000
   86MPD2    C2 1339   1.588   3.046  16.110  0.1398  0.0074 -0.6640
   86MPD2    C3 1340   1.691   3.129  16.141 -0.2580 -0.5157  0.3057
   86MPD2    C4 1341   1.794   3.090  16.226  0.1137 -0.7376 -0.3710
   86MPD2    C5 1342   1.788   2.959  16.276 -0.2993  0.0713  0.0374
   86MPD2     H 1343   1.503   3.078  16.050  0.5995  1.7437 -0.3984
   86MPD2    H1 1344   1.881   3.152  16.247  0.5945 -2.0006  1.3708
   86MPD2    H2 1345   1.678   2.776  16.302  1.7730 -0.0537 -0.3692
   86MPD2    H3 1346   1.879   2.931  16.327  0.5573  0.7208 -1.1302
   86MPD2     N 1347   1.680   3.260  16.091 -0.0118  0.0998 -0.7466
   86MPD2    H5 1348   1.587   3.294  16.070  0.8288  3.0478  0.2872
   86MPD2    N1 1349   1.466   2.833  16.147  0.4247 -0.4731  0.0308
   86MPD2    H7 1350   1.416   2.843  16.060 -0.9631  0.9901  0.9915
   87TMC2    C1 1351   3.349   1.222   0.842 -0.0365 -0.2349 -0.9754
   87TMC2    C2 1352   3.396   1.220   0.968  0.4270 -0.4239  0.0562
   87TMC2    C3 1353   3.363   1.323   1.052 -0.4191  0.1880 -0.5805
   87TMC2    C4 1354   3.253   1.321   0.796  0.7503  0.7778 -0.7209
   87TMC2    C5 1355   3.221   1.417   0.888 -0.6282  0.4538 -0.4114
   87TMC2    C6 1356   3.266   1.412   1.020 -1.2548 -0.1493 -0.1509
   87TMC2     C 1357   3.428   1.150   0.750  0.1945 -0.1748  0.0806
   87TMC2     O 1358   3.400   1.179   0.636 -0.6614 -0.2273 -0.0079
   87TMC2     H 1359   3.461   1.139   1.000  1.1148 -0.9160 -2.5700
   87TMC2    H1 1360   3.214   1.322   0.695  0.0641  1.3334 -0.4498
   87TMC2    H2 1361   3.204   1.468   1.090 -0.3943 -0.7140  1.0577
   87TMC2    C7 1362   3.109   1.506   0.847 -0.2114 -0.4020 -0.5221
   87TMC2    C8 1363   3.385   1.312   1.195 -0.4941  0.1602 -0.0130
   87TMC2    O1 1364   3.032   1.468   0.761  0.6046 -0.6221 -0.1328
   87TMC2    O2 1365   3.308   1.360   1.279 -0.3208  0.3385  0.5453
   87TMC2    O5 1366   3.485   1.226   1.228 -0.2012 -0.1383  0.1610
   87TMC2    H5 1367   3.543   1.197   1.154 -1.2493  1.1369 -1.1647
   88MPD2     C 1368   3.055   1.864   0.958 -0.2584 -0.2897 -0.3301
   88MPD2    C1 1369   3.029   1.740   0.893  0.1170 -0.9099 -0.6402
   88MPD2    C2 1370   2.917   1.735   0.806  0.0250  0.4038 -0.7173
   88MPD2    C3 1371   2.841   1.851   0.777  0.5272 -0.7414  0.0673
   88MPD2    C4 1372   2.861   1.964   0.856  0.4989  0.0225  0.3963
   88MPD2    C5 1373   2.966   1.968   0.941  0.3802 -0.1181 -0.0151
   88MPD2     H 1374   2.908   1.648   0.742  0.2401  1.1273 -1.7270
   88MPD2    H1 1375   2.798   2.051   0.847  0.9411  0.3779  0.7538
   88MPD2    H2 1376   3.137   1.874   1.029 -2.0666  1.4478  1.5330
   88MPD2    H3 1377   2.992   2.061   0.991 -0.0989 -0.2054  0.3950
   88MPD2     N 1378   2.746   1.860   0.669 -1.0832  0.5384 -0.6565
   88MPD2    H5 1379   2.706   1.950   0.646  1.8981  2.0150 -0.0726
   88MPD2    N1 1380   3.115   1.628   0.917 -0.6055  0.2527  0.2425
   88MPD2    H7 1381   3.186   1.645   0.988  1.2789 -4.0828 -0.6017
   89TMC2    C1 1382   4.496   0.687   1.941  0.2069 -0.8246 -0.5691
   89TMC2    C2 1383   4.572   0.784   2.007  0.1330  0.3828 -0.1229
   89TMC2    C3 1384   4.634   0.869   1.921  0.3978  0.4806  0.7267
   89TMC2    C4 1385   4.490   0.674   1.809  1.0850 -0.2328 -0.7319
   89TMC2    C5 1386   4.543   0.778   1.732 -0.2651  0.3312 -0.5173
   89TMC2    C6 1387   4.620   0.875   1.785  0.4675 -0.2533  0.7410
   89TMC2     C 1388   4.463   0.571   2.027  0.0230 -0.3370  0.5233
   89TMC2     O 1389   4.470   0.583   2.146 -0.1496 -0.4725 -0.2688
   89TMC2     H 1390   4.571   0.795   2.114 -0.2231 -0.2681 -0.0572
   89TMC2    H1 1391   4.409   0.614   1.769  1.6689 -0.9957 -0.7576
   89TMC2    H2 1392   4.678   0.947   1.728  1.2991 -0.0237  1.9045
   89TMC2    C7 1393   4.492   0.786   1.597  0.1669 -0.0746  1.6175
   89TMC2    C8 1394   4.714   0.970   1.981  0.0321  0.3550  0.4241
   89TMC2    O1 1395   4.418   0.697   1.565  0.3181  0.7191 -0.0815
   89TMC2    O2 1396   0.068   1.014   1.909  0.0673 -0.2093 -0.1265
   89TMC2    O5 1397   4.648   1.044   2.074  1.1296 -0.4867  0.0223
   89TMC2    H5 1398   4.557   1.021   2.100  1.5853  1.9931  3.7705
   90MPD2     C 1399   4.404   0.064   2.073  0.0749  0.3546  0.3937
   90MPD2    C1 1400   4.427   0.096   1.944 -0.2280 -0.3537  0.5247
   90MPD2    C2 1401   4.460   0.224   1.913 -0.2044 -0.1606  0.6115
   90MPD2    C3 1402   4.451   0.324   2.001 -0.1982  0.1909 -0.1087
   90MPD2    C4 1403   4.405   0.293   2.128 -0.1040 -0.5129  0.0184
   90MPD2    C5 1404   4.399   0.163   2.167  0.9738  0.4817 -0.1033
   90MPD2     H 1405   4.482   0.247   1.810  0.8199 -0.8323  0.6835
   90MPD2    H1 1406   4.391   0.372   2.201  0.7335  0.8709 -1.3229
   90MPD2    H2 1407   4.396   4.698   2.102  0.7077  0.4845  1.0288
   90MPD2    H3 1408   4.362   0.141   2.267 -1.3752 -0.8654 -1.2545
   90MPD2     N 1409   4.479   0.454   1.952 -0.0652  0.3893  0.3723
   90MPD2    H5 1410   4.502   0.459   1.853 -2.4278 -2.4717 -0.3029
   90MPD2    N1 1411   4.436   4.732   1.844  0.0228 -0.1747  0.0159
   90MPD2    H7 1412   4.463   0.028   1.752  2.1858  0.6600  0.9626
   91TMC2    C1 1413   1.385   3.830  16.506 -0.5908  0.2283  0.9208
   91TMC2    C2 1414   1.405   3.957  16.457  0.2367 -0.1353  0.7049
   91TMC2    C3 1415   1.328   3.999  16.354 -0.1203  0.4833 -0.5189
   91TMC2    C4 1416   1.310   3.738  16.441  0.4443  0.0473 -0.1342
   91TMC2    C5 1417   1.241   3.786  16.331  0.9423  0.6963  0.4819
   91TMC2    C6 1418   1.243   3.913  16.288  0.0453  0.0887  0.3168
   91TMC2     C 1419   1.460   3.789  16.621 -0.2707 -0.2452  0.3505
   91TMC2     O 1420   1.419   3.682  16.670  0.4093 -0.4967 -0.3525
   91TMC2     H 1421   1.442   4.036  16.521  1.7678 -1.0923  1.0074
   91TMC2    H1 1422   1.312   3.634  16.469  0.0473  0.2958  0.7901
   91TMC2    H2 1423   1.188   3.950  16.203 -1.0707 -1.7857  0.2281
   91TMC2    C7 1424   1.137   3.690  16.289  0.4947  0.5527  0.9173
   91TMC2    C8 1425   1.340   4.137  16.311  0.3852  0.5694  0.4270
   91TMC2    O1 1426   1.116   3.604  16.372 -0.0038 -0.1942  0.0324
   91TMC2    O2 1427   1.249   4.180  16.237  0.4724 -0.1404 -0.5001
   91TMC2    O5 1428   1.472   4.161  16.302 -0.2319 -0.0670  0.0380
   91TMC2    H5 1429   1.528   4.107  16.362  1.7404  0.7794 -1.0407
   92MPD2     C 1430   1.586   3.790  16.889 -0.2691 -0.2572  0.3203
   92MPD2    C1 1431   1.626   3.870  16.786 -0.8837  0.2001  0.1794
   92MPD2    C2 1432   1.737   3.947  16.819  0.0924  0.2702  0.0696
   92MPD2    C3 1433   1.803   3.933  16.944 -0.4672  0.5094 -0.5481
   92MPD2    C4 1434   1.753   3.862  17.053  0.3655  0.5214  0.3890
   92MPD2    C5 1435   1.641   3.784  17.018  0.4195  0.1211  0.2410
   92MPD2     H 1436   1.790   4.000  16.742 -0.2954  0.0200 -0.3683
   92MPD2    H1 1437   1.790   3.863  17.155  1.4437  1.4817 -0.0188
   92MPD2    H2 1438   1.498   3.729  16.875 -0.5771  0.2029  0.2412
   92MPD2    H3 1439   1.578   3.721  17.081  1.1531 -2.1325 -1.2966
   92MPD2     N 1440   1.928   4.005  16.954  0.5053  0.1032  0.4041
   92MPD2    H5 1441   1.960   4.061  16.876 -0.9641  0.5362  0.1064
   92MPD2    N1 1442   1.561   3.875  16.661 -0.1425 -0.4191 -0.0284
   92MPD2    H7 1443   1.598   3.937  16.591  1.4526  0.8579  1.9448
   93TMC2    C1 1444   3.409   4.113  13.523 -0.3571 -0.6063  0.2945
   93TMC2    C2 1445   3.325   4.151  13.417  0.0136  0.1781 -0.1978
   93TMC2    C3 1446   3.356   4.267  13.355  0.4248 -0.3257 -0.2366
   93TMC2    C4 1447   3.515   4.194  13.559 -0.4676  0.3540  0.4972
   93TMC2    C5 1448   3.526   4.322  13.505 -0.3860 -0.1716 -0.0433
   93TMC2    C6 1449   3.446   4.358  13.399  0.2476 -0.2795  0.5312
   93TMC2     C 1450   3.364   4.019  13.616 -0.0376  0.4594 -0.5107
   93TMC2     O 1451   3.441   3.944  13.668  0.3235 -0.0708 -0.1140
   93TMC2     H 1452   3.249   4.081  13.384  0.3355 -0.2195 -0.1066
   93TMC2    H1 1453   3.571   4.183  13.651  0.6163  1.5351 -0.0227
   93TMC2    H2 1454   3.458   4.450  13.342  0.4562 -0.6689 -0.0549
   93TMC2    C7 1455   3.645   4.398  13.522 -0.0983 -0.0763  0.4095
   93TMC2    C8 1456   3.264   4.325  13.264 -0.7276 -0.2400  0.3884
   93TMC2    O1 1457   3.753   4.339  13.535 -0.3089  0.2310 -0.2169
   93TMC2    O2 1458   3.235   4.444  13.269  0.4079 -0.2380 -0.4577
   93TMC2    O5 1459   3.219   4.233  13.181  0.2085  0.3865  0.4107
   93TMC2    H5 1460   3.256   4.143  13.190 -0.6696  0.0501  0.6498
   94MPD2     C 1461   3.191   3.805  13.751 -0.3155 -0.2188  0.1608
   94MPD2    C1 1462   3.148   3.935  13.717  0.0278 -0.2780  0.0736
   94MPD2    C2 1463   3.017   3.969  13.752 -0.6420 -0.3286 -0.9955
   94MPD2    C3 1464   2.928   3.878  13.809 -0.8453 -0.3417 -0.2193
   94MPD2    C4 1465   2.976   3.753  13.840  0.1811  0.4014  0.2162
   94MPD2    C5 1466   3.105   3.721  13.812 -0.4206 -0.0843 -0.2345
   94MPD2     H 1467   2.980   4.065  13.716  2.9100  1.4201  0.0262
   94MPD2    H1 1468   2.907   3.679  13.880 -1.4587  1.0171 -1.4464
   94MPD2    H2 1469   3.285   3.764  13.717 -0.6623 -2.0737  1.4657
   94MPD2    H3 1470   3.142   3.624  13.844 -0.8083 -0.3843 -0.6874
   94MPD2     N 1471   2.785   3.907  13.833 -0.0861 -0.1986  0.9333
   94MPD2    H5 1472   2.726   3.826  13.849  1.4310 -1.0197  2.3248
   94MPD2    N1 1473   3.226   4.023  13.636  0.2313 -0.2692  0.4464
   94MPD2    H7 1474   3.179   4.109  13.610  2.2951  0.3169 -1.3780
   95TMC2    C1 1475   2.955   1.420  15.773 -0.0203  0.1452 -0.2724
   95TMC2    C2 1476   2.833   1.368  15.743 -0.1727  0.7674 -0.8656
   95TMC2    C3 1477   2.716   1.439  15.771 -0.3982  0.3186  0.5104
   95TMC2    C4 1478   2.964   1.553  15.801 -0.3934  0.8872  0.7752
   95TMC2    C5 1479   2.848   1.616  15.832 -0.1709  0.2729 -0.3171
   95TMC2    C6 1480   2.721   1.562  15.829  0.0398  0.0271  0.1707
   95TMC2     C 1481   3.083   1.358  15.735 -0.2113  0.3276 -0.1840
   95TMC2     O 1482   3.174   1.427  15.692  0.0185 -0.2145  0.0673
   95TMC2     H 1483   2.822   1.267  15.705  2.0485 -0.0712  0.6597
   95TMC2    H1 1484   3.065   1.591  15.799 -0.3837  0.8445  0.4298
   95TMC2    H2 1485   2.635   1.624  15.853  2.2069  2.7126  0.9711
   95TMC2    C7 1486   2.856   1.759  15.821 -0.0260  0.4639  0.1570
   95TMC2    C8 1487   2.594   1.355  15.760 -0.3534 -0.3707 -0.0905
   95TMC2    O1 1488   2.756   1.817  15.797  0.3308  0.8042 -0.2604
   95TMC2    O2 1489   2.607   1.242  15.803  0.0887 -0.1290  0.1235
   95TMC2    O5 1490   2.488   1.440  15.776  0.4465  0.3241  0.6802
   95TMC2    H5 1491   2.493   1.517  15.716  1.0481 -1.5119 -1.6206
   96MPD2     C 1492   3.374   0.933  15.716 -0.2850  0.2441 -0.5232
   96MPD2    C1 1493   3.410   1.065  15.688  0.2186  0.2372  0.5391
   96MPD2    C2 1494   3.309   1.159  15.702 -1.0945 -0.4092 -0.3685
   96MPD2    C3 1495   3.184   1.125  15.748 -0.0279  0.3367  0.1197
   96MPD2    C4 1496   3.153   0.995  15.778 -0.1339 -0.6720  0.0836
   96MPD2    C5 1497   3.247   0.896  15.759  0.3708 -0.4541  0.7111
   96MPD2     H 1498   3.329   1.262  15.674 -3.2567  0.0057 -0.3924
   96MPD2    H1 1499   3.053   0.962  15.802 -0.2925 -0.5355 -0.3964
   96MPD2    H2 1500   3.448   0.857  15.693 -1.9334 -2.1969  2.2166
   96MPD2    H3 1501   3.240   0.791  15.785  0.7543 -0.5097  0.5802
   96MPD2     N 1502   3.078   1.217  15.757  0.8484  0.9565  0.0216
   96MPD2    H5 1503   2.986   1.188  15.789  2.3505 -1.3637  2.1797
   96MPD2    N1 1504   3.541   1.086  15.645  0.5792 -0.0606 -0.1482
   96MPD2    H7 1505   3.596   1.001  15.638  1.5668  0.6570 -0.9804
   97TMC2    C1 1506   0.381   4.621  17.622  0.0915 -0.1355  0.6281
   97TMC2    C2 1507   0.350   4.702  17.515 -0.1181 -0.0743  0.4247
   97TMC2    C3 1508   0.453   0.048  17.465 -0.0665 -0.7463 -0.2432
   97TMC2    C4 1509   0.509   4.612  17.678 -0.2818 -0.2022 -0.0828
   97TMC2    C5 1510   0.603   4.698  17.631 -0.0906 -0.2459  0.2820
   97TMC2    C6 1511   0.570   0.057  17.541 -0.0830 -0.3831  0.5774
   97TMC2     C 1512   0.279   4.533  17.688 -0.0769 -0.1682  0.3809
   97TMC2     O 1513   0.302   4.504   0.054 -0.2070  0.1420  0.1790
   97TMC2     H 1514   0.249   4.712  17.476 -0.3918  2.6856  1.8034
   97TMC2    H1 1515   0.520   4.542   0.012 -1.1131 -0.2845 -0.0396
   97TMC2    H2 1516   0.642   0.136  17.524 -0.3185 -0.5932 -1.4516
   97TMC2    C7 1517   0.738   4.705  17.689 -0.2668  0.7560  0.6490
   97TMC2    C8 1518   0.407   0.160  17.376 -0.5510 -0.1030 -0.1561
   97TMC2    O1 1519   0.821   0.031  17.622  0.1975  0.5334  0.4030
   97TMC2    O2 1520   0.294   0.203  17.388 -0.7999  0.2341  0.5786
   97TMC2    O5 1521   0.510   0.226  17.346  0.2665 -0.4180  0.3171
   97TMC2    H5 1522   0.578   0.160  17.321  0.2556 -0.0249 -0.7341
   98MPD2     C 1523   4.565   4.284  17.708 -0.7236  0.2741 -0.0540
   98MPD2    C1 1524   4.675   4.280   0.048  0.3212 -0.4003  0.2744
   98MPD2    C2 1525   0.048   4.360   0.021 -0.2376 -0.8013  0.5216
   98MPD2    C3 1526   0.057   4.438  17.652 -0.3582  0.5435 -0.0136
   98MPD2    C4 1527   4.683   4.441  17.569 -0.3054  1.1232 -0.3668
   98MPD2    C5 1528   4.571   4.361  17.597 -0.3638 -0.4099  0.2451
   98MPD2     H 1529   0.136   4.356   0.083 -0.3341 -0.9337  0.6508
   98MPD2    H1 1530   4.688   4.501  17.479 -0.8285  1.2099 -0.3357
   98MPD2    H2 1531   4.480   4.220  17.724  0.7397 -1.9710 -1.2177
   98MPD2    H3 1532   4.484   4.350  17.533  0.0822 -4.7133  0.3894
   98MPD2     N 1533   0.169   4.509  17.606  0.6417  0.4709 -0.5435
   98MPD2    H5 1534   0.181   4.528  17.507  1.6938  2.0217 -0.1324
   98MPD2    N1 1535   4.659   4.189   0.159  0.1028  0.3244  0.8772
   98MPD2    H7 1536   4.568   4.147   0.177 -0.6376  0.4768 -2.6394
   99TMC2    C1 1537   4.103   0.586   2.117 -0.5994 -0.1767 -0.1287
   99TMC2    C2 1538   4.178   0.611   2.234  0.4819 -0.1299 -0.7444
   99TMC2    C3 1539   4.183   0.513   2.332  0.2247 -1.0414 -0.4110
   99TMC2    C4 1540   4.045   0.464   2.099  0.7261  0.2568 -0.1196
   99TMC2    C5 1541   4.058   0.373   2.195  0.9893 -0.0196 -0.5550
   99TMC2    C6 1542   4.119   0.396   2.315  0.2489 -0.4703  0.1313
   99TMC2     C 1543   4.131   0.678   2.007  0.4248  0.5076  0.3616
   99TMC2     O 1544   4.191   0.780   2.033 -0.2687  0.0076  0.2731
   99TMC2     H 1545   4.250   0.691   2.242 -1.0288  0.9295  2.2924
   99TMC2    H1 1546   4.004   0.448   2.000 -2.9673  0.1885  1.4286
   99TMC2    H2 1547   4.126   0.324   2.396  0.8425  0.6346  1.0627
   99TMC2    C7 1548   4.058   0.231   2.150 -0.2270 -0.2040 -0.3213
   99TMC2    C8 1549   4.277   0.518   2.436 -0.3969  1.0140 -0.3380
   99TMC2    O1 1550   4.110   0.146   2.225 -0.1483 -1.0178 -0.7250
   99TMC2    O2 1551   4.310   0.418   2.494 -0.9341  1.0022  0.1169
   99TMC2    O5 1552   4.303   0.641   2.483 -0.1770 -0.0823  0.3937
   99TMC2    H5 1553   4.245   0.711   2.446 -0.4618 -0.8816 -0.6669
  100MPD2     C 1554   4.142   0.839   1.754  0.0155  0.4781 -0.1639
  100MPD2    C1 1555   4.102   0.706   1.762 -0.5819  0.7904  0.5601
  100MPD2    C2 1556   4.075   0.638   1.645 -0.1257  0.6857  0.0760
  100MPD2    C3 1557   4.083   0.705   1.527 -0.5401  0.1609  0.4273
  100MPD2    C4 1558   4.108   0.842   1.516  0.1177 -0.5762  0.5688
  100MPD2    C5 1559   4.143   0.904   1.634  0.2527  0.1319 -0.1863
  100MPD2     H 1560   4.043   0.535   1.654  0.5586  0.3584 -1.2382
  100MPD2    H1 1561   4.101   0.903   1.426 -0.5352 -2.5642 -0.7128
  100MPD2    H2 1562   4.155   0.899   1.843  1.7983 -0.1201 -0.0208
  100MPD2    H3 1563   4.180   1.005   1.639 -2.0842  0.9713  0.2455
  100MPD2     N 1564   4.059   0.622   1.422  0.1477  0.0727 -0.2880
  100MPD2    H5 1565   4.043   0.524   1.444 -1.0390  0.5663  1.0550
  100MPD2    N1 1566   4.099   0.629   1.886  0.0492  0.1524  0.1755
  100MPD2    H7 1567   4.068   0.533   1.886 -2.3195  0.9180 -1.9040
  101TMC2    C1 1568   0.373   2.413  12.615  0.0515  0.3807 -0.2510
  101TMC2    C2 1569   0.252   2.469  12.602 -0.1549  0.2824 -0.0830
  101TMC2    C3 1570   0.252   2.588  12.535 -0.2592 -0.0094 -0.2295
  101TMC2    C4 1571   0.490   2.476  12.577  0.1476 -0.5213 -0.1978
  101TMC2    C5 1572   0.482   2.592  12.503 -0.8033 -0.3717  0.3237
  101TMC2    C6 1573   0.360   2.653  12.487 -0.0349  0.1296  0.3776
  101TMC2     C 1574   0.377   2.310  12.722  0.9813  0.3263  0.4410
  101TMC2     O 1575   0.274   2.258  12.750 -0.2836 -0.0711  0.1342
  101TMC2     H 1576   0.161   2.436  12.651 -0.6643  2.5013  0.4303
  101TMC2    H1 1577   0.584   2.423  12.583 -1.2996 -3.1631 -0.9367
  101TMC2    H2 1578   0.350   2.749  12.439 -3.6580 -1.4562 -2.0348
  101TMC2    C7 1579   0.601   2.665  12.456 -0.6071  0.3991 -0.4365
  101TMC2    C8 1580   0.118   2.644  12.517 -0.1223  0.1393  0.3446
  101TMC2    O1 1581   0.578   2.751  12.372  0.3268 -0.1238 -0.0312
  101TMC2    O2 1582   0.028   2.644  12.602 -0.0994 -0.1855  0.2657
  101TMC2    O5 1583   0.124   2.732  12.414 -0.2531  0.0362 -0.3174
  101TMC2    H5 1584   0.187   2.698  12.346  0.6568  1.3551 -0.1408
  102MPD2     C 1585   0.631   2.293  12.991  0.4206  0.0561 -0.0704
  102MPD2    C1 1586   0.515   2.252  12.926 -0.0931  0.1137 -0.3441
  102MPD2    C2 1587   0.437   2.160  12.987  0.3496 -0.3383  0.4464
  102MPD2    C3 1588   0.466   2.103  13.113  0.5371  0.2069 -0.5841
  102MPD2    C4 1589   0.577   2.154  13.175  0.0378  0.2578  0.0886
  102MPD2    C5 1590   0.662   2.240  13.114 -0.4531 -0.3361  0.5023
  102MPD2     H 1591   0.341   2.135  12.942  0.6633 -2.3895  0.8826
  102MPD2    H1 1592   0.611   2.112  13.269 -1.8907 -0.1180  0.6036
  102MPD2    H2 1593   0.710   2.356  12.952  0.7731 -0.7937 -0.7300
  102MPD2    H3 1594   0.758   2.273  13.151 -0.5147 -1.5994  1.8069
  102MPD2     N 1595   0.380   2.003  13.167 -0.5860  0.6845 -0.2778
  102MPD2    H5 1596   0.293   1.986  13.117  0.9476 -3.4906 -1.5667
  102MPD2    N1 1597   0.496   2.314  12.801  0.0518 -0.0933  0.2979
  102MPD2    H7 1598   0.558   2.392  12.784  0.0099  0.2684  1.7934
  103TMC2    C1 1599   3.570   2.033  12.526 -0.0049  0.4644  0.3981
  103TMC2    C2 1600   3.688   2.085  12.491 -0.1799 -0.3371  0.2158
  103TMC2    C3 1601   3.734   2.196  12.561  0.6794 -0.2117 -0.5329
  103TMC2    C4 1602   3.520   2.064  12.649  0.4538 -0.4691  1.4217
  103TMC2    C5 1603   3.555   2.174  12.716  0.4228  0.0279 -0.3731
  103TMC2    C6 1604   3.661   2.252  12.667  0.0392 -0.0674 -0.2593
  103TMC2     C 1605   3.509   1.924  12.449 -0.0316  0.3422  0.1085
  103TMC2     O 1606   3.399   1.894  12.492 -0.1492 -0.4629 -0.1636
  103TMC2     H 1607   3.745   2.054  12.405 -0.1138 -0.6383  0.3684
  103TMC2    H1 1608   3.431   2.017  12.688 -0.5803 -0.7242 -1.2672
  103TMC2    H2 1609   3.688   2.350  12.704 -2.3495  0.9353 -1.2214
  103TMC2    C7 1610   3.475   2.203  12.838  0.3190 -0.1520  0.3333
  103TMC2    C8 1611   3.855   2.258  12.501 -0.2911  0.5106 -0.2277
  103TMC2    O1 1612   3.398   2.122  12.889 -1.0119  0.4864 -0.7813
  103TMC2    O2 1613   3.918   2.206  12.407  0.4949  0.0571 -0.1283
  103TMC2    O5 1614   3.914   2.310  12.610 -0.0192 -0.5452  0.2966
  103TMC2    H5 1615   3.857   2.335  12.686  0.4006 -0.9345  0.7372
  104MPD2     C 1616   3.654   1.668  12.225  0.4754  0.1549 -0.5891
  104MPD2    C1 1617   3.555   1.745  12.279 -0.3281  0.3470  0.1199
  104MPD2    C2 1618   3.423   1.706  12.255  0.7018 -0.1112  0.2363
  104MPD2    C3 1619   3.389   1.593  12.181 -0.7412 -0.5104  0.9021
  104MPD2    C4 1620   3.489   1.512  12.139  0.5456 -0.1749  0.3140
  104MPD2    C5 1621   3.615   1.552  12.154 -0.0807 -0.1954  0.2805
  104MPD2     H 1622   3.345   1.777  12.283 -0.7094 -1.6319  0.1405
  104MPD2    H1 1623   3.472   1.413  12.098  1.1603  0.0198 -0.4163
  104MPD2    H2 1624   3.758   1.699  12.229  0.3146  0.5745  0.3574
  104MPD2    H3 1625   3.693   1.490  12.111 -0.0603  0.0799 -0.0797
  104MPD2     N 1626   3.248   1.570  12.172 -0.0981  0.2546  0.5744
  104MPD2    H5 1627   3.190   1.637  12.222 -2.4843 -2.4071  1.3853
  104MPD2    N1 1628   3.596   1.856  12.362  0.2511 -0.0176 -0.2755
  104MPD2    H7 1629   3.696   1.871  12.360  0.1770  0.6817  1.1668
  105TMC2    C1 1630   3.859   0.846  17.687 -0.5626  0.8417 -0.2512
  105TMC2    C2 1631   3.835   0.980  17.668  0.8729 -0.2641  0.1384
  105TMC2    C3 1632   3.775   1.047   0.018  0.4938 -0.2723 -0.1141
  105TMC2    C4 1633   3.820   0.787   0.051  0.0808 -0.0254  0.0090
  105TMC2    C5 1634   3.764   0.860   0.148  0.3269 -0.1208  0.7964
  105TMC2    C6 1635   3.732   0.990   0.133 -0.8604  0.0460  0.0224
  105TMC2     C 1636   3.919   0.764  17.591  0.6327  0.0509 -0.1067
  105TMC2     O 1637   3.881   0.648  17.584 -0.4895 -0.3160 -0.5366
  105TMC2     H 1638   3.849   1.028  17.571  2.6002  0.8294  0.9218
  105TMC2    H1 1639   3.818   0.679   0.054  0.6821  0.0402  2.8370
  105TMC2    H2 1640   3.680   1.050   0.207 -1.8014  0.4736 -0.9965
  105TMC2    C7 1641   3.755   0.802   0.281  1.1856 -0.0123 -0.2738
  105TMC2    C8 1642   3.730   1.185  17.739  0.5869  0.1339 -0.0057
  105TMC2    O1 1643   3.841   0.717   0.300 -0.3969 -0.0187 -0.6211
  105TMC2    O2 1644   3.646   1.248   0.055 -0.0451  0.5976 -0.7962
  105TMC2    O5 1645   3.836   1.249  17.681  0.0990  0.2979 -0.4507
  105TMC2    H5 1646   3.904   1.185  17.653  0.7972  1.4820 -1.4805
  106MPD2     C 1647   4.310   0.652  17.273 -0.0985 -0.8221 -0.5206
  106MPD2    C1 1648   4.320   0.784  17.308 -0.4108 -0.2966 -0.1747
  106MPD2    C2 1649   4.221   0.838  17.387 -0.4835 -0.3945 -0.2552
  106MPD2    C3 1650   4.127   0.761  17.442 -0.0133  0.3856  0.0990
  106MPD2    C4 1651   4.118   0.627  17.402 -0.1648 -0.3115  1.1296
  106MPD2    C5 1652   4.206   0.574  17.314 -0.0122  0.6543 -0.1272
  106MPD2     H 1653   4.233   0.942  17.412 -0.8948 -0.8337  1.7275
  106MPD2    H1 1654   4.046   0.560  17.446 -0.2578 -2.0284 -1.6393
  106MPD2    H2 1655   4.380   0.610  17.202 -1.6684 -0.8732 -2.0040
  106MPD2    H3 1656   4.211   0.470  17.283 -0.1408  0.5429  0.2219
  106MPD2     N 1657   4.039   0.819  17.540  0.3103  0.7327  0.1130
  106MPD2    H5 1658   4.056   0.912  17.575 -0.6899  0.7652  0.5233
  106MPD2    N1 1659   4.429   0.862  17.273 -0.0866  0.0007  0.1344
  106MPD2    H7 1660   4.417   0.960  17.295  0.9079 -0.2115  1.5975
  107TMC2    C1 1661   4.698   1.356  11.235  0.3605 -0.4921  0.1602
  107TMC2    C2 1662   0.012   1.467  11.176 -0.1125  0.9253  0.3004
  107TMC2    C3 1663   0.117   1.452  11.083 -0.3839  0.4481 -0.3832
  107TMC2    C4 1664   0.018   1.233  11.224 -0.1107 -0.5068  0.0367
  107TMC2    C5 1665   0.098   1.220  11.109 -0.5819  0.4145  0.3173
  107TMC2    C6 1666   0.162   1.330  11.054  0.1498  0.6433  0.3104
  107TMC2     C 1667   4.580   1.360  11.320  0.3322  0.4425 -0.0509
  107TMC2     O 1668   4.575   1.269  11.404 -0.6342 -0.3495  0.0743
  107TMC2     H 1669   4.702   1.564  11.191 -2.5007 -0.1863 -0.1222
  107TMC2    H1 1670   4.707   1.148  11.271  1.9207 -2.1508 -0.8222
  107TMC2    H2 1671   0.264   1.326  11.018 -0.5200 -0.2338 -1.4627
  107TMC2    C7 1672   0.152   1.085  11.085 -0.5346  0.0676 -0.2221
  107TMC2    C8 1673   0.166   1.567  11.009 -0.4422 -0.3626 -0.3352
  107TMC2    O1 1674   0.126   1.001  11.166  0.4387  0.2391  0.4787
  107TMC2    O2 1675   0.130   1.680  11.047  0.1849 -0.5350 -0.5700
  107TMC2    O5 1676   0.168   1.518  10.876 -0.2577  0.2279 -0.0894
  107TMC2    H5 1677   0.192   1.424  10.866  1.7829  0.8208 -0.7472
  108MPD2     C 1678   4.240   1.511  11.262  0.2872  0.4168  0.1643
  108MPD2    C1 1679   4.340   1.437  11.326 -0.1853  0.2221 -0.8234
  108MPD2    C2 1680   4.315   1.386  11.447  0.0513 -0.5603 -0.3367
  108MPD2    C3 1681   4.185   1.386  11.497 -0.1768  0.1807 -0.3052
  108MPD2    C4 1682   4.087   1.451  11.424  0.4271 -0.6510 -0.2865
  108MPD2    C5 1683   4.111   1.498  11.306 -0.3004  0.8348  0.4315
  108MPD2     H 1684   4.389   1.343  11.514 -0.3423  0.6399  0.8680
  108MPD2    H1 1685   3.986   1.451  11.464 -0.1553  1.6569 -1.7398
  108MPD2    H2 1686   4.250   1.557  11.164 -1.2529  2.1921  0.8307
  108MPD2    H3 1687   4.029   1.532  11.244  2.0456  1.5471 -2.3182
  108MPD2     N 1688   4.143   1.328  11.617  0.5157  0.1848 -0.1803
  108MPD2    H5 1689   4.048   1.350  11.648  0.2927  1.1339 -1.5301
  108MPD2    N1 1690   4.474   1.432  11.269  0.4554 -0.0223 -0.5815
  108MPD2    H7 1691   4.485   1.481  11.181  0.1999 -0.6890 -0.9945
  109TMC2    C1 1692   4.031   3.090   0.247 -0.3495 -0.3351  0.1174
  109TMC2    C2 1693   4.005   3.110   0.113  0.4284  0.0594 -0.3636
  109TMC2    C3 1694   4.044   3.227   0.054  0.6979 -0.5220  0.1824
  109TMC2    C4 1695   4.097   3.178   0.318 -0.2112  0.1888  0.4642
  109TMC2    C5 1696   4.147   3.290   0.254  0.1133  0.3939 -0.9144
  109TMC2    C6 1697   4.108   3.323   0.126 -0.0881 -0.3245  0.0280
  109TMC2     C 1698   3.960   2.980   0.312 -0.3072  0.0815  0.3156
  109TMC2     O 1699   3.886   2.910   0.242 -0.3515 -0.4723 -0.5526
  109TMC2     H 1700   3.935   3.036   0.074 -2.3121  1.7057  1.4348
  109TMC2    H1 1701   4.127   3.164   0.421 -1.7892  0.4830  0.9481
  109TMC2    H2 1702   4.148   3.414   0.082  0.3726 -1.9426 -2.8647
  109TMC2    C7 1703   4.241   3.382   0.322  0.6196 -0.2010 -0.6065
  109TMC2    C8 1704   3.988   3.273  17.674 -0.2168 -0.3591 -0.2623
  109TMC2    O1 1705   4.241   3.492   0.275  0.4078 -0.3254 -0.2969
  109TMC2    O2 1706   3.980   3.391  17.655  0.3373  0.3014 -0.3498
  109TMC2    O5 1707   4.017   3.174  17.589 -0.3585 -0.6505  0.1186
  109TMC2    H5 1708   4.062   3.099  17.635 -0.6374  0.5095  2.3162
  110MPD2     C 1709   3.902   2.673   0.718  0.1198  0.6996  1.0828
  110MPD2    C1 1710   4.005   2.763   0.747  0.1698 -0.5894 -0.2093
  110MPD2    C2 1711   4.039   2.857   0.654 -0.3003 -0.4127 -0.5347
  110MPD2    C3 1712   3.964   2.869   0.531 -0.6206  0.1386 -0.7857
  110MPD2    C4 1713   3.863   2.781   0.507 -0.1320  0.0551 -0.4735
  110MPD2    C5 1714   3.835   2.683   0.599  0.4128  0.6000  0.4236
  110MPD2     H 1715   4.114   2.931   0.675  0.1242 -1.0678  0.2526
  110MPD2    H1 1716   3.807   2.781   0.415 -0.3029 -2.6886 -0.3848
  110MPD2    H2 1717   3.878   2.588   0.780 -1.0655 -0.9465 -1.6748
  110MPD2    H3 1718   3.767   2.609   0.560 -0.6240  1.6624  0.2139
  110MPD2     N 1719   4.001   2.966   0.438  0.1022  0.5472 -0.5066
  110MPD2    H5 1720   4.068   3.028   0.483 -2.1786  0.8748  2.4040
  110MPD2    N1 1721   4.076   2.748   0.868  0.0810  0.0252 -0.1751
  110MPD2    H7 1722   4.037   2.685   0.937  1.4343  1.2130  1.6727
  111TMC2    C1 1723   0.361   2.802  11.188  0.1598  0.0483 -0.5973
  111TMC2    C2 1724   0.384   2.791  11.053 -0.2589 -0.0594  0.0267
  111TMC2    C3 1725   0.495   2.860  11.005 -0.0683 -0.6685 -1.2440
  111TMC2    C4 1726   0.439   2.877  11.278  1.1089 -0.5440  0.2051
  111TMC2    C5 1727   0.539   2.947  11.219 -0.3370  0.4141  0.7071
  111TMC2    C6 1728   0.570   2.940  11.085 -0.7673 -0.2820 -0.1385
  111TMC2     C 1729   0.239   2.737  11.229 -0.4854 -0.7071  0.0383
  111TMC2     O 1730   0.155   2.718  11.143  0.3941  0.4540 -0.8542
  111TMC2     H 1731   0.314   2.741  10.987 -0.2008 -1.7124  1.2148
  111TMC2    H1 1732   0.407   2.907  11.377  1.0498 -0.0465  0.0356
  111TMC2    H2 1733   0.662   2.977  11.042 -0.2541 -1.2737  0.1111
  111TMC2    C7 1734   0.623   3.023  11.311 -0.4262 -0.0749  0.3445
  111TMC2    C8 1735   0.541   2.849  10.869  0.8524  0.7381  0.5766
  111TMC2    O1 1736   0.598   3.013  11.430  0.6768 -0.0432  0.3092
  111TMC2    O2 1737   0.595   2.939  10.805 -0.5433  0.6579 -0.0269
  111TMC2    O5 1738   0.539   2.715  10.843  0.1681  0.3388 -0.2188
  111TMC2    H5 1739   0.491   2.671  10.916  0.8815  0.3292  0.2440
  112MPD2     C 1740   4.643   2.570  11.575 -0.8333 -0.6140 -0.1963
  112MPD2    C1 1741   4.627   2.610  11.444 -0.2456 -0.0543 -0.4859
  112MPD2    C2 1742   4.723   2.688  11.377 -0.5596 -0.0989 -0.1990
  112MPD2    C3 1743   0.105   2.711  11.439  0.8566 -0.0191 -0.4121
  112MPD2    C4 1744   0.122   2.681  11.573 -0.3697 -0.2102 -0.1453
  112MPD2    C5 1745   0.022   2.605  11.634 -0.1600 -0.7147  0.5316
  112MPD2     H 1746   4.703   2.720  11.275  1.5487  0.4690 -0.4302
  112MPD2    H1 1747   0.213   2.682  11.631  0.7731 -1.7915 -1.9272
  112MPD2    H2 1748   4.573   2.512  11.633  0.0861 -0.2277  1.2970
  112MPD2    H3 1749   0.047   2.569  11.733 -0.8954 -1.6680  0.3708
  112MPD2     N 1750   0.224   2.749  11.369 -0.2033 -0.3377  0.3636
  112MPD2    H5 1751   0.303   2.735  11.431  0.6466 -0.7998 -0.8292
  112MPD2    N1 1752   4.515   2.583  11.368  0.1472  0.0686 -0.4232
  112MPD2    H7 1753   4.507   2.635  11.281 -0.9366 -0.3791 -0.6020
  113TMC2    C1 1754   3.110   0.289   0.567  0.1074 -1.3783  0.1830
  113TMC2    C2 1755   3.052   0.382   0.488 -0.1806 -0.2190  0.0619
  113TMC2    C3 1756   2.956   0.354   0.399 -0.3763  0.1477 -0.6206
  113TMC2    C4 1757   3.054   0.166   0.573  0.0708  0.3930 -1.1656
  113TMC2    C5 1758   2.954   0.132   0.489 -0.3926  0.2239  0.1040
  113TMC2    C6 1759   2.902   0.227   0.406  0.5029 -0.0669 -0.0639
  113TMC2     C 1760   3.182   0.339   0.685 -0.4445 -0.1720 -0.3219
  113TMC2     O 1761   3.143   0.443   0.737  0.3697  0.9698  0.6766
  113TMC2     H 1762   3.095   0.481   0.501 -1.4143  0.2098  0.8355
  113TMC2    H1 1763   3.098   0.094   0.641  2.0941  1.5176 -1.2717
  113TMC2    H2 1764   2.837   0.187   0.329  1.8309 -2.3287 -0.0304
  113TMC2    C7 1765   2.888   0.004   0.486  0.1995 -0.1419 -0.1256
  113TMC2    C8 1766   2.875   0.464   0.368 -0.3910 -0.3255  0.1359
  113TMC2    O1 1767   2.833   4.705   0.384 -0.6302 -0.3395  0.0898
  113TMC2    O2 1768   2.901   0.583   0.386 -0.5133  0.2589  0.2588
  113TMC2    O5 1769   2.751   0.426   0.351  0.1501 -0.0501 -0.1655
  113TMC2    H5 1770   2.746   0.328   0.342  2.3990 -0.4175  2.5322
  114MPD2     C 1771   3.557   0.323   1.037 -0.1458 -0.0482 -0.3999
  114MPD2    C1 1772   3.456   0.419   1.008  0.4336  0.0068 -0.5887
  114MPD2    C2 1773   3.367   0.402   0.904  0.2223 -0.3361 -0.2304
  114MPD2    C3 1774   3.365   0.282   0.831  0.2918 -0.1677 -0.3560
  114MPD2    C4 1775   3.474   0.200   0.848 -0.9179  0.3519 -0.1454
  114MPD2    C5 1776   3.570   0.220   0.946  0.4169  0.0034 -0.1001
  114MPD2     H 1777   3.299   0.484   0.886  0.2985 -0.0821  0.6598
  114MPD2    H1 1778   3.474   0.115   0.780  1.0431  1.0458 -1.0128
  114MPD2    H2 1779   3.613   0.330   1.129 -0.8347 -1.2281  0.1066
  114MPD2    H3 1780   3.647   0.148   0.971  0.2785  0.0635  0.4895
  114MPD2     N 1781   3.276   0.245   0.726  0.4167  0.0960  0.1246
  114MPD2    H5 1782   3.287   0.157   0.676  1.6682 -0.7261  1.8616
  114MPD2    N1 1783   3.431   0.531   1.090  0.0439  0.5965  0.1815
  114MPD2    H7 1784   3.367   0.598   1.049 -1.4097  1.1257  3.3779
  115TMC2    C1 1785   4.001   3.252  17.198  0.1511  0.2830 -0.6960
  115TMC2    C2 1786   4.105   3.197  17.269  0.2347  0.0933 -0.2372
  115TMC2    C3 1787   4.186   3.285  17.344  1.2764  0.3069 -0.5858
  115TMC2    C4 1788   3.991   3.390  17.185 -0.1020 -0.3386  0.2151
  115TMC2    C5 1789   4.079   3.473  17.249 -0.8289  0.9875 -0.3698
  115TMC2    C6 1790   4.170   3.421  17.343  0.0223  0.1662 -0.7817
  115TMC2     C 1791   3.913   3.157  17.126 -0.1197 -0.0845  0.1726
  115TMC2     O 1792   3.953   3.042  17.113 -0.3465  0.3421  0.1775
  115TMC2     H 1793   4.120   3.090  17.274  0.6609  0.2731  2.4570
  115TMC2    H1 1794   3.909   3.436  17.132 -0.0784  1.8097  2.0248
  115TMC2    H2 1795   4.251   3.485  17.376  0.9541 -1.7445  0.6217
  115TMC2    C7 1796   4.109   3.608  17.193 -0.9718 -0.8399 -0.0165
  115TMC2    C8 1797   4.309   3.234  17.395  0.4451  0.0679 -0.5512
  115TMC2    O1 1798   4.125   3.606  17.072 -0.0398 -0.6383  0.3746
  115TMC2    O2 1799   4.332   3.119  17.363 -0.1589  0.0417  0.1132
  115TMC2    O5 1800   4.312   3.284  17.520 -0.3531 -0.5621  0.3248
  115TMC2    H5 1801   4.280   3.376  17.532  0.1482 -0.5849  1.8172
  116MPD2     C 1802   3.439   3.006  16.993 -1.0508  0.0483  0.1080
  116MPD2    C1 1803   3.567   2.946  16.983  0.2306  0.2931 -0.7934
  116MPD2    C2 1804   3.680   3.015  17.016  0.1412 -0.0185 -0.6123
  116MPD2    C3 1805   3.672   3.140  17.062  0.2366 -0.2723 -0.3522
  116MPD2    C4 1806   3.546   3.205  17.076  0.6196 -0.7112 -0.7315
  116MPD2    C5 1807   3.431   3.132  17.041  0.3803 -0.3967 -0.0944
  116MPD2     H 1808   3.778   2.970  17.002  0.4170  0.2319  0.5576
  116MPD2    H1 1809   3.536   3.306  17.112  0.6882 -0.0247 -2.6605
  116MPD2    H2 1810   3.350   2.951  16.965 -0.4731 -0.0672 -1.5590
  116MPD2    H3 1811   3.336   3.183  17.053 -0.4289 -0.9770 -3.9796
  116MPD2     N 1812   3.788   3.213  17.098  0.3050 -0.0789 -1.0009
  116MPD2    H5 1813   3.766   3.302  17.140  0.3196  0.7869 -2.8206
  116MPD2    N1 1814   3.574   2.815  16.933 -0.5716 -0.6293  0.3321
  116MPD2    H7 1815   3.485   2.780  16.899 -0.9711 -0.2072  0.9365
  117TMC2    C1 1816   2.269   0.125  14.062  0.5558 -1.0222 -0.3077
  117TMC2    C2 1817   2.344   0.060  14.150  0.1190 -0.1725 -0.7495
  117TMC2    C3 1818   2.427   0.128  14.234  0.2507 -0.1541 -0.3648
  117TMC2    C4 1819   2.275   0.258  14.038 -0.0350 -0.0175 -0.0485
  117TMC2    C5 1820   2.369   0.325  14.116  0.3188 -0.0572  0.5174
  117TMC2    C6 1821   2.443   0.264  14.215  0.1527  0.9384 -0.8789
  117TMC2     C 1822   2.194   0.040  13.974 -0.0748 -0.1382  0.0872
  117TMC2     O 1823   2.242   4.666  13.955  0.0004 -0.6681  0.1141
  117TMC2     H 1824   2.337   4.692  14.174  0.0103 -0.0041 -0.0321
  117TMC2    H1 1825   2.232   0.299  13.948 -2.7784 -1.9000  0.4293
  117TMC2    H2 1826   2.524   0.316  14.265 -1.0048 -0.0826  2.0564
  117TMC2    C7 1827   2.379   0.470  14.104 -0.7392  0.7259 -0.8802
  117TMC2    C8 1828   2.451   0.071  14.373  0.5676  0.2448  0.6983
  117TMC2    O1 1829   2.482   0.511  14.151  0.1393 -0.2438 -0.1927
  117TMC2    O2 1830   2.407   4.697  14.394  0.6054  0.9753 -0.2447
  117TMC2    O5 1831   2.578   0.101  14.395 -0.0192  0.2145 -0.7267
  117TMC2    H5 1832   2.612   0.172  14.337  0.9968 -0.2916 -0.7590
  118MPD2     C 1833   2.132   0.709  13.971 -0.4581 -0.0344 -0.2525
  118MPD2    C1 1834   2.243   0.671  14.036 -0.2919 -0.1218 -0.2819
  118MPD2    C2 1835   2.306   0.763  14.109  0.3973  0.2325  0.6650
  118MPD2    C3 1836   2.275   0.902  14.110 -0.4610 -0.0214 -0.0887
  118MPD2    C4 1837   2.161   0.936  14.045  0.3628  0.3265 -0.1360
  118MPD2    C5 1838   2.089   0.838  13.986  0.2998 -0.2207 -0.1345
  118MPD2     H 1839   2.395   0.731  14.163 -0.4849  0.1961  2.0964
  118MPD2    H1 1840   2.139   1.042  14.044  0.2453  0.2969 -0.9506
  118MPD2    H2 1841   2.074   0.644  13.907  0.2926 -0.2191 -0.7530
  118MPD2    H3 1842   1.998   0.862  13.932 -0.7026 -0.9611  1.1973
  118MPD2     N 1843   2.355   0.993  14.177 -0.0176 -0.3586 -0.5992
  118MPD2    H5 1844   2.311   1.082  14.199 -0.7384 -0.9762  0.4549
  118MPD2    N1 1845   2.273   0.532  14.044 -0.2665 -0.3357  0.2590
  118MPD2    H7 1846   2.198   0.475  14.006 -0.3717 -0.8047  1.1804
  119TMC2    C1 1847   0.828   1.173  13.376 -0.5441  0.3230  0.4034
  119TMC2    C2 1848   0.870   1.206  13.250 -0.5331  0.7982  0.1195
  119TMC2    C3 1849   0.767   1.205  13.158  0.3818  0.0119  0.1468
  119TMC2    C4 1850   0.697   1.161  13.414 -0.8817 -0.7466 -0.1384
  119TMC2    C5 1851   0.598   1.161  13.320  0.4083 -0.4149 -0.3251
  119TMC2    C6 1852   0.635   1.177  13.184  0.0084 -0.1317 -0.4314
  119TMC2     C 1853   0.920   1.200  13.484  0.2228  0.2994 -0.2438
  119TMC2     O 1854   0.870   1.230  13.590 -0.1653 -0.0805 -0.0993
  119TMC2     H 1855   0.973   1.229  13.227 -0.0559 -0.7005  0.7882
  119TMC2    H1 1856   0.677   1.131  13.516 -1.9013 -1.1210 -0.4409
  119TMC2    H2 1857   0.568   1.203  13.103  0.0503 -1.4788 -0.8972
  119TMC2    C7 1858   0.457   1.164  13.353  0.4035  0.0222  0.0205
  119TMC2    C8 1859   0.792   1.249  13.024  0.1455 -0.3339 -0.1100
  119TMC2    O1 1860   0.386   1.204  13.265  1.0120 -0.0940  0.1585
  119TMC2    O2 1861   0.742   1.217  12.919  0.4303  0.5254 -0.5499
  119TMC2    O5 1862   0.883   1.350  13.033 -0.0725 -0.2554 -0.2242
  119TMC2    H5 1863   0.921   1.373  13.120 -1.7359  3.1435 -0.3909
  120MPD2     C 1864   1.361   1.193  13.714 -0.2222  0.6571 -0.4907
  120MPD2    C1 1865   1.235   1.219  13.762 -0.4491 -0.3921  1.3342
  120MPD2    C2 1866   1.135   1.229  13.670  0.3800 -0.4806 -0.3945
  120MPD2    C3 1867   1.151   1.174  13.544  0.1864  0.4688  0.3784
  120MPD2    C4 1868   1.277   1.150  13.500  0.6609 -0.5677 -0.6770
  120MPD2    C5 1869   1.377   1.152  13.584  0.3091  0.1342  0.4689
  120MPD2     H 1870   1.043   1.266  13.714  1.8518  1.1968  1.2686
  120MPD2    H1 1871   1.298   1.112  13.401 -0.8117 -0.9432 -0.8547
  120MPD2    H2 1872   1.446   1.208  13.779 -0.6019 -1.9456  0.6075
  120MPD2    H3 1873   1.472   1.119  13.544  0.6475  0.0262  1.3762
  120MPD2     N 1874   1.045   1.159  13.455 -0.2765  0.7722  0.1467
  120MPD2    H5 1875   1.077   1.120  13.368  0.9864  2.2545 -0.0534
  120MPD2    N1 1876   1.210   1.240  13.900 -0.4288  0.5354  0.2794
  120MPD2    H7 1877   1.294   1.263  13.952  0.1417 -0.1664 -0.3381
  121TMC2    C1 1878   2.615   3.116  13.823 -0.7921  0.0810 -0.3251
  121TMC2    C2 1879   2.569   3.246  13.830 -0.9587  0.5747 -0.5674
  121TMC2    C3 1880   2.455   3.261  13.905  0.2439  0.5958 -0.0584
  121TMC2    C4 1881   2.568   3.009  13.890  0.2229 -0.3556  0.3809
  121TMC2    C5 1882   2.444   3.030  13.939  0.0179  0.8446 -0.5358
  121TMC2    C6 1883   2.386   3.154  13.956  0.0572 -0.0022 -0.0787
  121TMC2     C 1884   2.746   3.101  13.763  0.3396  0.3724  0.4796
  121TMC2     O 1885   2.829   3.021  13.802  0.3067  0.1110  0.1898
  121TMC2     H 1886   2.610   3.335  13.783  0.9396 -0.4745 -0.8571
  121TMC2    H1 1887   2.615   2.912  13.897 -1.9890 -1.3463  1.3896
  121TMC2    H2 1888   2.291   3.170  14.006  0.4515  0.0103  0.6575
  121TMC2    C7 1889   2.360   2.906  13.946  0.3901 -0.6954  0.4086
  121TMC2    C8 1890   2.464   3.390  13.971  0.0276  0.8149 -0.6550
  121TMC2    O1 1891   2.416   2.792  13.933  0.6496 -0.2447  0.9980
  121TMC2    O2 1892   2.565   3.459  13.977 -0.0623 -0.2640 -0.3419
  121TMC2    O5 1893   2.360   3.401  14.050 -0.4648  0.0871 -0.2410
  121TMC2    H5 1894   2.281   3.368  14.002 -0.0071  1.1294 -1.6974
  122MPD2     C 1895   2.960   3.117  13.548 -0.3432 -0.9498 -0.3734
  122MPD2    C1 1896   2.831   3.169  13.541 -0.0973 -0.0030  0.7066
  122MPD2    C2 1897   2.792   3.232  13.424 -0.2932  0.6301  0.4007
  122MPD2    C3 1898   2.882   3.233  13.316  0.4757  0.2294  0.0335
  122MPD2    C4 1899   3.010   3.182  13.328 -0.6750  0.6606 -0.0523
  122MPD2    C5 1900   3.050   3.119  13.444  0.0952  0.2803 -0.3447
  122MPD2     H 1901   2.693   3.275  13.423  0.4544  2.3200 -1.4264
  122MPD2    H1 1902   3.069   3.179  13.237  2.3563  3.1290  1.8106
  122MPD2    H2 1903   2.991   3.060  13.635  0.9101  1.5399  0.8236
  122MPD2    H3 1904   3.150   3.078  13.448  0.6805  1.6464 -1.0829
  122MPD2     N 1905   2.849   3.302  13.195 -0.2310 -0.4276 -0.1873
  122MPD2    H5 1906   2.915   3.296  13.119 -0.4010 -1.7679 -0.2402
  122MPD2    N1 1907   2.732   3.163  13.642  0.1335  0.4420 -0.3958
  122MPD2    H7 1908   2.641   3.207  13.632 -0.7180 -0.8679  1.6860
  123TMC2    C1 1909   4.579   0.789  10.784 -0.4870  0.4275  0.1184
  123TMC2    C2 1910   4.579   0.900  10.867 -0.0875  0.6187 -0.1439
  123TMC2    C3 1911   4.630   1.017  10.815 -0.1676 -0.1878 -0.2331
  123TMC2    C4 1912   4.604   0.797  10.650 -0.3799 -1.1381  0.6267
  123TMC2    C5 1913   4.650   0.914  10.602 -0.5310 -0.1258 -0.4421
  123TMC2    C6 1914   4.663   1.027  10.678 -0.2018 -0.5416  0.3478
  123TMC2     C 1915   4.582   0.656  10.841  0.2419  0.3899  0.3376
  123TMC2     O 1916   4.597   0.649  10.961 -0.1446  0.3401  0.0468
  123TMC2     H 1917   4.582   0.887  10.975  0.5872 -1.8923 -0.4535
  123TMC2    H1 1918   4.602   0.716  10.577  1.8571 -0.9359  0.3389
  123TMC2    H2 1919   4.690   1.120  10.629 -2.3897 -0.4340 -0.6560
  123TMC2    C7 1920   4.708   0.913  10.465 -0.6870 -0.4249  0.3674
  123TMC2    C8 1921   4.602   1.141  10.877  0.0728 -0.6425 -0.0550
  123TMC2    O1 1922   4.664   0.827  10.393 -1.3193  0.5433 -0.1240
  123TMC2    O2 1923   4.666   1.246  10.853 -0.1064 -0.3632 -0.0202
  123TMC2    O5 1924   4.476   1.119  10.939 -0.3814 -0.4613  0.0312
  123TMC2    H5 1925   4.429   1.037  10.913  0.2626 -1.2878  1.4521
  124MPD2     C 1926   4.644   0.156  10.755  0.1182 -0.7760  0.1581
  124MPD2    C1 1927   4.599   0.218  10.644  1.2064 -0.2774 -0.0567
  124MPD2    C2 1928   4.579   0.351  10.645 -0.0835  0.0802  0.8996
  124MPD2    C3 1929   4.594   0.422  10.765 -0.3506  0.5502  0.0261
  124MPD2    C4 1930   4.639   0.359  10.881 -0.4100 -0.4231  0.1323
  124MPD2    C5 1931   4.664   0.224  10.869  0.1503 -0.1273  0.5037
  124MPD2     H 1932   4.541   0.405  10.558  1.0036 -3.5108 -1.8095
  124MPD2    H1 1933   4.655   0.411  10.974 -1.3062 -1.7375  1.0268
  124MPD2    H2 1934   4.661   0.049  10.762  1.2411 -0.6911 -1.4601
  124MPD2    H3 1935   4.700   0.167  10.953  1.0690  0.3685  0.4399
  124MPD2     N 1936   4.558   0.561  10.754 -0.6816 -0.6967 -0.1740
  124MPD2    H5 1937   4.525   0.585  10.660  1.3197  0.3858 -0.5935
  124MPD2    N1 1938   4.574   0.138  10.523 -0.7692  0.5672 -0.3435
  124MPD2    H7 1939   4.603   0.041  10.528 -2.1020  0.0433 -2.6170
  125TMC2    C1 1940   1.313   3.536   8.835  0.7180 -0.4405  0.0433
  125TMC2    C2 1941   1.352   3.609   8.726  0.0568  0.0411 -0.1969
  125TMC2    C3 1942   1.475   3.571   8.674 -0.1264 -0.2451  0.5971
  125TMC2    C4 1943   1.397   3.447   8.901 -0.1637  0.5669  0.1328
  125TMC2    C5 1944   1.521   3.424   8.856  0.3449 -0.5739  0.3489
  125TMC2    C6 1945   1.567   3.491   8.742  0.2650 -0.1319  0.0572
  125TMC2     C 1946   1.174   3.559   8.873 -0.4806 -0.7805 -0.3093
  125TMC2     O 1947   1.113   3.659   8.831 -0.1347  0.9971 -0.1771
  125TMC2     H 1948   1.292   3.687   8.682 -0.7414 -1.1045 -1.1159
  125TMC2    H1 1949   1.366   3.382   8.983 -0.7542  1.2471  0.4496
  125TMC2    H2 1950   1.669   3.483   8.706  0.1667 -0.2317 -0.1984
  125TMC2    C7 1951   1.612   3.350   8.932  0.2754 -0.3682 -0.5177
  125TMC2    C8 1952   1.523   3.640   8.557 -0.2555  0.3194 -0.0883
  125TMC2    O1 1953   1.579   3.241   8.982  0.9560 -0.0918  0.3820
  125TMC2    O2 1954   1.642   3.635   8.523 -0.0263 -0.3628 -0.0351
  125TMC2    O5 1955   1.421   3.689   8.480 -0.3064  0.2413  0.5403
  125TMC2    H5 1956   1.332   3.654   8.504  0.7939 -1.3883  2.2162
  126MPD1     C 1957   0.757   3.369   9.087  0.3963 -0.0058 -0.4439
  126MPD1    C1 1958   0.852   3.269   9.091  0.4294  0.0704 -0.6097
  126MPD1    C2 1959   0.973   3.302   9.044 -0.0431  0.7622 -0.1942
  126MPD1    C3 1960   1.008   3.434   9.007 -0.2466 -0.5055  0.4490
  126MPD1    C4 1961   0.905   3.529   9.007 -0.2394  0.5202 -0.0675
  126MPD1    C5 1962   0.782   3.495   9.044 -0.0219 -0.0453  0.3867
  126MPD1     H 1963   1.044   3.223   9.025  0.7548  1.4005  0.1042
  126MPD1    H1 1964   0.917   3.632   8.974 -0.7204  0.4885 -0.3403
  126MPD1    H2 1965   0.662   3.337   9.131  0.3744  0.4286 -0.1772
  126MPD1    H3 1966   0.700   3.566   9.042  2.6579  3.0638  0.8744
  126MPD1     N 1967   1.132   3.454   8.949 -0.6726  0.1065 -0.1166
  126MPD1    H5 1968   1.187   3.368   8.948  0.6769  0.9687  0.4679
  126MPD1    N1 1969   0.817   3.133   9.120 -0.7157  0.7857 -0.4919
  126MPD1    H6 1970   0.737   3.133   9.183 -2.8967 -3.6956 -3.3422
  126MPD1    H7 1971   0.887   3.078   9.170 -0.6037  0.3280 -1.1622
  127TMC2    C1 1972   2.064   2.132   9.797 -0.3289 -0.0210 -0.2484
  127TMC2    C2 1973   2.145   2.035   9.842 -0.1872 -0.2010 -0.0333
  127TMC2    C3 1974   2.079   1.921   9.892 -0.3674 -0.0791  0.1752
  127TMC2    C4 1975   1.926   2.131   9.809  0.0634 -0.0997 -0.1104
  127TMC2    C5 1976   1.877   2.023   9.865 -0.7216  0.0833 -0.6333
  127TMC2    C6 1977   1.951   1.910   9.907 -0.7788  0.2834 -0.3668
  127TMC2     C 1978   2.130   2.250   9.753  0.3678  0.7755  0.1976
  127TMC2     O 1979   2.243   2.273   9.788  0.3254 -0.0046  0.5115
  127TMC2     H 1980   2.249   2.045   9.814 -0.7190 -2.5327 -2.8568
  127TMC2    H1 1981   1.865   2.212   9.770  0.2755 -0.2313 -0.7194
  127TMC2    H2 1982   1.901   1.828   9.958  1.3076 -0.6483  0.1812
  127TMC2    C7 1983   1.736   2.037   9.895 -0.8406  0.5610 -0.3136
  127TMC2    C8 1984   2.167   1.829   9.964  0.5044  0.1612 -0.2381
  127TMC2    O1 1985   1.691   2.149   9.887  0.0149 -0.3022  0.4172
  127TMC2    O2 1986   2.127   1.724  10.014  0.1117  0.1658  0.0312
  127TMC2    O5 1987   2.274   1.889  10.007  0.6151  0.0647 -0.3225
  127TMC2    H5 1988   2.299   1.962   9.946  3.6730 -0.6699  0.0924
  128MPD2     C 1989   2.062   2.479   9.480  0.7190 -0.1263  0.0820
  128MPD2    C1 1990   2.113   2.452   9.605 -0.6092 -0.3550 -0.5397
  128MPD2    C2 1991   2.221   2.527   9.655 -0.6653  0.4788  0.0371
  128MPD2    C3 1992   2.276   2.626   9.579  0.5467 -0.0623 -0.2241
  128MPD2    C4 1993   2.234   2.646   9.448  0.2977 -0.3868 -0.3065
  128MPD2    C5 1994   2.124   2.575   9.400 -0.4930 -0.5504 -0.0828
  128MPD2     H 1995   2.251   2.511   9.757 -0.5295 -1.1652 -0.2627
  128MPD2    H1 1996   2.271   2.725   9.383  3.9065 -1.1859  0.7691
  128MPD2    H2 1997   1.987   2.413   9.439  1.3445 -0.8645  0.1442
  128MPD2    H3 1998   2.095   2.599   9.298 -0.0375 -0.0619 -0.0966
  128MPD2     N 1999   2.391   2.687   9.634 -0.6652  0.3843 -0.4396
  128MPD2    H5 2000   2.421   2.646   9.722  0.7581  0.8421 -0.7039
  128MPD2    N1 2001   2.059   2.331   9.663 -1.0987  0.0104  0.3246
  128MPD2    H7 2002   1.979   2.286   9.621 -1.4909  0.8937  0.1385
  129TMC2    C1 2003   1.897   1.414   1.390  0.3350 -0.2117  0.7641
  129TMC2    C2 2004   1.952   1.327   1.480  0.1294  0.0358  0.1679
  129TMC2    C3 2005   1.875   1.217   1.509 -0.4115 -1.2016 -0.1685
  129TMC2    C4 2006   1.795   1.381   1.309  0.0345  0.4170 -0.3684
  129TMC2    C5 2007   1.719   1.274   1.343  0.3933 -0.3530 -0.0205
  129TMC2    C6 2008   1.763   1.190   1.445  0.1748  0.1467  0.0619
  129TMC2     C 2009   1.982   1.526   1.341 -0.2172  0.0496 -0.3642
  129TMC2     O 2010   2.097   1.507   1.373  0.1431 -0.0149 -0.4884
  129TMC2     H 2011   2.038   1.346   1.542  0.3654  0.8460 -0.4105
  129TMC2    H1 2012   1.765   1.435   1.220 -1.2698  1.1656  0.5093
  129TMC2    H2 2013   1.702   1.104   1.466 -0.6019  0.5531 -0.5349
  129TMC2    C7 2014   1.593   1.254   1.280  0.6756 -0.0376  0.2101
  129TMC2    C8 2015   1.916   1.126   1.615 -0.3504  0.3998  0.4621
  129TMC2    O1 2016   1.522   1.348   1.255  0.1402  0.4160 -0.1960
  129TMC2    O2 2017   1.839   1.050   1.674  0.0859 -0.2141  0.1574
  129TMC2    O5 2018   2.048   1.108   1.617 -0.0416  0.5251  0.0723
  129TMC2    H5 2019   2.095   1.139   1.537 -2.1235 -0.4413 -1.5521
  130MPD2     C 2020   2.116   1.751   1.233  0.4495  0.0176  0.4932
  130MPD2    C1 2021   1.983   1.748   1.254 -0.2626 -0.1125 -0.3692
  130MPD2    C2 2022   1.910   1.862   1.230  0.2964  0.0486  0.0505
  130MPD2    C3 2023   1.969   1.975   1.170  0.0842 -0.0212 -0.0206
  130MPD2    C4 2024   2.106   1.976   1.164 -0.3871 -0.4111  0.0452
  130MPD2    C5 2025   2.183   1.872   1.202  0.1731 -0.1111 -0.2862
  130MPD2     H 2026   1.802   1.858   1.224  0.3079 -1.4726  0.7748
  130MPD2    H1 2027   2.169   2.048   1.114 -0.0124 -1.0632 -0.4361
  130MPD2    H2 2028   2.170   1.658   1.245 -0.6590 -0.5441  1.0572
  130MPD2    H3 2029   2.290   1.883   1.190  0.3565  0.4598  1.8090
  130MPD2     N 2030   1.882   2.089   1.124  0.2015 -0.5985 -0.0291
  130MPD2    H5 2031   1.786   2.094   1.157  1.2031  1.0872  2.6996
  130MPD2    N1 2032   1.910   1.630   1.288  0.5593 -0.6182  0.0917
  130MPD2    H7 2033   1.809   1.635   1.289  0.6883  2.8087 -1.9724
  131TMC2    C1 2034   4.703   0.888   9.782  0.1105  0.4312  0.1256
  131TMC2    C2 2035   4.671   0.942   9.656 -0.5678 -0.0363  0.5374
  131TMC2    C3 2036   4.726   1.062   9.622 -0.1155 -0.6071 -0.5695
  131TMC2    C4 2037   0.020   0.966   9.878 -0.3109  1.2726 -0.6838
  131TMC2    C5 2038   0.079   1.086   9.842 -0.1438  0.6487 -0.2164
  131TMC2    C6 2039   0.067   1.140   9.713  0.1807  0.3196  0.4636
  131TMC2     C 2040   4.691   0.748   9.815 -0.5584  0.6252 -0.7337
  131TMC2     O 2041   4.727   0.705   9.927 -0.0935  0.3497  0.4875
  131TMC2     H 2042   4.607   0.891   9.585 -1.5901 -0.4359  1.7378
  131TMC2    H1 2043   0.052   0.922   9.971 -2.0279  5.1242  1.6891
  131TMC2    H2 2044   0.108   1.233   9.678  0.9914 -1.2506 -2.7586
  131TMC2    C7 2045   0.116   1.173   9.946 -0.2303 -0.7217  0.6867
  131TMC2    C8 2046   4.672   1.125   9.512  0.1041  0.3232 -0.2443
  131TMC2    O1 2047   0.066   1.151  10.057 -0.1262 -0.1156  0.3313
  131TMC2    O2 2048   4.675   1.248   9.516  0.2709 -0.7832 -0.5419
  131TMC2    O5 2049   4.693   1.049   9.403 -0.4619  0.1751  0.2283
  131TMC2    H5 2050   4.715   0.959   9.436 -0.6633 -0.4753 -1.4423
  132MPD2     C 2051   4.580   0.484   9.573 -0.0060  0.1498 -0.0571
  132MPD2    C1 2052   4.601   0.537   9.695  0.5301  0.0858 -0.1436
  132MPD2    C2 2053   4.594   0.457   9.803  1.0368  0.4343 -0.0088
  132MPD2    C3 2054   4.561   0.326   9.790  0.2486 -0.0645  0.0441
  132MPD2    C4 2055   4.541   0.266   9.664 -0.2962 -0.5049 -0.1673
  132MPD2    C5 2056   4.553   0.350   9.559  1.0383  0.3709  0.0920
  132MPD2     H 2057   4.625   0.499   9.898  1.7680  0.0953 -0.0961
  132MPD2    H1 2058   4.503   0.165   9.653  0.9062 -1.0656  0.7660
  132MPD2    H2 2059   4.586   0.545   9.483  2.5040 -0.9896 -0.6578
  132MPD2    H3 2060   4.531   0.313   9.460 -1.1330 -1.0454  1.1006
  132MPD2     N 2061   4.555   0.254   9.908 -0.2252  0.0084 -0.4164
  132MPD2    H5 2062   4.572   0.300   9.997 -1.5348  0.0725 -0.1991
  132MPD2    N1 2063   4.643   0.673   9.704  0.1683 -0.5933  0.6973
  132MPD2    H7 2064   4.628   0.728   9.620 -0.3452 -2.1497 -0.2348
  133TMC2    C1 2065   4.502   2.408   9.228 -0.3922 -0.6121 -0.1456
  133TMC2    C2 2066   4.601   2.353   9.309 -0.0406  0.4585  0.8196
  133TMC2    C3 2067   4.669   2.441   9.388  0.2383 -0.1308 -0.5337
  133TMC2    C4 2068   4.447   2.533   9.256 -0.0549 -0.2541  0.3448
  133TMC2    C5 2069   4.503   2.608   9.353  0.2655 -1.0404  0.7207
  133TMC2    C6 2070   4.616   2.564   9.416 -0.8438  0.8376  0.2328
  133TMC2     C 2071   4.404   2.313   9.190  0.1271  0.3718 -0.2281
  133TMC2     O 2072   4.412   2.193   9.229 -0.0961 -0.1129 -0.8531
  133TMC2     H 2073   4.634   2.253   9.283 -2.1528 -0.3010  1.0470
  133TMC2    H1 2074   4.369   2.576   9.195  1.0788  2.0186  0.5052
  133TMC2    H2 2075   4.666   2.624   9.492  0.3102 -1.3036  1.1560
  133TMC2    C7 2076   4.466   2.746   9.370  0.2976 -0.1018  0.5397
  133TMC2    C8 2077   0.070   2.410   9.430 -0.4380 -0.2988 -0.0923
  133TMC2    O1 2078   4.365   2.785   9.311  0.1284 -0.6985 -0.5812
  133TMC2    O2 2079   0.122   2.299   9.427  0.1282  0.0602 -0.3695
  133TMC2    O5 2080   0.136   2.525   9.404 -0.0818 -0.1857  0.2338
  133TMC2    H5 2081   0.091   2.599   9.357  1.8943 -0.0671 -1.4824
  134MPD2     C 2082   4.169   2.343   8.903  0.0934  0.0594  0.3860
  134MPD2    C1 2083   4.229   2.280   9.016  0.2630  0.1262 -0.3893
  134MPD2    C2 2084   4.170   2.160   9.058  0.7795  0.2482  0.9123
  134MPD2    C3 2085   4.072   2.095   8.982 -0.6163  0.4063  0.8189
  134MPD2    C4 2086   4.015   2.163   8.877  0.1583  0.5797  0.4747
  134MPD2    C5 2087   4.071   2.278   8.831 -0.4896 -0.5793 -0.1196
  134MPD2     H 2088   4.207   2.114   9.149 -0.0208 -2.2319 -0.0492
  134MPD2    H1 2089   3.936   2.129   8.811  0.3798  0.6603  0.1676
  134MPD2    H2 2090   4.191   2.440   8.861 -0.8861 -1.6551 -3.9989
  134MPD2    H3 2091   4.027   2.323   8.743  0.4091 -0.0747 -0.3002
  134MPD2     N 2092   4.014   1.969   9.007  0.1576  0.3075  0.0062
  134MPD2    H5 2093   3.946   1.944   8.936 -0.9465 -0.6223  1.3932
  134MPD2    N1 2094   4.324   2.356   9.086 -0.1422 -0.0035 -0.2812
  134MPD2    H7 2095   4.348   2.444   9.043 -0.2306 -0.0472 -0.4203
  135TMC2    C1 2096   1.179   3.804   9.252 -1.0903 -0.1855  0.6780
  135TMC2    C2 2097   1.281   3.798   9.344 -0.6161 -1.0931 -0.3291
  135TMC2    C3 2098   1.257   3.750   9.467 -0.4886  0.2898  0.6470
  135TMC2    C4 2099   1.051   3.773   9.286 -0.0838 -0.0452 -0.5924
  135TMC2    C5 2100   1.033   3.720   9.410 -0.3423  0.2693  0.0695
  135TMC2    C6 2101   1.131   3.717   9.505  0.2900  0.8329  0.4253
  135TMC2     C 2102   1.189   3.866   9.121  1.1459 -0.2988  0.0331
  135TMC2     O 2103   1.095   3.926   9.074 -0.1838 -0.0961  0.1739
  135TMC2     H 2104   1.377   3.844   9.325 -0.4846 -1.5578 -0.8242
  135TMC2    H1 2105   0.967   3.784   9.218 -0.4877  0.6067  0.0004
  135TMC2    H2 2106   1.110   3.672   9.601  0.7132  0.1304  0.1927
  135TMC2    C7 2107   0.908   3.640   9.418  0.8552  0.5763 -0.3999
  135TMC2    C8 2108   1.355   3.784   9.569 -0.0933  0.1500  0.1837
  135TMC2    O1 2109   0.828   3.660   9.322 -0.8152 -0.0439 -0.0147
  135TMC2    O2 2110   1.474   3.787   9.550  0.6027  0.1996  0.1393
  135TMC2    O5 2111   1.285   3.858   9.655  0.1447 -0.1392  0.4096
  135TMC2    H5 2112   1.188   3.861   9.641  0.4236  0.3235 -1.4636
  136MPD2     C 2113   1.294   3.988   8.869 -0.9800  0.6345  0.0922
  136MPD2    C1 2114   1.364   3.894   8.948 -0.6929  0.5223  0.0025
  136MPD2    C2 2115   1.490   3.853   8.905 -0.0055 -0.0472  0.2568
  136MPD2    C3 2116   1.539   3.904   8.786  0.0918  0.1314 -0.1697
  136MPD2    C4 2117   1.469   3.996   8.708 -0.0650  0.1058 -0.1192
  136MPD2    C5 2118   1.345   4.035   8.752 -0.6953  0.5131 -0.6234
  136MPD2     H 2119   1.555   3.792   8.967 -2.0001 -1.4946  0.9088
  136MPD2    H1 2120   1.503   4.051   8.621  1.5096 -0.7006 -0.0001
  136MPD2    H2 2121   1.191   4.013   8.892 -0.3475  2.7230  0.6155
  136MPD2    H3 2122   1.287   4.108   8.697 -0.4336  1.2550  0.0945
  136MPD2     N 2123   1.665   3.888   8.742 -0.1398  0.3161  0.5375
  136MPD2    H5 2124   1.697   3.937   8.660 -0.1152 -0.9688 -0.2164
  136MPD2    N1 2125   1.313   3.838   9.069  0.2843  0.1301  0.2525
  136MPD2    H7 2126   1.374   3.771   9.115  0.6996  0.5709  0.3314
  137TMC2    C1 2127   1.485   1.855   9.129  0.2676 -0.1422 -0.5279
  137TMC2    C2 2128   1.553   1.781   9.034 -0.1787  0.0288 -0.8266
  137TMC2    C3 2129   1.544   1.645   9.047 -0.0518  0.4350  0.3581
  137TMC2    C4 2130   1.395   1.799   9.216  0.9617 -0.0764 -0.2819
  137TMC2    C5 2131   1.385   1.664   9.222  0.0982 -0.3152 -0.1674
  137TMC2    C6 2132   1.459   1.585   9.141  0.3095  0.6393  0.1979
  137TMC2     C 2133   1.522   1.993   9.146 -0.1151  0.8167  0.5073
  137TMC2     O 2134   1.437   2.074   9.180  0.2017 -0.0060 -0.6049
  137TMC2     H 2135   1.619   1.824   8.960 -1.2104  1.6908 -0.7853
  137TMC2    H1 2136   1.341   1.867   9.281 -2.6297 -1.9822 -1.2798
  137TMC2    H2 2137   1.461   1.479   9.160 -2.1327  0.7971  1.3602
  137TMC2    C7 2138   1.265   1.597   9.285 -1.1697  0.4054  0.0795
  137TMC2    C8 2139   1.622   1.556   8.966  0.2332 -0.3605 -0.1182
  137TMC2    O1 2140   1.268   1.475   9.288 -0.2348 -0.3748 -0.1723
  137TMC2    O2 2141   1.600   1.436   8.968  0.4399 -0.7065  0.7360
  137TMC2    O5 2142   1.708   1.623   8.886 -0.0166  0.1657 -0.0728
  137TMC2    H5 2143   1.722   1.715   8.915  1.9375 -0.5504  1.2308
  138MPD2     C 2144   1.853   2.146   9.146  0.8521 -0.2264 -0.0768
  138MPD2    C1 2145   1.722   2.131   9.168  0.3673 -0.9176  0.3037
  138MPD2    C2 2146   1.659   2.239   9.225 -0.2450  0.4069 -0.6546
  138MPD2    C3 2147   1.718   2.361   9.238  0.3146  0.6074  0.7949
  138MPD2    C4 2148   1.853   2.372   9.207 -0.1234 -0.2249  0.3190
  138MPD2    C5 2149   1.920   2.261   9.161 -0.4495 -0.0066 -0.1706
  138MPD2     H 2150   1.565   2.215   9.275  0.4539  0.3416  0.6391
  138MPD2    H1 2151   1.915   2.459   9.229 -1.0260 -0.1513  2.5880
  138MPD2    H2 2152   1.921   2.068   9.112 -0.1217 -1.2648  0.3523
  138MPD2    H3 2153   2.027   2.264   9.142 -0.7030 -1.5627 -1.8649
  138MPD2     N 2154   1.645   2.460   9.306 -0.4952 -0.1202  0.6096
  138MPD2    H5 2155   1.557   2.426   9.344 -1.5417  1.2302 -0.5956
  138MPD2    N1 2156   1.656   2.010   9.130 -0.1061 -0.0437 -0.0071
  138MPD2    H7 2157   1.716   1.930   9.109 -1.1986 -1.1579  1.1162
  139TMC2    C1 2158   2.328   1.081  13.774  0.1423  0.1190 -1.0669
  139TMC2    C2 2159   2.419   1.141  13.857 -0.3596 -0.0804  0.3014
  139TMC2    C3 2160   2.377   1.260  13.914  0.1372 -0.0347  0.3717
  139TMC2    C4 2161   2.204   1.143  13.754 -0.3953  0.2114  0.0807
  139TMC2    C5 2162   2.169   1.267  13.807 -0.3099  0.0499 -0.9186
  139TMC2    C6 2163   2.258   1.330  13.886 -0.2597 -0.5382 -0.3952
  139TMC2     C 2164   2.342   0.942  13.734  0.2449 -0.2209 -0.7450
  139TMC2     O 2165   2.260   0.891  13.656 -0.2440  0.4796  0.0017
  139TMC2     H 2166   2.520   1.106  13.874  0.0764  1.4318  0.8081
  139TMC2    H1 2167   2.129   1.085  13.701  0.3911  1.0616 -1.9872
  139TMC2    H2 2168   2.243   1.433  13.915  1.8375 -0.3081 -0.1180
  139TMC2    C7 2169   2.050   1.343  13.777 -0.0487  0.7630  0.1618
  139TMC2    C8 2170   2.486   1.346  13.965 -0.1476  0.5296 -0.2209
  139TMC2    O1 2171   2.031   1.449  13.836  0.1948 -0.5435 -0.0574
  139TMC2    O2 2172   2.604   1.353  13.920  0.2347  0.6159  0.1782
  139TMC2    O5 2173   2.440   1.381  14.083 -0.0385  0.4356  0.4001
  139TMC2    H5 2174   2.349   1.367  14.114 -0.2305 -1.1883 -0.9272
  140MPD2     C 2175   2.587   0.696  13.861  0.3189  1.2275 -0.9110
  140MPD2    C1 2176   2.482   0.745  13.785  0.4475 -0.0412  0.6241
  140MPD2    C2 2177   2.415   0.662  13.703  0.5738 -0.5210  0.7124
  140MPD2    C3 2178   2.439   0.525  13.710  0.3773 -0.1205 -1.1760
  140MPD2    C4 2179   2.550   0.476  13.782  0.2980 -0.0303 -0.6988
  140MPD2    C5 2180   2.618   0.562  13.864 -0.7281 -0.2488  0.0944
  140MPD2     H 2181   2.324   0.688  13.649  0.6962  0.8916  1.1873
  140MPD2    H1 2182   2.580   0.372  13.778 -0.4095 -0.2189 -1.0266
  140MPD2    H2 2183   2.654   0.763  13.915  0.1985  0.8652 -0.3086
  140MPD2    H3 2184   2.692   0.528  13.934 -1.6590 -0.0517  1.1667
  140MPD2     N 2185   2.358   0.438  13.621 -0.0631  0.0261 -0.0166
  140MPD2    H5 2186   2.298   0.480  13.550 -1.8031  2.1245  2.6457
  140MPD2    N1 2187   2.453   0.885  13.795 -0.7512  0.3600  0.1475
  140MPD2    H7 2188   2.517   0.932  13.859  0.4269  1.2254 -1.6873
  141TMC2    C1 2189   2.280   2.455  14.056 -0.0934 -0.8337 -0.4935
  141TMC2    C2 2190   2.143   2.446  14.071  0.2453 -0.0784  0.7444
  141TMC2    C3 2191   2.082   2.526  14.162  0.2486  0.9279 -0.2045
  141TMC2    C4 2192   2.354   2.534  14.140  0.5989 -0.0309  0.6793
  141TMC2    C5 2193   2.289   2.624  14.220 -0.8901 -0.1573 -0.2281
  141TMC2    C6 2194   2.151   2.618  14.236 -0.2468 -0.7571 -0.4709
  141TMC2     C 2195   2.346   2.403  13.935 -0.3612 -0.2924 -0.5272
  141TMC2     O 2196   2.288   2.424  13.829 -0.1948  0.1567 -0.7926
  141TMC2     H 2197   2.090   2.393  13.993 -2.3009  0.4444  2.1116
  141TMC2    H1 2198   2.462   2.528  14.124  0.6771 -2.3719  2.1602
  141TMC2    H2 2199   2.103   2.662  14.322 -2.3306 -0.9986 -1.4921
  141TMC2    C7 2200   2.371   2.708  14.303 -0.5236  0.2489  0.2290
  141TMC2    C8 2201   1.940   2.525  14.178 -0.9714 -0.3774 -0.1349
  141TMC2    O1 2202   2.316   2.777  14.392 -0.2004  0.1482  0.1900
  141TMC2    O2 2203   1.878   2.621  14.224 -0.6539  0.2739 -0.1220
  141TMC2    O5 2204   1.879   2.419  14.115 -0.5531 -0.6281  0.1065
  141TMC2    H5 2205   1.941   2.345  14.098 -1.2643 -1.7753  2.5171
  142TMC2    C1 2206   0.240   0.346   9.881 -0.1210 -0.4902  0.4974
  142TMC2    C2 2207   0.234   0.389   9.755 -0.7795 -0.6965  0.0182
  142TMC2    C3 2208   0.253   0.526   9.732  0.0213 -0.7891 -0.3691
  142TMC2    C4 2209   0.259   0.431   9.982  0.0189  0.0572  0.2299
  142TMC2    C5 2210   0.254   0.564   9.961  0.1290 -0.2872 -0.6136
  142TMC2    C6 2211   0.255   0.612   9.836  0.0791  0.0479  0.0324
  142TMC2     C 2212   0.226   0.199   9.900 -0.2569  0.1942 -0.0197
  142TMC2     O 2213   0.250   0.131   9.804 -0.5909 -0.5086 -0.8554
  142TMC2     H 2214   0.211   0.327   9.669 -0.4052 -1.1045  0.2141
  142TMC2    H1 2215   0.263   0.386  10.081  2.1720  2.0558  1.0411
  142TMC2    H2 2216   0.243   0.719   9.818  2.2719  0.1611 -0.7850
  142TMC2    C7 2217   0.246   0.651  10.076  0.1489 -0.1605 -0.0173
  142TMC2    C8 2218   0.222   0.576   9.602 -0.2864  0.5326  0.1541
  142TMC2    O1 2219   0.193   0.602  10.176 -0.1489 -0.0899  0.2843
  142TMC2    O2 2220   0.192   0.695   9.582 -0.2504 -0.5955  0.2351
  142TMC2    O5 2221   0.262   0.485   9.503 -0.6836 -0.0868  0.1832
  142TMC2    H5 2222   0.305   0.401   9.530  0.7766  0.5122 -0.2721
  143MPD2     C 2223   0.126   4.522  10.185 -0.4019 -0.1824 -0.7413
  143MPD2    C1 2224   0.151   4.529  10.051  0.9806  0.5444  0.5958
  143MPD2    C2 2225   0.170   4.650   9.992 -0.0171  0.2501  0.2932
  143MPD2    C3 2226   0.166   0.025  10.073  0.8209  0.0135 -0.0350
  143MPD2    C4 2227   0.148   0.011  10.205  0.1026 -0.6726  0.0003
  143MPD2    C5 2228   0.120   4.631  10.264 -0.1109  0.7515 -0.1704
  143MPD2     H 2229   0.190   4.663   9.886  2.7379  1.6629  0.9772
  143MPD2    H1 2230   0.140   0.098  10.270 -1.4672 -0.9267  0.1454
  143MPD2    H2 2231   0.109   4.425  10.230  2.0213 -1.1749 -1.9837
  143MPD2    H3 2232   0.108   4.624  10.371  0.9181 -2.2666 -0.2480
  143MPD2     N 2233   0.182   0.158  10.027  0.1048  0.2949 -0.1524
  143MPD2    H5 2234   0.181   0.226  10.102 -1.8158 -0.4253  0.4530
  143MPD2    N1 2235   0.149   4.404   9.984 -0.7318  0.3813 -0.5164
  143MPD2    H7 2236   0.127   4.319  10.035  0.7953  1.2733  1.6223
  144TMC2    C1 2237   3.601   4.025   0.665  0.0104  0.5772  0.4455
  144TMC2    C2 2238   3.631   3.888   0.666 -0.3619 -0.2735 -0.9153
  144TMC2    C3 2239   3.746   3.845   0.723  0.1354  0.1050  0.5686
  144TMC2    C4 2240   3.686   4.120   0.716 -0.1023  0.6379  0.0646
  144TMC2    C5 2241   3.809   4.072   0.756  0.7485  0.0702  0.4647
  144TMC2    C6 2242   3.842   3.939   0.755  0.2866 -0.7545 -0.4062
  144TMC2     C 2243   3.485   4.064   0.579  0.0275 -0.4927 -0.2555
  144TMC2     O 2244   3.448   3.980   0.495  0.1033  0.1855 -0.0635
  144TMC2     H 2245   3.552   3.828   0.622  0.1646 -1.7731  0.1904
  144TMC2    H1 2246   3.670   4.226   0.701 -0.5877  0.2295 -2.3726
  144TMC2    H2 2247   3.945   3.913   0.772  0.4695 -1.2286 -2.3257
  144TMC2    C7 2248   3.904   4.172   0.809  0.3939  0.3718 -0.2312
  144TMC2    C8 2249   3.790   3.715   0.675 -0.4895  0.3454  0.7274
  144TMC2    O1 2250   4.017   4.129   0.817 -0.6026  0.0552 -0.8452
  144TMC2    O2 2251   3.742   3.674   0.571  0.1653 -0.0769 -0.1835
  144TMC2    O5 2252   3.907   3.689   0.727  0.4918  0.1938  0.2603
  144TMC2    H5 2253   3.916   3.724   0.818  1.2079  0.5038  0.0748
  145MPD2     C 2254   3.073   4.363   0.496 -0.2891 -0.3539  0.2404
  145MPD2    C1 2255   3.128   4.258   0.419  0.2388 -0.3172  0.0960
  145MPD2    C2 2256   3.252   4.205   0.456 -0.5827 -0.7905  0.3153
  145MPD2    C3 2257   3.306   4.241   0.578 -0.7365  0.3317  0.8017
  145MPD2    C4 2258   3.246   4.330   0.668 -0.0466  0.3840  0.4200
  145MPD2    C5 2259   3.135   4.397   0.618  0.0534 -0.6298  0.2162
  145MPD2     H 2260   3.294   4.123   0.399  1.1316 -0.6385  1.3541
  145MPD2    H1 2261   3.287   4.347   0.766  0.2393 -0.6018  0.4769
  145MPD2    H2 2262   2.981   4.411   0.463 -1.2331 -2.8417 -0.7191
  145MPD2    H3 2263   3.094   4.479   0.675 -1.8163 -0.7836 -0.9038
  145MPD2     N 2264   3.421   4.178   0.629  0.0202 -0.1444  0.2462
  145MPD2    H5 2265   3.456   4.209   0.719  2.1069 -1.1877 -0.1919
  145MPD2    N1 2266   3.067   4.207   0.305 -1.0008 -0.2266 -0.4225
  145MPD2    H7 2267   3.128   4.155   0.243 -0.8491  0.2857 -0.7039
  146TMC2    C1 2268   4.716   3.239  12.593  0.4789  0.4054 -0.3556
  146TMC2    C2 2269   4.614   3.249  12.502  0.3093 -1.0170  0.1092
  146TMC2    C3 2270   4.622   3.173  12.391  0.6657  0.0341  0.0981
  146TMC2    C4 2271   0.094   3.169  12.563  0.6856 -0.1899  0.5705
  146TMC2    C5 2272   0.102   3.108  12.438 -0.0946 -0.2458  0.0716
  146TMC2    C6 2273   4.733   3.101  12.355 -0.4027  0.4852 -0.5654
  146TMC2     C 2274   4.718   3.327  12.711  0.3950 -0.1580 -0.4130
  146TMC2     O 2275   4.664   3.434  12.711  0.1348  0.3702 -0.3808
  146TMC2     H 2276   4.525   3.308  12.522  0.8741  0.2393 -1.1071
  146TMC2    H1 2277   0.186   3.183  12.619  1.3789  0.3112 -0.6955
  146TMC2    H2 2278   0.013   3.061  12.256  2.4160  2.5187 -0.9031
  146TMC2    C7 2279   0.225   3.108  12.368 -1.0812 -0.0666 -0.6497
  146TMC2    C8 2280   4.519   3.195  12.297 -0.6506  0.1537 -0.4273
  146TMC2    O1 2281   0.225   3.145  12.251  0.0289 -0.5419  0.1797
  146TMC2    O2 2282   4.453   3.297  12.294  0.5457  0.5932  0.3241
  146TMC2    O5 2283   4.527   3.113  12.193  0.0424  0.4262  0.6142
  146TMC2    H5 2284   4.577   3.029  12.202 -1.4527 -0.6113 -0.8277
  147MPD2     C 2285   0.729   3.094  12.385 -0.1610 -0.2328  0.3240
  147MPD2    C1 2286   0.691   3.032  12.495  0.1841  0.5482 -0.2959
  147MPD2    C2 2287   0.554   3.020  12.514 -0.2603 -0.1947  0.2464
  147MPD2    C3 2288   0.463   3.062  12.415  0.1644 -0.2872 -0.3174
  147MPD2    C4 2289   0.508   3.113  12.300  0.2215 -0.3439  0.1220
  147MPD2    C5 2290   0.639   3.126  12.282  0.4496 -0.6743 -0.4770
  147MPD2     H 2291   0.508   2.980  12.604  1.2984  1.1330  1.6369
  147MPD2    H1 2292   0.441   3.119  12.215  0.2029 -1.5743  0.0538
  147MPD2    H2 2293   0.832   3.127  12.377 -0.3254  0.7247  2.1348
  147MPD2    H3 2294   0.676   3.153  12.185 -0.3230  3.6900  0.4647
  147MPD2     N 2295   0.328   3.062  12.448  0.1357 -0.6260 -0.5104
  147MPD2    H5 2296   0.299   3.007  12.528  1.6612 -2.3995 -1.1713
  147MPD2    N1 2297   0.790   2.994  12.584 -0.0451  0.7163 -0.2793
  147MPD2    H7 2298   0.887   2.995  12.553  0.7722 -1.3711  2.2064
  148TMC2    C1 2299   3.636   1.783  10.520  0.5713  0.0579 -0.2922
  148TMC2    C2 2300   3.556   1.689  10.577 -0.9346 -0.0948 -0.1004
  148TMC2    C3 2301   3.603   1.598  10.667  0.0672 -0.5074  0.5362
  148TMC2    C4 2302   3.772   1.782  10.548 -0.2959 -0.0867  0.1856
  148TMC2    C5 2303   3.823   1.684  10.629 -0.1696 -0.2859  0.5786
  148TMC2    C6 2304   3.739   1.594  10.698 -0.4434 -0.3550  0.5730
  148TMC2     C 2305   3.588   1.881  10.429  0.0769 -0.2019  0.0300
  148TMC2     O 2306   3.622   1.996  10.438  0.2214 -0.1048  0.3417
  148TMC2     H 2307   3.456   1.695  10.535 -1.1194 -2.1586  0.0429
  148TMC2    H1 2308   3.833   1.845  10.484  1.0994 -1.5605  0.0809
  148TMC2    H2 2309   3.777   1.503  10.743  1.2826  0.0592 -0.0432
  148TMC2    C7 2310   3.942   1.626  10.576  0.3605 -0.4194 -0.0190
  148TMC2    C8 2311   3.533   1.470  10.655  0.1722 -0.1071  0.0961
  148TMC2    O1 2312   3.951   1.610  10.455  0.2133 -0.2814 -0.2159
  148TMC2    O2 2313   3.529   1.392  10.746 -0.3685 -0.0656  0.0179
  148TMC2    O5 2314   3.574   1.435  10.531 -0.6409 -1.2925  0.0199
  148TMC2    H5 2315   3.602   1.508  10.471 -0.6003 -1.8096 -0.5862
  149MPD2     C 2316   3.392   2.013  10.247 -0.2209 -1.4820 -0.5124
  149MPD2    C1 2317   3.442   1.885  10.231  1.1072 -0.1542 -0.8411
  149MPD2    C2 2318   3.402   1.814  10.122  1.0255  0.1837  0.1718
  149MPD2    C3 2319   3.323   1.858  10.017  0.1979 -0.1389  0.0987
  149MPD2    C4 2320   3.270   1.981  10.036  0.2130 -0.8041 -0.0067
  149MPD2    C5 2321   3.298   2.052  10.150  0.9921 -0.5193  0.0457
  149MPD2     H 2322   3.447   1.716  10.114  0.9622  0.0996  0.8512
  149MPD2    H1 2323   3.223   2.038   9.957  0.3845 -0.1624  0.3491
  149MPD2    H2 2324   3.405   2.071  10.338  0.2787  0.4746 -1.8366
  149MPD2    H3 2325   3.262   2.154  10.156  1.0257 -0.5932  1.4065
  149MPD2     N 2326   3.298   1.798   9.894  0.1232 -0.1191  0.0959
  149MPD2    H5 2327   3.236   1.843   9.827  0.6443  0.1158 -0.2343
  149MPD2    N1 2328   3.521   1.822  10.322 -0.0268 -0.0383  0.3122
  149MPD2    H7 2329   3.548   1.724  10.311 -1.6325 -0.2429 -1.6854
  150TMC2    C1 2330   2.310   1.436  12.317 -0.7047 -0.1031  0.0953
  150TMC2    C2 2331   2.236   1.553  12.291 -0.0469 -0.2276 -0.3528
  150TMC2    C3 2332   2.294   1.672  12.298  0.3754 -0.1074 -0.2319
  150TMC2    C4 2333   2.426   1.447  12.387  0.1327  0.4441  0.4133
  150TMC2    C5 2334   2.484   1.573  12.398  0.5322  0.5697  0.3720
  150TMC2    C6 2335   2.425   1.686  12.340 -0.1048  0.5275  0.2871
  150TMC2     C 2336   2.260   1.297  12.298  0.3944  0.3682  0.1945
  150TMC2     O 2337   2.315   1.209  12.362  0.7056 -0.0143 -0.6716
  150TMC2     H 2338   2.143   1.544  12.236 -0.9780  0.3803  1.1054
  150TMC2    H1 2339   2.477   1.360  12.428 -1.5703 -0.5761  0.3785
  150TMC2    H2 2340   2.476   1.781  12.339 -2.0957  1.5864 -1.2708
  150TMC2    C7 2341   2.625   1.590  12.441  0.5701  0.2531 -0.1647
  150TMC2    C8 2342   2.239   1.770  12.206  1.0399  0.9505 -0.0052
  150TMC2    O1 2343   2.665   1.707  12.453  0.2942  0.2383 -0.0679
  150TMC2    O2 2344   2.314   1.823  12.126  0.3605 -0.6508 -0.1061
  150TMC2    O5 2345   2.107   1.781  12.220  0.1777 -0.2990  0.3538
  150TMC2    H5 2346   2.069   1.751  12.306 -3.7484  1.7973 -0.6236
  151MPD2     C 2347   1.926   0.943  12.118  0.0478  0.2426 -0.1988
  151MPD2    C1 2348   1.894   1.061  12.061 -1.1848  0.2151 -0.5474
  151MPD2    C2 2349   1.975   1.176  12.087 -0.7481  0.0561  0.7373
  151MPD2    C3 2350   2.080   1.167  12.177 -0.5444  0.4981 -0.2458
  151MPD2    C4 2351   2.113   1.046  12.234 -0.4873  0.7832 -0.3985
  151MPD2    C5 2352   2.028   0.938  12.206  0.3589 -0.0988  0.1866
  151MPD2     H 2353   1.942   1.271  12.047  0.4312  0.1271 -0.0845
  151MPD2    H1 2354   2.201   1.020  12.291 -0.0837 -0.5710 -1.6345
  151MPD2    H2 2355   1.877   0.852  12.084  1.2855  0.3103 -2.0820
  151MPD2    H3 2356   2.073   0.844  12.237  1.1416  0.4295  0.6621
  151MPD2     N 2357   2.152   1.290  12.210 -0.0065  0.1015  0.0736
  151MPD2    H5 2358   2.117   1.377  12.171 -2.2068 -0.3411  1.0430
  151MPD2    N1 2359   1.788   1.057  11.967  0.0147  0.6312  0.1723
  151MPD2    H7 2360   1.751   0.964  11.950 -0.6471  0.6192  1.6558
  152TMC2    C1 2361   1.975   0.894  12.583  0.0893  0.6882 -0.4390
  152TMC2    C2 2362   2.073   0.805  12.528  0.0345 -0.1972  0.1065
  152TMC2    C3 2363   2.201   0.850  12.526 -0.0844  0.5197 -0.0658
  152TMC2    C4 2364   2.021   1.013  12.642 -0.9790  0.2114  0.2807
  152TMC2    C5 2365   2.148   1.045  12.632 -0.0969 -0.0051 -0.2253
  152TMC2    C6 2366   2.240   0.972  12.574 -0.0060  0.1591 -0.3963
  152TMC2     C 2367   1.832   0.872  12.579 -0.0902  0.2459  0.4129
  152TMC2     O 2368   1.774   0.927  12.672  0.2227 -0.2689  0.1714
  152TMC2     H 2369   2.044   0.710  12.487  0.7444  0.3327 -1.6351
  152TMC2    H1 2370   1.952   1.069  12.704 -0.6141  0.9733  0.0000
  152TMC2    H2 2371   2.343   1.001  12.555 -0.0462  0.1130 -0.6965
  152TMC2    C7 2372   2.183   1.190  12.649 -0.5929 -0.1064  0.2451
  152TMC2    C8 2373   2.316   0.768  12.481 -0.9305 -0.6504 -0.5799
  152TMC2    O1 2374   2.094   1.268  12.633 -0.3583 -0.3799  0.2552
  152TMC2    O2 2375   2.293   0.683  12.398 -0.4028  0.3735 -0.2579
  152TMC2    O5 2376   2.383   0.731  12.590  0.3804  0.3086 -0.6159
  152TMC2    H5 2377   2.371   0.801  12.657 -1.9036  0.3303 -1.0367
  153MPD2     C 2378   1.630   0.758  12.281 -0.2844  0.2011 -0.5000
  153MPD2    C1 2379   1.658   0.805  12.411  0.0080 -0.4465  0.0220
  153MPD2    C2 2380   1.549   0.846  12.491 -0.0837 -0.0682 -0.0489
  153MPD2    C3 2381   1.424   0.854  12.440  0.4364 -0.4995 -0.4548
  153MPD2    C4 2382   1.405   0.822  12.310 -0.1330 -0.5733 -0.2615
  153MPD2    C5 2383   1.502   0.770  12.229  0.3468 -0.3717 -0.3826
  153MPD2     H 2384   1.566   0.886  12.591  3.2899 -2.7948  0.4783
  153MPD2    H1 2385   1.308   0.836  12.264 -1.2953  0.8811  2.6352
  153MPD2    H2 2386   1.710   0.720  12.219  0.6497 -0.1330  0.8919
  153MPD2    H3 2387   1.491   0.745  12.124  0.3059  1.9465 -0.9249
  153MPD2     N 2388   1.319   0.898  12.527 -0.8155  0.7448 -0.7494
  153MPD2    H5 2389   1.349   0.932  12.618  1.9604  0.0015 -1.3643
  153MPD2    N1 2390   1.796   0.812  12.464  0.2348  0.3023  0.6519
  153MPD2    H7 2391   1.877   0.791  12.407 -0.8783 -0.0875 -0.8052
  154TMC2    C1 2392   3.630   0.058   0.504  0.3197  0.0847  0.9746
  154TMC2    C2 2393   3.698   0.089   0.618  0.0911 -0.8561  0.2239
  154TMC2    C3 2394   3.777   4.735   0.677 -0.7842 -0.6433  0.2930
  154TMC2    C4 2395   3.637   4.668   0.451  0.3362 -0.5241  0.0290
  154TMC2    C5 2396   3.715   4.576   0.518 -0.0756 -0.7842  0.9622
  154TMC2    C6 2397   3.795   4.610   0.631  0.3286 -0.6272 -0.2485
  154TMC2     C 2398   3.533   0.156   0.456  0.1219 -0.1621  0.0018
  154TMC2     O 2399   3.554   0.271   0.494 -0.0073 -0.2311 -0.0151
  154TMC2     H 2400   3.701   0.189   0.659 -0.8431  0.4263 -2.7715
  154TMC2    H1 2401   3.594   4.629   0.360 -0.3324  0.2431  0.0170
  154TMC2    H2 2402   3.844   4.533   0.689  0.5551 -0.3545 -0.0774
  154TMC2    C7 2403   3.723   4.435   0.473  0.3178  0.0875  0.4442
  154TMC2    C8 2404   3.878   0.053   0.768 -0.4643 -0.0950 -0.1631
  154TMC2    O1 2405   3.617   4.388   0.438  0.2386 -0.0212 -0.1509
  154TMC2    O2 2406   3.873   0.164   0.816  0.8320  0.1923 -0.2755
  154TMC2    O5 2407   3.993   4.732   0.733 -0.7134 -0.4859 -0.4670
  154TMC2    H5 2408   3.986   4.661   0.666 -0.6224 -1.0154  0.0849
  155MPD2     C 2409   3.263   0.108   0.203  0.2599  0.2535  0.2758
  155MPD2    C1 2410   3.356   0.179   0.285 -0.2151 -0.0615  0.3647
  155MPD2    C2 2411   3.346   0.318   0.277  0.4329  0.5819  0.6636
  155MPD2    C3 2412   3.246   0.384   0.198 -0.4834 -0.9994  0.1984
  155MPD2    C4 2413   3.164   0.309   0.115 -0.2295 -0.5782  0.1028
  155MPD2    C5 2414   3.170   0.174   0.123 -0.2379  0.3238 -0.8165
  155MPD2     H 2415   3.420   0.370   0.336 -0.7551  1.8414  1.0388
  155MPD2    H1 2416   3.083   0.353   0.057  1.2236  1.5713 -0.3172
  155MPD2    H2 2417   3.258   0.001   0.216  0.7189 -0.2510 -3.7848
  155MPD2    H3 2418   3.105   0.111   0.063  0.5015 -2.7819  1.6607
  155MPD2     N 2419   3.231   0.524   0.210 -0.4304  0.0380  0.1051
  155MPD2    H5 2420   3.286   0.576   0.276  0.9824 -1.0482 -0.2051
  155MPD2    N1 2421   3.441   0.104   0.370 -0.0285 -0.0249 -0.4389
  155MPD2    H7 2422   3.438   0.002   0.366  0.5326 -0.1842  3.3025
  156TMC2    C1 2423   2.032   3.338  11.514  0.2080 -0.0185 -0.0154
  156TMC2    C2 2424   2.099   3.228  11.454  0.4458 -0.0907  0.0784
  156TMC2    C3 2425   2.103   3.228  11.316 -0.9489  0.5764 -0.8387
  156TMC2    C4 2426   1.973   3.437  11.444  0.8089  0.3868  0.6529
  156TMC2    C5 2427   1.984   3.437  11.312  0.4862  0.3122  0.2762
  156TMC2    C6 2428   2.037   3.329  11.244  0.9928 -0.0099  0.1943
  156TMC2     C 2429   2.057   3.350  11.658 -0.3380  0.1620 -0.0004
  156TMC2     O 2430   1.981   3.431  11.713  0.0608  0.2827  0.6262
  156TMC2     H 2431   2.140   3.150  11.517 -0.6554  0.6341  1.6938
  156TMC2    H1 2432   1.912   3.507  11.500 -1.5663  0.1594 -1.6735
  156TMC2    H2 2433   2.050   3.331  11.136  0.2563 -0.3161  0.0995
  156TMC2    C7 2434   1.897   3.526  11.239  0.5220  0.1144 -0.1610
  156TMC2    C8 2435   2.157   3.124  11.240 -0.2205 -0.1846 -0.2086
  156TMC2    O1 2436   1.852   3.620  11.303  0.4834  0.2068 -0.0939
  156TMC2    O2 2437   2.101   3.086  11.137 -0.4643  0.4873  0.3563
  156TMC2    O5 2438   2.253   3.052  11.311 -0.0918  0.2817 -0.1467
  156TMC2    H5 2439   2.299   3.095  11.386 -2.2977  3.3459 -0.5225
  157MPD2     C 2440   2.326   3.209  11.866  0.1349 -0.2404  0.0468
  157MPD2    C1 2441   2.220   3.293  11.843 -0.0798  0.0614 -0.2134
  157MPD2    C2 2442   2.184   3.394  11.933  0.0698 -0.0107  0.5073
  157MPD2    C3 2443   2.265   3.419  12.041  0.8373  0.4593  0.7293
  157MPD2    C4 2444   2.377   3.337  12.067 -0.5838  0.1813 -0.2121
  157MPD2    C5 2445   2.403   3.233  11.979  0.7107  0.2905  0.0238
  157MPD2     H 2446   2.092   3.448  11.913 -1.0256 -1.7653  0.8517
  157MPD2    H1 2447   2.440   3.359  12.152 -1.0654 -0.4309  0.3017
  157MPD2    H2 2448   2.358   3.130  11.799 -0.1698  1.2108 -1.8080
  157MPD2    H3 2449   2.485   3.168  12.008  1.2241  0.4930 -0.9401
  157MPD2     N 2450   2.225   3.533  12.119 -0.5128 -0.8278  0.1818
  157MPD2    H5 2451   2.142   3.589  12.100 -0.6769 -0.6167  1.5131
  157MPD2    N1 2452   2.166   3.285  11.707 -0.1185 -0.2351  0.1188
  157MPD2    H7 2453   2.223   3.225  11.648 -2.2755 -1.5518 -0.6088
  158TMC2    C1 2454   2.373   2.250  13.099  0.1026 -0.6529 -0.4717
  158TMC2    C2 2455   2.405   2.263  12.968 -0.2150  0.2981  0.1229
  158TMC2    C3 2456   2.314   2.327  12.886  0.3551  0.2939  0.2557
  158TMC2    C4 2457   2.253   2.295  13.150 -0.4206  0.5783  0.0101
  158TMC2    C5 2458   2.166   2.363  13.063 -0.0544  0.1709 -0.0814
  158TMC2    C6 2459   2.197   2.378  12.931 -0.0031  0.0051  0.0473
  158TMC2     C 2460   2.473   2.185  13.181  0.1916 -0.1493 -0.5459
  158TMC2     O 2461   2.582   2.162  13.131  0.1049  0.0816 -0.0283
  158TMC2     H 2462   2.498   2.215  12.936 -0.3585 -1.9926  3.1123
  158TMC2    H1 2463   2.245   2.284  13.258  2.3518  1.8181  0.3461
  158TMC2    H2 2464   2.137   2.432  12.859 -0.2939  0.3343  0.5341
  158TMC2    C7 2465   2.031   2.396  13.096 -0.4328  0.8388 -0.2111
  158TMC2    C8 2466   2.347   2.335  12.743  0.4700 -0.2315  0.3902
  158TMC2    O1 2467   1.971   2.466  13.019  0.6994 -0.0556 -0.0451
  158TMC2    O2 2468   2.463   2.332  12.696 -0.5250 -0.1194  0.0972
  158TMC2    O5 2469   2.236   2.286  12.688  0.0030  0.1793  0.0437
  158TMC2    H5 2470   2.151   2.302  12.733 -0.2218 -1.9198  0.3432
  159MPD2     C 2471   2.591   1.886  13.587 -0.1613 -0.0088 -0.1435
  159MPD2    C1 2472   2.493   1.978  13.622 -0.3052  0.1142 -0.0633
  159MPD2    C2 2473   2.460   2.077  13.528  0.6668 -0.1011 -0.0599
  159MPD2    C3 2474   2.507   2.075  13.397 -0.5693  0.9182 -0.1456
  159MPD2    C4 2475   2.584   1.972  13.359 -0.3611  0.1366 -0.5400
  159MPD2    C5 2476   2.628   1.878  13.450  0.0169  0.4002  0.6251
  159MPD2     H 2477   2.387   2.150  13.560  0.4129 -0.3177 -0.1420
  159MPD2    H1 2478   2.628   1.962  13.260 -1.1858  2.3051 -1.1086
  159MPD2    H2 2479   2.619   1.801  13.649  0.6707 -0.7103 -1.4716
  159MPD2    H3 2480   2.694   1.797  13.420 -0.4863 -0.4766  1.8775
  159MPD2     N 2481   2.452   2.174  13.315 -0.0052  0.4152 -0.5061
  159MPD2    H5 2482   2.374   2.225  13.354 -1.3754 -0.2723 -2.3217
  159MPD2    N1 2483   2.454   1.989  13.760 -0.0949 -0.1478  0.1801
  159MPD2    H7 2484   2.496   1.931  13.832 -0.2840 -1.2775 -0.6109
  160TMC2    C1 2485   1.999   0.179   1.292  0.2538  0.1985  0.2544
  160TMC2    C2 2486   1.909   0.099   1.361  0.8864 -0.1601 -0.3164
  160TMC2    C3 2487   1.940   4.707   1.350  0.7921 -0.0651  0.1961
  160TMC2    C4 2488   2.110   0.139   1.233 -0.3294  0.1202 -0.0080
  160TMC2    C5 2489   2.139   0.006   1.247  0.0555  0.0575  0.1403
  160TMC2    C6 2490   2.053   4.653   1.299  0.9128  0.8400  0.1664
  160TMC2     C 2491   1.997   0.322   1.335 -0.1400 -0.4695 -0.1973
  160TMC2     O 2492   1.958   0.354   1.448  0.1123  0.0600 -0.3128
  160TMC2     H 2493   1.830   0.143   1.421  0.4139 -1.8846  0.3432
  160TMC2    H1 2494   2.171   0.215   1.185 -0.2668  1.4362  2.1764
  160TMC2    H2 2495   2.070   4.547   1.287  0.7613  1.1533 -2.7642
  160TMC2    C7 2496   2.243   4.683   1.157 -0.2617  0.0020 -0.0382
  160TMC2    C8 2497   1.839   4.631   1.418  0.2673 -0.1276 -0.6030
  160TMC2    O1 2498   2.218   4.588   1.089  0.5591 -0.0327  0.1104
  160TMC2    O2 2499   1.879   4.527   1.468  0.2719  0.5205  0.1735
  160TMC2    O5 2500   1.720   4.654   1.371 -0.4275 -0.3791 -0.1600
  160TMC2    H5 2501   1.720   4.732   1.310 -0.3494 -0.8614 -0.7787
  161MPD2     C 2502   2.103   0.619   1.351  0.7593 -0.1447 -0.6619
  161MPD2    C1 2503   2.061   0.548   1.239 -0.0419 -0.3560 -0.1810
  161MPD2    C2 2504   2.024   0.619   1.127 -0.1343  0.2094  0.6596
  161MPD2    C3 2505   2.029   0.764   1.131  0.3292  0.1699  0.9861
  161MPD2    C4 2506   2.068   0.829   1.243 -0.0414  0.4507 -0.4854
  161MPD2    C5 2507   2.108   0.752   1.348 -0.1327  0.1040  0.5925
  161MPD2     H 2508   1.992   0.572   1.034  0.7321  1.3299 -0.2001
  161MPD2    H1 2509   2.084   0.936   1.234 -1.8567  0.6518 -1.3675
  161MPD2    H2 2510   2.143   0.558   1.431  0.5948 -1.1328 -1.3269
  161MPD2    H3 2511   2.144   0.812   1.431  1.4278  1.0065 -0.7384
  161MPD2     N 2512   1.989   0.846   1.026  0.5671  0.3230 -0.6263
  161MPD2    H5 2513   1.994   0.944   1.051 -1.2048  0.2685 -0.0690
  161MPD2    N1 2514   2.045   0.409   1.236 -0.9300 -0.1026 -0.0998
  161MPD2    H7 2515   2.047   0.369   1.143  1.0919  0.8681 -0.4623
  162TMC2    C1 2516   0.565   2.360   1.157  0.6330  0.2618  0.1985
  162TMC2    C2 2517   0.554   2.460   1.244  0.7280 -0.0519 -0.4471
  162TMC2    C3 2518   0.638   2.471   1.354  0.1494  0.8514 -0.0146
  162TMC2    C4 2519   0.662   2.264   1.177 -0.1604  0.3023  0.4805
  162TMC2    C5 2520   0.757   2.285   1.278 -1.0655 -0.2835  0.4880
  162TMC2    C6 2521   0.743   2.385   1.370 -0.0083  0.3209  0.0501
  162TMC2     C 2522   0.476   2.354   1.038 -0.1383  0.4401  0.2735
  162TMC2     O 2523   0.511   2.286   0.947 -0.0885 -0.1061  0.2898
  162TMC2     H 2524   0.491   2.544   1.217 -0.1121 -0.7309 -0.5948
  162TMC2    H1 2525   0.662   2.182   1.106  4.6818 -0.4297  1.3401
  162TMC2    H2 2526   0.821   2.403   1.443  1.3879  3.3799 -2.2249
  162TMC2    C7 2527   0.879   2.206   1.287 -0.3518  0.2015  0.9545
  162TMC2    C8 2528   0.639   2.593   1.426  0.2151  0.1261 -0.0090
  162TMC2    O1 2529   0.980   2.262   1.330 -0.0308  0.5765 -0.0016
  162TMC2    O2 2530   0.733   2.622   1.498  0.8592  0.1160 -0.1994
  162TMC2    O5 2531   0.515   2.641   1.431 -0.5992 -0.4438  0.2808
  162TMC2    H5 2532   0.450   2.588   1.381 -2.0428  1.3618  0.2728
  163MPD2     C 2533   0.026   2.411   0.822 -0.3498 -0.1784 -0.3493
  163MPD2    C1 2534   0.134   2.350   0.778  0.2167  0.4926  0.4381
  163MPD2    C2 2535   0.250   2.361   0.851 -0.2318 -0.1593 -0.1496
  163MPD2    C3 2536   0.251   2.425   0.974 -0.2201  0.3329  0.1032
  163MPD2    C4 2537   0.139   2.475   1.024  0.2790 -0.6711  0.6256
  163MPD2    C5 2538   0.021   2.471   0.951  0.9922  0.7221  0.1833
  163MPD2     H 2539   0.343   2.332   0.804  0.2859 -1.1929  1.5263
  163MPD2    H1 2540   0.125   2.506   1.127  0.8087  1.5695  0.0214
  163MPD2    H2 2541   4.671   2.396   0.768 -0.5620 -0.1712  0.0151
  163MPD2    H3 2542   4.670   2.511   0.998  0.5367  0.0739 -0.1134
  163MPD2     N 2543   0.360   2.430   1.060 -0.5165  0.0451 -0.3524
  163MPD2    H5 2544   0.336   2.458   1.154 -0.6095  0.5558 -0.5231
  163MPD2    N1 2545   0.134   2.285   0.656  0.1207 -0.1238  0.1393
  163MPD2    H7 2546   0.055   2.296   0.593  0.6176  1.1634 -0.2717
  164TMC2    C1 2547   0.396   1.619  11.346 -0.1821  0.0053  0.4649
  164TMC2    C2 2548   0.490   1.669  11.262 -0.2344 -0.3308  0.6698
  164TMC2    C3 2549   0.477   1.803  11.240  0.0707 -0.4999 -0.1489
  164TMC2    C4 2550   0.286   1.682  11.378 -0.4070  1.0252  0.1294
  164TMC2    C5 2551   0.268   1.812  11.334  0.3469  0.4512 -0.0588
  164TMC2    C6 2552   0.363   1.877  11.272  0.9030  0.5298 -0.5327
  164TMC2     C 2553   0.398   1.476  11.377 -0.5282  0.2516 -0.0018
  164TMC2     O 2554   0.352   1.439  11.488  1.0956 -0.4918  0.0361
  164TMC2     H 2555   0.574   1.605  11.238 -0.8334 -1.2187  0.9323
  164TMC2    H1 2556   0.201   1.621  11.406  1.1960 -0.6828  1.2660
  164TMC2    H2 2557   0.355   1.984  11.260 -1.3404  0.4562  0.2250
  164TMC2    C7 2558   0.137   1.861  11.307  0.4161  0.1363  0.5646
  164TMC2    C8 2559   0.561   1.838  11.126  0.0513  0.7640  0.0880
  164TMC2    O1 2560   0.119   1.946  11.228  0.3257 -0.0954  0.5039
  164TMC2    O2 2561   0.606   1.752  11.052 -0.8870 -0.2472 -0.4819
  164TMC2    O5 2562   0.543   1.965  11.094 -0.4903  1.4722 -0.5632
  164TMC2    H5 2563   0.504   2.021  11.164  1.2434  0.7234  1.0047
  165TMC2    C1 2564   1.921   3.656   0.926 -0.0430  0.2391  0.1951
  165TMC2    C2 2565   2.005   3.543   0.915 -0.0377 -0.8326  0.4126
  165TMC2    C3 2566   2.141   3.556   0.929 -0.3157 -0.0294  0.1321
  165TMC2    C4 2567   1.965   3.777   0.970 -0.0903 -0.7301  0.6426
  165TMC2    C5 2568   2.098   3.784   0.997 -0.1743  0.4372 -0.4493
  165TMC2    C6 2569   2.190   3.685   0.964  0.5603 -0.0788  0.8129
  165TMC2     C 2570   1.785   3.621   0.957 -0.3614  0.0496 -0.2516
  165TMC2     O 2571   1.761   3.505   0.978  0.7176 -0.0645 -0.0555
  165TMC2     H 2572   1.963   3.445   0.895 -0.3158 -0.5157 -0.5485
  165TMC2    H1 2573   1.899   3.862   0.982  3.1203  1.5286  2.3821
  165TMC2    H2 2574   2.294   3.700   0.989  0.1960  1.9532  1.1159
  165TMC2    C7 2575   2.148   3.903   1.077  0.3256  0.0025 -0.4040
  165TMC2    C8 2576   2.206   3.440   0.982 -0.6394  0.4720 -0.1747
  165TMC2    O1 2577   2.271   3.910   1.087 -0.5246 -0.5723 -0.6863
  165TMC2    O2 2578   2.159   3.342   1.034 -0.0699 -0.2431 -0.2359
  165TMC2    O5 2579   2.336   3.462   0.974  0.2693  0.1764 -0.5707
  165TMC2    H5 2580   2.371   3.534   0.918 -0.9456  0.2171 -1.2782
  166MPD2     C 2581   1.280   3.723   0.917  0.0554  0.2056 -0.0421
  166MPD2    C1 2582   1.348   3.617   0.968 -0.0881  0.0480  0.2188
  166MPD2    C2 2583   1.489   3.614   0.972 -0.2321 -0.1075 -0.4943
  166MPD2    C3 2584   1.558   3.721   0.925 -0.0408  0.0850  0.1432
  166MPD2    C4 2585   1.492   3.829   0.870 -0.0375  0.1408 -0.2777
  166MPD2    C5 2586   1.353   3.827   0.866  0.2282 -0.6500 -0.5994
  166MPD2     H 2587   1.536   3.526   1.016  0.4466  0.6286  0.2501
  166MPD2    H1 2588   1.538   3.923   0.842  0.0305  0.6815  1.6377
  166MPD2    H2 2589   1.172   3.727   0.934 -0.1648 -0.3211 -1.3766
  166MPD2    H3 2590   1.299   3.909   0.820  1.9626  1.6477  1.4925
  166MPD2     N 2591   1.702   3.725   0.924 -0.6063 -0.6255  0.3325
  166MPD2    H5 2592   1.747   3.810   0.894  0.5021 -0.8665  1.3124
  166MPD2    N1 2593   1.274   3.511   1.012 -0.1099  0.1287 -0.0079
  166MPD2    H7 2594   1.174   3.527   1.010 -0.2552 -0.8516 -0.3844
  167TMC2    C1 2595   0.811   2.018  12.801 -0.1329  0.0502  0.0543
  167TMC2    C2 2596   0.928   2.027  12.871 -0.2079  0.5103  0.9476
  167TMC2    C3 2597   0.946   1.934  12.969 -0.1970  0.4515 -0.0495
  167TMC2    C4 2598   0.709   1.925  12.832  0.4938 -0.2843 -0.3701
  167TMC2    C5 2599   0.723   1.855  12.947  0.1668  0.1912 -0.1754
  167TMC2    C6 2600   0.848   1.840  13.002  0.3495 -0.4580 -0.1106
  167TMC2     C 2601   0.783   2.126  12.707 -0.1451 -0.1315 -0.5247
  167TMC2     O 2602   0.856   2.223  12.722  0.3852  0.5753  0.1669
  167TMC2     H 2603   1.003   2.102  12.852 -1.7360  1.2001 -2.4650
  167TMC2    H1 2604   0.615   1.935  12.780  0.1803  0.7534  0.3951
  167TMC2    H2 2605   0.856   1.771  13.085 -0.2464 -0.4133 -0.0161
  167TMC2    C7 2606   0.619   1.756  12.984  0.0394 -0.2360 -0.6384
  167TMC2    C8 2607   1.062   1.950  13.057 -0.4201  0.0362  0.3447
  167TMC2    O1 2608   0.655   1.673  13.066 -0.1281 -0.1138  0.2349
  167TMC2    O2 2609   1.164   2.013  13.031  0.2316 -0.1687  0.1702
  167TMC2    O5 2610   1.038   1.893  13.184  0.3539  0.1970 -0.3779
  167TMC2    H5 2611   0.948   1.857  13.201  1.7982 -2.8530  0.8427
  168MPD2     C 2612   0.801   2.238  12.442 -0.2497 -0.1215  0.2769
  168MPD2    C1 2613   0.685   2.181  12.495 -0.3237  0.2070 -0.1393
  168MPD2    C2 2614   0.572   2.204  12.425  0.4460 -0.2394 -0.2521
  168MPD2    C3 2615   0.567   2.293  12.317 -0.3316 -0.1183  0.0537
  168MPD2    C4 2616   0.682   2.356  12.276 -0.0456 -1.1205 -0.3389
  168MPD2    C5 2617   0.796   2.331  12.341  0.1608  1.2374 -0.2295
  168MPD2     H 2618   0.484   2.153  12.464 -0.8794  1.6204 -0.7730
  168MPD2    H1 2619   0.690   2.422  12.190 -1.6228 -1.7116 -0.9439
  168MPD2    H2 2620   0.899   2.223  12.485  1.4211  2.8504 -2.4509
  168MPD2    H3 2621   0.888   2.381  12.312  0.3617  0.6318 -0.6392
  168MPD2     N 2622   0.457   2.310  12.234 -0.2018 -0.0119  0.5219
  168MPD2    H5 2623   0.484   2.356  12.147  1.2425 -1.1680  0.3576
  168MPD2    N1 2624   0.692   2.100  12.608  0.0697 -0.5404 -0.3911
  168MPD2    H7 2625   0.632   2.019  12.608 -0.7084  0.0432 -2.3871
  169MPD1     C 2626   0.889   2.536   9.543  0.2173 -0.1486  0.0507
  169MPD1    C1 2627   1.016   2.508   9.482  0.0216  0.3363 -0.3352
  169MPD1    C2 2628   1.081   2.404   9.548  0.6941  0.3681  0.7324
  169MPD1    C3 2629   1.025   2.319   9.643 -0.6665 -0.4724 -0.2982
  169MPD1    C4 2630   0.900   2.351   9.694  0.2954  0.4012 -0.2185
  169MPD1    C5 2631   0.824   2.450   9.636  0.2696  0.0825 -0.2664
  169MPD1     H 2632   1.178   2.378   9.505 -0.0544 -0.1100 -0.6889
  169MPD1    H1 2633   0.858   2.291   9.773  2.0405 -0.6566 -0.0877
  169MPD1    H2 2634   0.828   2.621   9.517  2.3279  1.4385  0.3090
  169MPD1    H3 2635   0.723   2.465   9.674 -0.0716 -1.3977 -0.5634
  169MPD1     N 2636   1.106   2.219   9.692 -0.2721 -0.6023  0.1726
  169MPD1    H5 2637   1.187   2.198   9.635  1.1900  0.6797  1.7712
  169MPD1    N1 2638   1.078   2.586   9.391 -0.4484  0.4217 -0.1030
  169MPD1    H6 2639   1.016   2.627   9.322 -0.8215 -0.4298 -0.2725
  169MPD1    H7 2640   1.148   2.530   9.341  1.1516  1.8423  0.5768
  170MPD1     C 2641   1.129   3.567  13.182 -0.4524 -0.1322  0.6114
  170MPD1    C1 2642   1.199   3.631  13.281 -0.4128  0.0925  0.0488
  170MPD1    C2 2643   1.151   3.762  13.302  0.2099  0.7270 -0.2041
  170MPD1    C3 2644   1.043   3.817  13.241  0.0156  0.0408 -0.0116
  170MPD1    C4 2645   0.970   3.739  13.150 -0.2752 -0.2028 -0.8202
  170MPD1    C5 2646   1.017   3.616  13.121 -0.4886 -0.2683  0.0007
  170MPD1     H 2647   1.211   3.831  13.361 -0.9413  1.9564 -0.4699
  170MPD1    H1 2648   0.886   3.783  13.097 -2.0910 -0.4119  1.8666
  170MPD1    H2 2649   1.166   3.469  13.152  0.9667 -0.2038  2.6190
  170MPD1    H3 2650   0.958   3.555  13.052  0.1338  0.0657 -0.8302
  170MPD1     N 2651   1.010   3.949  13.280 -0.2563 -0.0216 -0.0102
  170MPD1    H5 2652   1.054   3.989  13.362 -2.3134  2.8077 -0.2820
  170MPD1    N1 2653   1.329   3.597  13.317 -0.2003 -0.5009  0.1598
  170MPD1    H6 2654   1.351   3.497  13.322  0.1182 -0.4839 -1.0054
  170MPD1    H7 2655   1.341   3.643  13.407  1.8640 -1.7214  0.5209
  171MPD1     C 2656   4.324   0.551  15.272 -1.3419 -0.1874  0.0673
  171MPD1    C1 2657   4.262   0.427  15.252  0.4076 -0.5806 -0.2545
  171MPD1    C2 2658   4.305   0.309  15.313  0.1086 -0.9413  0.4980
  171MPD1    C3 2659   4.423   0.312  15.393  0.0510  0.5134  0.0058
  171MPD1    C4 2660   4.490   0.435  15.398 -0.5515  0.4866  0.8845
  171MPD1    C5 2661   4.439   0.551  15.351 -0.8665 -0.6412  0.0058
  171MPD1     H 2662   4.250   0.217  15.294 -1.7025 -0.0639  1.5771
  171MPD1    H1 2663   4.584   0.457  15.448  0.6288 -0.6448 -0.8186
  171MPD1    H2 2664   4.281   0.644  15.239 -0.3164  0.2707  0.0295
  171MPD1    H3 2665   4.490   0.642  15.380  1.0342 -1.6572 -0.2077
  171MPD1     N 2666   4.481   0.198  15.456  0.7064  0.9367  0.7266
  171MPD1    H5 2667   4.560   0.204  15.519 -0.3761  0.6690  2.1041
  171MPD1    N1 2668   4.140   0.427  15.177 -0.0407 -0.0677 -0.4326
  171MPD1    H6 2669   4.106   0.332  15.164  0.4180 -0.2782 -0.0987
  171MPD1    H7 2670   4.120   0.488  15.097 -0.5759 -0.3392 -0.5013
  172MPD1     C 2671   3.189   3.652  17.706  0.1963  0.3063  0.3017
  172MPD1    C1 2672   3.181   3.723   0.078  0.1826 -0.1099 -0.2316
  172MPD1    C2 2673   3.254   3.843   0.097 -0.2417 -0.3675 -0.2651
  172MPD1    C3 2674   3.323   3.891  17.736 -0.3689 -0.1823 -0.0410
  172MPD1    C4 2675   3.321   3.819  17.614  0.3521 -0.9005 -0.2410
  172MPD1    C5 2676   3.257   3.700  17.598 -0.0117  0.6273 -0.4217
  172MPD1     H 2677   3.262   3.888   0.195  0.7260 -3.3170  1.0074
  172MPD1    H1 2678   3.378   3.864  17.534 -1.8507 -0.1333 -1.3763
  172MPD1    H2 2679   3.128   3.563  17.692 -0.4959  0.4662  2.2305
  172MPD1    H3 2680   3.254   3.656  17.498  0.4615  2.2419 -1.1496
  172MPD1     N 2681   3.398   4.008  17.732 -0.4436  0.5083 -0.0910
  172MPD1    H5 2682   3.452   4.032  17.649 -0.1349 -0.5951 -0.2046
  172MPD1    N1 2683   3.118   3.658   0.190  0.3384  0.1943 -0.0437
  172MPD1    H6 2684   3.086   3.732   0.252  0.1644  0.0298  0.0599
  172MPD1    H7 2685   3.042   3.605   0.150 -0.4428  0.5180  1.0166
  173MPD1     C 2686   0.248   4.349  13.434  0.3038 -0.3873  0.1745
  173MPD1    C1 2687   0.126   4.338  13.492 -0.7668  0.6501 -0.1609
  173MPD1    C2 2688   0.123   4.273  13.610 -0.5441 -0.2762  0.1981
  173MPD1    C3 2689   0.239   4.232  13.683  0.1556 -0.7782 -0.5342
  173MPD1    C4 2690   0.359   4.248  13.616  0.0327  0.5556 -0.9885
  173MPD1    C5 2691   0.364   4.306  13.492  0.6745  0.0474 -0.3968
  173MPD1     H 2692   0.027   4.247  13.654  0.2139 -2.8682  0.3628
  173MPD1    H1 2693   0.451   4.207  13.657  1.1117  2.1308 -1.8396
  173MPD1    H2 2694   0.255   4.402  13.339 -0.1109  2.9522  2.0151
  173MPD1    H3 2695   0.460   4.300  13.440  1.8237  2.3566  1.4647
  173MPD1     N 2696   0.231   4.170  13.814 -0.1958 -0.0132  0.1127
  173MPD1    H5 2697   0.141   4.166  13.861 -1.1791  2.5662 -1.5568
  173MPD1    N1 2698   0.008   4.363  13.428 -0.4750  0.0593  0.2018
  173MPD1    H6 2699   4.669   4.389  13.489 -1.1013 -1.6243  0.1301
  173MPD1    H7 2700   0.015   4.448  13.373  1.0401 -1.0592 -1.3524
  174MPD1     C 2701   0.579   3.855  14.816 -1.0317  0.0127  0.0586
  174MPD1    C1 2702   0.648   3.917  14.719 -0.0324 -0.1568 -0.6015
  174MPD1    C2 2703   0.595   3.929  14.590 -0.8984  0.0526 -0.1603
  174MPD1    C3 2704   0.467   3.891  14.567 -0.2896  0.4972  0.0229
  174MPD1    C4 2705   0.399   3.821  14.664  0.1121 -0.9625 -0.1422
  174MPD1    C5 2706   0.456   3.798  14.788  0.0145  0.2400  0.0051
  174MPD1     H 2707   0.650   3.987  14.517 -1.7321  2.3332  1.0117
  174MPD1    H1 2708   0.304   3.777  14.639 -0.5171  0.5677 -0.4560
  174MPD1    H2 2709   0.615   3.846  14.918 -0.7348 -0.3631 -0.0822
  174MPD1    H3 2710   0.411   3.738  14.866 -0.7712  0.0017 -0.6314
  174MPD1     N 2711   0.398   3.904  14.444  0.4968  0.4753  0.9123
  174MPD1    H5 2712   0.303   3.868  14.446 -0.0331  1.8230  0.1360
  174MPD1    N1 2713   0.782   3.958  14.744  0.1491  0.0753 -0.1812
  174MPD1    H6 2714   0.829   3.989  14.659 -0.1805  0.1051 -0.3541
  174MPD1    H7 2715   0.837   3.895  14.801  1.5383 -0.7918 -2.4840
  175MPD1     C 2716   3.110   0.260  14.893 -0.0288  0.2226  0.1422
  175MPD1    C1 2717   3.203   0.175  14.953  0.2601 -0.0098  0.2319
  175MPD1    C2 2718   3.190   0.146  15.090 -0.3451  0.0659  0.6670
  175MPD1    C3 2719   3.069   0.172  15.155  1.2584  0.1281  0.3926
  175MPD1    C4 2720   2.972   0.240  15.088  0.2571  0.5305  0.4627
  175MPD1    C5 2721   3.000   0.295  14.963  0.2945 -0.6676  0.0774
  175MPD1     H 2722   3.274   0.095  15.137  0.9516  0.1008 -1.5898
  175MPD1    H1 2723   2.883   0.268  15.144 -1.2279  1.5732 -2.4109
  175MPD1    H2 2724   3.123   0.304  14.794 -3.0514 -1.5011 -1.0484
  175MPD1    H3 2725   2.933   0.373  14.927 -0.2260 -0.8662  0.6080
  175MPD1     N 2726   3.049   0.144  15.287 -0.5094  0.3021 -0.4744
  175MPD1    H5 2727   2.963   0.181  15.327 -0.9370 -0.3611 -0.7872
  175MPD1    N1 2728   3.330   0.161  14.892 -1.0743 -0.0759 -0.8931
  175MPD1    H6 2729   3.380   0.080  14.929  0.5771  1.4372  0.1900
  175MPD1    H7 2730   3.332   0.153  14.791 -1.6764  1.6179 -1.0348
  176MPD1     C 2731   0.301   3.472   0.709 -0.1888  0.8747  0.5722
  176MPD1    C1 2732   0.398   3.522   0.627  0.1720  0.1138  0.9877
  176MPD1    C2 2733   0.360   3.566   0.502 -0.0539 -0.0398  0.5141
  176MPD1    C3 2734   0.230   3.555   0.458 -0.3551  0.1306  0.6705
  176MPD1    C4 2735   0.134   3.497   0.539 -0.4307  0.7446 -0.3238
  176MPD1    C5 2736   0.171   3.453   0.664  0.4025 -0.3944  0.2926
  176MPD1     H 2737   0.436   3.614   0.441 -0.7160  2.2833  1.5578
  176MPD1    H1 2738   0.032   3.478   0.505 -0.4122 -0.8004  0.4847
  176MPD1    H2 2739   0.329   3.436   0.808 -0.3476  2.6006  1.2395
  176MPD1    H3 2740   0.110   3.399   0.735  0.4365  1.5572  1.7990
  176MPD1     N 2741   0.205   3.612   0.328  0.2928 -0.2382 -0.4784
  176MPD1    H5 2742   0.285   3.659   0.287 -0.6477  1.4659 -0.3448
  176MPD1    N1 2743   0.513   3.568   0.693 -0.0678 -0.4381 -0.1787
  176MPD1    H6 2744   0.592   3.588   0.631  0.9400 -0.3419  1.1398
  176MPD1    H7 2745   0.535   3.516   0.777  1.6578 -1.1840 -1.0761
  177MPD1     C 2746   2.846   2.369  10.256  0.8014  0.2090  0.0471
  177MPD1    C1 2747   2.786   2.327  10.141 -0.5783 -0.1600  0.4061
  177MPD1    C2 2748   2.750   2.416  10.038 -1.0884  0.2878  0.6289
  177MPD1    C3 2749   2.781   2.549  10.049 -0.4194  0.0637  0.8284
  177MPD1    C4 2750   2.845   2.588  10.168  0.0243 -0.9715  0.5919
  177MPD1    C5 2751   2.875   2.502  10.274  0.0676 -0.2374 -0.0079
  177MPD1     H 2752   2.703   2.379   9.948 -0.4338 -0.0966  0.4457
  177MPD1    H1 2753   2.880   2.690  10.171  0.1817 -0.9508 -1.7981
  177MPD1    H2 2754   2.863   2.302  10.339  1.0554  1.1972  0.7917
  177MPD1    H3 2755   2.928   2.534  10.363  0.4923 -0.9480 -0.0032
  177MPD1     N 2756   2.754   2.630   9.938  0.5541 -0.3858  0.4623
  177MPD1    H5 2757   2.710   2.586   9.858 -0.3056  0.5103  0.4386
  177MPD1    N1 2758   2.754   2.195  10.121 -0.6355 -0.4369 -0.1773
  177MPD1    H6 2759   2.769   2.176  10.022  2.4878  0.3736  0.1368
  177MPD1    H7 2760   2.816   2.134  10.174 -0.1515  0.3390  0.1565
  178MPD1     C 2761   1.285   2.943   0.440  0.2436  0.4535 -0.0747
  178MPD1    C1 2762   1.226   3.059   0.403 -0.6962  0.1106 -0.2780
  178MPD1    C2 2763   1.228   3.097   0.269 -0.8315 -0.3813  0.1597
  178MPD1    C3 2764   1.303   3.026   0.183  0.0906  0.8814 -0.0055
  178MPD1    C4 2765   1.380   2.921   0.233 -0.7411 -0.1480 -0.0587
  178MPD1    C5 2766   1.358   2.872   0.360 -0.3301 -0.3779 -0.7748
  178MPD1     H 2767   1.173   3.183   0.232 -0.9966  0.6680  2.8902
  178MPD1    H1 2768   1.453   2.870   0.171 -0.9227  1.4869 -1.6617
  178MPD1    H2 2769   1.266   2.897   0.536 -1.3245  2.2716  0.4807
  178MPD1    H3 2770   1.415   2.787   0.396 -0.2687 -0.7702 -1.7880
  178MPD1     N 2771   1.307   3.060   0.047 -0.0615  0.1078 -0.1812
  178MPD1    H5 2772   1.371   3.006  17.738  0.7950  3.1746 -2.1199
  178MPD1    N1 2773   1.137   3.113   0.496  0.2706  0.3629 -0.2776
  178MPD1    H6 2774   1.138   3.214   0.489  2.1995  0.3267 -0.3401
  178MPD1    H7 2775   1.177   3.092   0.587 -0.2683  0.7495  0.0489
  179MPD1     C 2776   0.661   1.856  15.944 -0.1174  0.5908  0.6928
  179MPD1    C1 2777   0.541   1.807  15.983  0.2537 -0.1934  0.3760
  179MPD1    C2 2778   0.508   1.677  15.989  0.0289  0.0295 -0.1343
  179MPD1    C3 2779   0.609   1.589  15.955 -0.4133 -0.2397  0.0604
  179MPD1    C4 2780   0.726   1.633  15.905 -0.1889 -0.4581 -1.2204
  179MPD1    C5 2781   0.754   1.763  15.911  0.1000  0.4805  0.4790
  179MPD1     H 2782   0.408   1.642  16.012 -0.3745  1.6706  0.5433
  179MPD1    H1 2783   0.803   1.563  15.873 -1.1055 -1.9543 -0.1682
  179MPD1    H2 2784   0.684   1.961  15.960 -1.0036  0.8087  0.5483
  179MPD1    H3 2785   0.850   1.794  15.871 -0.1376 -0.0934 -0.5361
  179MPD1     N 2786   0.586   1.452  15.944  0.1416 -0.5183  0.1151
  179MPD1    H5 2787   0.667   1.394  15.922 -1.4398 -1.7392 -2.6519
  179MPD1    N1 2788   0.444   1.900  16.023  0.6508  0.4112 -0.3039
  179MPD1    H6 2789   0.444   1.977  15.956  1.3128 -0.3257 -1.1492
  179MPD1    H7 2790   0.352   1.857  16.033  0.5286  0.5643 -0.7585
  180MPD1     C 2791   4.547   2.638  15.125 -0.9040  0.5870  0.3178
  180MPD1    C1 2792   4.662   2.714  15.121  0.4461 -0.1228 -0.2112
  180MPD1    C2 2793   4.716   2.758  15.001  0.1512 -0.6104  0.3842
  180MPD1    C3 2794   4.648   2.743  14.882 -0.0418  0.6144  0.2704
  180MPD1    C4 2795   4.519   2.682  14.883 -0.5052 -0.2233  0.0841
  180MPD1    C5 2796   4.477   2.626  15.005  0.4315 -0.5819  0.1716
  180MPD1     H 2797   0.075   2.807  15.003  0.9247 -2.0876 -0.6248
  180MPD1    H1 2798   4.468   2.668  14.789  1.4857 -0.9720 -0.8729
  180MPD1    H2 2799   4.520   2.586  15.216  1.7369 -2.6543 -0.7356
  180MPD1    H3 2800   4.388   2.564  14.999  0.3353 -0.5372  1.0560
  180MPD1     N 2801   4.715   2.786  14.760 -0.0023 -0.1466 -0.4032
  180MPD1    H5 2802   0.070   2.827  14.771  0.2678 -0.7662 -0.3660
  180MPD1    N1 2803   0.005   2.704  15.235  0.2007 -0.1026 -0.0355
  180MPD1    H6 2804   0.090   2.759  15.245  0.1209 -0.1281  0.7315
  180MPD1    H7 2805   4.691   2.692  15.322  1.1234  0.6416  0.6067
  181MPD1     C 2806   1.041   4.467   8.989  0.0384  0.0391 -0.1044
  181MPD1    C1 2807   1.033   4.553   9.098 -0.1171  0.0513  0.0326
  181MPD1    C2 2808   1.150   4.561   9.171  0.1797 -0.0933  0.2957
  181MPD1    C3 2809   1.272   4.508   9.130 -0.0819  0.3186 -0.2801
  181MPD1    C4 2810   1.276   4.441   9.007  0.5841  0.2020 -1.2756
  181MPD1    C5 2811   1.156   4.422   8.938 -0.0737 -0.7018  0.6496
  181MPD1     H 2812   1.152   4.622   9.261  2.9299  0.9339 -0.4659
  181MPD1    H1 2813   1.364   4.398   8.959  0.7521 -0.7973 -0.0845
  181MPD1    H2 2814   0.951   4.446   8.933  0.5360  1.9867 -1.6284
  181MPD1    H3 2815   1.167   4.369   8.844  0.5243 -2.3111  1.6106
  181MPD1     N 2816   1.389   4.511   9.206  0.2318  0.4744  0.2016
  181MPD1    H5 2817   1.472   4.474   9.161  0.0136  0.4730 -0.2042
  181MPD1    N1 2818   0.909   4.588   9.148  0.3311  0.2227 -0.1537
  181MPD1    H6 2819   0.904   4.665   9.215 -1.7682 -0.0703  0.0468
  181MPD1    H7 2820   0.837   4.600   9.077  0.9155 -0.5473 -0.8665
  182MPD1     C 2821   3.715   3.650   1.731 -0.6847  0.0870 -0.0859
  182MPD1    C1 2822   3.681   3.541   1.648  0.7201  0.0871  0.1449
  182MPD1    C2 2823   3.563   3.544   1.588  0.0700  0.0589 -0.3638
  182MPD1    C3 2824   3.477   3.649   1.617 -0.0113 -0.3414 -0.5204
  182MPD1    C4 2825   3.501   3.750   1.710  0.2463  0.3501 -0.1594
  182MPD1    C5 2826   3.626   3.743   1.767  0.2410 -0.0715 -0.0499
  182MPD1     H 2827   3.536   3.465   1.519  1.0814 -0.6724  0.0636
  182MPD1    H1 2828   3.428   3.829   1.724  0.3316  0.8532 -2.5422
  182MPD1    H2 2829   3.817   3.652   1.768 -1.5151  3.9542  2.0102
  182MPD1    H3 2830   3.660   3.819   1.836  2.1888 -1.6632  0.7332
  182MPD1     N 2831   3.353   3.667   1.551 -0.4994  0.2214 -0.2075
  182MPD1    H5 2832   3.293   3.736   1.596  0.4924  0.7275  0.3401
  182MPD1    N1 2833   3.782   3.457   1.603  0.2832 -0.3693 -0.0370
  182MPD1    H6 2834   3.854   3.448   1.674 -2.0963 -0.5594  2.3577
  182MPD1    H7 2835   3.747   3.367   1.570 -2.1061  0.7519 -0.5901
  183MPD1     C 2836   3.058   3.337   8.888  0.9387  0.6413 -0.5485
  183MPD1    C1 2837   2.987   3.452   8.857  0.1609 -0.6498  0.1060
  183MPD1    C2 2838   3.044   3.570   8.901  0.0485 -0.6813 -0.4636
  183MPD1    C3 2839   3.148   3.567   8.989 -0.8177 -0.1638  0.5579
  183MPD1    C4 2840   3.217   3.453   9.019 -0.1276  0.2448 -0.7791
  183MPD1    C5 2841   3.168   3.339   8.963  0.0248 -0.2238  0.6970
  183MPD1     H 2842   2.996   3.659   8.860 -1.4261 -1.8391 -1.2292
  183MPD1    H1 2843   3.306   3.449   9.080 -1.4693  2.4360  1.3028
  183MPD1    H2 2844   3.043   3.235   8.856  1.4352  0.4052 -0.0183
  183MPD1    H3 2845   3.228   3.250   8.978  0.7581  0.0564 -0.5346
  183MPD1     N 2846   3.205   3.685   9.050  0.6744  0.6085 -0.3884
  183MPD1    H5 2847   3.292   3.677   9.100  1.0121  1.0773 -0.8961
  183MPD1    N1 2848   2.868   3.457   8.780  0.4614  0.2125  0.4514
  183MPD1    H6 2849   2.812   3.541   8.792  2.9958  2.0288 -0.6013
  183MPD1    H7 2850   2.903   3.462   8.685 -0.5991 -0.9365 -0.0003
  184MPD1     C 2851   1.476   3.009   9.949  0.1217  0.6865  0.2445
  184MPD1    C1 2852   1.481   3.089   9.837  0.2048 -0.1706 -0.0867
  184MPD1    C2 2853   1.593   3.079   9.751  0.2555  0.0830  0.4386
  184MPD1    C3 2854   1.694   2.991   9.773  0.8084  0.4600  0.1784
  184MPD1    C4 2855   1.688   2.913   9.887  0.4028  0.3152  0.5956
  184MPD1    C5 2856   1.583   2.927   9.976 -0.2760  0.0891  0.2272
  184MPD1     H 2857   1.583   3.140   9.661 -0.8034  1.1414  1.2761
  184MPD1    H1 2858   1.766   2.839   9.899  1.2631  0.8391 -1.6671
  184MPD1    H2 2859   1.393   3.028  10.017 -0.9075  0.6247 -0.9998
  184MPD1    H3 2860   1.577   2.859  10.060 -0.7383  0.1628  0.2544
  184MPD1     N 2861   1.806   2.967   9.691 -0.5726 -0.3936  0.4415
  184MPD1    H5 2862   1.876   2.899   9.717 -1.8766 -2.1042 -0.5192
  184MPD1    N1 2863   1.376   3.177   9.808  0.0375 -0.0666  0.0964
  184MPD1    H6 2864   1.406   3.252   9.745  1.4017  0.6007  1.5539
  184MPD1    H7 2865   1.330   3.213   9.891  0.2466  1.3932 -0.4155
  185MPD1     C 2866   1.955   2.601   8.768 -0.3564  0.0783  0.1529
  185MPD1    C1 2867   2.049   2.703   8.786 -0.2590  0.1437 -0.7538
  185MPD1    C2 2868   2.070   2.755   8.910  0.8464 -0.0661 -0.7523
  185MPD1    C3 2869   1.980   2.739   9.010  0.2546  0.3011  0.0344
  185MPD1    C4 2870   1.879   2.647   8.993 -0.0095  0.6705 -0.1709
  185MPD1    C5 2871   1.869   2.576   8.871 -0.5184  0.4705 -0.3697
  185MPD1     H 2872   2.155   2.822   8.921 -0.0078  0.8446  0.2598
  185MPD1    H1 2873   1.814   2.619   9.075 -0.5581  1.8224 -0.2081
  185MPD1    H2 2874   1.942   2.553   8.672 -0.6268 -1.5856  1.0220
  185MPD1    H3 2875   1.788   2.506   8.858  0.2594 -0.5168  0.1126
  185MPD1     N 2876   1.988   2.800   9.138 -0.1972 -0.2925 -0.0590
  185MPD1    H5 2877   1.903   2.795   9.193 -0.4088 -1.4174 -0.4926
  185MPD1    N1 2878   2.155   2.720   8.697 -0.2781 -0.2367  0.9677
  185MPD1    H6 2879   2.197   2.810   8.719 -0.1277  0.1422 -0.9161
  185MPD1    H7 2880   2.121   2.712   8.601 -0.3508 -2.6697  1.1993
  186MPD1     C 2881   1.034   1.142  15.998  0.8711  0.0531  0.3134
  186MPD1    C1 2882   1.111   1.238  15.938  0.6172  0.1115 -0.6019
  186MPD1    C2 2883   1.109   1.370  15.987  0.9002 -0.7664 -0.8620
  186MPD1    C3 2884   1.012   1.416  16.081  0.3675 -0.3911 -0.6281
  186MPD1    C4 2885   0.935   1.316  16.140 -0.2694 -0.3121  0.2289
  186MPD1    C5 2886   0.946   1.188  16.102 -0.2957  0.7685  0.1857
  186MPD1     H 2887   1.186   1.437  15.950  1.3035 -0.0174  1.3574
  186MPD1    H1 2888   0.862   1.343  16.215  0.1730  0.5142  0.3685
  186MPD1    H2 2889   1.047   1.038  15.971 -0.3827  0.6126 -2.4694
  186MPD1    H3 2890   0.892   1.103  16.143  0.1789  0.0316 -0.7106
  186MPD1     N 2891   1.004   1.542  16.138  0.3051 -0.8795  0.3023
  186MPD1    H5 2892   0.925   1.552  16.201  0.8436 -0.2559  0.8724
  186MPD1    N1 2893   1.219   1.195  15.865  0.0759 -0.6571 -0.4019
  186MPD1    H6 2894   1.200   1.107  15.818 -1.5061 -0.5200 -0.0293
  186MPD1    H7 2895   1.248   1.264  15.797  0.8779 -0.3309  0.2800
  187MPD1     C 2896   4.493   3.446  17.731  0.2888  0.2523 -0.1427
  187MPD1    C1 2897   4.427   3.519  17.634 -0.1095  0.0855  0.6060
  187MPD1    C2 2898   4.485   3.545  17.510 -0.2080 -0.2519  1.0487
  187MPD1    C3 2899   4.611   3.494  17.488 -0.1984  0.0062 -0.6426
  187MPD1    C4 2900   4.674   3.407  17.583  0.2034 -0.2555  1.1223
  187MPD1    C5 2901   4.611   3.380  17.701 -0.1686  0.5633 -0.9900
  187MPD1     H 2902   4.433   3.613  17.443  0.6506 -0.9893 -0.3897
  187MPD1    H1 2903   0.036   3.365  17.569 -0.9621 -2.5040 -0.3282
  187MPD1    H2 2904   4.427   3.412   0.062  4.0019 -0.7737  2.5575
  187MPD1    H3 2905   4.648   3.305   0.021 -0.1284 -0.1436 -1.7857
  187MPD1     N 2906   4.681   3.527  17.368  0.2521 -0.5238  0.5280
  187MPD1    H5 2907   0.011   3.457  17.340 -0.9546 -0.7516 -1.7313
  187MPD1    N1 2908   4.294   3.557  17.650  0.1705  0.7539 -0.0474
  187MPD1    H6 2909   4.269   3.640  17.598  1.6639  1.9772  1.1985
  187MPD1    H7 2910   4.272   3.577  17.747  0.5808 -0.6661  0.3388
  188MPD1     C 2911   3.941   3.431  10.231  0.0633  0.5794  0.1795
  188MPD1    C1 2912   3.855   3.384  10.132  0.3882 -0.2633 -0.4578
  188MPD1    C2 2913   3.899   3.282  10.054 -0.0120  0.4455 -0.2907
  188MPD1    C3 2914   4.024   3.219  10.086 -0.7621  0.8104 -0.0860
  188MPD1    C4 2915   4.099   3.255  10.197  0.0578 -0.0661 -0.2308
  188MPD1    C5 2916   4.054   3.360  10.268 -0.1833  0.0452 -0.3064
  188MPD1     H 2917   3.840   3.248   9.970 -0.2050  0.5172 -0.1853
  188MPD1    H1 2918   4.203   3.229  10.212  0.2396  0.0369 -1.2880
  188MPD1    H2 2919   3.921   3.523  10.285  1.4716  1.1971 -0.3209
  188MPD1    H3 2920   4.115   3.407  10.344 -0.4994 -0.5691  0.3212
  188MPD1     N 2921   4.081   3.114  10.013  0.2736  0.1571 -0.7742
  188MPD1    H5 2922   4.172   3.080  10.043 -0.5417 -1.1225  0.2722
  188MPD1    N1 2923   3.744   3.463  10.092  0.0844 -0.4190  0.2351
  188MPD1    H6 2924   3.699   3.514  10.167  1.5103  1.2175 -0.0167
  188MPD1    H7 2925   3.676   3.415  10.033 -0.0122  0.1177 -0.0862
  189MPD1     C 2926   1.913   4.396   0.428 -0.0361 -0.6367 -0.5453
  189MPD1    C1 2927   1.775   4.374   0.456 -0.4505 -0.5925 -0.5459
  189MPD1    C2 2928   1.689   4.482   0.441 -0.6123  0.1104  0.5209
  189MPD1    C3 2929   1.731   4.601   0.393 -0.0435 -0.4591 -0.4771
  189MPD1    C4 2930   1.865   4.623   0.361 -0.0413  0.1301  0.3329
  189MPD1    C5 2931   1.952   4.522   0.387  0.4432 -0.3150 -0.0326
  189MPD1     H 2932   1.586   4.479   0.475 -0.7508 -0.3711  0.0477
  189MPD1    H1 2933   1.910   4.717   0.330 -2.5312  1.2679  0.1248
  189MPD1    H2 2934   1.989   4.320   0.442 -1.3547 -1.7124  0.7297
  189MPD1    H3 2935   2.053   4.559   0.379 -0.1365  1.3333  0.2721
  189MPD1     N 2936   1.626   4.700   0.383 -0.3235  0.2430 -0.4196
  189MPD1    H5 2937   1.532   4.661   0.383 -1.0802  2.0605 -1.0085
  189MPD1    N1 2938   1.739   4.247   0.511  0.2233 -0.2740  0.0771
  189MPD1    H6 2939   1.639   4.228   0.515  0.0814  0.8582  1.9509
  189MPD1    H7 2940   1.782   4.169   0.461  0.3475 -0.3822  0.3497
  190MPD1     C 2941   0.416   2.736  15.433 -0.4301 -0.3930 -0.0372
  190MPD1    C1 2942   0.437   2.730  15.572 -0.4508  0.5166 -0.1083
  190MPD1    C2 2943   0.566   2.732  15.620  0.5485  0.0777  0.3765
  190MPD1    C3 2944   0.672   2.732  15.527  0.0801  0.3361 -0.5512
  190MPD1    C4 2945   0.647   2.736  15.394  0.0248  0.3056 -0.4247
  190MPD1    C5 2946   0.526   2.739  15.344  0.2111  0.3300 -0.2878
  190MPD1     H 2947   0.596   2.745  15.724 -2.5478 -0.9299  1.3919
  190MPD1    H1 2948   0.727   2.738  15.321  0.9724  1.7092  0.6626
  190MPD1    H2 2949   0.317   2.748  15.391 -0.3776 -0.4977 -0.1897
  190MPD1    H3 2950   0.489   2.749  15.242 -1.6927  0.0880  0.3796
  190MPD1     N 2951   0.802   2.734  15.584  0.1415  0.1720  0.0065
  190MPD1    H5 2952   0.827   2.719  15.681  0.4148  0.6915  0.0206
  190MPD1    N1 2953   0.334   2.759  15.663 -0.2673 -0.0528  0.1731
  190MPD1    H6 2954   0.362   2.736  15.758  0.6469 -1.0053 -0.3219
  190MPD1    H7 2955   0.248   2.713  15.636 -0.8119  0.1697  1.5323
  191MPD1     C 2956   4.716   4.058  12.396 -0.9743  0.0018 -0.3188
  191MPD1    C1 2957   4.724   4.197  12.404  0.2708 -0.0391  0.0923
  191MPD1    C2 2958   0.005   4.265  12.284 -0.6260  0.4130  0.9218
  191MPD1    C3 2959   4.715   4.202  12.164 -0.5869  0.0157 -0.0526
  191MPD1    C4 2960   4.706   4.064  12.163  0.4615 -0.0862 -0.8533
  191MPD1    C5 2961   4.703   3.992  12.281 -0.8333 -0.1519  0.2960
  191MPD1     H 2962   0.008   4.373  12.298  1.8306  0.7232 -2.1493
  191MPD1    H1 2963   4.686   4.009  12.072  0.7372  1.4445 -1.8344
  191MPD1    H2 2964   4.721   3.996  12.485  0.2803  1.2008  0.4575
  191MPD1    H3 2965   4.711   3.884  12.281  1.9270  0.0432 -1.0030
  191MPD1     N 2966   4.725   4.273  12.044 -0.2978 -0.4424  0.3763
  191MPD1    H5 2967   0.030   4.366  12.047  3.5519 -2.1295 -2.0670
  191MPD1    N1 2968   0.018   4.262  12.529  0.1909 -0.8891  0.0205
  191MPD1    H6 2969   4.712   4.209  12.604  0.4200 -3.2528 -1.5117
  191MPD1    H7 2970   4.714   4.354  12.536  2.1439 -0.2250  2.8984
  192MPD1     C 2971   4.259   4.081  11.215  0.6247 -0.5374 -0.1617
  192MPD1    C1 2972   4.340   4.188  11.167 -0.5392  0.7209  0.2701
  192MPD1    C2 2973   4.425   4.243  11.259 -0.5721 -0.2095  0.0162
  192MPD1    C3 2974   4.436   4.191  11.389 -0.2180  0.0671  0.1992
  192MPD1    C4 2975   4.367   4.076  11.423 -0.2560  0.8637 -0.0722
  192MPD1    C5 2976   4.273   4.020  11.340 -0.2955 -0.0813  0.3957
  192MPD1     H 2977   4.486   4.330  11.238 -0.6514  0.2021  1.4810
  192MPD1    H1 2978   4.360   4.049  11.527  0.2128  2.1241  0.2855
  192MPD1    H2 2979   4.172   4.045  11.162 -1.8009  0.8689  2.8939
  192MPD1    H3 2980   4.197   3.957  11.385 -1.2445  0.6085 -0.2258
  192MPD1     N 2981   4.508   4.243  11.494  0.5823 -0.8424 -0.3164
  192MPD1    H5 2982   4.504   4.193  11.582  2.7564 -0.7019 -0.1286
  192MPD1    N1 2983   4.318   4.255  11.047 -0.1360 -0.2683 -0.3006
  192MPD1    H6 2984   4.407   4.292  11.016  0.9150 -1.4748  1.2459
  192MPD1    H7 2985   4.282   4.190  10.978 -1.2897  1.0665 -0.9495
  193MPD1     C 2986   4.330   4.440  15.956  0.0425  0.0222 -0.0849
  193MPD1    C1 2987   4.272   4.559  15.984 -0.6942  0.0375  0.4697
  193MPD1    C2 2988   4.324   4.653  16.074  0.2298 -0.2416 -0.5961
  193MPD1    C3 2989   4.440   4.618  16.137 -0.1724 -0.9906 -0.8566
  193MPD1    C4 2990   4.493   4.491  16.119  0.6252  0.2207  1.0330
  193MPD1    C5 2991   4.438   4.402  16.032  0.5520  0.0158  0.6709
  193MPD1     H 2992   4.287   0.016  16.092  3.9271  0.4677  3.2051
  193MPD1    H1 2993   4.589   4.472  16.165  1.5408  0.1941 -0.8788
  193MPD1    H2 2994   4.292   4.385  15.871  0.5097  2.7128 -2.0496
  193MPD1    H3 2995   4.493   4.314  16.001  0.3066  1.1036 -2.8058
  193MPD1     N 2996   4.506   4.689  16.240  0.6435 -0.4137  0.5437
  193MPD1    H5 2997   4.572   4.636  16.295  1.0552 -0.5060 -0.0329
  193MPD1    N1 2998   4.147   4.594  15.916  0.4516  0.1738 -0.6818
  193MPD1    H6 2999   4.090   4.651  15.978  0.8431 -0.3621  0.1556
  193MPD1    H7 3000   4.092   4.513  15.888  0.7607 -0.1491 -0.3512
  194MPD1     C 3001   2.398   2.334  16.809 -0.2408 -0.1126 -0.5389
  194MPD1    C1 3002   2.494   2.348  16.899 -0.3995 -0.5800  0.1936
  194MPD1    C2 3003   2.577   2.233  16.916  0.1415  0.2762 -0.3322
  194MPD1    C3 3004   2.566   2.118  16.845  0.6387  0.3962 -0.2406
  194MPD1    C4 3005   2.448   2.103  16.771  0.0708  0.8511 -0.6389
  194MPD1    C5 3006   2.370   2.212  16.738  0.5093  1.2052  0.1569
  194MPD1     H 3007   2.664   2.239  16.981 -0.2344 -0.3087  0.2277
  194MPD1    H1 3008   2.430   2.014  16.712  0.8949 -1.5826  2.8153
  194MPD1    H2 3009   2.327   2.415  16.792 -0.5188 -0.3319 -0.4233
  194MPD1    H3 3010   2.293   2.213  16.662 -0.0500 -4.4913  0.6664
  194MPD1     N 3011   2.648   2.008  16.858 -0.0095  0.3640  0.1274
  194MPD1    H5 3012   2.628   1.935  16.790 -0.9284  2.0349 -1.4000
  194MPD1    N1 3013   2.526   2.470  16.959  1.0174  0.6621 -0.6819
  194MPD1    H6 3014   2.464   2.551  16.956  0.6949  0.4964  1.0650
  194MPD1    H7 3015   2.556   2.464  17.056 -2.2964  1.7541  0.4156
  195MPD1     C 3016   4.293   3.364   0.973  0.0782  0.2315  0.7592
  195MPD1    C1 3017   4.224   3.258   0.921  0.8493 -0.8211 -0.6573
  195MPD1    C2 3018   4.134   3.279   0.820  0.6282 -0.1575  0.3304
  195MPD1    C3 3019   4.114   3.408   0.767  0.1641 -0.1004 -0.3761
  195MPD1    C4 3020   4.188   3.512   0.817 -0.0569  0.5010 -0.1147
  195MPD1    C5 3021   4.274   3.489   0.922  0.3804  0.3142  0.5163
  195MPD1     H 3022   4.065   3.198   0.801  0.2661  0.4330 -0.8785
  195MPD1    H1 3023   4.184   3.616   0.785 -0.7463  1.1436  2.0606
  195MPD1    H2 3024   4.356   3.346   1.059 -0.8256  0.3951  1.4578
  195MPD1    H3 3025   4.313   3.576   0.974  0.7111  0.8760 -0.6911
  195MPD1     N 3026   4.035   3.434   0.651 -0.3399  0.0126 -0.0050
  195MPD1    H5 3027   4.040   3.526   0.608 -0.2016 -0.4220 -0.9180
  195MPD1    N1 3028   4.226   3.134   0.985  0.6187 -0.4725 -0.0763
  195MPD1    H6 3029   4.239   3.056   0.920 -2.0342 -1.2883  0.3674
  195MPD1    H7 3030   4.296   3.129   1.059  0.7509 -1.7928 -0.2836
  196MPD1     C 3031   3.609   2.944   0.875 -0.5812  0.1050 -0.5114
  196MPD1    C1 3032   3.591   2.940   1.014  0.6589 -0.4172 -0.4345
  196MPD1    C2 3033   3.694   2.989   1.095 -0.1147 -0.5311  0.1239
  196MPD1    C3 3034   3.816   3.036   1.034 -1.4551  0.0271  0.1550
  196MPD1    C4 3035   3.831   3.036   0.896  0.3814  0.3733 -0.1550
  196MPD1    C5 3036   3.725   2.993   0.823 -0.6081 -0.8410 -0.4489
  196MPD1     H 3037   3.671   2.997   1.201 -1.3523 -2.3108  0.0010
  196MPD1    H1 3038   3.926   3.061   0.850  0.5630 -0.6358 -0.3227
  196MPD1    H2 3039   3.532   2.925   0.801 -1.8820  1.9707  0.3650
  196MPD1    H3 3040   3.740   2.992   0.716  1.1013  1.7104 -0.2168
  196MPD1     N 3041   3.930   3.094   1.101 -0.8080 -0.2284 -0.4558
  196MPD1    H5 3042   4.007   3.135   1.049  0.7962 -1.0225  1.2860
  196MPD1    N1 3043   3.477   2.874   1.071 -0.4794  0.2896 -0.3181
  196MPD1    H6 3044   3.392   2.902   1.022  0.5154 -1.4531 -3.0608
  196MPD1    H7 3045   3.467   2.900   1.169  0.1099 -1.0381  0.0906
  197MPD1     C 3046   3.086   4.344  17.084  0.0873 -0.1309 -0.4094
  197MPD1    C1 3047   3.168   4.409  17.174 -0.5608  0.3784  0.3047
  197MPD1    C2 3048   3.242   4.518  17.131  0.4496  0.1134 -0.1380
  197MPD1    C3 3049   3.238   4.552  16.997  0.5064  0.4133  0.5086
  197MPD1    C4 3050   3.154   4.483  16.910  0.7777 -0.2467 -0.5248
  197MPD1    C5 3051   3.079   4.372  16.954 -0.0070 -0.1939  0.5157
  197MPD1     H 3052   3.286   4.584  17.205 -0.1186 -1.7821  1.8786
  197MPD1    H1 3053   3.138   4.512  16.807  0.6451 -3.1242 -1.3125
  197MPD1    H2 3054   3.029   4.262  17.126 -0.0464  0.8890  1.3869
  197MPD1    H3 3055   3.013   4.320  16.885 -1.3606  1.0116  0.8888
  197MPD1     N 3056   3.308   4.660  16.933  0.0145 -0.3140 -0.6129
  197MPD1    H5 3057   3.315   4.658  16.832  1.0070 -2.5325 -0.5126
  197MPD1    N1 3058   3.156   4.390  17.314 -0.1752 -0.4135  0.1765
  197MPD1    H6 3059   3.114   4.303  17.348  0.1080 -0.6349 -0.0486
  197MPD1    H7 3060   3.236   4.427  17.365  1.2806 -0.5791 -1.9895
  198MPD1     C 3061   0.176   3.694  15.048  0.7704 -0.0211  0.0028
  198MPD1    C1 3062   0.243   3.578  15.012  0.4593  0.7225 -1.0247
  198MPD1    C2 3063   0.358   3.539  15.087 -0.5256  0.4201 -0.0938
  198MPD1    C3 3064   0.434   3.637  15.150  0.2802 -0.5460 -0.5720
  198MPD1    C4 3065   0.381   3.761  15.164 -0.8716  0.7361 -0.0077
  198MPD1    C5 3066   0.249   3.785  15.127  0.2016  0.5024  0.2400
  198MPD1     H 3067   0.402   3.440  15.088 -0.0649  0.6342  0.6132
  198MPD1    H1 3068   0.435   3.837  15.220  0.5142  0.1224 -0.5143
  198MPD1    H2 3069   0.082   3.729  15.006  0.5468 -0.5733  0.0427
  198MPD1    H3 3070   0.204   3.875  15.167 -0.2172  0.3729  0.0656
  198MPD1     N 3071   0.563   3.607  15.203 -0.4972  0.2261  0.1011
  198MPD1    H5 3072   0.590   3.510  15.218  0.2609  0.3220 -0.6382
  198MPD1    N1 3073   0.169   3.475  14.958  0.3017 -0.7495 -0.4924
  198MPD1    H6 3074   0.099   3.501  14.889 -0.9783 -1.4237  0.5344
  198MPD1    H7 3075   0.223   3.390  14.941  0.1890 -0.7476 -0.8486
  199MPD1     C 3076   2.265   0.512  10.054 -0.3333  0.2025 -0.1059
  199MPD1    C1 3077   2.245   0.634   9.989  0.5973 -0.2574  0.0129
  199MPD1    C2 3078   2.124   0.688  10.020  0.0187  0.4539  0.6002
  199MPD1    C3 3079   2.020   0.631  10.093  0.7463  0.2206  0.2104
  199MPD1    C4 3080   2.051   0.508  10.141 -0.1779 -0.1199  0.5120
  199MPD1    C5 3081   2.171   0.451  10.132  0.6001  0.0812  0.4443
  199MPD1     H 3082   2.110   0.790   9.987 -0.3606  0.4696  0.8210
  199MPD1    H1 3083   1.978   0.452  10.200 -1.7164  0.1168 -1.1885
  199MPD1    H2 3084   2.364   0.467  10.059  1.0849  3.3766  0.4448
  199MPD1    H3 3085   2.192   0.365  10.195 -1.5860  0.2022  1.3263
  199MPD1     N 3086   1.896   0.690  10.129  0.0050  0.1468 -0.2449
  199MPD1    H5 3087   1.840   0.637  10.195 -0.5739  0.9127 -0.1145
  199MPD1    N1 3088   2.351   0.707   9.928  0.3577 -0.1769 -0.4272
  199MPD1    H6 3089   2.407   0.633   9.888 -1.8576 -3.0161  1.6787
  199MPD1    H7 3090   2.311   0.757   9.849  2.2158  1.7283 -0.1602
  200MPD1     C 3091   1.347   0.102  15.109  0.0358 -0.3865 -0.5611
  200MPD1    C1 3092   1.281   0.128  14.991 -0.0955 -0.8720  0.4757
  200MPD1    C2 3093   1.346   0.189  14.886  0.0410 -0.1699 -0.2118
  200MPD1    C3 3094   1.473   0.231  14.902 -0.4703 -0.0439  0.2099
  200MPD1    C4 3095   1.539   0.208  15.022 -0.3536  0.6072 -0.0478
  200MPD1    C5 3096   1.474   0.150  15.121  0.7146 -0.3005 -0.0703
  200MPD1     H 3097   1.298   0.207  14.791 -1.4160 -1.4873  0.2841
  200MPD1    H1 3098   1.643   0.236  15.028 -0.6143  1.6593 -0.4392
  200MPD1    H2 3099   1.294   0.053  15.190 -2.6183 -0.1506 -2.1713
  200MPD1    H3 3100   1.534   0.130  15.209  1.1352 -0.7563 -0.4619
  200MPD1     N 3101   1.538   0.290  14.793 -0.3286 -0.1003 -0.1907
  200MPD1    H5 3102   1.487   0.293  14.706 -0.5669  1.0587 -0.0125
  200MPD1    N1 3103   1.144   0.110  14.987  0.5797  0.5050  0.4486
  200MPD1    H6 3104   1.105   0.050  15.060  0.0918  0.0346 -0.1955
  200MPD1    H7 3105   1.111   0.084  14.894  0.6625  0.5223  0.4143
  201MPD1     C 3106   3.319   4.187  12.865 -0.6986 -0.9326 -0.3528
  201MPD1    C1 3107   3.348   4.077  12.787 -0.7437 -0.4135 -0.6066
  201MPD1    C2 3108   3.468   4.012  12.807 -0.0228  0.0270 -0.4820
  201MPD1    C3 3109   3.564   4.056  12.901 -0.6698 -0.0418 -0.3121
  201MPD1    C4 3110   3.535   4.176  12.972  0.4261  0.0878 -0.0904
  201MPD1    C5 3111   3.414   4.237  12.951  0.3814  0.5159  0.0423
  201MPD1     H 3112   3.491   3.930  12.740 -1.1549  0.1183 -0.9708
  201MPD1    H1 3113   3.609   4.223  13.035 -1.5495  1.7480  0.9649
  201MPD1    H2 3114   3.224   4.239  12.854 -1.2501 -1.6750  0.8462
  201MPD1    H3 3115   3.386   4.325  13.007 -0.7385  0.5563 -0.5803
  201MPD1     N 3116   3.688   3.997  12.904  0.4181  0.2069  0.1198
  201MPD1    H5 3117   3.699   3.915  12.845  2.2165  0.3100  0.3046
  201MPD1    N1 3118   3.244   4.020  12.709 -0.5127  0.3286 -0.1644
  201MPD1    H6 3119   3.165   4.078  12.681 -1.8209 -1.2750  0.2390
  201MPD1    H7 3120   3.277   3.983  12.620 -1.7684 -0.0256 -0.4748
  202MPD1     C 3121   2.882   2.701   9.498 -0.0508  0.2283 -0.8959
  202MPD1    C1 3122   2.926   2.818   9.439 -0.3595 -0.1829 -0.4012
  202MPD1    C2 3123   3.060   2.855   9.468  0.1982 -0.3197  0.1719
  202MPD1    C3 3124   3.141   2.800   9.563 -0.0438  0.2928  0.1727
  202MPD1    C4 3125   3.091   2.690   9.625 -0.0858  0.5510 -0.4886
  202MPD1    C5 3126   2.967   2.645   9.593 -0.5411  0.1166  0.7684
  202MPD1     H 3127   3.095   2.946   9.421 -0.6652  0.1807  0.4933
  202MPD1    H1 3128   3.152   2.633   9.695  0.4499  1.7005 -0.0290
  202MPD1    H2 3129   2.790   2.657   9.463  0.2826  1.1637 -2.9240
  202MPD1    H3 3130   2.932   2.547   9.622  0.7959 -0.3465  0.8515
  202MPD1     N 3131   3.263   2.859   9.603 -0.0650  0.1722  0.3152
  202MPD1    H5 3132   3.318   2.810   9.673  2.8526  1.0578 -1.3118
  202MPD1    N1 3133   2.874   2.846   9.310  0.1322  0.6802 -0.2180
  202MPD1    H6 3134   2.899   2.936   9.270 -1.3982  1.6989  1.1479
  202MPD1    H7 3135   2.773   2.835   9.307  0.0490  1.1413  0.8455
  203MPD1     C 3136   2.630   0.417  12.132  0.7653  0.4284 -0.7330
  203MPD1    C1 3137   2.522   0.334  12.120 -0.1919  0.4678 -0.0011
  203MPD1    C2 3138   2.527   0.206  12.177 -0.3155  0.3443 -0.2611
  203MPD1    C3 3139   2.635   0.167  12.247  0.4863  0.0658 -0.7529
  203MPD1    C4 3140   2.741   0.256  12.261 -0.6355 -0.8106  0.0524
  203MPD1    C5 3141   2.739   0.377  12.202  0.3996 -0.4362  0.4976
  203MPD1     H 3142   2.441   0.142  12.163 -0.3423 -0.0928  2.0451
  203MPD1    H1 3143   2.832   0.237  12.318 -0.4765 -0.0957  0.0404
  203MPD1    H2 3144   2.636   0.520  12.099  1.2780  0.5478 -0.2757
  203MPD1    H3 3145   2.819   0.444  12.230  0.1670  0.5890 -1.3631
  203MPD1     N 3146   2.646   0.038  12.290  0.0325 -0.2162  0.4600
  203MPD1    H5 3147   2.567   4.715  12.269 -0.8711  1.0202  0.3189
  203MPD1    N1 3148   2.405   0.389  12.064  0.0808 -0.2737  0.2607
  203MPD1    H6 3149   2.341   0.324  12.020 -1.3781  1.9406 -0.8899
  203MPD1    H7 3150   2.414   0.468  12.001 -2.7218  0.7068  1.0840
  204MPD1     C 3151   2.021   0.908  17.356 -0.4890 -0.3597 -0.2916
  204MPD1    C1 3152   2.021   0.889  17.222  0.5019  0.1077 -0.3581
  204MPD1    C2 3153   2.063   0.766  17.177  0.1148  0.3376 -0.0329
  204MPD1    C3 3154   2.126   0.678  17.270  0.4737 -0.1380  0.1832
  204MPD1    C4 3155   2.148   0.717  17.402 -0.4983 -0.2387  0.5169
  204MPD1    C5 3156   2.086   0.830  17.448  0.4222  0.1173 -0.7534
  204MPD1     H 3157   2.054   0.733  17.074 -0.8860 -3.7679  1.3501
  204MPD1    H1 3158   2.217   0.671  17.471 -2.2733 -2.0308  1.0888
  204MPD1    H2 3159   1.977   0.994  17.406  1.8013  1.1197 -0.8559
  204MPD1    H3 3160   2.089   0.857  17.553 -1.9577 -1.2753 -0.3267
  204MPD1     N 3161   2.154   0.544  17.230 -0.3880  0.4894 -0.2580
  204MPD1    H5 3162   2.142   0.516  17.133  0.0413  1.7396 -0.6709
  204MPD1    N1 3163   1.957   0.985  17.134  0.1980 -0.4874 -0.2044
  204MPD1    H6 3164   1.955   1.079  17.174 -0.4563 -0.3068 -0.6691
  204MPD1    H7 3165   2.000   0.982  17.042 -1.0174  1.5289 -0.8352
  205MPD1     C 3166   1.163   4.057  17.015 -0.4261 -0.0532  0.7880
  205MPD1    C1 3167   1.145   4.044  17.146  0.4172  0.4344 -0.7930
  205MPD1    C2 3168   1.259   4.033  17.218  0.0585 -0.1492 -0.3540
  205MPD1    C3 3169   1.388   4.049  17.161  0.0226  0.0933  0.9695
  205MPD1    C4 3170   1.402   4.085  17.026  0.0094  0.7135 -0.5267
  205MPD1    C5 3171   1.283   4.086  16.954  0.1578 -0.1808  0.4655
  205MPD1     H 3172   1.247   4.005  17.322  1.6939 -0.0773 -0.1436
  205MPD1    H1 3173   1.499   4.085  16.978 -0.3330  1.8349 -1.2199
  205MPD1    H2 3174   1.088   4.054  16.937  1.4757  0.2551 -1.0404
  205MPD1    H3 3175   1.293   4.096  16.847  0.3865  2.1759  0.7001
  205MPD1     N 3176   1.504   4.035  17.237  0.3584  0.8384  0.3015
  205MPD1    H5 3177   1.586   4.069  17.188 -0.3524  2.3936  0.1980
  205MPD1    N1 3178   1.014   4.018  17.191 -0.4239 -0.9633  0.1139
  205MPD1    H6 3179   0.941   4.058  17.133 -0.6882 -0.5159  0.7479
  205MPD1    H7 3180   1.001   4.058  17.284 -0.5316  0.5736 -0.5697
  206MPD1     C 3181   3.138   2.500  17.048  0.1503 -0.5703  0.7354
  206MPD1    C1 3182   3.163   2.449  16.922 -0.3969 -0.2337  0.1704
  206MPD1    C2 3183   3.058   2.433  16.834  0.1889 -0.0350 -0.2178
  206MPD1    C3 3184   2.928   2.459  16.880 -0.3685 -0.4528 -0.5757
  206MPD1    C4 3185   2.906   2.499  17.010 -0.1486 -0.0473  0.0714
  206MPD1    C5 3186   3.010   2.518  17.095  0.1964  0.0644  0.5164
  206MPD1     H 3187   3.076   2.391  16.735 -0.6729 -3.9403  1.2863
  206MPD1    H1 3188   2.805   2.506  17.050 -0.0249 -2.5073  0.8585
  206MPD1    H2 3189   3.218   2.520  17.118 -1.2827  1.7687  1.6964
  206MPD1    H3 3190   3.000   2.559  17.195  0.6733 -0.5704  0.8259
  206MPD1     N 3191   2.813   2.438  16.800  0.6817 -0.6796 -0.1788
  206MPD1    H5 3192   2.729   2.471  16.846  0.8585  0.4286 -0.6384
  206MPD1    N1 3193   3.294   2.440  16.884  0.1059  0.0461  0.5143
  206MPD1    H6 3194   3.360   2.432  16.961  0.8121 -0.6566 -0.1677
  206MPD1    H7 3195   3.305   2.351  16.836  0.3534  0.7141 -0.6523
  207MPD1     C 3196   4.735   3.837   9.062 -0.2109  0.2373 -0.1004
  207MPD1    C1 3197   4.664   3.953   9.091 -0.5910  0.0737 -0.5542
  207MPD1    C2 3198   4.687   4.005   9.217  0.1987 -1.1107  0.4939
  207MPD1    C3 3199   0.043   3.952   9.302 -0.0566  0.2117  0.7580
  207MPD1    C4 3200   0.127   3.853   9.258  0.1776 -0.5940 -0.0323
  207MPD1    C5 3201   0.099   3.797   9.136 -0.4589  0.4767 -0.2273
  207MPD1     H 3202   4.621   4.085   9.250 -0.5065 -0.9259 -1.3683
  207MPD1    H1 3203   0.204   3.807   9.320  0.9512  0.4097 -0.2489
  207MPD1    H2 3204   4.717   3.787   8.968  3.6617 -0.0414 -0.6924
  207MPD1    H3 3205   0.162   3.717   9.099  0.9356  1.2132  0.5646
  207MPD1     N 3206   0.041   3.981   9.436 -0.6668 -0.0319  0.3732
  207MPD1    H5 3207   0.084   3.907   9.490 -0.3238 -0.0836  0.0338
  207MPD1    N1 3208   4.543   3.989   9.024 -0.7260  0.5741 -0.5662
  207MPD1    H6 3209   4.543   3.966   8.925  3.1758 -0.3222 -0.3623
  207MPD1    H7 3210   4.538   4.091   9.024  0.0928  0.6066  0.2296
  208MPD1     C 3211   2.796   3.212  17.431  0.6011  0.5369 -1.0321
  208MPD1    C1 3212   2.682   3.284  17.417  0.5537 -0.5041  1.0840
  208MPD1    C2 3213   2.645   3.365  17.527 -0.1487  1.0055 -0.5331
  208MPD1    C3 3214   2.731   3.393  17.635  0.0333 -0.0165  0.0831
  208MPD1    C4 3215   2.860   3.341  17.634 -0.3717  0.6064 -0.1344
  208MPD1    C5 3216   2.886   3.252  17.534  0.2491  0.7470 -0.3680
  208MPD1     H 3217   2.552   3.420  17.525  0.2416  1.7673  2.2607
  208MPD1    H1 3218   2.929   3.346  17.717  1.8697  0.3864 -1.9635
  208MPD1    H2 3219   2.828   3.134  17.363 -2.4332 -0.0872 -1.7070
  208MPD1    H3 3220   2.980   3.199  17.541  0.1112  0.4399 -0.8308
  208MPD1     N 3221   2.687   3.478  17.739  0.0705  0.3859 -0.0129
  208MPD1    H5 3222   2.599   3.527  17.731 -1.8522 -3.1760 -0.6164
  208MPD1    N1 3223   2.597   3.253  17.310  0.3153  0.5407  0.2651
  208MPD1    H6 3224   2.519   3.318  17.320  0.8077  1.0044  1.1392
  208MPD1    H7 3225   2.637   3.289  17.223 -0.6246  1.9604  0.4199
  209MPD1     C 3226   4.542   2.750  10.451  0.2717 -0.7256  0.7420
  209MPD1    C1 3227   4.562   2.834  10.342 -0.5378 -0.5828 -0.1946
  209MPD1    C2 3228   4.608   2.961  10.362 -0.4435 -0.1372  0.3467
  209MPD1    C3 3229   4.656   3.000  10.489  0.8946 -0.5775 -0.2572
  209MPD1    C4 3230   4.637   2.913  10.599 -0.8987 -0.0208  0.8729
  209MPD1    C5 3231   4.579   2.787  10.577 -0.1371  0.6484 -0.1761
  209MPD1     H 3232   4.609   3.031  10.279 -0.6548 -2.1207 -1.3345
  209MPD1    H1 3233   4.667   2.933  10.702 -0.4261  2.3319  0.2824
  209MPD1    H2 3234   4.494   2.653  10.446  2.4600 -1.6872 -1.3049
  209MPD1    H3 3235   4.557   2.730  10.666 -2.8269 -0.3827 -1.4953
  209MPD1     N 3236   4.726   3.122  10.496  0.1899 -0.4861  0.0359
  209MPD1    H5 3237   4.723   3.170  10.407  1.3371 -0.7857 -0.1586
  209MPD1    N1 3238   4.514   2.796  10.213 -1.0135 -0.0518  0.0340
  209MPD1    H6 3239   4.510   2.695  10.203  1.8290 -0.1220 -0.1871
  209MPD1    H7 3240   4.563   2.838  10.135 -0.9703 -0.2320 -0.0361
  210MPD1     C 3241   0.242   4.044  11.047  0.1846  0.8459 -0.5946
  210MPD1    C1 3242   0.250   3.916  11.096 -0.5929 -0.0637  0.4921
  210MPD1    C2 3243   0.225   3.814  11.010 -0.4862  0.7202  0.1761
  210MPD1    C3 3244   0.176   3.835  10.882 -0.0135 -0.2595  0.7007
  210MPD1    C4 3245   0.152   3.960  10.840  0.4489  0.3903  0.0703
  210MPD1    C5 3246   0.195   4.064  10.918  0.1428 -0.0189 -0.1812
  210MPD1     H 3247   0.245   3.713  11.044  1.9960  0.5681 -1.7918
  210MPD1    H1 3248   0.122   3.980  10.738 -0.6284  0.0366  0.3186
  210MPD1    H2 3249   0.280   4.131  11.099  2.6372  0.3748 -1.5859
  210MPD1    H3 3250   0.187   4.163  10.875 -0.1711  0.2882  0.5822
  210MPD1     N 3251   0.163   3.733  10.788 -0.2128  0.3346 -0.0286
  210MPD1    H5 3252   0.152   3.760  10.691  0.8357  1.1253  0.0655
  210MPD1    N1 3253   0.314   3.880  11.218 -0.0374 -0.1062 -0.0053
  210MPD1    H6 3254   0.295   3.957  11.282 -2.7746 -1.6299  1.0345
  210MPD1    H7 3255   0.283   3.791  11.255  1.2410  0.0283  1.3913
  211MPD1     C 3256   2.827   3.670  16.824 -0.1952  0.7277  0.3090
  211MPD1    C1 3257   2.780   3.761  16.728 -0.1569  0.2792 -0.3994
  211MPD1    C2 3258   2.679   3.846  16.763 -0.3870 -0.0814  0.1103
  211MPD1    C3 3259   2.616   3.841  16.889  0.0917  0.5485 -0.3664
  211MPD1    C4 3260   2.660   3.742  16.977 -0.3006 -0.5456  0.1806
  211MPD1    C5 3261   2.763   3.664  16.940 -0.2784 -0.8351 -0.3887
  211MPD1     H 3262   2.642   3.919  16.691 -0.9854 -0.4107  0.0823
  211MPD1    H1 3263   2.622   3.721  17.076  1.3502 -1.4130  0.6348
  211MPD1    H2 3264   2.914   3.608  16.806 -0.8372  0.3931 -1.7359
  211MPD1    H3 3265   2.804   3.587  17.005 -0.2667 -1.6750 -1.3993
  211MPD1     N 3266   2.523   3.944  16.933 -0.4029 -0.0479  0.0562
  211MPD1    H5 3267   2.502   4.014  16.863  0.8018  0.9593  0.7015
  211MPD1    N1 3268   2.825   3.740  16.592  0.3513  0.2599  0.0499
  211MPD1    H6 3269   2.914   3.693  16.586 -0.6581 -1.6285 -0.0975
  211MPD1    H7 3270   2.834   3.826  16.538  0.4255  0.6945  0.7550
  212MPD1     C 3271   2.073   2.420  16.332 -0.1706  0.5406  0.4700
  212MPD1    C1 3272   2.020   2.500  16.429  0.1115  0.1880  0.5647
  212MPD1    C2 3273   1.929   2.451  16.526  0.7061  0.0809 -0.2340
  212MPD1    C3 3274   1.916   2.315  16.541  0.1352  0.2853  0.0109
  212MPD1    C4 3275   1.987   2.238  16.454 -0.2121 -0.3465  0.6511
  212MPD1    C5 3276   2.060   2.287  16.352 -0.2245  0.6088  0.1576
  212MPD1     H 3277   1.877   2.516  16.595  0.0294  1.2415 -1.8466
  212MPD1    H1 3278   1.994   2.131  16.471  0.7316 -1.0441 -4.2830
  212MPD1    H2 3279   2.127   2.451  16.243 -0.3720  1.2092  0.5801
  212MPD1    H3 3280   2.102   2.216  16.282 -0.1282 -0.1734  1.0022
  212MPD1     N 3281   1.838   2.250  16.643  0.4808 -0.1494 -0.1545
  212MPD1    H5 3282   1.840   2.148  16.650 -0.9049 -0.0946  1.1633
  212MPD1    N1 3283   2.013   2.640  16.407 -0.4235 -0.3377 -0.0257
  212MPD1    H6 3284   2.018   2.706  16.485  0.4724 -2.2868  1.5525
  212MPD1    H7 3285   2.086   2.670  16.342 -0.3428 -1.4046 -0.4264
  213MPD1     C 3286   4.407   2.861  15.636  0.2998  0.7946 -0.2702
  213MPD1    C1 3287   4.365   2.759  15.551 -0.3499  0.3912  0.7512
  213MPD1    C2 3288   4.380   2.790  15.422  0.1159 -0.4566  0.6693
  213MPD1    C3 3289   4.388   2.922  15.376 -0.5030 -0.3086 -0.9867
  213MPD1    C4 3290   4.386   3.023  15.467  0.1329  0.2319  0.3550
  213MPD1    C5 3291   4.400   2.989  15.598  0.2157 -0.0092  0.1754
  213MPD1     H 3292   4.373   2.709  15.350 -0.1870  1.6965 -1.7299
  213MPD1    H1 3293   4.405   3.128  15.446  0.1805  0.6670  2.5130
  213MPD1    H2 3294   4.416   2.845  15.743 -0.3945  1.7866 -0.0646
  213MPD1    H3 3295   4.421   3.066  15.671  0.0273  1.5108 -1.3763
  213MPD1     N 3296   4.392   2.945  15.236 -0.5007 -0.3815  0.0038
  213MPD1    H5 3297   4.394   2.869  15.170  2.5158 -0.2378 -0.0619
  213MPD1    N1 3298   4.387   2.620  15.581  0.0963  0.5369  0.4901
  213MPD1    H6 3299   4.358   2.615  15.679 -2.9886 -1.5395 -0.5278
  213MPD1    H7 3300   4.330   2.555  15.527  1.0975  1.0146 -1.1267
  214MPD1     C 3301   3.964   2.707  14.382 -0.0954 -0.0113  0.4811
  214MPD1    C1 3302   3.927   2.699  14.516 -0.6064 -0.0969 -0.1740
  214MPD1    C2 3303   4.013   2.749  14.610  0.5760  0.5920  0.0710
  214MPD1    C3 3304   4.146   2.777  14.577 -0.0427  0.1599  0.3711
  214MPD1    C4 3305   4.182   2.771  14.443 -0.2790 -0.7126 -0.2359
  214MPD1    C5 3306   4.095   2.732  14.344  0.5427  0.6813 -0.2966
  214MPD1     H 3307   3.973   2.764  14.710  2.0864 -0.6107  0.8642
  214MPD1    H1 3308   4.286   2.783  14.412 -0.2508 -2.0360 -0.6822
  214MPD1    H2 3309   3.891   2.680  14.306 -0.3779 -2.6718  1.7076
  214MPD1    H3 3310   4.128   2.747  14.241  0.0711 -0.5701 -0.6322
  214MPD1     N 3311   4.238   2.824  14.678 -0.3308 -0.1901 -0.2695
  214MPD1    H5 3312   4.334   2.836  14.647 -0.1657 -1.9615 -0.4669
  214MPD1    N1 3313   3.792   2.670  14.545 -1.0388  0.1447 -0.1585
  214MPD1    H6 3314   3.739   2.623  14.471 -0.8941 -0.3042  0.0220
  214MPD1    H7 3315   3.765   2.642  14.639 -1.6165  0.0374 -0.3580
  215MPD1     C 3316   4.408   3.483  10.295 -0.2724 -0.1747  0.2520
  215MPD1    C1 3317   4.476   3.598  10.270 -0.4520 -0.6460 -0.3469
  215MPD1    C2 3318   4.513   3.679  10.382  0.0508  0.0580 -0.0224
  215MPD1    C3 3319   4.494   3.638  10.514 -0.4641  0.2664  0.2112
  215MPD1    C4 3320   4.438   3.514  10.537 -0.1699 -0.5566 -0.2959
  215MPD1    C5 3321   4.394   3.443  10.429 -0.2089 -0.0940 -0.1647
  215MPD1     H 3322   4.570   3.770  10.371 -0.2488  0.0869 -1.2908
  215MPD1    H1 3323   4.429   3.470  10.636 -1.9057  1.9075  0.6342
  215MPD1    H2 3324   4.379   3.411  10.220 -0.2103  1.4625 -1.3569
  215MPD1    H3 3325   4.347   3.346  10.445 -1.1811 -0.1633 -3.5431
  215MPD1     N 3326   4.536   3.729  10.615 -0.3896  0.2909 -0.6330
  215MPD1    H5 3327   4.596   3.806  10.586  0.2173  0.0885  0.0804
  215MPD1    N1 3328   4.497   3.631  10.132 -0.5438 -0.2592  0.1927
  215MPD1    H6 3329   4.573   3.699  10.125 -2.1301  1.8683  3.2169
  215MPD1    H7 3330   4.497   3.553  10.067  0.0207 -0.1311  0.0416
  216MPD1     C 3331   2.270   1.497  16.086  0.1452  0.3203 -0.3112
  216MPD1    C1 3332   2.247   1.357  16.098 -0.3972  0.4575 -0.1632
  216MPD1    C2 3333   2.194   1.313  16.213  0.0111  0.1736  0.1634
  216MPD1    C3 3334   2.150   1.407  16.305 -0.0477 -0.4495  0.0007
  216MPD1    C4 3335   2.152   1.541  16.286 -0.2429  0.1779 -0.7337
  216MPD1    C5 3336   2.209   1.586  16.170  0.3842  0.6563  0.4484
  216MPD1     H 3337   2.188   1.207  16.232  0.0484 -0.0243 -0.9627
  216MPD1    H1 3338   2.118   1.617  16.356  0.3656 -0.4143  0.2014
  216MPD1    H2 3339   2.323   1.544  16.004 -2.3917  0.8960 -1.6029
  216MPD1    H3 3340   2.228   1.690  16.148 -0.0398  0.5479 -0.4377
  216MPD1     N 3341   2.114   1.368  16.432 -0.3195  0.2533  0.0384
  216MPD1    H5 3342   2.113   1.268  16.450 -2.0991 -0.3421 -3.3063
  216MPD1    N1 3343   2.302   1.262  16.002 -1.1648  0.1468  0.2360
  216MPD1    H6 3344   2.256   1.172  16.010  2.0558 -1.4763  0.4796
  216MPD1    H7 3345   2.295   1.299  15.907  1.3143 -1.1063 -0.4260
  217MPD1     C 3346   2.053   4.570   8.576 -0.4426  1.2899 -0.1746
  217MPD1    C1 3347   2.160   4.498   8.620  0.4594  0.2689 -0.1896
  217MPD1    C2 3348   2.160   4.356   8.609  0.0920  0.8701  0.0462
  217MPD1    C3 3349   2.042   4.292   8.569 -0.2127 -0.1069  0.0288
  217MPD1    C4 3350   1.935   4.369   8.525 -0.2975 -0.1183 -0.1159
  217MPD1    C5 3351   1.942   4.505   8.525 -0.2817  0.3712 -0.6111
  217MPD1     H 3352   2.242   4.292   8.637 -0.8355 -0.7697 -0.9681
  217MPD1    H1 3353   1.842   4.327   8.488 -1.1115  2.7997 -1.3749
  217MPD1    H2 3354   2.055   4.678   8.575 -0.2679  1.2699 -1.1612
  217MPD1    H3 3355   1.864   4.572   8.489 -0.9584 -1.2448 -2.0997
  217MPD1     N 3356   2.019   4.151   8.572 -0.0232 -0.1180 -0.5875
  217MPD1    H5 3357   1.922   4.128   8.550  0.5698 -1.6576 -1.5721
  217MPD1    N1 3358   2.275   4.570   8.655 -0.0325 -0.5750 -0.1024
  217MPD1    H6 3359   2.331   4.517   8.721 -1.4036 -1.5425  0.2830
  217MPD1    H7 3360   2.247   4.661   8.691  1.0328 -1.2849  2.5021
  218MPD1     C 3361   4.305   0.215  12.807 -0.1665  0.3452 -0.6597
  218MPD1    C1 3362   4.215   0.111  12.811  0.1218  0.1705 -0.0121
  218MPD1    C2 3363   4.234   0.008  12.729 -0.3163  0.4681 -0.6070
  218MPD1    C3 3364   4.341   4.731  12.646 -0.4872 -0.0168  0.0978
  218MPD1    C4 3365   4.428   0.098  12.639  0.9678  0.1440 -0.4502
  218MPD1    C5 3366   4.414   0.203  12.718  0.0276 -0.0945 -0.0829
  218MPD1     H 3367   4.156   4.670  12.722  0.3135 -0.3317  1.0321
  218MPD1    H1 3368   4.517   0.098  12.576 -0.2807  0.5303 -2.2019
  218MPD1    H2 3369   4.292   0.311  12.855  1.2081 -0.5843  1.5726
  218MPD1    H3 3370   4.490   0.281  12.719  1.5287 -1.5654 -2.1268
  218MPD1     N 3371   4.346   4.616  12.558  0.2809 -0.4714 -0.1786
  218MPD1    H5 3372   4.278   4.542  12.569 -1.9258  1.2898 -1.9996
  218MPD1    N1 3373   4.095   0.130  12.881 -0.8128  0.2071  0.0391
  218MPD1    H6 3374   4.092   0.192  12.962  0.8645 -2.4259  2.1591
  218MPD1    H7 3375   4.028   0.053  12.876 -0.8332  0.3123 -1.2303
  219MPD1     C 3376   4.168   4.285  11.596 -0.0649 -0.1907  0.3248
  219MPD1    C1 3377   4.117   4.197  11.691  0.0226 -0.7918  0.3970
  219MPD1    C2 3378   4.171   4.216  11.816 -0.5608  0.4586 -0.3388
  219MPD1    C3 3379   4.251   4.320  11.853  0.3460  0.2984  0.5372
  219MPD1    C4 3380   4.289   4.411  11.761 -0.5145 -0.0155  0.6244
  219MPD1    C5 3381   4.252   4.388  11.629 -0.2796  0.2292  0.3329
  219MPD1     H 3382   4.150   4.140  11.891  0.6290  2.2722  1.8109
  219MPD1    H1 3383   4.345   4.502  11.781 -1.5636  0.7634 -0.0034
  219MPD1    H2 3384   4.149   4.273  11.489  1.8167 -0.2738  0.0013
  219MPD1    H3 3385   4.279   4.451  11.546 -1.0281 -0.0571 -0.1285
  219MPD1     N 3386   4.290   4.331  11.984 -0.0735  0.1210  0.4032
  219MPD1    H5 3387   4.250   4.264  12.049  0.3421 -0.2553  0.2766
  219MPD1    N1 3388   4.045   4.086  11.651 -0.3180  0.2645 -0.0195
  219MPD1    H6 3389   3.978   4.103  11.576  0.3134 -0.4403 -0.7428
  219MPD1    H7 3390   4.009   4.036  11.732 -0.1031 -1.1942 -0.8189
  220MPD1     C 3391   3.801   0.332   9.678  0.3150 -0.2322 -0.5206
  220MPD1    C1 3392   3.887   0.362   9.785  0.8244 -0.1652  0.4442
  220MPD1    C2 3393   3.921   0.252   9.874 -0.3284  0.4242  0.8896
  220MPD1    C3 3394   3.881   0.126   9.837  0.4422 -0.3913  0.0175
  220MPD1    C4 3395   3.811   0.099   9.717  0.2736 -0.1458 -0.5556
  220MPD1    C5 3396   3.786   0.202   9.642 -0.4147  0.6042  0.5401
  220MPD1     H 3397   3.967   0.273   9.969 -1.1774 -0.5805  1.5281
  220MPD1    H1 3398   3.782   4.737   9.684 -1.1671  0.5222 -1.2764
  220MPD1    H2 3399   3.760   0.408   9.612 -1.4559 -1.0311 -0.3262
  220MPD1    H3 3400   3.721   0.174   9.559  1.0641  0.1947 -0.4723
  220MPD1     N 3401   3.903   0.027   9.938 -0.0639 -0.8139 -0.3354
  220MPD1    H5 3402   3.937   0.052  10.030 -0.2946  0.5763 -0.6285
  220MPD1    N1 3403   3.910   0.498   9.826  0.3215 -0.2553 -0.3258
  220MPD1    H6 3404   4.003   0.503   9.866  1.0642 -0.5507 -1.9890
  220MPD1    H7 3405   3.906   0.561   9.745 -1.6201  0.2330  0.1374
  221MPD1     C 3406   1.950   3.384  16.559  0.0069  0.6618  0.8571
  221MPD1    C1 3407   2.061   3.381  16.640  0.6485 -0.4056  0.4530
  221MPD1    C2 3408   2.183   3.342  16.589  0.5033  0.4913  0.5247
  221MPD1    C3 3409   2.201   3.327  16.454  0.1680 -0.5707 -0.2224
  221MPD1    C4 3410   2.085   3.340  16.367  0.2397 -0.3024  0.1447
  221MPD1    C5 3411   1.968   3.364  16.427 -0.7426 -0.9349  0.5705
  221MPD1     H 3412   2.271   3.337  16.651  0.6743 -3.1353 -0.0034
  221MPD1    H1 3413   2.093   3.321  16.260  0.3751 -2.7775  0.5866
  221MPD1    H2 3414   1.852   3.399  16.604  0.2279  3.0341  0.5455
  221MPD1    H3 3415   1.873   3.346  16.377 -0.8413  1.2161 -0.0144
  221MPD1     N 3416   2.328   3.291  16.388  0.2348 -0.3143 -0.9116
  221MPD1    H5 3417   2.321   3.278  16.288 -0.2724  0.4669 -0.9742
  221MPD1    N1 3418   2.047   3.395  16.774  0.1382  0.5923  0.1972
  221MPD1    H6 3419   2.134   3.437  16.806 -0.2787  1.5308  0.0921
  221MPD1    H7 3420   1.971   3.454  16.807 -1.4162 -1.1374 -0.2804
  222MPD1     C 3421   0.437   3.399   0.040 -0.1484 -0.1118 -0.0229
  222MPD1    C1 3422   0.560   3.437   0.097 -0.2020  0.6210 -0.2266
  222MPD1    C2 3423   0.596   3.392   0.225 -0.7948 -0.5286 -0.1126
  222MPD1    C3 3424   0.498   3.320   0.304  0.3437 -1.0737  0.1113
  222MPD1    C4 3425   0.376   3.293   0.244 -0.1952  0.5839  0.5297
  222MPD1    C5 3426   0.347   3.329   0.116  0.6976  0.6240  0.0745
  222MPD1     H 3427   0.698   3.403   0.260 -0.8879  0.3544 -0.1306
  222MPD1    H1 3428   0.293   3.243   0.294 -1.3652  2.3863  0.3798
  222MPD1    H2 3429   0.414   3.408  17.683  1.2863  1.1662 -0.2275
  222MPD1    H3 3430   0.255   3.296   0.069  2.9009 -3.3587 -1.3502
  222MPD1     N 3431   0.519   3.271   0.431 -0.0500 -0.1613  0.0099
  222MPD1    H5 3432   0.446   3.239   0.493 -1.5771  2.0720 -0.6294
  222MPD1    N1 3433   0.662   3.491   0.018  0.8633 -0.3306 -0.1553
  222MPD1    H6 3434   0.638   3.556  17.691 -1.1060  0.3885  1.1237
  222MPD1    H7 3435   0.731   3.537   0.077 -1.6916  1.0097  1.7895
  223MPD1     C 3436   4.639   3.107   0.974  0.0034 -0.5003  0.0114
  223MPD1    C1 3437   4.654   3.080   0.836  0.9266  0.1356 -0.3492
  223MPD1    C2 3438   0.046   3.090   0.788 -0.5593 -0.0788  0.1807
  223MPD1    C3 3439   0.149   3.128   0.875  0.2733 -0.2860  0.0427
  223MPD1    C4 3440   0.121   3.180   0.999 -0.2501  1.0226  0.5678
  223MPD1    C5 3441   4.733   3.161   1.053 -0.8372  0.7322  0.2689
  223MPD1     H 3442   0.076   3.062   0.688  0.7369 -0.2262  0.6131
  223MPD1    H1 3443   0.205   3.213   1.059  2.1157 -1.2506 -1.4935
  223MPD1    H2 3444   4.539   3.089   1.014  0.8162 -0.4470  2.1074
  223MPD1    H3 3445   4.708   3.177   1.157  1.6070  2.3468  0.6086
  223MPD1     N 3446   0.283   3.113   0.826  0.5704  0.2331 -0.0039
  223MPD1    H5 3447   0.286   3.096   0.726 -0.4555 -0.2998  0.0600
  223MPD1    N1 3448   4.551   3.010   0.775 -0.4510 -0.4832 -0.4181
  223MPD1    H6 3449   4.559   3.027   0.674 -1.5214  0.1868 -0.3932
  223MPD1    H7 3450   4.456   3.017   0.812 -0.2177  1.9000 -0.2248
  224MPD1     C 3451   2.958   0.140   9.859 -0.1655 -0.6092 -0.1200
  224MPD1    C1 3452   2.922   0.201   9.746  0.5385 -0.3126 -0.1880
  224MPD1    C2 3453   2.872   0.139   9.637 -0.9456  0.2417  0.0076
  224MPD1    C3 3454   2.860   0.007   9.628  0.0444 -0.2024  0.0541
  224MPD1    C4 3455   2.903   4.673   9.738  0.2949  0.2397  0.1140
  224MPD1    C5 3456   2.944   0.002   9.852 -0.5434 -0.0494  0.5494
  224MPD1     H 3457   2.849   0.204   9.553  0.2166  1.5693  0.7153
  224MPD1    H1 3458   2.910   4.565   9.741  1.3172  0.3478  1.5337
  224MPD1    H2 3459   3.012   0.184   9.942  0.8708 -0.0901 -1.0770
  224MPD1    H3 3460   2.973   4.684   9.941 -3.8191 -1.5820  0.6866
  224MPD1     N 3461   2.800   4.675   9.518  0.0770  0.5162 -0.0859
  224MPD1    H5 3462   2.783   4.578   9.539  2.5933 -0.1807 -1.2728
  224MPD1    N1 3463   2.921   0.343   9.739 -0.2137  0.2132 -0.6672
  224MPD1    H6 3464   2.930   0.381   9.645 -3.2869  2.4651 -0.0642
  224MPD1    H7 3465   2.968   0.391   9.815 -1.0085 -1.7681  1.0789
  225MPD1     C 3466   4.169   0.715  11.255  0.6655 -0.1002  0.1949
  225MPD1    C1 3467   4.061   0.636  11.247  0.1791  0.1914 -0.2575
  225MPD1    C2 3468   4.014   0.577  11.366  0.3262  0.2106 -0.1528
  225MPD1    C3 3469   4.088   0.591  11.484 -0.4291 -0.4781 -0.7330
  225MPD1    C4 3470   4.200   0.665  11.482 -0.2062  0.3420  0.7106
  225MPD1    C5 3471   4.240   0.732  11.369 -0.1942  0.0632  0.1638
  225MPD1     H 3472   3.934   0.504  11.359 -0.5297  1.2770 -1.5694
  225MPD1    H1 3473   4.264   0.675  11.570 -3.1060 -0.6076  2.9302
  225MPD1    H2 3474   4.200   0.754  11.159 -0.5256  0.6407  0.1008
  225MPD1    H3 3475   4.328   0.794  11.379  0.4178 -0.6709 -0.6155
  225MPD1     N 3476   4.068   0.519  11.607  0.5414 -0.5221 -0.4911
  225MPD1    H5 3477   4.140   0.550  11.671 -0.3816  2.4052 -0.8750
  225MPD1    N1 3478   3.970   0.636  11.140 -0.3723  0.1967 -0.3471
  225MPD1    H6 3479   3.912   0.552  11.142 -0.9415  0.5752 -1.1839
  225MPD1    H7 3480   4.010   0.647  11.047 -0.6992  1.7777 -0.3002
  226MPD1     C 3481   2.996   0.987   9.700  0.9187 -0.2161  0.0737
  226MPD1    C1 3482   3.103   0.997   9.610 -0.4484 -0.3039 -0.0899
  226MPD1    C2 3483   3.148   0.876   9.549 -0.9267  0.0039 -0.0748
  226MPD1    C3 3484   3.081   0.754   9.567 -0.2731  0.1888 -0.3362
  226MPD1    C4 3485   2.975   0.757   9.656  0.1857  0.1770  0.2390
  226MPD1    C5 3486   2.931   0.872   9.720  0.6178  0.2511 -0.0452
  226MPD1     H 3487   3.224   0.881   9.472  0.3506  0.8777  1.2447
  226MPD1    H1 3488   2.913   0.668   9.667 -1.4540  1.3787  0.5996
  226MPD1    H2 3489   2.956   1.076   9.746  0.0657  0.0490 -1.1792
  226MPD1    H3 3490   2.839   0.875   9.778  0.9121 -0.0723  0.4427
  226MPD1     N 3491   3.120   0.633   9.503  0.7142  0.5345 -0.1170
  226MPD1    H5 3492   3.210   0.629   9.455  1.1284  3.3882  0.4257
  226MPD1    N1 3493   3.141   1.123   9.568 -0.4853 -0.3153 -0.4992
  226MPD1    H6 3494   3.236   1.127   9.532  0.1411  1.0788  1.2671
  226MPD1    H7 3495   3.151   1.184   9.649  2.7389  1.2584 -2.0893
  227MPD1     C 3496   3.887   0.598   9.306  0.6548  0.1647  0.2539
  227MPD1    C1 3497   3.781   0.679   9.261  0.1527 -0.3283  0.8699
  227MPD1    C2 3498   3.649   0.641   9.282  0.1643  0.3858  0.2305
  227MPD1    C3 3499   3.626   0.506   9.320  0.5649  1.3845 -0.5256
  227MPD1    C4 3500   3.734   0.426   9.355 -0.9300 -0.1650  0.0014
  227MPD1    C5 3501   3.865   0.471   9.350  0.1996 -0.3620 -0.3525
  227MPD1     H 3502   3.570   0.709   9.252 -0.0298 -0.8888 -2.1849
  227MPD1    H1 3503   3.718   0.322   9.380  0.4924 -0.7748 -1.5913
  227MPD1    H2 3504   3.992   0.624   9.293  0.5643  0.5060  0.2285
  227MPD1    H3 3505   3.948   0.402   9.360  1.0092  0.2449 -2.9119
  227MPD1     N 3506   3.492   0.462   9.332  0.2162  0.4688 -0.0437
  227MPD1    H5 3507   3.420   0.533   9.321 -0.2071 -0.0665 -0.7730
  227MPD1    N1 3508   3.810   0.811   9.212 -0.3826 -0.1595 -0.3969
  227MPD1    H6 3509   3.747   0.827   9.134 -0.9959  1.9130  0.5081
  227MPD1    H7 3510   3.904   0.806   9.173  0.2884 -2.0047  1.4030
  228MPD1     C 3511   1.609   2.938  12.405 -0.0791  0.5895 -0.5695
  228MPD1    C1 3512   1.518   3.038  12.406  0.2640 -0.4849 -0.3297
  228MPD1    C2 3513   1.408   3.028  12.487 -0.0020  0.1519 -0.3015
  228MPD1    C3 3514   1.384   2.916  12.562  0.3139 -0.0216  0.3986
  228MPD1    C4 3515   1.484   2.817  12.569  0.2218 -0.0344 -0.3109
  228MPD1    C5 3516   1.592   2.826  12.483 -0.0985  0.0609 -0.6472
  228MPD1     H 3517   1.330   3.104  12.488 -1.4808 -1.3112 -3.2084
  228MPD1    H1 3518   1.472   2.731  12.633 -1.2649  1.8281  1.9246
  228MPD1    H2 3519   1.693   2.949  12.337  2.2886  0.6389  2.3664
  228MPD1    H3 3520   1.658   2.740  12.476 -1.4431 -1.0871  0.6903
  228MPD1     N 3521   1.262   2.910  12.642 -0.4632  0.2409 -0.4346
  228MPD1    H5 3522   1.199   2.986  12.621 -1.7739 -0.7975 -0.2418
  228MPD1    N1 3523   1.541   3.155  12.342 -0.1317  0.5558 -0.1221
  228MPD1    H6 3524   1.459   3.208  12.315 -0.5263  0.0357  0.0535
  228MPD1    H7 3525   1.600   3.142  12.260  1.0072  0.6796  0.6712
  229MPD1     C 3526   0.308   1.489  15.178 -0.2107 -0.2552 -0.3838
  229MPD1    C1 3527   0.314   1.362  15.229  0.3328 -0.6135  0.0396
  229MPD1    C2 3528   0.446   1.312  15.256  0.8372 -0.2824 -0.4445
  229MPD1    C3 3529   0.563   1.382  15.227  0.2357  0.4559  0.3478
  229MPD1    C4 3530   0.547   1.510  15.171  0.2743  0.1566 -0.7493
  229MPD1    C5 3531   0.422   1.561  15.165  0.2179 -0.3183 -0.1722
  229MPD1     H 3532   0.458   1.218  15.309  2.7366 -0.4907 -1.2119
  229MPD1    H1 3533   0.628   1.579  15.154 -2.1114  2.3158 -3.2691
  229MPD1    H2 3534   0.213   1.541  15.185  0.0893  0.5545 -2.2860
  229MPD1    H3 3535   0.417   1.664  15.129 -1.6833 -0.5552 -0.5747
  229MPD1     N 3536   0.694   1.338  15.260  0.1799  0.0833  0.3983
  229MPD1    H5 3537   0.765   1.405  15.234  0.6839 -0.3928  0.5502
  229MPD1    N1 3538   0.204   1.295  15.293  0.6653  0.2678 -0.3208
  229MPD1    H6 3539   0.113   1.306  15.249  0.2228  2.3788  1.1085
  229MPD1    H7 3540   0.219   1.195  15.293  1.0270  0.3154 -1.4082
  230MPD1     C 3541   1.582   1.398  15.728 -0.1721  0.8578  0.0505
  230MPD1    C1 3542   1.602   1.275  15.668 -0.0065  0.2244  0.4125
  230MPD1    C2 3543   1.500   1.225  15.595 -0.4890 -0.0443  0.1406
  230MPD1    C3 3544   1.382   1.293  15.565  0.5665 -0.0308 -0.0268
  230MPD1    C4 3545   1.369   1.413  15.616 -0.0559 -0.5561  0.2739
  230MPD1    C5 3546   1.467   1.463  15.695 -0.5035 -0.7590 -0.0626
  230MPD1     H 3547   1.509   1.127  15.549 -0.6687 -1.7433  3.7355
  230MPD1    H1 3548   1.280   1.474  15.606  0.5506  0.3589  0.3901
  230MPD1    H2 3549   1.651   1.443  15.797 -0.8490  1.6548  0.2106
  230MPD1    H3 3550   1.456   1.554  15.752  0.8935 -0.4243 -0.3318
  230MPD1     N 3551   1.289   1.237  15.474 -0.4768 -0.3434 -0.2520
  230MPD1    H5 3552   1.307   1.141  15.446  1.2011  0.5426 -2.1947
  230MPD1    N1 3553   1.711   1.194  15.714  0.2210 -0.0314  0.5633
  230MPD1    H6 3554   1.733   1.116  15.652 -1.2726 -1.0442  1.3288
  230MPD1    H7 3555   1.791   1.256  15.724  1.1313 -1.0181 -0.5687
  231MPD1     C 3556   3.656   2.887  15.034  0.3735  0.0824 -0.5809
  231MPD1    C1 3557   3.593   2.936  14.922 -0.0593 -1.0196 -1.0059
  231MPD1    C2 3558   3.673   2.996  14.830  0.3486  0.0445  0.3999
  231MPD1    C3 3559   3.801   3.043  14.866 -0.0341  0.0646 -0.2626
  231MPD1    C4 3560   3.853   3.006  14.987 -0.7489  0.5816 -0.8149
  231MPD1    C5 3561   3.782   2.922  15.061  0.1518  0.5353  0.0542
  231MPD1     H 3562   3.641   3.018  14.729  1.3025  1.1478  0.3361
  231MPD1    H1 3563   3.954   3.035  15.013 -0.3458 -1.0288 -0.5514
  231MPD1    H2 3564   3.608   2.816  15.101  0.8968 -1.8578 -2.2491
  231MPD1    H3 3565   3.823   2.885  15.154 -0.1798  1.8223  0.7087
  231MPD1     N 3566   3.890   3.092  14.762  0.0631 -0.2094 -0.3892
  231MPD1    H5 3567   3.859   3.069  14.668  0.2260  0.1639 -0.5358
  231MPD1    N1 3568   3.472   2.883  14.882 -0.2747  0.2926  0.1803
  231MPD1    H6 3569   3.411   2.847  14.955  1.4013  0.7542  1.8051
  231MPD1    H7 3570   3.420   2.941  14.816 -0.4211 -0.4640 -0.3829
  232MPD1     C 3571   0.996   1.459   0.195 -0.0096  0.3507 -0.1319
  232MPD1    C1 3572   0.893   1.543   0.158 -0.2522 -0.6798  0.0531
  232MPD1    C2 3573   0.798   1.496   0.069  0.0229 -0.3254  1.1740
  232MPD1    C3 3574   0.800   1.369   0.025 -0.3404  0.6845  0.8847
  232MPD1    C4 3575   0.906   1.292   0.059  0.4992  0.3156  0.3086
  232MPD1    C5 3576   1.007   1.341   0.138  0.0480  1.2196  0.1219
  232MPD1     H 3577   0.720   1.562   0.035  0.2220 -1.6424 -1.8273
  232MPD1    H1 3578   0.909   1.190   0.023 -0.0592 -0.0599  1.2963
  232MPD1    H2 3579   1.070   1.499   0.265  0.1150 -0.9650  0.4789
  232MPD1    H3 3580   1.093   1.280   0.161 -0.8831  0.4621  1.6160
  232MPD1     N 3581   0.687   1.324  17.689 -0.5592  0.1910  0.6781
  232MPD1    H5 3582   0.614   1.391  17.668 -1.0789 -0.4490  0.4392
  232MPD1    N1 3583   0.880   1.673   0.206  0.5640  0.5821 -0.1870
  232MPD1    H6 3584   0.789   1.717   0.193  0.1348  0.2788  1.7231
  232MPD1    H7 3585   0.897   1.678   0.306 -0.8175  2.4765 -0.0494
  233MPD1     C 3586   2.043   0.175   1.710  0.0471  0.1039 -0.0962
  233MPD1    C1 3587   1.968   0.084   1.778 -0.0722 -0.1385  0.0159
  233MPD1    C2 3588   2.009   4.691   1.765  0.0892 -0.7136 -0.2677
  233MPD1    C3 3589   2.106   4.646   1.678 -0.0147 -0.5197  0.4689
  233MPD1    C4 3590   2.191   0.010   1.620  0.3968  0.2500 -0.7449
  233MPD1    C5 3591   2.149   0.142   1.631 -0.0474  0.1076  0.4966
  233MPD1     H 3592   1.969   4.618   1.835 -0.0254 -1.3151 -0.9547
  233MPD1    H1 3593   2.277   4.711   1.563 -0.1455 -1.0210 -0.7487
  233MPD1    H2 3594   2.029   0.282   1.719  2.1093  0.2151  1.7579
  233MPD1    H3 3595   2.213   0.222   1.596 -0.6122  0.9186  1.3309
  233MPD1     N 3596   2.143   4.510   1.676 -0.7437 -0.3072  0.7053
  233MPD1    H5 3597   2.224   4.486   1.620 -0.0964  2.4974  0.4559
  233MPD1    N1 3598   1.882   0.130   1.879 -0.1824 -0.3238 -0.5081
  233MPD1    H6 3599   1.818   0.058   1.913  0.4045 -0.7741 -0.3503
  233MPD1    H7 3600   1.839   0.216   1.847  0.0053  0.9829  2.8077
  234MPD1     C 3601   3.389   2.888   9.208 -0.0455 -0.0334 -0.6845
  234MPD1    C1 3602   3.421   3.012   9.254  0.4074 -0.2670 -0.0625
  234MPD1    C2 3603   3.329   3.110   9.245  0.1470  0.4627 -0.3463
  234MPD1    C3 3604   3.198   3.082   9.209 -0.0065 -0.5651  0.1547
  234MPD1    C4 3605   3.167   2.955   9.165 -0.1385  0.2596 -0.0136
  234MPD1    C5 3606   3.269   2.859   9.156  0.3394 -0.4260 -0.1724
  234MPD1     H 3607   3.367   3.210   9.258 -1.8238  0.6876  3.5199
  234MPD1    H1 3608   3.065   2.925   9.145 -0.1907 -0.3080  1.0676
  234MPD1    H2 3609   3.460   2.805   9.205  0.9243  0.7411  1.0008
  234MPD1    H3 3610   3.246   2.761   9.116  0.6888 -0.9728  0.9716
  234MPD1     N 3611   3.110   3.186   9.227 -0.4394 -0.8616  0.3092
  234MPD1    H5 3612   3.145   3.270   9.271 -0.2114 -1.0388  0.4613
  234MPD1    N1 3613   3.555   3.043   9.267  0.2590 -0.3272 -0.8324
  234MPD1    H6 3614   3.619   2.972   9.301  0.7985  1.3271  1.5775
  234MPD1    H7 3615   3.571   3.132   9.313 -1.1519 -1.0021  0.9423
  235MPD1     C 3616   4.137   4.114  10.098  0.1737 -0.3573  0.2508
  235MPD1    C1 3617   4.144   4.201   9.989  0.2043  0.7216  0.0016
  235MPD1    C2 3618   4.220   4.320  10.006  0.2817  0.2263 -0.1355
  235MPD1    C3 3619   4.302   4.331  10.115  0.1582  0.0762  0.0206
  235MPD1    C4 3620   4.299   4.241  10.216  0.0230  0.6940 -0.4158
  235MPD1    C5 3621   4.225   4.131  10.203  0.4964 -0.2588  0.2283
  235MPD1     H 3622   4.222   4.396   9.928 -1.2053 -0.2772 -0.6626
  235MPD1    H1 3623   4.346   4.267  10.310  1.1380 -2.7474 -0.0170
  235MPD1    H2 3624   4.078   4.024  10.094 -1.2250  0.6903 -2.8720
  235MPD1    H3 3625   4.220   4.071  10.293  1.0419 -0.3177  0.2178
  235MPD1     N 3626   4.380   4.446  10.116 -0.5874 -0.4959  0.2044
  235MPD1    H5 3627   4.367   4.512  10.040  0.1596  0.5493  0.9735
  235MPD1    N1 3628   4.060   4.180   9.882  0.0181 -0.0851  0.5890
  235MPD1    H6 3629   4.016   4.089   9.876  0.6840 -0.4495  1.3276
  235MPD1    H7 3630   4.087   4.214   9.789 -1.2605  0.7794  0.5412
  236MPD1     C 3631   2.862   2.024   9.084 -0.0922  0.1373 -0.1367
  236MPD1    C1 3632   2.812   1.990   9.210 -0.0568 -0.4635  0.3097
  236MPD1    C2 3633   2.890   1.913   9.303  1.0295 -0.0672 -0.6701
  236MPD1    C3 3634   2.997   1.846   9.252  0.6205  0.5603 -0.1775
  236MPD1    C4 3635   3.030   1.858   9.122 -0.0491  0.5477  0.0413
  236MPD1    C5 3636   2.965   1.941   9.035 -0.6210  0.1065 -0.2497
  236MPD1     H 3637   2.858   1.897   9.405 -1.1109 -0.2951 -1.3648
  236MPD1    H1 3638   3.116   1.804   9.085  1.0712  1.5556  1.1596
  236MPD1    H2 3639   2.808   2.099   9.027 -0.1450 -0.9554 -1.5220
  236MPD1    H3 3640   3.001   1.949   8.933  0.2687  1.4104  0.1562
  236MPD1     N 3641   3.088   1.776   9.333 -0.0557 -0.4959 -0.2112
  236MPD1    H5 3642   3.158   1.720   9.284 -0.2310 -3.1691  2.6531
  236MPD1    N1 3643   2.704   2.065   9.259  0.1682  0.0964 -0.6614
  236MPD1    H6 3644   2.645   2.090   9.181 -1.0777  1.3077  0.6653
  236MPD1    H7 3645   2.655   1.997   9.317  0.8836  0.0193 -0.1349
  237MPD1     C 3646   4.734   4.534  14.455  0.0378  0.1365 -0.2476
  237MPD1    C1 3647   4.656   4.604  14.367  1.1408 -0.2391  0.7237
  237MPD1    C2 3648   4.513   4.602  14.387  1.0526 -0.4164  0.2280
  237MPD1    C3 3649   4.464   4.549  14.506 -0.3191 -0.3427  0.2270
  237MPD1    C4 3650   4.544   4.486  14.601 -0.5390  0.1503 -0.0938
  237MPD1    C5 3651   4.680   4.482  14.573  0.0666 -0.3086 -0.3521
  237MPD1     H 3652   4.460   4.641  14.301  2.1738  1.6432  0.4732
  237MPD1    H1 3653   4.516   4.433  14.691 -0.8913  1.1152  0.3722
  237MPD1    H2 3654   0.102   4.515  14.440  0.1684  0.8691 -0.2425
  237MPD1    H3 3655   4.729   4.415  14.643 -0.2866 -0.7165 -0.4920
  237MPD1     N 3656   4.323   4.547  14.532  0.5837  0.2841  0.5869
  237MPD1    H5 3657   4.296   4.501  14.618  1.0246  0.5998  0.8899
  237MPD1    N1 3658   4.694   4.644  14.244  0.2902 -0.0201 -0.0729
  237MPD1    H6 3659   4.626   4.713  14.212 -0.5417  0.0310  1.7638
  237MPD1    H7 3660   0.046   4.691  14.253  0.3747 -0.2446  0.2718
  238MPD1     C 3661   1.319   3.465  15.292  0.0529 -0.3105  0.5344
  238MPD1    C1 3662   1.270   3.547  15.191  0.5602 -0.2484  0.4131
  238MPD1    C2 3663   1.213   3.486  15.081 -0.0968 -0.2683  0.4394
  238MPD1    C3 3664   1.191   3.350  15.080 -0.1677  0.3668 -0.2593
  238MPD1    C4 3665   1.211   3.270  15.188  0.4239 -0.0703 -0.0689
  238MPD1    C5 3666   1.284   3.328  15.292  0.3033 -0.4198  0.5395
  238MPD1     H 3667   1.182   3.545  14.996  1.4684 -0.2688 -0.1399
  238MPD1    H1 3668   1.177   3.167  15.200  0.5750  0.1030  1.7148
  238MPD1    H2 3669   1.372   3.511  15.374  1.6281 -1.1271 -0.0308
  238MPD1    H3 3670   1.308   3.268  15.379  4.0387 -0.6211 -0.6631
  238MPD1     N 3671   1.124   3.285  14.968 -0.5674  0.5617 -0.6351
  238MPD1    H5 3672   1.110   3.186  14.985  1.8664  0.2606 -0.4633
  238MPD1    N1 3673   1.296   3.681  15.195 -0.2067  0.3244 -0.5521
  238MPD1    H6 3674   1.214   3.733  15.163  0.1445  2.5070  2.0728
  238MPD1    H7 3675   1.307   3.701  15.294 -0.1392 -0.1250 -0.4682
  239MPD1     C 3676   1.030   4.335  14.872 -0.3818  0.6420 -0.7475
  239MPD1    C1 3677   1.116   4.419  14.802 -0.4096 -0.0761 -0.3084
  239MPD1    C2 3678   1.095   4.439  14.665  0.5575 -0.1367  1.1507
  239MPD1    C3 3679   1.011   4.359  14.591  0.5362  0.1427  0.2527
  239MPD1    C4 3680   0.930   4.274  14.656  0.0072 -1.1713 -0.5526
  239MPD1    C5 3681   0.942   4.263  14.793  0.0034  0.3630  0.0731
  239MPD1     H 3682   1.155   4.516  14.617 -0.1251  0.3532  1.0744
  239MPD1    H1 3683   0.858   4.219  14.596 -0.0945  1.2514 -2.6371
  239MPD1    H2 3684   1.037   4.319  14.979  0.6779 -0.6523 -1.0150
  239MPD1    H3 3685   0.868   4.194  14.831  1.2001 -0.2317  1.3317
  239MPD1     N 3686   1.000   4.376  14.449 -0.3499 -0.5357 -1.0099
  239MPD1    H5 3687   0.946   4.302  14.403 -0.0238 -0.4606 -1.5110
  239MPD1    N1 3688   1.210   4.501  14.877  0.1551  0.0453  0.2407
  239MPD1    H6 3689   1.288   4.528  14.817  0.4970  1.6197  1.4037
  239MPD1    H7 3690   1.252   4.452  14.955  1.7115  0.7941 -0.1349
  240MPD1     C 3691   1.253   3.704  14.217 -0.1728  0.0873  0.3682
  240MPD1    C1 3692   1.153   3.737  14.135 -0.2100 -0.2329 -0.1570
  240MPD1    C2 3693   1.022   3.725  14.180 -0.1304 -0.6651 -0.3287
  240MPD1    C3 3694   0.991   3.723  14.319  0.1096  0.4925  0.0232
  240MPD1    C4 3695   1.107   3.691  14.401  0.1146  0.0845 -0.0908
  240MPD1    C5 3696   1.232   3.692  14.350 -0.0550  0.3579 -0.5785
  240MPD1     H 3697   0.940   3.751  14.115  0.6528 -0.0189 -1.0602
  240MPD1    H1 3698   1.095   3.677  14.508  0.1706  0.0888 -0.0840
  240MPD1    H2 3699   1.352   3.703  14.173 -0.2491 -0.3880  0.2072
  240MPD1    H3 3700   1.313   3.655  14.412  1.0519  0.4380 -1.9632
  240MPD1     N 3701   0.854   3.699  14.358 -0.3648 -0.9322 -0.1933
  240MPD1    H5 3702   0.790   3.700  14.280 -0.9520 -0.6181  0.2983
  240MPD1    N1 3703   1.174   3.755  13.995  0.0727 -0.4386 -0.0496
  240MPD1    H6 3704   1.090   3.796  13.956  1.1343  1.1795 -0.6420
  240MPD1    H7 3705   1.257   3.803  13.961  1.2441 -3.1446 -1.0487
  241MPD1     C 3706   0.710   3.201  15.156 -0.7555  0.6888  0.5780
  241MPD1    C1 3707   0.632   3.140  15.064  0.4524 -0.1445 -0.4461
  241MPD1    C2 3708   0.571   3.214  14.958 -0.3674  0.3636  0.2463
  241MPD1    C3 3709   0.627   3.343  14.936 -0.5605  0.0282 -0.3435
  241MPD1    C4 3710   0.720   3.393  15.026  0.0816  0.0934 -0.0997
  241MPD1    C5 3711   0.769   3.324  15.133  0.0128  0.0740 -0.2176
  241MPD1     H 3712   0.497   3.168  14.894 -0.5562 -0.0848  0.7846
  241MPD1    H1 3713   0.766   3.491  15.017 -0.0482  0.5327  3.9673
  241MPD1    H2 3714   0.750   3.142  15.237 -1.5563 -0.4588  0.1338
  241MPD1    H3 3715   0.834   3.366  15.209  1.2217  0.7874 -1.6519
  241MPD1     N 3716   0.598   3.423  14.827  1.0883 -0.6551  0.1887
  241MPD1    H5 3717   0.635   3.517  14.828 -1.2946  0.3144 -1.3712
  241MPD1    N1 3718   0.585   3.011  15.095  0.5876 -0.0878  0.0961
  241MPD1    H6 3719   0.648   2.956  15.154 -1.8897 -0.8593  2.0174
  241MPD1    H7 3720   0.568   2.959  15.010  2.9901 -0.0068 -0.4441
  242MPD1     C 3721   0.015   2.058  16.032  0.4916  0.3833 -0.0998
  242MPD1    C1 3722   0.137   2.120  16.061 -0.6872  0.0891  0.3256
  242MPD1    C2 3723   0.233   2.129  15.963  0.4495 -0.2028  0.4341
  242MPD1    C3 3724   0.218   2.063  15.838 -0.2203  0.5962  0.6257
  242MPD1    C4 3725   0.096   1.998  15.812 -0.4505 -1.1693 -0.8854
  242MPD1    C5 3726   4.732   2.003  15.906 -0.7458  0.6116 -0.0293
  242MPD1     H 3727   0.333   2.166  15.983  0.8623 -0.4611 -1.1897
  242MPD1    H1 3728   0.072   1.941  15.723  1.4888  0.9998 -2.8145
  242MPD1    H2 3729   4.676   2.042  16.107 -0.7070 -0.2188 -1.4540
  242MPD1    H3 3730   4.637   1.953  15.889 -0.3165 -0.1335 -0.2423
  242MPD1     N 3731   0.315   2.058  15.738 -0.0948  0.3114 -0.5991
  242MPD1    H5 3732   0.283   2.000  15.661 -2.6529  0.7603  0.1160
  242MPD1    N1 3733   0.156   2.181  16.186  1.0153  0.0390  0.0194
  242MPD1    H6 3734   0.088   2.143  16.252  1.2947 -1.1787 -0.3960
  242MPD1    H7 3735   0.251   2.177  16.223  0.8907  1.3958  0.4819
  243MPD1     C 3736   1.545   1.307   0.000  0.3254 -0.3082 -0.1441
  243MPD1    C1 3737   1.466   1.194   0.028 -0.3144  0.0437  0.1420
  243MPD1    C2 3738   1.478   1.086  17.683 -0.1998  0.8457 -0.4796
  243MPD1    C3 3739   1.558   1.098  17.573  0.7872  0.4173  0.3087
  243MPD1    C4 3740   1.629   1.211  17.551 -0.5168 -0.4579 -0.3814
  243MPD1    C5 3741   1.622   1.316  17.639  0.9753  0.3093 -0.4819
  243MPD1     H 3742   1.433   0.990  17.706 -1.1747  1.4707  0.2501
  243MPD1    H1 3743   1.694   1.227  17.465 -0.3072 -0.6540 -0.2609
  243MPD1    H2 3744   1.552   1.392   0.068 -1.0449  0.6694 -1.2357
  243MPD1    H3 3745   1.681   1.405  17.621  0.9926  0.6625  1.2933
  243MPD1     N 3746   1.560   0.976  17.502  0.5607 -0.5576  0.6885
  243MPD1    H5 3747   1.514   0.896  17.544  0.4998 -0.5399  0.6552
  243MPD1    N1 3748   1.399   1.186   0.152 -0.4407 -1.0551 -0.0313
  243MPD1    H6 3749   1.306   1.147   0.142 -1.5982  1.4275  0.9313
  243MPD1    H7 3750   1.390   1.279   0.194  2.0830 -0.7448 -0.1707
  244MPD1     C 3751   1.842   0.073  17.746 -0.7050  0.0511  0.6915
  244MPD1    C1 3752   1.792   0.057  17.617  0.5003  0.2539  0.2187
  244MPD1    C2 3753   1.759   0.163  17.539 -0.1110  0.6730  0.1540
  244MPD1    C3 3754   1.785   0.286  17.582 -0.1459 -0.1162 -0.1525
  244MPD1    C4 3755   1.824   0.304  17.709  0.3238  0.0226  0.7785
  244MPD1    C5 3756   1.857   0.201   0.045 -0.5857  0.3746  0.6317
  244MPD1     H 3757   1.721   0.147  17.438  0.9894 -1.1438  0.0187
  244MPD1    H1 3758   1.817   0.400   0.010  0.4884  1.4709 -2.0530
  244MPD1    H2 3759   1.854   4.726   0.064 -1.2476  0.6863  1.6048
  244MPD1    H3 3760   1.890   0.224   0.146  0.0209 -1.3651  0.8347
  244MPD1     N 3761   1.765   0.399  17.492  0.5802 -0.1785  0.9962
  244MPD1    H5 3762   1.737   0.382  17.396  3.1878 -3.1838  0.7632
  244MPD1    N1 3763   1.768   4.668  17.557  0.6844  0.7096  0.6599
  244MPD1    H6 3764   1.839   4.605  17.592 -1.0471 -2.0560 -0.7940
  244MPD1    H7 3765   1.771   4.675  17.455  0.6950  0.8177  0.6675
  245MPD1     C 3766   4.105   0.832  13.626  0.8084  0.4568 -0.0799
  245MPD1    C1 3767   4.115   0.892  13.749 -0.0380  0.4544  0.4192
  245MPD1    C2 3768   4.111   1.026  13.761 -0.9212 -0.3856  0.0427
  245MPD1    C3 3769   4.089   1.104  13.646 -0.0950  0.1675 -0.1625
  245MPD1    C4 3770   4.069   1.045  13.520 -0.1680  0.0156  0.6059
  245MPD1    C5 3771   4.080   0.908  13.516 -0.0187 -0.8470 -0.0403
  245MPD1     H 3772   4.124   1.077  13.855 -1.2839 -1.0027  0.4262
  245MPD1    H1 3773   4.044   1.100  13.430  1.2765  0.1750  0.2931
  245MPD1    H2 3774   4.115   0.725  13.612 -2.4368  0.3969 -1.9150
  245MPD1    H3 3775   4.052   0.859  13.424 -0.2484  0.3514 -0.6206
  245MPD1     N 3776   4.087   1.246  13.662  0.2018 -0.7838  0.0479
  245MPD1    H5 3777   4.124   1.282  13.749 -0.6252  0.8213 -0.2602
  245MPD1    N1 3778   4.126   0.814  13.864 -0.3275  0.3940  0.5607
  245MPD1    H6 3779   4.165   0.866  13.943  1.6894 -2.2093  1.2580
  245MPD1    H7 3780   4.150   0.716  13.851  0.1141  0.9841 -2.9587
  246MPD1     C 3781   4.434   3.153   9.689  0.6173  0.3322  0.8056
  246MPD1    C1 3782   4.571   3.113   9.682 -0.0468  0.2393  0.1661
  246MPD1    C2 3783   4.612   3.025   9.583  0.9415 -0.2228  0.6549
  246MPD1    C3 3784   4.517   2.954   9.503 -0.1285 -0.9212  0.4229
  246MPD1    C4 3785   4.390   3.003   9.508 -0.2698 -0.7332 -0.7140
  246MPD1    C5 3786   4.347   3.089   9.607 -0.1409  0.1906  0.1851
  246MPD1     H 3787   4.714   2.989   9.577  2.0574  2.7516  1.7841
  246MPD1    H1 3788   4.308   2.958   9.453 -0.7350  0.3300 -0.8971
  246MPD1    H2 3789   4.408   3.239   9.749 -0.8493  1.2849 -1.1706
  246MPD1    H3 3790   4.244   3.124   9.606 -0.2132 -0.0971 -1.7582
  246MPD1     N 3791   4.550   2.829   9.446  0.0560 -0.8684  0.5184
  246MPD1    H5 3792   4.643   2.798   9.476  0.7663 -0.8373 -1.6331
  246MPD1    N1 3793   4.673   3.193   9.743 -0.6040  0.2412 -0.7270
  246MPD1    H6 3794   0.023   3.142   9.751  0.6064  2.6855  1.8437
  246MPD1    H7 3795   4.656   3.224   9.839  0.9545  1.4444 -0.8278
  247MPD1     C 3796   3.144   2.199  15.776  0.2542 -0.3068  0.0904
  247MPD1    C1 3797   3.005   2.182  15.772  0.3996  0.0334 -0.3438
  247MPD1    C2 3798   2.956   2.050  15.789 -0.2346  0.6348 -0.2710
  247MPD1    C3 3799   3.036   1.938  15.815 -0.5568 -0.6418 -0.2191
  247MPD1    C4 3800   3.171   1.965  15.815 -0.3609 -0.1572  0.9404
  247MPD1    C5 3801   3.223   2.087  15.792  0.4225  0.1039  0.1866
  247MPD1     H 3802   2.848   2.036  15.789  0.1448 -2.1737 -0.1670
  247MPD1    H1 3803   3.239   1.882  15.828 -0.8272 -0.8936 -1.2834
  247MPD1    H2 3804   3.188   2.297  15.761 -0.0632  0.3006  2.9500
  247MPD1    H3 3805   3.331   2.099  15.783  0.4077 -0.1614 -0.3149
  247MPD1     N 3806   2.983   1.808  15.846  0.1117 -0.1048  0.2993
  247MPD1    H5 3807   3.050   1.734  15.865  0.0316  0.2192  1.8575
  247MPD1    N1 3808   2.922   2.291  15.748 -0.1612 -0.5721 -0.4439
  247MPD1    H6 3809   2.950   2.369  15.806 -0.5791  0.0140 -1.0283
  247MPD1    H7 3810   2.824   2.269  15.767  0.1235  0.2654  1.9323
  248MPD1     C 3811   3.963   3.992   0.384 -0.5904  0.1798  0.6575
  248MPD1    C1 3812   4.053   4.087   0.428  0.9759 -0.4338  0.4314
  248MPD1    C2 3813   4.014   4.216   0.454 -0.3956 -1.1253  0.5830
  248MPD1    C3 3814   3.882   4.254   0.450  0.2554 -0.1132  0.2096
  248MPD1    C4 3815   3.791   4.161   0.412 -0.6518  0.2836 -0.2396
  248MPD1    C5 3816   3.833   4.034   0.380  0.0936  0.1123 -0.5640
  248MPD1     H 3817   4.092   4.284   0.488 -0.8467 -0.9318  1.2471
  248MPD1    H1 3818   3.684   4.176   0.406 -0.5289  0.7608 -1.2795
  248MPD1    H2 3819   3.987   3.887   0.370 -1.6705  0.0852 -0.4200
  248MPD1    H3 3820   3.761   3.962   0.344  0.0909 -1.0589  1.7881
  248MPD1     N 3821   3.843   4.384   0.488  1.1206  1.0118  0.2639
  248MPD1    H5 3822   3.920   4.446   0.511  1.1684  1.2615 -0.5683
  248MPD1    N1 3823   4.190   4.054   0.435 -0.1172  0.6313 -0.1284
  248MPD1    H6 3824   4.236   4.098   0.515  2.9483  0.1543 -1.6214
  248MPD1    H7 3825   4.211   3.954   0.431  3.0266  1.3219 -1.1951
  249MPD1     C 3826   0.597   0.037  10.950 -0.0118 -0.2078 -0.4865
  249MPD1    C1 3827   0.542   0.113  10.850 -0.0918  0.4536 -0.1554
  249MPD1    C2 3828   0.528   0.064  10.719 -0.6122 -0.3019  0.2630
  249MPD1    C3 3829   0.584   4.679  10.683  0.1653 -0.4286 -0.1538
  249MPD1    C4 3830   0.631   4.602  10.782  0.6546  0.4098 -0.0942
  249MPD1    C5 3831   0.633   4.645  10.913  0.0706 -0.3904 -0.3008
  249MPD1     H 3832   0.471   0.122  10.647  0.3022  0.9345  0.5407
  249MPD1    H1 3833   0.667   4.502  10.762 -0.1436  0.5195 -2.1156
  249MPD1    H2 3834   0.602   0.060  11.056 -0.5777  2.8144 -1.0925
  249MPD1    H3 3835   0.660   4.576  10.992 -1.7931 -0.0404  0.6382
  249MPD1     N 3836   0.565   4.628  10.549 -0.1782 -0.2385 -0.3479
  249MPD1    H5 3837   0.515   4.687  10.483 -0.1025 -0.8280 -0.9252
  249MPD1    N1 3838   0.487   0.237  10.889 -0.4728 -0.3300  0.1252
  249MPD1    H6 3839   0.494   0.304  10.813  0.3051  1.1600  1.5279
  249MPD1    H7 3840   0.535   0.271  10.972  0.6252 -0.6170 -0.3804
  250MPD2     C 3841   2.215   4.410  12.568 -0.6509  0.0793  0.3869
  250MPD2    C1 3842   2.135   4.506  12.523  0.1578 -0.0385 -0.3205
  250MPD2    C2 3843   1.998   4.486  12.525  0.6592 -0.1655 -0.2401
  250MPD2    C3 3844   1.953   4.362  12.569 -0.4614  0.0224 -0.5332
  250MPD2    C4 3845   2.036   4.259  12.601 -0.1894  0.3339 -0.9303
  250MPD2    C5 3846   2.165   4.293  12.612  0.1907  0.2613 -0.0388
  250MPD2     H 3847   1.922   4.559  12.500  0.4747 -0.7685 -1.4490
  250MPD2    H1 3848   1.997   4.165  12.638  1.2927  0.3790  0.7420
  250MPD2    H2 3849   2.321   4.421  12.587 -0.7177 -1.5158  1.6936
  250MPD2    H3 3850   2.224   4.216  12.659  0.6436  1.7196  1.7745
  250MPD2     N 3851   1.818   4.331  12.589 -0.1215  0.5086 -0.2287
  250MPD2    H5 3852   1.803   4.235  12.617  0.4529  0.5129  0.0840
  250MPD2    N1 3853   2.192   4.629  12.482 -0.1053  0.4763 -0.0376
  250MPD2    H7 3854   2.293   4.632  12.474 -0.1914 -0.7035 -1.5519
  251TMC3    C1 3855   2.190   0.116  12.434 -0.7337 -0.0112 -0.3596
  251TMC3    C2 3856   2.110   0.230  12.410  0.1554  0.0554 -0.6677
  251TMC3    C3 3857   2.173   0.354  12.431 -0.2002 -0.1453  0.0495
  251TMC3    C4 3858   2.318   0.123  12.491 -0.0201  0.0793  0.5133
  251TMC3    C5 3859   2.367   0.250  12.513 -0.3655  0.0413 -0.0340
  251TMC3    C6 3860   2.295   0.366  12.479 -0.1147 -0.3133  0.5578
  251TMC3     C 3861   2.115   4.727  12.436 -0.4493 -0.0651  0.5492
  251TMC3     O 3862   1.998   0.006  12.412 -0.6492 -1.2357 -0.4140
  251TMC3     H 3863   2.006   0.230  12.379 -0.7827 -0.7265  2.4717
  251TMC3    H1 3864   2.384   0.042  12.521  1.2587  1.1299  0.4962
  251TMC3    H2 3865   2.338   0.465  12.486  3.2939 -1.6916 -1.2384
  251TMC3    C7 3866   2.425   0.265  12.643 -0.3720 -0.2882  0.1519
  251TMC3    C8 3867   2.078   0.441  12.503  0.3939  0.0081  0.0106
  251TMC3    O1 3868   2.392   0.179  12.725  0.0072 -0.0536 -0.2817
  251TMC3    O2 3869   1.960   0.436  12.468  0.3721  0.0872 -0.2758
  252TMC3    C1 3870   1.167   1.999   9.776  0.4132  0.6617 -0.2385
  252TMC3    C2 3871   1.267   1.999   9.678  0.2320 -0.4319  0.0498
  252TMC3    C3 3872   1.340   1.876   9.668  0.0318  0.4509 -0.4024
  252TMC3    C4 3873   1.134   1.891   9.849 -0.9503 -0.4353 -0.1769
  252TMC3    C5 3874   1.196   1.775   9.830  0.2879 -0.5338 -0.5532
  252TMC3    C6 3875   1.302   1.762   9.737 -0.1162 -0.5621 -0.6388
  252TMC3     C 3876   1.068   2.110   9.767 -0.1762 -0.7736  0.3732
  252TMC3     O 3877   0.962   2.099   9.823  0.0771  0.2378  0.0152
  252TMC3     H 3878   1.316   2.086   9.635 -0.1119 -0.7281 -0.9311
  252TMC3    H1 3879   1.054   1.898   9.922 -1.5347 -1.0511 -0.7466
  252TMC3    H2 3880   1.349   1.666   9.717 -0.2431 -1.0261  1.2849
  252TMC3    C7 3881   1.124   1.655   9.870 -0.0894  0.5423 -0.7759
  252TMC3    C8 3882   1.469   1.886   9.596 -0.2882  0.2071 -0.4048
  252TMC3    O1 3883   1.006   1.669   9.908 -0.0146  0.2507 -0.2035
  252TMC3    O2 3884   1.466   1.959   9.501 -0.4815 -0.3674 -0.1159
  253MPD2     C 3885   3.410   4.560  14.699 -0.2997 -0.1529 -1.1754
  253MPD2    C1 3886   3.270   4.559  14.709 -0.0599 -0.5878 -0.3363
  253MPD2    C2 3887   3.214   4.516  14.834 -0.1929 -0.2049  0.4124
  253MPD2    C3 3888   3.297   4.494  14.945 -0.3847  0.2285  0.6308
  253MPD2    C4 3889   3.434   4.515  14.927 -0.1695 -0.0357 -0.4025
  253MPD2    C5 3890   3.490   4.543  14.809  0.2210 -0.3196 -0.4110
  253MPD2     H 3891   3.106   4.507  14.844 -0.2097 -0.3478  0.0934
  253MPD2    H1 3892   3.501   4.510  15.012  2.7178 -0.1405 -2.6806
  253MPD2    H2 3893   3.453   4.594  14.606 -1.0702  0.9416 -1.1230
  253MPD2    H3 3894   3.596   4.561  14.805  0.1920 -0.7899 -2.9815
  253MPD2     N 3895   3.243   4.471  15.074  0.6012  0.4517  0.3799
  253MPD2    H5 3896   3.311   4.461  15.149  1.3340  0.8333 -0.2332
  253MPD2    N1 3897   3.186   4.597  14.604 -0.5893 -0.1285 -0.0195
  253MPD2    H7 3898   3.090   4.568  14.617 -1.0270  0.1978 -2.6393
  254TMC3    C1 3899   3.087   4.409  15.242  0.6162  0.6621  0.3918
  254TMC3    C2 3900   2.972   4.450  15.298  0.0567  0.2356 -0.3837
  254TMC3    C3 3901   2.925   4.392  15.413  0.2646  0.4257  0.2007
  254TMC3    C4 3902   3.171   4.320  15.301  0.5250  0.8151  0.2210
  254TMC3    C5 3903   3.120   4.259  15.408 -0.1659  0.4758  0.1460
  254TMC3    C6 3904   2.990   4.282  15.466  0.2111  0.5163  0.2003
  254TMC3     C 3905   3.108   4.462  15.110  0.3960  0.2532 -0.0201
  254TMC3     O 3906   3.012   4.501  15.048 -0.5566  0.7066 -0.3017
  254TMC3     H 3907   2.913   4.529  15.253 -0.9279 -0.5188 -0.4195
  254TMC3    H1 3908   3.271   4.308  15.261 -0.5220  0.6567 -2.3451
  254TMC3    H2 3909   2.949   4.234  15.554  0.7188  2.5272  1.5516
  254TMC3    C7 3910   3.212   4.220  15.508 -0.5868 -0.8461  0.3918
  254TMC3    C8 3911   2.850   4.467  15.522 -0.0780  0.0534  0.2881
  254TMC3    O1 3912   3.155   4.173  15.608  0.2928 -0.3849 -0.7326
  254TMC3    O2 3913   2.852   4.419  15.634  0.8742 -0.4261 -0.4166
  255MPD2     C 3914   1.143   2.723  10.174 -0.3247 -0.0664  0.3565
  255MPD2    C1 3915   1.087   2.794  10.062 -0.1290  0.2827 -0.8492
  255MPD2    C2 3916   1.151   2.782   9.941 -0.4425 -0.3505 -0.4231
  255MPD2    C3 3917   1.268   2.712   9.928 -0.6659 -0.3627 -0.9302
  255MPD2    C4 3918   1.322   2.642  10.032  0.6920 -0.8543 -0.1611
  255MPD2    C5 3919   1.261   2.656  10.156 -0.2894 -0.1136 -0.0131
  255MPD2     H 3920   1.111   2.839   9.858 -0.3548 -0.1517 -0.3297
  255MPD2    H1 3921   1.396   2.565  10.015  0.8429 -0.6915 -0.2453
  255MPD2    H2 3922   1.097   2.715  10.272 -1.0526 -1.7121 -0.1342
  255MPD2    H3 3923   1.306   2.603  10.239 -1.9761 -0.0184  0.9693
  255MPD2     N 3924   1.325   2.714   9.803  0.1195  0.1074  0.1561
  255MPD2    H5 3925   1.266   2.775   9.748  1.4152  1.1996 -0.0191
  255MPD2    N1 3926   0.961   2.866  10.059  0.6938  1.1360 -0.5250
  255MPD2    H7 3927   0.928   2.902   9.970 -0.7979  0.1668 -0.3803
  256TMC3    C1 3928   0.767   2.960  10.139  0.0619  0.3816  0.4394
  256TMC3    C2 3929   0.758   3.035  10.025 -0.3711  0.0542 -0.1674
  256TMC3    C3 3930   0.639   3.034   9.956 -0.3383 -0.9418 -0.2357
  256TMC3    C4 3931   0.668   2.882  10.177 -0.3985  0.3118 -0.3179
  256TMC3    C5 3932   0.557   2.868  10.096 -0.6649 -0.2576  1.0185
  256TMC3    C6 3933   0.535   2.946   9.991  0.3288  0.7035 -0.5620
  256TMC3     C 3934   0.895   2.899  10.172  0.3765 -1.1976  0.4960
  256TMC3     O 3935   0.924   2.858  10.285  0.0752 -0.3418  0.0524
  256TMC3     H 3936   0.835   3.109  10.008 -0.2972  0.2049  0.8003
  256TMC3    H1 3937   0.691   2.829  10.269  0.8413  2.3172  0.5307
  256TMC3    H2 3938   0.436   2.939   9.947 -0.5025  0.0189  1.4208
  256TMC3    C7 3939   0.495   2.732  10.085  0.0037 -0.2072 -0.7408
  256TMC3    C8 3940   0.598   3.144   9.867  0.1189  1.0289 -0.1581
  256TMC3    O1 3941   0.462   2.701   9.970  0.6062  0.5865  0.2544
  256TMC3    O2 3942   0.477   3.146   9.844 -0.2400  0.2474 -0.2827
  257MPD2     C 3943   0.803   0.079  12.897  0.6120  0.1012 -0.2999
  257MPD2    C1 3944   0.784   4.703  12.834  0.1031  0.6092 -1.3316
  257MPD2    C2 3945   0.752   4.594  12.912 -0.3802 -0.6762 -0.0683
  257MPD2    C3 3946   0.746   4.598  13.053  0.0274 -0.1632  0.4719
  257MPD2    C4 3947   0.759   4.720  13.117 -0.4083 -0.5725  0.8314
  257MPD2    C5 3948   0.783   0.091  13.034 -0.7208  0.2880  0.4506
  257MPD2     H 3949   0.734   4.501  12.861 -0.1416 -0.3285 -0.7872
  257MPD2    H1 3950   0.749   0.002  13.224  1.9818 -3.1284  1.5198
  257MPD2    H2 3951   0.833   0.164  12.836  0.4074 -0.3783 -1.0753
  257MPD2    H3 3952   0.804   0.191  13.069 -1.2891  1.3407 -2.2508
  257MPD2     N 3953   0.729   4.477  13.122 -0.5375  0.5275 -0.0174
  257MPD2    H5 3954   0.704   4.396  13.067  2.3533  0.0667 -0.6768
  257MPD2    N1 3955   0.801   4.698  12.693 -0.2541  1.3208  0.8490
  257MPD2    H7 3956   0.848   0.042  12.657 -1.0377  0.8055 -1.3537
  258TMC3    C1 3957   0.762   4.337  13.307  0.0103 -1.0127 -0.2082
  258TMC3    C2 3958   0.817   4.240  13.229  0.3175 -0.4787 -0.0499
  258TMC3    C3 3959   0.876   4.143  13.302  0.3296 -0.2825  0.1133
  258TMC3    C4 3960   0.762   4.335  13.448 -0.2997  0.8436  0.6124
  258TMC3    C5 3961   0.814   4.231  13.513 -0.0484  0.0352  0.3121
  258TMC3    C6 3962   0.875   4.131  13.435  0.4073 -0.5258 -0.6366
  258TMC3     C 3963   0.759   4.473  13.257 -0.4773  0.4246 -0.0731
  258TMC3     O 3964   0.799   4.558  13.337 -0.8063  0.3065 -0.1940
  258TMC3     H 3965   0.826   4.238  13.121  1.2450 -1.8328  0.0536
  258TMC3    H1 3966   0.717   4.416  13.505 -0.4051  0.3535  1.2246
  258TMC3    H2 3967   0.906   4.036  13.477  1.0549 -0.3967 -0.8167
  258TMC3    C7 3968   0.804   4.222  13.652  0.0198  0.6081  0.2173
  258TMC3    C8 3969   0.911   4.025  13.225  0.3778 -0.4069  0.1801
  258TMC3    O1 3970   0.717   4.281  13.711 -0.0358 -0.5651 -0.0191
  258TMC3    O2 3971   0.870   4.019  13.110  0.2256 -0.6490 -0.2288
  259MPD2     C 3972   4.032   1.611   0.672 -0.6995 -0.5525  0.0816
  259MPD2    C1 3973   4.162   1.576   0.653  0.1382  1.1715  0.3736
  259MPD2    C2 3974   4.226   1.597   0.537  0.5068 -0.3205  0.0841
  259MPD2    C3 3975   4.162   1.667   0.444  0.2611 -0.2127  0.3442
  259MPD2    C4 3976   4.033   1.716   0.459 -0.2399 -0.2247  0.7498
  259MPD2    C5 3977   3.968   1.688   0.575  0.6931  1.0563 -0.2229
  259MPD2     H 3978   4.328   1.566   0.516  0.9557  0.3278  1.2805
  259MPD2    H1 3979   3.968   1.766   0.387  0.7161  0.2762  0.2379
  259MPD2    H2 3980   3.983   1.582   0.765 -1.7216  1.2942  0.1121
  259MPD2    H3 3981   3.868   1.728   0.584  0.5753  0.8608 -0.6539
  259MPD2     N 3982   4.223   1.669   0.316 -0.0943 -0.5249  0.0485
  259MPD2    H5 3983   4.312   1.623   0.300 -0.5561 -1.0598 -0.9535
  259MPD2    N1 3984   4.219   1.501   0.758 -1.1717 -0.2690  0.0148
  259MPD2    H7 3985   4.174   1.499   0.849 -3.1293  0.2193 -0.9227
  260TMC3    C1 3986   4.230   1.687   0.080 -0.1000  0.2424 -0.0299
  260TMC3    C2 3987   4.327   1.751   0.016  0.8907  0.3311  0.7461
  260TMC3    C3 3988   4.394   1.684  17.666 -0.0386  0.6913  0.0498
  260TMC3    C4 3989   4.187   1.557   0.046 -1.2396 -0.2729  0.4187
  260TMC3    C5 3990   4.253   1.497  17.691 -1.0814 -0.6581 -0.4784
  260TMC3    C6 3991   4.358   1.559  17.627  0.2671  0.3137 -0.5204
  260TMC3     C 3992   4.183   1.743   0.203 -0.6620  0.2620 -0.3810
  260TMC3     O 3993   4.115   1.843   0.186 -0.2490 -0.2475 -0.5866
  260TMC3     H 3994   4.368   1.842   0.060  0.2243 -0.3007  2.6957
  260TMC3    H1 3995   4.106   1.517   0.106 -0.6011  2.0829  2.9134
  260TMC3    H2 3996   4.418   1.494  17.564 -0.4385  1.6027 -2.5407
  260TMC3    C7 3997   4.229   1.358  17.661 -0.7892 -0.8374  0.0550
  260TMC3    C8 3998   4.526   1.743  17.627  0.1224  0.0799  0.0632
  260TMC3    O1 3999   4.267   1.314  17.550 -0.9107  0.4943 -0.2281
  260TMC3    O2 4000   4.546   1.854  17.674  0.1211 -0.3352 -0.3542
  261MPD2     C 4001   1.268   4.211  12.034  0.1131 -0.2849 -0.5636
  261MPD2    C1 4002   1.378   4.280  12.078 -0.1438 -0.1290 -0.0534
  261MPD2    C2 4003   1.428   4.388  12.007  0.2287  0.4463  0.0658
  261MPD2    C3 4004   1.360   4.431  11.893  0.1992 -0.0198 -0.0286
  261MPD2    C4 4005   1.256   4.360  11.843  0.8217  0.0692 -0.3676
  261MPD2    C5 4006   1.207   4.251  11.913  0.5006 -0.0144 -0.2624
  261MPD2     H 4007   1.525   4.424  12.039  1.2897  0.0192 -2.6829
  261MPD2    H1 4008   1.204   4.391  11.754 -1.5820 -0.8184  0.7218
  261MPD2    H2 4009   1.231   4.132  12.098  0.2822 -1.5975 -2.0886
  261MPD2    H3 4010   1.123   4.198  11.869  1.3896 -2.1273  0.6097
  261MPD2     N 4011   1.414   4.547  11.839  0.4307 -0.1173 -0.1890
  261MPD2    H5 4012   1.505   4.572  11.875 -0.6364  0.1209  2.2789
  261MPD2    N1 4013   1.448   4.254  12.199  0.4486  0.1781  0.2246
  261MPD2    H7 4014   1.515   4.318  12.239  4.0448 -3.3626 -0.1017
  262TMC3    C1 4015   1.435   0.005  11.727 -0.2678 -0.2840 -0.5502
  262TMC3    C2 4016   1.376   0.122  11.761  0.8669 -0.1056 -0.5094
  262TMC3    C3 4017   1.383   0.229  11.677 -0.3131 -0.8606 -1.0499
  262TMC3    C4 4018   1.532   4.724  11.629 -0.6101  0.6103 -0.2772
  262TMC3    C5 4019   1.536   0.104  11.548 -0.3524  0.2061  0.6944
  262TMC3    C6 4020   1.471   0.218  11.571 -0.7073 -0.3525  0.1460
  262TMC3     C 4021   1.351   4.623  11.741  0.1175  0.4349  0.2228
  262TMC3     O 4022   1.239   4.620  11.695  0.3410 -0.1897 -0.2828
  262TMC3     H 4023   1.295   0.116  11.833  0.0371 -1.5665 -1.5531
  262TMC3    H1 4024   1.560   4.623  11.601  0.8541  1.4486 -1.8145
  262TMC3    H2 4025   1.473   0.298  11.497  4.1016 -0.4827  0.1723
  262TMC3    C7 4026   1.644   0.092  11.451  0.2983 -0.1398  0.1893
  262TMC3    C8 4027   1.376   0.362  11.736  0.2104 -0.5934  0.3059
  262TMC3    O1 4028   1.710   4.725  11.441  0.4440  0.8726  0.4475
  262TMC3    O2 4029   1.411   0.450  11.661  0.3433  0.1925  0.1758
  263MPD2     C 4030   1.967   4.010  11.181  0.6009  0.4502  0.2631
  263MPD2    C1 4031   2.076   4.084  11.216 -0.1216 -0.2344  0.1888
  263MPD2    C2 4032   2.134   4.177  11.121  0.2033  0.4178  0.3516
  263MPD2    C3 4033   2.093   4.182  10.990  0.1529 -0.0625  0.5676
  263MPD2    C4 4034   1.979   4.105  10.966 -0.2188  0.2426  0.1216
  263MPD2    C5 4035   1.920   4.024  11.056 -0.2368  0.0758  0.9579
  263MPD2     H 4036   2.220   4.238  11.147 -0.5082  1.7840 -0.5531
  263MPD2    H1 4037   1.947   4.096  10.863 -1.9000  1.8001  0.4990
  263MPD2    H2 4038   1.919   3.940  11.249 -0.5086  0.9712  0.0159
  263MPD2    H3 4039   1.841   3.962  11.013  0.5709  1.2197 -2.1624
  263MPD2     N 4040   2.155   4.274  10.907 -0.1342  0.2198  0.1366
  263MPD2    H5 4041   2.216   4.341  10.952 -0.2875  0.4788 -0.0367
  263MPD2    N1 4042   2.143   4.049  11.333 -0.3385  0.2331 -1.0008
  263MPD2    H7 4043   2.111   3.972  11.392  0.5547 -0.4561 -1.4092
  264TMC3    C1 4044   2.195   4.387  10.708 -0.2229 -0.2988  0.6318
  264TMC3    C2 4045   2.227   4.501  10.776 -1.2162  0.8624 -0.0858
  264TMC3    C3 4046   2.308   4.588  10.712  0.2662  0.4915  0.1501
  264TMC3    C4 4047   2.252   4.360  10.587 -0.1512 -0.2748  1.1229
  264TMC3    C5 4048   2.329   4.456  10.526  0.2252 -0.3052  0.2508
  264TMC3    C6 4049   2.362   4.569  10.595 -0.2719  0.3397  0.9108
  264TMC3     C 4050   2.135   4.272  10.771 -0.0214 -0.5898 -0.1841
  264TMC3     O 4051   2.090   4.182  10.698 -0.2454  0.2217  0.0473
  264TMC3     H 4052   2.169   4.531  10.862  1.0944  0.5312  1.5980
  264TMC3    H1 4053   2.232   4.266  10.536 -2.2999  0.8340 -0.0750
  264TMC3    H2 4054   2.435   4.640  10.558 -0.6658  0.5153  0.4687
  264TMC3    C7 4055   2.417   4.410  10.424 -0.4616  0.6176  1.0338
  264TMC3    C8 4056   2.349   4.711  10.779  0.6223  0.2348 -0.0672
  264TMC3    O1 4057   2.441   4.294  10.431 -0.1870 -0.3782 -0.1610
  264TMC3    O2 4058   2.392   0.063  10.708  0.5109  0.3988 -0.0908
  265MPD2     C 4059   4.632   4.094  15.440 -0.4947 -0.0027 -0.3816
  265MPD2    C1 4060   4.672   4.213  15.376  0.1317  0.4828  0.1229
  265MPD2    C2 4061   4.719   4.211  15.242 -0.1953 -0.1897  0.4607
  265MPD2    C3 4062   4.716   4.094  15.171  0.0706  0.5629  0.4854
  265MPD2    C4 4063   4.674   3.980  15.233  0.2926  0.4235 -0.1401
  265MPD2    C5 4064   4.635   3.982  15.363 -0.4709 -0.0079  0.2874
  265MPD2     H 4065   0.015   4.306  15.201  1.1830 -0.1912  1.5814
  265MPD2    H1 4066   4.671   3.881  15.188  2.2112 -0.5955  1.9342
  265MPD2    H2 4067   4.586   4.090  15.538 -0.5724 -2.2752 -0.5177
  265MPD2    H3 4068   4.599   3.892  15.411 -1.4547  1.0616  1.5541
  265MPD2     N 4069   0.024   4.082  15.035  0.3665  0.0416 -0.1476
  265MPD2    H5 4070   4.710   4.013  14.981  0.6254 -0.6504  0.4802
  265MPD2    N1 4071   4.655   4.342  15.435  0.5031 -0.0310  0.0455
  265MPD2    H7 4072   4.683   4.424  15.382  2.8043  0.4008  1.9424
  266TMC3    C1 4073   4.572   4.498  15.588  0.2450  0.4387 -0.9810
  266TMC3    C2 4074   4.560   4.537  15.717 -0.5217 -0.0423 -1.0120
  266TMC3    C3 4075   4.543   4.669  15.746 -0.4148 -1.1374  0.1624
  266TMC3    C4 4076   4.539   4.586  15.487 -0.1722 -0.3193 -0.2442
  266TMC3    C5 4077   4.514   4.720  15.520 -0.2301  0.4420  0.0128
  266TMC3    C6 4078   4.511   0.021  15.653 -0.1456 -0.2050 -0.0129
  266TMC3     C 4079   4.609   4.363  15.563 -0.0900 -0.2927  0.0231
  266TMC3     O 4080   4.605   4.277  15.652 -0.2554 -0.5076  0.7344
  266TMC3     H 4081   4.598   4.473  15.796 -0.4656  0.1920 -0.8490
  266TMC3    H1 4082   4.538   4.565  15.381  1.7153 -0.3443 -0.2591
  266TMC3    H2 4083   4.496   0.123  15.687 -0.6118 -0.2765  0.0065
  266TMC3    C7 4084   4.448   0.069  15.428  0.3698  0.1051  0.5546
  266TMC3    C8 4085   4.635   4.707  15.850  0.4256  0.7879  0.0428
  266TMC3    O1 4086   4.393   0.022  15.333  0.4363 -0.0222  0.3641
  266TMC3    O2 4087   4.720   4.624  15.886  0.6862 -0.2269  0.3540
  267MPD2     C 4088   2.196   1.176  17.502 -0.1027  0.4756  0.4274
  267MPD2    C1 4089   2.268   1.141  17.389  0.6196  0.6488 -0.5690
  267MPD2    C2 4090   2.218   1.181  17.267  0.0694 -0.2219  0.5272
  267MPD2    C3 4091   2.099   1.251  17.250 -0.4439 -0.4244 -0.3922
  267MPD2    C4 4092   2.027   1.277  17.360  0.0820  0.3652 -0.3142
  267MPD2    C5 4093   2.075   1.236  17.482  0.1067  0.2263  0.1061
  267MPD2     H 4094   2.260   1.132  17.179 -0.9684 -1.4051  0.6869
  267MPD2    H1 4095   1.928   1.321  17.356  0.2784  0.8655  0.3837
  267MPD2    H2 4096   2.242   1.160  17.599 -1.9595  3.0732  1.7142
  267MPD2    H3 4097   2.028   1.263  17.576 -0.0282  1.1076 -0.2202
  267MPD2     N 4098   2.051   1.283  17.119  0.6593 -0.1024  0.5188
  267MPD2    H5 4099   1.955   1.316  17.118  0.1823 -1.4611  1.5490
  267MPD2    N1 4100   2.392   1.077  17.411  0.2875  0.8001  0.1674
  267MPD2    H7 4101   2.419   1.067  17.508  1.2861  5.1508  0.3596
  268TMC3    C1 4102   2.602   0.965  17.396  0.3993  0.0602 -0.4770
  268TMC3    C2 4103   2.712   0.951  17.322  0.2335  0.6270  0.1274
  268TMC3    C3 4104   2.823   0.904  17.380  0.5406 -0.4220  1.3492
  268TMC3    C4 4105   2.588   0.932  17.528 -0.8226 -0.1547 -0.0654
  268TMC3    C5 4106   2.701   0.889  17.584 -0.2807 -0.7292 -0.7428
  268TMC3    C6 4107   2.816   0.864  17.511 -0.2961  0.5248  0.0529
  268TMC3     C 4108   2.492   1.044  17.332  0.2852 -0.0773  0.2919
  268TMC3     O 4109   2.499   1.063  17.211 -0.3816  0.1039  0.0107
  268TMC3     H 4110   2.705   0.963  17.214 -1.1896 -1.9270 -0.0670
  268TMC3    H1 4111   2.489   0.928  17.571 -0.0742 -1.7639  1.5064
  268TMC3    H2 4112   2.907   0.836  17.564  0.6249  1.1899 -1.1813
  268TMC3    C7 4113   2.708   0.854  17.724 -0.1642  0.0037 -0.5995
  268TMC3    C8 4114   2.948   0.963  17.353  0.3162 -0.2436  0.4234
  268TMC3    O1 4115   2.772   0.755   0.006 -0.0971  0.4100 -0.1035
  268TMC3    O2 4116   3.049   0.925  17.411 -0.3581  0.2878 -0.1337
  269MPD2     C 4117   2.558   0.256  15.164 -0.1657  0.1381  0.5910
  269MPD2    C1 4118   2.473   0.269  15.264  0.0575 -0.0526 -0.1986
  269MPD2    C2 4119   2.439   0.391  15.321 -0.2568  0.6954 -0.2953
  269MPD2    C3 4120   2.518   0.500  15.281 -0.5647  0.1154  0.4232
  269MPD2    C4 4121   2.603   0.490  15.172 -0.1874 -0.4910  0.1723
  269MPD2    C5 4122   2.620   0.367  15.112 -0.3351 -0.2902  0.2597
  269MPD2     H 4123   2.383   0.391  15.413  1.3527  0.5371  0.6822
  269MPD2    H1 4124   2.649   0.580  15.133  1.3671 -1.5737 -0.5169
  269MPD2    H2 4125   2.597   0.161  15.129  0.1614  1.3491 -2.3570
  269MPD2    H3 4126   2.680   0.357  15.022  0.8215 -0.3138  1.0381
  269MPD2     N 4127   2.499   0.622  15.354 -0.0645 -0.0889  0.0235
  269MPD2    H5 4128   2.438   0.609  15.435  1.6062  1.9675  1.6040
  269MPD2    N1 4129   2.437   0.141  15.314  0.0513  0.6424  0.2023
  269MPD2    H7 4130   2.476   0.061  15.266 -2.0162  0.1280 -0.6057
  270TMC3    C1 4131   2.344   4.699  15.420  0.3695  0.1051 -0.8291
  270TMC3    C2 4132   2.218   4.644  15.452  0.5925  0.0129 -0.5442
  270TMC3    C3 4133   2.216   4.510  15.444 -0.5003  0.7915 -0.0191
  270TMC3    C4 4134   2.457   4.627  15.389 -0.3725 -0.3118 -0.0922
  270TMC3    C5 4135   2.443   4.485  15.402 -0.3645  0.0487 -0.4936
  270TMC3    C6 4136   2.322   4.422  15.417 -0.7778  0.3357 -0.8138
  270TMC3     C 4137   2.352   0.103  15.412  0.2370  0.1933 -0.4928
  270TMC3     O 4138   2.284   0.171  15.481  0.0007  0.2131 -0.1539
  270TMC3     H 4139   2.125   4.698  15.467 -0.9333 -2.2543 -1.6473
  270TMC3    H1 4140   2.555   4.673  15.384 -1.0766  1.0866 -0.8718
  270TMC3    H2 4141   2.305   4.315  15.417 -0.6416  0.3091 -2.3206
  270TMC3    C7 4142   2.552   4.400  15.365 -0.1581  0.6491 -0.5064
  270TMC3    C8 4143   2.091   4.440  15.415  0.2057  0.3872 -0.5237
  270TMC3    O1 4144   2.639   4.445  15.293 -0.1601 -0.4811  0.0033
  270TMC3    O2 4145   1.995   4.460  15.477  0.3636  0.5818  0.2205
  271MPD2     C 4146   1.441   4.637  13.530  0.1653  0.0086  0.0636
  271MPD2    C1 4147   1.395   4.657  13.657  0.1038 -0.6108  0.2239
  271MPD2    C2 4148   1.292   0.018  13.673  0.2487 -0.2588  0.6989
  271MPD2    C3 4149   1.230   0.070  13.560  0.4061  0.8348  0.1446
  271MPD2    C4 4150   1.271   0.046  13.434  0.0972  0.7913  0.6415
  271MPD2    C5 4151   1.384   4.699  13.418 -0.2175  0.4040 -0.4615
  271MPD2     H 4152   1.258   0.039  13.774  1.2568  0.5814  0.8642
  271MPD2    H1 4153   1.211   0.075  13.349  1.4084 -1.8169 -1.1631
  271MPD2    H2 4154   1.523   4.573  13.501  0.3250 -0.7310  2.2217
  271MPD2    H3 4155   1.432   4.679  13.323  1.7728  0.5059  0.5306
  271MPD2     N 4156   1.115   0.150  13.561  0.6791 -0.5067  0.4598
  271MPD2    H5 4157   1.086   0.194  13.474  0.7109  0.2123  0.8111
  271MPD2    N1 4158   1.445   4.592  13.770  0.7394  0.9064  0.0683
  271MPD2    H7 4159   1.419   4.630  13.861 -0.5274  1.0240 -0.3483
  272TMC3    C1 4160   1.602   4.453  13.890 -0.0625  0.8219 -0.2652
  272TMC3    C2 4161   1.720   4.387  13.884 -0.3020 -0.0704  0.1037
  272TMC3    C3 4162   1.786   4.376  14.008 -0.1476  0.3321  0.6438
  272TMC3    C4 4163   1.545   4.493  14.010 -0.3300 -0.1165 -0.2313
  272TMC3    C5 4164   1.609   4.469  14.125  0.0524 -0.0856 -1.0165
  272TMC3    C6 4165   1.730   4.410  14.129 -0.4319  0.2118 -0.1058
  272TMC3     C 4166   1.540   4.492  13.767  0.3407  0.6508  1.0655
  272TMC3     O 4167   1.581   4.425  13.673 -0.2613 -0.2613  0.3164
  272TMC3     H 4168   1.769   4.367  13.789  0.7216 -2.9490  1.2401
  272TMC3    H1 4169   1.446   4.536  14.015  0.0990  0.8267  0.0916
  272TMC3    H2 4170   1.783   4.394  14.222  2.1697 -0.9910 -1.7834
  272TMC3    C7 4171   1.547   4.533  14.244 -0.9257 -0.1818 -0.2560
  272TMC3    C8 4172   1.925   4.344  13.981 -0.1483 -0.0191 -0.0325
  272TMC3    O1 4173   1.432   4.583  14.237 -0.0160  0.1892 -0.6511
  272TMC3    O2 4174   1.962   4.301  13.872  0.2432 -0.2724 -0.0291
  273MPD2     C 4175   2.619   2.553  11.673  0.1566 -0.5297  0.2584
  273MPD2    C1 4176   2.680   2.678  11.680 -0.3626 -0.4901 -1.0489
  273MPD2    C2 4177   2.671   2.760  11.570 -0.9187  0.2261  0.0022
  273MPD2    C3 4178   2.600   2.725  11.460 -0.6267 -0.0568 -0.5473
  273MPD2    C4 4179   2.552   2.598  11.447  0.0367 -0.8280 -0.2779
  273MPD2    C5 4180   2.564   2.508  11.550  0.3854  0.0791  0.2276
  273MPD2     H 4181   2.715   2.859  11.566 -1.2434  0.4773  2.4826
  273MPD2    H1 4182   2.500   2.569  11.356 -1.7025  2.3615 -0.2957
  273MPD2    H2 4183   2.618   2.475  11.748 -2.4335 -1.6929 -0.9744
  273MPD2    H3 4184   2.519   2.410  11.544 -2.2214  1.0334  4.1188
  273MPD2     N 4185   2.577   2.817  11.358 -0.3389 -0.8911 -0.8959
  273MPD2    H5 4186   2.595   2.909  11.397 -0.3676 -0.9298 -0.7914
  273MPD2    N1 4187   2.752   2.717  11.795  0.6705  0.0840 -0.0940
  273MPD2    H7 4188   2.769   2.652  11.871  1.5714  1.6983  1.0722
  274TMC3    C1 4189   2.522   2.923  11.151 -0.0124 -0.5646  0.5342
  274TMC3    C2 4190   2.447   2.916  11.036  0.0464  0.6856 -0.3550
  274TMC3    C3 4191   2.445   3.031  10.961  0.0148 -0.0136 -0.1417
  274TMC3    C4 4192   2.592   3.033  11.197 -0.0621  0.2783  0.2319
  274TMC3    C5 4193   2.568   3.147  11.127 -0.0095  0.0393 -0.0257
  274TMC3    C6 4194   2.498   3.149  11.009 -1.4418  0.6393 -0.0535
  274TMC3     C 4195   2.517   2.799  11.234  0.1837 -0.0497 -0.2894
  274TMC3     O 4196   2.439   2.708  11.205 -0.0664  0.2950  0.1385
  274TMC3     H 4197   2.424   2.815  11.004  2.2518  1.1059 -3.2227
  274TMC3    H1 4198   2.642   3.028  11.293  1.5300 -0.0243 -0.6232
  274TMC3    H2 4199   2.452   3.241  10.976  2.1783  1.2356 -3.4091
  274TMC3    C7 4200   2.582   3.269  11.204 -0.3225 -0.8549  0.1871
  274TMC3    C8 4201   2.370   3.041  10.839  0.9087 -0.4683 -0.2086
  274TMC3    O1 4202   2.484   3.344  11.199  0.4295 -0.5625  0.6887
  274TMC3    O2 4203   2.366   3.154  10.796  0.5601 -0.1303  0.5743
  275MPD2     C 4204   2.986   0.747  14.224 -0.1120  0.2193  0.7581
  275MPD2    C1 4205   2.940   0.821  14.335 -0.1537 -0.2961  0.0495
  275MPD2    C2 4206   2.810   0.793  14.383  0.5078 -0.5219 -0.2536
  275MPD2    C3 4207   2.721   0.722  14.307 -0.5651 -0.0101  0.2945
  275MPD2    C4 4208   2.767   0.660  14.190  0.5605 -0.2364 -0.2389
  275MPD2    C5 4209   2.901   0.668  14.149  0.0559 -0.4182  0.1619
  275MPD2     H 4210   2.780   0.836  14.478  0.4894 -1.9681  0.4009
  275MPD2    H1 4211   2.707   0.592  14.131  0.5403  0.3741 -0.9237
  275MPD2    H2 4212   3.087   0.753  14.183  0.3912  1.2360  2.1690
  275MPD2    H3 4213   2.944   0.611  14.068 -1.3149 -1.0161 -0.1540
  275MPD2     N 4214   2.588   0.696  14.346 -0.3913 -0.1237 -0.6732
  275MPD2    H5 4215   2.539   0.622  14.297  0.1150 -0.1258 -1.1757
  275MPD2    N1 4216   3.031   0.892  14.413 -0.5188 -0.5177 -0.4730
  275MPD2    H7 4217   3.126   0.871  14.385  0.9547  1.3123  3.1239
  276TMC3    C1 4218   3.067   0.978  14.621 -0.2387  0.2063  1.0064
  276TMC3    C2 4219   2.987   0.993  14.732 -0.6176  0.0291  0.1947
  276TMC3    C3 4220   3.023   0.922  14.843  0.7690 -0.3959 -0.1800
  276TMC3    C4 4221   3.199   0.934  14.621  0.4771  0.2039 -0.3724
  276TMC3    C5 4222   3.237   0.875  14.740  0.6238 -0.5478 -0.0619
  276TMC3    C6 4223   3.145   0.863  14.845 -1.1994 -0.2977 -0.0899
  276TMC3     C 4224   2.989   0.989  14.501 -0.6047 -1.0840 -0.2423
  276TMC3     O 4225   2.877   1.040  14.507  0.0694 -0.5369 -0.2401
  276TMC3     H 4226   2.889   1.039  14.722 -0.9176 -0.9899 -1.6158
  276TMC3    H1 4227   3.264   0.938  14.534  1.2204  2.1493  0.2607
  276TMC3    H2 4228   3.179   0.815  14.936 -0.5871  1.4913  0.6254
  276TMC3    C7 4229   3.370   0.831  14.752  0.0147 -0.0667  0.8255
  276TMC3    C8 4230   2.907   0.833  14.862 -0.3023  0.2686 -0.0008
  276TMC3    O1 4231   3.431   0.818  14.647  0.5756  0.4096 -0.2728
  276TMC3    O2 4232   2.804   0.880  14.906 -0.0492 -0.3443  0.3637
  277MPD2     C 4233   4.622   0.467  12.961 -0.4987  0.6267  0.1964
  277MPD2    C1 4234   4.494   0.481  13.004  0.0427  0.1892  0.0339
  277MPD2    C2 4235   4.450   0.401  13.108  0.2145 -0.0721  0.2110
  277MPD2    C3 4236   4.526   0.298  13.165  0.2726 -0.4640  0.8987
  277MPD2    C4 4237   4.649   0.281  13.104  0.6553  0.4329  0.3647
  277MPD2    C5 4238   4.691   0.361  12.998  0.4647  0.5051  1.0236
  277MPD2     H 4239   4.358   0.413  13.165 -1.4212 -2.1347 -2.0020
  277MPD2    H1 4240   4.718   0.202  13.127 -0.0461 -0.4869 -0.7109
  277MPD2    H2 4241   4.662   0.523  12.877 -0.9580 -1.0731 -1.1599
  277MPD2    H3 4242   0.053   0.336  12.962  0.7552  2.3992  0.4871
  277MPD2     N 4243   4.482   0.236  13.283  0.8011  0.3277  0.2315
  277MPD2    H5 4244   4.387   0.246  13.317  0.8916  1.0213  0.2720
  277MPD2    N1 4245   4.425   0.594  12.961  0.2748  0.3746  0.4741
  277MPD2    H7 4246   4.480   0.663  12.910  1.3205  0.0899  1.2003
  278TMC3    C1 4247   4.482   0.092  13.478 -0.0113 -0.0122  0.1631
  278TMC3    C2 4248   4.511   4.697  13.496 -0.7494  0.1094 -0.2224
  278TMC3    C3 4249   4.413   4.618  13.548 -0.3968  0.2705 -0.4188
  278TMC3    C4 4250   4.355   0.139  13.509  0.4576 -0.4350  0.0521
  278TMC3    C5 4251   4.262   0.056  13.560 -0.0851  0.5084  0.5155
  278TMC3    C6 4252   4.284   4.661  13.580 -0.1309  0.2370 -0.2770
  278TMC3     C 4253   4.551   0.142  13.355  0.1926  0.1561  0.6479
  278TMC3     O 4254   4.653   0.088  13.318 -0.1586 -0.3784 -0.2611
  278TMC3     H 4255   4.613   4.668  13.478 -0.8026 -0.6932  0.7642
  278TMC3    H1 4256   4.332   0.242  13.485 -0.3306 -0.4340  0.8093
  278TMC3    H2 4257   4.221   4.592  13.635  0.1725 -0.0222 -0.2509
  278TMC3    C7 4258   4.129   0.104  13.577  0.1308  0.3299  0.0127
  278TMC3    C8 4259   4.452   4.480  13.571  0.5336  0.2267 -0.0784
  278TMC3    O1 4260   4.116   0.220  13.611  0.2375 -0.8270 -0.0146
  278TMC3    O2 4261   4.568   4.462  13.602  0.2546 -0.1127  0.2588
  279MPD2     C 4262   4.162   4.420   0.032 -0.2361 -0.5549 -0.3020
  279MPD2    C1 4263   4.048   4.373  17.716 -1.4512  0.6586  0.3179
  279MPD2    C2 4264   4.052   4.366  17.576 -0.6291 -0.5706 -0.1581
  279MPD2    C3 4265   4.158   4.430  17.504 -0.0606  0.3290  0.3658
  279MPD2    C4 4266   4.265   4.478  17.576  0.3033  0.1823  0.3553
  279MPD2    C5 4267   4.273   4.468  17.711 -0.2217  0.4637  0.1615
  279MPD2     H 4268   3.964   4.334  17.522  0.7367 -2.2988 -1.3464
  279MPD2    H1 4269   4.335   4.538  17.519 -1.4884  1.7830 -0.1454
  279MPD2    H2 4270   4.174   4.411   0.139 -3.4152 -0.7199  0.0425
  279MPD2    H3 4271   4.357   4.495   0.026 -1.3009  0.6021  1.5513
  279MPD2     N 4272   4.162   4.440  17.364 -0.5113 -0.2680  0.5349
  279MPD2    H5 4273   4.248   4.479  17.328  0.1022 -1.5942  0.5479
  279MPD2    N1 4274   3.943   4.331   0.052  0.2232  0.6409 -0.0952
  279MPD2    H7 4275   3.945   4.359   0.150 -0.1913  0.6169 -0.0818
  280TMC3    C1 4276   3.723   4.259   0.084 -0.0302  0.3439 -0.3351
  280TMC3    C2 4277   3.623   4.170   0.046 -0.4569  0.2150 -0.5142
  280TMC3    C3 4278   3.494   4.211   0.062 -0.3918 -0.2368 -0.4751
  280TMC3    C4 4279   3.685   4.389   0.129 -0.6262  0.5954  0.9416
  280TMC3    C5 4280   3.551   4.426   0.134 -0.2476  0.1570 -0.7365
  280TMC3    C6 4281   3.456   4.335   0.102  0.5117 -0.5484  0.0146
  280TMC3     C 4282   3.848   4.251   0.009  0.0504 -0.0599  0.0809
  280TMC3     O 4283   3.850   4.180  17.657  0.1526 -0.0678 -0.2413
  280TMC3     H 4284   3.646   4.065   0.033  0.3153  0.1944  1.0368
  280TMC3    H1 4285   3.771   4.450   0.156 -0.4498  0.0602  1.5847
  280TMC3    H2 4286   3.350   4.357   0.098  0.6794  0.5469  1.9709
  280TMC3    C7 4287   3.542   4.566   0.101  0.5252 -0.7766 -0.1458
  280TMC3    C8 4288   3.392   4.113   0.076 -0.0426 -0.1996  0.6620
  280TMC3    O1 4289   3.640   4.634   0.116  0.5487  0.5426 -0.4225
  280TMC3    O2 4290   3.303   4.143   0.158  0.4995 -0.4021  0.1380
  281TMC3    C1 4291   2.287   0.247  13.513  0.5197  0.2410  0.4637
  281TMC3    C2 4292   2.320   0.305  13.397  0.8752 -0.4805 -0.7707
  281TMC3    C3 4293   2.244   0.276  13.287  0.2449  1.0228  0.4320
  281TMC3    C4 4294   2.192   0.152  13.531  0.7033 -0.8808 -0.1117
  281TMC3    C5 4295   2.106   0.139  13.420  0.2860 -0.1402  0.5378
  281TMC3    C6 4296   2.129   0.200  13.298  0.5752  0.3849  0.3523
  281TMC3     C 4297   2.348   0.297  13.635 -0.7599  0.0082 -0.0076
  281TMC3     O 4298   2.395   0.222  13.719 -0.1847  0.1575 -0.1682
  281TMC3     H 4299   2.420   0.347  13.397  0.4400  0.5367 -2.2560
  281TMC3    H1 4300   2.170   0.116  13.631  0.4037 -0.6776 -0.1019
  281TMC3    H2 4301   2.072   0.176  13.210  0.9774  2.5435 -0.4800
  281TMC3    C7 4302   2.039   0.009  13.401 -0.2931  0.0458  0.1332
  281TMC3    C8 4303   2.303   0.300  13.156  0.0048 -0.1145  0.3714
  281TMC3    O1 4304   1.936   4.733  13.331  0.6410  0.5169  0.6106
  281TMC3    O2 4305   2.273   0.224  13.067 -0.4171  0.0302  0.2055
  282MPD2     C 4306   0.049   1.399  14.962  0.1506  0.1916 -0.5180
  282MPD2    C1 4307   4.681   1.486  14.981  0.2630 -0.0616  0.0047
  282MPD2    C2 4308   4.637   1.567  14.876 -0.0877 -0.3551 -0.4781
  282MPD2    C3 4309   4.686   1.545  14.749  0.2266 -0.4058  0.3585
  282MPD2    C4 4310   0.051   1.457  14.724  0.6983 -0.7670  0.3588
  282MPD2    C5 4311   0.104   1.385  14.831  0.3497  0.4824  0.0863
  282MPD2     H 4312   4.559   1.643  14.884  0.6547  0.3458  0.0926
  282MPD2    H1 4313   0.097   1.447  14.627  2.1867 -0.4957  1.0316
  282MPD2    H2 4314   0.096   1.331  15.033  0.3779  1.3236  0.4208
  282MPD2    H3 4315   0.174   1.308  14.803 -2.0741 -1.3925 -0.8614
  282MPD2     N 4316   4.635   1.628  14.643  0.5088  0.1442 -1.2194
  282MPD2    H5 4317   4.551   1.679  14.666 -0.3292 -1.1259 -1.4445
  282MPD2    N1 4318   4.610   1.497  15.100 -0.2634 -0.1432 -0.6935
  282MPD2    H7 4319   4.551   1.579  15.110 -0.6826 -0.6636  1.1967
  283TMC3    C1 4320   4.543   1.450  15.317  0.0909 -0.0072  0.2727
  283TMC3    C2 4321   4.529   1.584  15.340  0.2118  0.1339  0.5032
  283TMC3    C3 4322   4.441   1.619  15.440 -0.5502  0.5423 -0.1744
  283TMC3    C4 4323   4.456   1.354  15.363  0.2964  0.8533  0.1169
  283TMC3    C5 4324   4.366   1.389  15.454  0.6644  0.2227 -0.5700
  283TMC3    C6 4325   4.354   1.522  15.493 -0.5769  0.4882 -0.1010
  283TMC3     C 4326   4.626   1.408  15.211 -0.0013  0.3464  0.8344
  283TMC3     O 4327   4.667   1.297  15.202  0.2462 -0.1955  0.3866
  283TMC3     H 4328   4.606   1.650  15.301 -1.5616  2.2073  0.4746
  283TMC3    H1 4329   4.474   1.250  15.337 -0.4895  0.6659  0.3123
  283TMC3    H2 4330   4.289   1.550  15.575  0.6321 -0.1330  1.0836
  283TMC3    C7 4331   4.275   1.292  15.508  0.8384  0.2828 -0.1879
  283TMC3    C8 4332   4.441   1.750  15.498  0.4049  0.1264  0.3453
  283TMC3    O1 4333   4.198   1.319  15.598  0.3945 -0.4530 -0.2768
  283TMC3    O2 4334   4.414   1.760  15.620 -0.1007 -0.2323  0.5808
  284MPD2     C 4335   3.132   0.727  12.010  0.3000 -0.3277  0.1895
  284MPD2    C1 4336   3.089   0.711  11.883 -0.6584  1.0920 -0.6876
  284MPD2    C2 4337   3.008   0.596  11.858 -0.4603 -0.6458 -0.1684
  284MPD2    C3 4338   2.991   0.497  11.951 -0.2776  0.9909  0.7008
  284MPD2    C4 4339   3.064   0.505  12.062  0.3271 -0.1243 -0.7348
  284MPD2    C5 4340   3.140   0.616  12.093  0.6762  0.9312 -0.9631
  284MPD2     H 4341   2.946   0.591  11.770 -2.1059 -1.6366  1.0457
  284MPD2    H1 4342   3.053   0.430  12.139 -1.8846 -0.1101 -1.0152
  284MPD2    H2 4343   3.192   0.810  12.046  2.0457 -1.1674 -0.7975
  284MPD2    H3 4344   3.185   0.630  12.190 -0.3110  0.9598 -0.5056
  284MPD2     N 4345   2.919   0.373  11.931  0.8889  0.0628  0.1125
  284MPD2    H5 4346   2.936   0.302  12.001  0.8455 -0.8650 -0.8259
  284MPD2    N1 4347   3.106   0.806  11.773  0.5594  0.0722 -0.8405
  284MPD2    H7 4348   3.066   0.770  11.687  0.7239  3.0131 -2.1710
  285TMC3    C1 4349   3.179   0.994  11.647 -0.0642 -0.7918  0.1777
  285TMC3    C2 4350   3.143   0.929  11.531  1.2494  0.0924 -0.2401
  285TMC3    C3 4351   3.135   1.005  11.422  0.1670 -0.2642  0.0111
  285TMC3    C4 4352   3.192   1.133  11.651 -0.6967 -0.1332  0.5112
  285TMC3    C5 4353   3.177   1.204  11.539 -0.6657  0.2359  0.0036
  285TMC3    C6 4354   3.145   1.141  11.420 -0.2041 -0.2617 -0.4147
  285TMC3     C 4355   3.155   0.932  11.775  0.2417 -0.1765  0.3648
  285TMC3     O 4356   3.180   0.994  11.877 -0.2105 -0.5042  0.2116
  285TMC3     H 4357   3.143   0.821  11.523  1.9516  0.2121 -1.7750
  285TMC3    H1 4358   3.192   1.179  11.749 -0.1716 -2.6059  1.6956
  285TMC3    H2 4359   3.128   1.203  11.333  0.2143  0.8925  0.3219
  285TMC3    C7 4360   3.225   1.338  11.523 -0.8038  0.4121 -0.0644
  285TMC3    C8 4361   3.092   0.954  11.296  0.1159 -0.1013 -0.1677
  285TMC3    O1 4362   3.187   1.403  11.424 -0.3701  0.5311 -0.4512
  285TMC3    O2 4363   3.025   0.849  11.297  0.0196 -0.1438  0.1663
  286MPD2     C 4364   3.054   4.434   1.726 -0.3118 -0.8189  0.5794
  286MPD2    C1 4365   3.028   4.364   1.612  0.1342  0.3977  0.1145
  286MPD2    C2 4366   3.113   4.280   1.553  0.9344 -0.5178  0.5202
  286MPD2    C3 4367   3.242   4.259   1.607 -0.6915  0.0310 -0.7031
  286MPD2    C4 4368   3.277   4.323   1.722  0.4413  0.1011  0.6305
  286MPD2    C5 4369   3.178   4.405   1.780  0.1511  0.0280 -0.6130
  286MPD2     H 4370   3.082   4.235   1.459 -0.0485 -0.4686  0.8109
  286MPD2    H1 4371   3.374   4.308   1.767  1.7416  0.0839 -2.1605
  286MPD2    H2 4372   2.982   4.497   1.776  0.8490 -0.4845  1.8209
  286MPD2    H3 4373   3.198   4.440   1.880 -1.8903 -2.7798  0.8012
  286MPD2     N 4374   3.331   4.156   1.561  0.1876  0.7806  0.2589
  286MPD2    H5 4375   3.406   4.120   1.619  1.6486  1.3137 -1.2833
  286MPD2    N1 4376   2.906   4.379   1.540  0.2177 -0.9162 -0.0937
  286MPD2    H7 4377   2.902   4.310   1.466  1.0418 -2.1136  0.9629
  287TMC3    C1 4378   3.419   3.997   1.412  0.1130 -0.2172 -0.2692
  287TMC3    C2 4379   3.400   3.914   1.303  0.0210 -0.1273 -0.9000
  287TMC3    C3 4380   3.507   3.844   1.254  0.6823 -0.7912 -0.0857
  287TMC3    C4 4381   3.543   4.015   1.463  0.1928 -0.1677 -0.5803
  287TMC3    C5 4382   3.648   3.938   1.415  0.1238 -0.2456 -0.1315
  287TMC3    C6 4383   3.639   3.863   1.303  0.3826  0.1795  0.2074
  287TMC3     C 4384   3.307   4.080   1.453  0.2123 -0.1941 -0.1515
  287TMC3     O 4385   3.222   4.083   1.369  0.0935  0.1109  0.0380
  287TMC3     H 4386   3.300   3.888   1.268 -0.1942 -0.7641  0.1422
  287TMC3    H1 4387   3.560   4.074   1.552 -0.2016 -1.0160  0.0572
  287TMC3    H2 4388   3.723   3.846   1.236 -0.8040  0.2089 -1.2833
  287TMC3    C7 4389   3.778   3.973   1.475 -0.3338 -0.2372 -0.5407
  287TMC3    C8 4390   3.487   3.757   1.140  0.2135  0.4264 -0.4244
  287TMC3    O1 4391   3.782   4.084   1.526  0.8169  0.4418  0.2474
  287TMC3    O2 4392   3.379   3.768   1.084  0.1177 -0.5772 -0.3611
  288TMC3    C1 4393   0.345   3.965  14.220 -0.0270 -0.1381 -0.2772
  288TMC3    C2 4394   0.237   3.878  14.216 -0.1080  0.3497 -0.0283
  288TMC3    C3 4395   0.146   3.896  14.112 -0.0855 -0.6760  0.9093
  288TMC3    C4 4396   0.376   4.046  14.121  0.2100  0.1428  0.7200
  288TMC3    C5 4397   0.293   4.051  14.011  0.3661 -0.1599  0.8142
  288TMC3    C6 4398   0.178   3.983  14.010 -0.7790  0.4834 -0.1002
  288TMC3     C 4399   0.441   3.965  14.332 -0.2861  0.8902 -0.7577
  288TMC3     O 4400   0.552   4.011  14.314  0.1444  0.5539  0.1219
  288TMC3     H 4401   0.218   3.806  14.295  1.1433 -0.2880 -0.3136
  288TMC3    H1 4402   0.465   4.106  14.131 -0.2710  0.8919  0.5338
  288TMC3    H2 4403   0.104   4.003  13.934 -0.8288  1.8388  0.3186
  288TMC3    C7 4404   0.333   4.122  13.892  0.7410 -0.2345  0.8160
  288TMC3    C8 4405   0.010   3.885  14.159 -0.2870 -0.4669  0.5064
  288TMC3    O1 4406   0.454   4.142  13.885 -0.1081 -0.0469  0.3293
  288TMC3    O2 4407   4.691   3.994  14.144  0.3228 -0.9298 -0.4338
  289MPD2     C 4408   0.279   3.200  14.126  0.2148  0.2742 -0.3301
  289MPD2    C1 4409   0.283   3.338  14.138  0.2216 -0.3526  0.0546
  289MPD2    C2 4410   0.194   3.420  14.061 -0.3292  0.5872  0.1070
  289MPD2    C3 4411   0.114   3.354  13.966  0.1463  0.0624 -0.3926
  289MPD2    C4 4412   0.123   3.217  13.954 -0.2049 -0.5243  0.3763
  289MPD2    C5 4413   0.204   3.147  14.027 -0.3708 -0.1598  0.9846
  289MPD2     H 4414   0.194   3.528  14.067 -2.3183  0.7633 -2.7347
  289MPD2    H1 4415   0.061   3.158  13.888  0.7333 -1.5551  0.4171
  289MPD2    H2 4416   0.350   3.134  14.175  0.6745  1.1030  0.1182
  289MPD2    H3 4417   0.210   3.040  14.006 -0.2975  0.1687 -0.6978
  289MPD2     N 4418   0.009   3.410  13.890  0.4827 -0.2382  0.3910
  289MPD2    H5 4419   4.696   3.346  13.829 -0.8987 -1.6483  3.0130
  289MPD2    N1 4420   0.358   3.385  14.249 -0.2820  0.0763 -0.8051
  289MPD2    H7 4421   0.397   3.311  14.307  0.3393  1.2260  0.2492
  290TMC3    C1 4422   4.576   3.568  13.822 -0.6319 -0.6484 -0.1830
  290TMC3    C2 4423   4.527   3.694  13.808  0.3538 -0.0547 -0.1867
  290TMC3    C3 4424   4.405   3.707  13.747  0.3482  0.5098 -0.3161
  290TMC3    C4 4425   4.494   3.458  13.810  0.2679  0.0786  0.4640
  290TMC3    C5 4426   4.362   3.480  13.767  0.4025 -0.2874  0.8796
  290TMC3    C6 4427   4.325   3.605  13.727  0.0399  0.4583 -0.2294
  290TMC3     C 4428   4.699   3.541  13.895  0.3722 -0.3148  0.1109
  290TMC3     O 4429   4.731   3.640  13.950 -0.1093 -0.5192 -0.1999
  290TMC3     H 4430   4.587   3.782  13.825  2.4159 -1.7237  1.2296
  290TMC3    H1 4431   4.533   3.360  13.836  0.3213  0.3509  1.3723
  290TMC3    H2 4432   4.223   3.606  13.690  0.1604 -1.6197 -0.6692
  290TMC3    C7 4433   4.268   3.371  13.759 -0.0496  0.2554 -0.1362
  290TMC3    C8 4434   4.357   3.840  13.712  0.6798 -0.0795  0.3124
  290TMC3    O1 4435   4.157   3.397  13.705  0.5096  0.0918 -0.0779
  290TMC3    O2 4436   4.397   3.932  13.785  0.8803  0.4424 -0.6695
  291MPD2     C 4437   3.639   3.041  17.516 -0.4078  0.2788  0.0425
  291MPD2    C1 4438   3.585   3.007  17.636  1.5231 -0.4434  0.4164
  291MPD2    C2 4439   3.581   3.090   0.002  0.2756  0.4892 -0.0252
  291MPD2    C3 4440   3.640   3.213  17.736 -0.5928  0.4241  0.4244
  291MPD2    C4 4441   3.684   3.251  17.613 -0.1189 -0.1518  0.4617
  291MPD2    C5 4442   3.681   3.170  17.506 -0.0590  0.6496 -0.4055
  291MPD2     H 4443   3.532   3.059   0.094  0.1779  1.1606  0.1434
  291MPD2    H1 4444   3.724   3.348  17.587  2.6232 -1.6033 -0.7586
  291MPD2    H2 4445   3.650   2.988  17.423  2.0931 -1.0815  1.1246
  291MPD2    H3 4446   3.726   3.200  17.412  0.7247 -1.3583 -0.6747
  291MPD2     N 4447   3.655   3.303   0.097  0.0428 -0.3960  0.1260
  291MPD2    H5 4448   3.705   3.387   0.071 -1.2274 -0.0080 -1.0929
  291MPD2    N1 4449   3.514   2.884  17.648 -0.5972 -0.0695 -0.0217
  291MPD2    H7 4450   3.485   2.856  17.741 -0.1629 -1.2549 -0.2407
  292TMC3    C1 4451   3.446   2.667  17.608 -0.0037  0.0274  0.1818
  292TMC3    C2 4452   3.346   2.687  17.707 -0.4812 -0.0542 -0.5120
  292TMC3    C3 4453   3.324   2.581   0.042 -0.1860  0.6495 -0.2237
  292TMC3    C4 4454   3.523   2.555  17.598 -0.2280  0.6027 -0.8432
  292TMC3    C5 4455   3.501   2.464  17.691  0.0067  0.0996  0.1046
  292TMC3    C6 4456   3.406   2.467   0.040 -0.5248  0.4396 -1.0211
  292TMC3     C 4457   3.500   2.783  17.554 -0.7697  0.3970  0.1857
  292TMC3     O 4458   3.529   2.784  17.435 -0.0787 -0.3018  0.4333
  292TMC3     H 4459   3.289   2.778  17.720 -0.0001  0.0737  0.6992
  292TMC3    H1 4460   3.601   2.542  17.524 -0.2908  0.6500 -0.9175
  292TMC3    H2 4461   3.394   2.395   0.120  0.7801 -0.4402 -1.6148
  292TMC3    C7 4462   3.606   2.364  17.696  0.4121  0.0834 -0.2086
  292TMC3    C8 4463   3.224   2.599   0.141 -0.0646 -0.3260 -0.7053
  292TMC3    O1 4464   3.699   2.364  17.616  1.0019  0.4531 -0.0159
  292TMC3    O2 4465   3.179   2.714   0.150  0.5385  0.5583 -0.3851
  293MPD2     C 4466   0.991   4.264  12.239  0.9522 -0.2802  0.3117
  293MPD2    C1 4467   0.904   4.228  12.343  0.5409 -0.0983  0.3740
  293MPD2    C2 4468   0.932   4.261  12.476 -0.5318  0.5830  0.2995
  293MPD2    C3 4469   1.041   4.336  12.513  0.2340  0.2660  0.3167
  293MPD2    C4 4470   1.131   4.362  12.412 -0.5790 -0.5293 -0.6211
  293MPD2    C5 4471   1.094   4.340  12.276  0.1104 -0.2305  0.5436
  293MPD2     H 4472   0.868   4.234  12.560  0.3480 -0.0112  0.7738
  293MPD2    H1 4473   1.217   4.425  12.428  0.6513 -1.6672 -2.6614
  293MPD2    H2 4474   0.972   4.244  12.134  3.0533 -0.2035 -0.0773
  293MPD2    H3 4475   1.169   4.378  12.208 -1.2468  1.4436 -0.0111
  293MPD2     N 4476   1.069   4.383  12.643 -0.6868 -0.7070  0.1145
  293MPD2    H5 4477   1.025   4.346  12.727  0.6098  1.1093  1.5832
  293MPD2    N1 4478   0.787   4.166  12.296 -0.4293 -0.4478  0.7713
  293MPD2    H7 4479   0.781   4.164  12.194  2.1294  2.6181  0.5488
  294TMC3    C1 4480   0.568   4.084  12.272 -0.5048 -0.2246 -0.1719
  294TMC3    C2 4481   0.481   3.994  12.329 -0.1050  0.3525 -0.6346
  294TMC3    C3 4482   0.370   3.976  12.258  0.6949 -0.0291 -0.5139
  294TMC3    C4 4483   0.542   4.165  12.159  0.4566  0.1913  0.3675
  294TMC3    C5 4484   0.429   4.139  12.089  0.3588  0.2097 -0.7473
  294TMC3    C6 4485   0.340   4.042  12.139 -0.3221 -0.2397 -0.0092
  294TMC3     C 4486   0.675   4.127  12.364  0.3871 -0.1484 -1.1374
  294TMC3     O 4487   0.648   4.129  12.485  0.1228  0.2440 -0.2205
  294TMC3     H 4488   0.499   3.931  12.416  0.0279  1.5118  0.1815
  294TMC3    H1 4489   0.608   4.243  12.124 -0.2195  0.9605  0.7945
  294TMC3    H2 4490   0.247   4.015  12.090  0.2477  0.1292 -1.3063
  294TMC3    C7 4491   0.417   4.167  11.942 -0.4410 -0.0105  0.1700
  294TMC3    C8 4492   0.291   3.858  12.287 -0.3090 -0.1775 -0.5988
  294TMC3    O1 4493   0.307   4.158  11.897  0.3562  0.0205  0.3286
  294TMC3    O2 4494   0.250   3.848  12.402 -0.2066 -0.3092 -0.3526
  295MPD2     C 4495   2.096   2.972   0.577  0.1569  0.2026  0.3644
  295MPD2    C1 4496   1.980   2.987   0.647 -0.6864 -0.2529 -0.7488
  295MPD2    C2 4497   1.936   2.877   0.719  0.1318 -0.4389  0.1122
  295MPD2    C3 4498   2.001   2.759   0.733 -0.3618  0.8893  0.5802
  295MPD2    C4 4499   2.121   2.747   0.663 -0.2811  0.0857  0.1477
  295MPD2    C5 4500   2.166   2.853   0.591  0.5428  0.0527  0.1221
  295MPD2     H 4501   1.835   2.891   0.758  1.1907  0.8761  2.4328
  295MPD2    H1 4502   2.186   2.660   0.664  0.9945  1.0505  0.2587
  295MPD2    H2 4503   2.141   3.052   0.520  0.7478 -0.7388 -0.4821
  295MPD2    H3 4504   2.262   2.848   0.540  0.4044  2.0036 -0.3433
  295MPD2     N 4505   1.952   2.648   0.810  0.5257 -0.2588  0.2329
  295MPD2    H5 4506   1.990   2.556   0.791 -0.6455 -0.5245 -0.8205
  295MPD2    N1 4507   1.905   3.108   0.670 -0.5817  0.3960  0.3580
  295MPD2    H7 4508   1.821   3.099   0.726 -1.5583 -0.0155 -1.1718
  296TMC3    C1 4509   1.780   2.508   0.926  0.6464  0.0913  0.3668
  296TMC3    C2 4510   1.655   2.510   0.976 -0.4398 -0.0604  0.9889
  296TMC3    C3 4511   1.610   2.399   1.049 -0.2174  0.0240 -0.4854
  296TMC3    C4 4512   1.872   2.417   0.967 -0.2935 -0.1905 -0.0946
  296TMC3    C5 4513   1.822   2.300   1.028  0.4959  0.2290  0.2224
  296TMC3    C6 4514   1.694   2.293   1.069  0.0630 -0.8302 -0.0586
  296TMC3     C 4515   1.835   2.642   0.886  0.1989  0.2080 -0.5166
  296TMC3     O 4516   1.751   2.733   0.897  0.5543 -0.0005 -0.1814
  296TMC3     H 4517   1.588   2.592   0.956 -0.6966 -0.7372 -1.0099
  296TMC3    H1 4518   1.978   2.431   0.949 -0.3221  0.3331  0.1322
  296TMC3    H2 4519   1.658   2.207   1.124  1.2823  0.0850  2.1753
  296TMC3    C7 4520   1.921   2.197   1.054 -1.2654  0.3769 -0.0347
  296TMC3    C8 4521   1.476   2.398   1.108 -0.4311 -0.1526  0.3016
  296TMC3    O1 4522   2.029   2.216   1.002 -0.3112  0.5943 -0.0252
  296TMC3    O2 4523   1.439   2.297   1.170  0.6495 -0.1095 -0.3009
  297MPD2     C 4524   3.517   4.591  15.961 -0.8183  0.6744 -0.3112
  297MPD2    C1 4525   3.502   4.709  15.899 -0.2937 -0.6292 -0.2192
  297MPD2    C2 4526   3.606   0.067  15.914  0.0014  0.4881  0.2336
  297MPD2    C3 4527   3.724   0.037  15.977 -0.0551 -0.2709  0.4565
  297MPD2    C4 4528   3.736   4.651  16.033  0.5249 -0.0202  1.0087
  297MPD2    C5 4529   3.630   4.564  16.028  0.6612  0.0812  0.1259
  297MPD2     H 4530   3.593   0.169  15.880 -1.6876  0.4072  0.6265
  297MPD2    H1 4531   3.821   4.628  16.096 -0.1493  1.2756  2.3926
  297MPD2    H2 4532   3.439   4.516  15.968 -2.0415  1.9500 -0.2103
  297MPD2    H3 4533   3.636   4.468  16.077  2.3023  0.2588  0.2751
  297MPD2     N 4534   3.826   0.134  15.988  0.5058  0.2709  0.0727
  297MPD2    H5 4535   3.807   0.220  15.938 -0.9599 -0.0272  0.0891
  297MPD2    N1 4536   3.393   0.006  15.817 -0.3331 -0.0630  0.6827
  297MPD2    H7 4537   3.391   0.102  15.783 -1.1216  0.1220  1.2485
  298TMC3    C1 4538   3.195   0.015  15.705  0.1808  0.1448 -0.0172
  298TMC3    C2 4539   3.167   4.716  15.578  0.3369  0.2452  1.0211
  298TMC3    C3 4540   3.112   0.075  15.496  0.3779  0.5710 -0.8573
  298TMC3    C4 4541   3.165   0.138  15.753  0.3469  0.6032 -0.1503
  298TMC3    C5 4542   3.115   0.233  15.668  0.2913  0.6047 -0.2247
  298TMC3    C6 4543   3.085   0.203  15.538  0.1749 -0.8269 -0.2089
  298TMC3     C 4544   3.287   4.674  15.779  0.3766 -0.5027  0.5004
  298TMC3     O 4545   3.269   4.554  15.784 -0.1686 -0.2803 -0.4678
  298TMC3     H 4546   3.188   4.619  15.533  1.2404  0.1565  1.6357
  298TMC3    H1 4547   3.183   0.163  15.857 -3.4062 -1.7053  1.0334
  298TMC3    H2 4548   3.050   0.280  15.470 -1.3428 -0.9119  0.4801
  298TMC3    C7 4549   3.066   0.353  15.742  0.3348 -0.3103 -0.2628
  298TMC3    C8 4550   3.129   0.055  15.352  0.3750  0.6359 -0.5319
  298TMC3    O1 4551   3.091   0.354  15.863 -0.0881  0.0203 -0.4193
  298TMC3    O2 4552   3.210   4.707  15.311 -0.1789 -0.0269 -0.3360
  299MPD2     C 4553   3.820   4.340  10.784 -0.2714 -0.2053  0.5535
  299MPD2    C1 4554   3.810   4.423  10.676  0.0226 -0.1944 -0.5627
  299MPD2    C2 4555   3.705   4.406  10.586 -0.6295  0.0714  0.7465
  299MPD2    C3 4556   3.618   4.301  10.601 -0.8788  0.2021 -0.4981
  299MPD2    C4 4557   3.632   4.217  10.711 -0.5903  0.8678  0.1309
  299MPD2    C5 4558   3.727   4.236  10.804 -0.1386 -0.1684  0.1598
  299MPD2     H 4559   3.710   4.466  10.496 -2.2574 -1.3873 -0.3184
  299MPD2    H1 4560   3.566   4.131  10.724  0.6742  0.2770  2.6060
  299MPD2    H2 4561   3.891   4.356  10.864  0.0969 -3.3935  0.8905
  299MPD2    H3 4562   3.726   4.168  10.889 -1.5449 -0.7413 -0.3174
  299MPD2     N 4563   3.495   4.290  10.517 -0.4409 -0.2369  0.1973
  299MPD2    H5 4564   3.418   4.227  10.536  1.5104 -1.7470  3.1595
  299MPD2    N1 4565   3.900   4.537  10.679 -0.0239 -0.2641  0.2821
  299MPD2    H7 4566   3.978   4.528  10.744  0.6082  1.0499 -0.3008
  300TMC3    C1 4567   3.344   4.367  10.349  0.5696  0.4082 -0.3237
  300TMC3    C2 4568   3.343   4.420  10.222  0.2014 -0.4530 -1.0442
  300TMC3    C3 4569   3.230   4.471  10.176 -0.4327 -0.0868 -0.6000
  300TMC3    C4 4570   3.238   4.374  10.431 -0.4687  0.2168  0.5606
  300TMC3    C5 4571   3.125   4.425  10.380  1.1664  0.4698 -0.2386
  300TMC3    C6 4572   3.113   4.474  10.247  0.3551 -0.4182  0.0004
  300TMC3     C 4573   3.484   4.375  10.404  0.6851 -0.3688 -0.6482
  300TMC3     O 4574   3.569   4.438  10.340  0.0369 -0.1514 -0.5645
  300TMC3     H 4575   3.438   4.432  10.170  0.7272 -2.5475 -0.5708
  300TMC3    H1 4576   3.252   4.329  10.528  1.0986 -1.2897 -0.3586
  300TMC3    H2 4577   3.030   4.536  10.215  1.9154  0.4403 -2.3900
  300TMC3    C7 4578   3.017   4.431  10.482 -0.2881  0.4353 -0.3805
  300TMC3    C8 4579   3.245   4.582  10.087 -0.2268 -0.0615 -0.3236
  300TMC3    O1 4580   3.034   4.358  10.580 -0.5563  0.0789  0.6178
  300TMC3    O2 4581   3.166   4.676  10.104 -0.1926 -0.1521  0.2672
  301MPD2     C 4582   1.860   1.742   0.936  0.0146  0.2325  0.0323
  301MPD2    C1 4583   1.741   1.678   0.967  0.0943 -0.0175 -0.1304
  301MPD2    C2 4584   1.730   1.536   0.949  0.1375 -0.4454 -0.5759
  301MPD2    C3 4585   1.843   1.468   0.896 -0.5501  0.2370  0.7188
  301MPD2    C4 4586   1.954   1.541   0.864  0.6972  0.7308  0.1675
  301MPD2    C5 4587   1.965   1.676   0.893 -0.0101  0.0809  0.0229
  301MPD2     H 4588   1.647   1.489   0.998  0.1624 -0.3357 -0.4286
  301MPD2    H1 4589   2.042   1.493   0.823  0.6689  0.6433  0.2080
  301MPD2    H2 4590   1.865   1.847   0.965  1.0875  0.5239 -1.2339
  301MPD2    H3 4591   2.062   1.724   0.883  0.0825 -0.3735 -1.2155
  301MPD2     N 4592   1.850   1.324   0.877 -0.2567 -0.5673 -0.0908
  301MPD2    H5 4593   1.938   1.284   0.847 -0.4204 -1.1595  0.2120
  301MPD2    N1 4594   1.623   1.747   0.991 -0.2446 -0.0439 -0.5055
  301MPD2    H7 4595   1.542   1.688   1.010 -1.0737  1.3242  0.1875
  302TMC3    C1 4596   1.763   1.116   0.810 -0.3711  0.1268  0.0548
  302TMC3    C2 4597   1.847   1.037   0.881  0.5311 -0.1779  0.1416
  302TMC3    C3 4598   1.865   0.903   0.832  0.4158 -0.1790  0.2787
  302TMC3    C4 4599   1.689   1.073   0.705 -0.4801  0.9066  0.2403
  302TMC3    C5 4600   1.700   0.937   0.668  0.0687  0.1069  0.2914
  302TMC3    C6 4601   1.792   0.855   0.728 -1.1767  0.0972  0.7047
  302TMC3     C 4602   1.735   1.247   0.866  0.4492  0.7930 -0.1002
  302TMC3     O 4603   1.621   1.286   0.891  0.0406 -0.3149 -0.1153
  302TMC3     H 4604   1.906   1.072   0.965 -1.0535  0.4280  0.9954
  302TMC3    H1 4605   1.635   1.155   0.658  0.7243  2.2122  1.1124
  302TMC3    H2 4606   1.798   0.752   0.694 -0.7193  0.3665 -0.0108
  302TMC3    C7 4607   1.613   0.886   0.571  0.0518  0.3735  0.3399
  302TMC3    C8 4608   1.941   0.804   0.909  0.4929  0.3447  0.7486
  302TMC3    O1 4609   1.641   0.777   0.529 -0.1756  0.0920  0.3203
  302TMC3    O2 4610   1.965   0.698   0.850 -0.0505 -0.0998  0.1899
  303MPD2     C 4611   0.953   4.637  10.708  0.0550 -0.2212 -0.6530
  303MPD2    C1 4612   0.979   4.527  10.636  0.1336 -0.0845 -0.2629
  303MPD2    C2 4613   0.960   4.526  10.499 -0.3654 -0.6940 -0.4218
  303MPD2    C3 4614   0.926   4.652  10.437 -0.2429  0.7060 -0.4577
  303MPD2    C4 4615   0.913   0.030  10.512 -0.8812  0.1080  0.5041
  303MPD2    C5 4616   0.928   0.025  10.650  0.1908 -0.7098 -0.3163
  303MPD2     H 4617   0.960   4.433  10.444  0.3334 -2.1854  2.1194
  303MPD2    H1 4618   0.891   0.128  10.472  1.5725  0.1515 -0.7548
  303MPD2    H2 4619   0.964   4.633  10.816  0.0834 -0.1320 -0.6524
  303MPD2    H3 4620   0.912   0.113  10.711 -0.3514  0.4130 -2.0928
  303MPD2     N 4621   0.913   4.669  10.298  0.2087 -1.0292 -0.1346
  303MPD2    H5 4622   0.922   0.024  10.258  1.7154 -1.4459 -0.7726
  303MPD2    N1 4623   0.987   4.407  10.710  0.4554 -0.1174  0.5947
  303MPD2    H7 4624   0.981   4.414  10.811 -0.5840  0.2618  0.5147
  304TMC3    C1 4625   0.968   4.175  10.754 -0.0540  0.3351  0.4652
  304TMC3    C2 4626   0.841   4.196  10.810  0.4394 -0.7968 -0.3628
  304TMC3    C3 4627   0.760   4.091  10.831 -0.6122 -0.2583  0.2725
  304TMC3    C4 4628   1.005   4.049  10.705 -0.0097  0.1710 -0.0890
  304TMC3    C5 4629   0.912   3.948  10.724 -1.2242  0.1592 -0.2325
  304TMC3    C6 4630   0.801   3.963  10.803  0.2157  0.9261  0.1951
  304TMC3     C 4631   0.999   4.280  10.656 -0.0734 -1.0504  0.6064
  304TMC3     O 4632   0.993   4.237  10.543 -0.5779 -0.1815  0.2323
  304TMC3     H 4633   0.794   4.293  10.799 -0.9936 -1.3905  0.4629
  304TMC3    H1 4634   1.092   4.034  10.642  0.6956 -1.7510  1.3150
  304TMC3    H2 4635   0.733   3.880  10.820 -0.2037  1.0030 -1.1875
  304TMC3    C7 4636   0.890   3.860  10.612  0.2319  0.9696  0.3351
  304TMC3    C8 4637   0.624   4.119  10.778  0.4555  0.8798 -0.5863
  304TMC3    O1 4638   0.773   3.818  10.594  0.6064  0.3784 -0.1640
  304TMC3    O2 4639   0.549   4.197  10.836 -0.1337  0.0787  0.2613
  305MPD2     C 4640   0.280   2.085  14.066  0.3965  0.8196 -0.9046
  305MPD2    C1 4641   0.247   1.953  14.061  0.3110  1.0290  0.6740
  305MPD2    C2 4642   0.216   1.895  13.939  0.2238 -0.1174  0.3525
  305MPD2    C3 4643   0.204   1.980  13.825  0.0270 -0.5064 -0.4405
  305MPD2    C4 4644   0.229   2.119  13.838  0.1582 -0.2527 -0.3299
  305MPD2    C5 4645   0.254   2.174  13.960 -0.4749 -0.1323 -0.6191
  305MPD2     H 4646   0.200   1.788  13.934 -3.1709  0.3810  0.3349
  305MPD2    H1 4647   0.219   2.189  13.756  1.4622  0.5489  0.1936
  305MPD2    H2 4648   0.314   2.122  14.162 -0.0491  0.4885 -0.6157
  305MPD2    H3 4649   0.276   2.279  13.975  3.6320 -0.8948 -1.2661
  305MPD2     N 4650   0.186   1.932  13.690 -0.2697 -0.1398 -0.4455
  305MPD2    H5 4651   0.196   2.006  13.622 -0.7869 -0.1755 -0.5568
  305MPD2    N1 4652   0.250   1.882  14.188  0.4547  0.3544 -0.5059
  305MPD2    H7 4653   0.290   1.936  14.264  0.5037  0.4324 -0.5864
  306TMC3    C1 4654   0.270   1.713  14.344  0.1088  0.3096 -0.5252
  306TMC3    C2 4655   0.326   1.590  14.363  0.0467  0.0512  0.2520
  306TMC3    C3 4656   0.346   1.549  14.488  0.0314 -0.0859 -0.5699
  306TMC3    C4 4657   0.226   1.793  14.444  0.1254 -0.8728 -0.1879
  306TMC3    C5 4658   0.260   1.757  14.569  0.2730 -0.0993  0.1964
  306TMC3    C6 4659   0.321   1.643  14.593 -0.0681  0.4631 -0.0245
  306TMC3     C 4660   0.238   1.748  14.207 -0.6251  0.5033  0.2107
  306TMC3     O 4661   0.235   1.659  14.124 -0.4899  0.2248  0.1716
  306TMC3     H 4662   0.348   1.526  14.278  0.1092 -1.0583  1.1016
  306TMC3    H1 4663   0.164   1.880  14.421  0.5999 -1.1889 -2.7216
  306TMC3    H2 4664   0.338   1.614  14.696 -0.4498 -0.6232 -0.2646
  306TMC3    C7 4665   0.201   1.826  14.681 -0.3189 -0.5826  0.4765
  306TMC3    C8 4666   0.375   1.412  14.510 -0.4336  0.0695 -0.8125
  306TMC3    O1 4667   0.101   1.894  14.667 -0.4462  0.0302  0.3830
  306TMC3    O2 4668   0.333   1.332  14.429  0.0448  0.2498 -0.1290
  307MPD2     C 4669   2.357   4.243   0.345 -0.4958 -0.1795  0.0059
  307MPD2    C1 4670   2.337   4.371   0.292  0.0576 -0.2996 -0.5031
  307MPD2    C2 4671   2.285   4.463   0.389  0.6648  0.2583  0.2920
  307MPD2    C3 4672   2.254   4.427   0.523 -0.1363  0.6036  0.6852
  307MPD2    C4 4673   2.285   4.304   0.566 -0.0653  0.0779 -0.2474
  307MPD2    C5 4674   2.335   4.214   0.476  0.1005 -0.3729  0.2443
  307MPD2     H 4675   2.261   4.564   0.359  1.1526  0.6876  1.3432
  307MPD2    H1 4676   2.274   4.269   0.668  2.1598  1.3213  0.4191
  307MPD2    H2 4677   2.394   4.160   0.286  0.0718 -0.5342  0.8674
  307MPD2    H3 4678   2.357   4.118   0.520  2.9898 -0.7444 -1.9167
  307MPD2     N 4679   2.201   4.523   0.613  0.4937 -0.2551 -0.6593
  307MPD2    H5 4680   2.207   4.619   0.580  2.4407 -0.1823 -0.1321
  307MPD2    N1 4681   2.368   4.408   0.156  0.3548  0.3075 -0.4094
  307MPD2    H7 4682   2.375   4.506   0.129 -0.5413  0.4672 -0.0736
  308TMC3    C1 4683   1.883   4.718   0.874 -0.0929 -0.4111 -0.9036
  308TMC3    C2 4684   1.940   0.104   0.855 -0.3507 -0.6830  0.0898
  308TMC3    C3 4685   2.063   0.104   0.804  0.6204 -0.5272  0.0188
  308TMC3    C4 4686   1.947   4.600   0.838  0.3507  0.0497 -0.5042
  308TMC3    C5 4687   2.071   4.617   0.776  0.6468  0.4216 -0.1076
  308TMC3    C6 4688   2.128   4.735   0.760  0.5475  0.8240  0.0341
  308TMC3     C 4689   1.740   4.703   0.872  0.1567  0.2271  0.4541
  308TMC3     O 4690   1.698   4.587   0.879  0.4154  0.8433 -0.4501
  308TMC3     H 4691   1.896   0.194   0.895  1.1857 -0.5042  1.3374
  308TMC3    H1 4692   1.902   4.502   0.843  0.5129 -0.0912 -1.8871
  308TMC3    H2 4693   2.232   0.009   0.732  0.3197 -1.7756 -1.8207
  308TMC3    C7 4694   2.126   4.492   0.725  0.3057  0.0122  0.4438
  308TMC3    C8 4695   2.132   0.231   0.836 -0.6805 -0.0229  0.2479
  308TMC3    O1 4696   2.099   4.386   0.777 -1.1160 -0.6018  0.0613
  308TMC3    O2 4697   2.095   0.300   0.930  0.3293 -0.9483 -0.0455
  309MPD2     C 4698   1.418   0.379  17.406  0.3965 -0.2968  0.2727
  309MPD2    C1 4699   1.363   0.357  17.279 -0.1312  0.1598 -0.2276
  309MPD2    C2 4700   1.229   0.342  17.264  0.2933 -1.5947  0.1925
  309MPD2    C3 4701   1.147   0.362  17.369  0.0904  0.2039 -0.0708
  309MPD2    C4 4702   1.196   0.378  17.492 -0.4011 -0.2231 -0.2822
  309MPD2    C5 4703   1.335   0.390  17.512  0.3628  0.1673  0.8588
  309MPD2     H 4704   1.198   0.319  17.162 -1.6507 -0.0538  0.4337
  309MPD2    H1 4705   1.131   0.403  17.575 -2.9100 -0.6881 -2.0945
  309MPD2    H2 4706   1.523   0.388  17.433  0.4178  1.9723 -0.5428
  309MPD2    H3 4707   1.363   0.413  17.614 -0.8701  2.2509  0.7377
  309MPD2     N 4708   1.006   0.352  17.357 -0.0666  0.4327  0.0002
  309MPD2    H5 4709   0.944   0.356  17.438 -0.6370  1.9336 -0.5070
  309MPD2    N1 4710   1.447   0.343  17.166  0.4690 -0.2805  0.3349
  309MPD2    H7 4711   1.401   0.330  17.077  1.6868  1.6096 -0.5717
  310TMC3    C1 4712   1.645   0.323  17.032  0.0359  0.5540  0.0643
  310TMC3    C2 4713   1.570   0.364  16.923  0.5386  0.2325 -0.3761
  310TMC3    C3 4714   1.623   0.333  16.799 -0.2984  0.2055 -0.5127
  310TMC3    C4 4715   1.755   0.249  17.021  0.0291 -0.2667 -0.2566
  310TMC3    C5 4716   1.807   0.225  16.897  0.9495 -0.2663 -0.2723
  310TMC3    C6 4717   1.738   0.259  16.784  0.1972 -0.3265  0.2053
  310TMC3     C 4718   1.584   0.339  17.161  0.5047 -0.6713 -0.9071
  310TMC3     O 4719   1.666   0.327  17.250  0.7783  0.1107  0.1114
  310TMC3     H 4720   1.492   0.439  16.927  1.1902  1.0123 -2.1188
  310TMC3    H1 4721   1.811   0.213  17.106  2.5272 -0.0321 -1.8150
  310TMC3    H2 4722   1.767   0.213  16.690  1.6153 -0.4727  0.7116
  310TMC3    C7 4723   1.914   0.128  16.900 -0.5352 -0.5586 -0.0074
  310TMC3    C8 4724   1.547   0.378  16.679 -0.2093  0.1538  0.5373
  310TMC3    O1 4725   1.909   0.046  16.989 -0.4365 -0.0344 -0.0197
  310TMC3    O2 4726   1.604   0.372  16.574 -0.6465  0.6148  0.5200
  311MPD2     C 4727   3.716   1.519  12.535  0.1877  0.0664  0.3168
  311MPD2    C1 4728   3.694   1.619  12.633 -0.2062  0.2034 -0.1881
  311MPD2    C2 4729   3.584   1.597  12.712 -0.2419  0.2044  0.2326
  311MPD2    C3 4730   3.488   1.496  12.700  0.7670 -0.1523  0.3289
  311MPD2    C4 4731   3.510   1.398  12.603 -0.0353  0.9853 -0.8161
  311MPD2    C5 4732   3.628   1.405  12.527 -0.1826 -0.3902 -0.2535
  311MPD2     H 4733   3.560   1.673  12.786  1.1455 -1.0947  2.0250
  311MPD2    H1 4734   3.439   1.319  12.582  1.4989 -0.4079 -0.7796
  311MPD2    H2 4735   3.803   1.512  12.470  0.9916 -0.0182  1.3872
  311MPD2    H3 4736   3.650   1.331  12.451 -1.9722 -0.3669 -0.7780
  311MPD2     N 4737   3.365   1.510  12.762  0.7943  0.4895 -0.1528
  311MPD2    H5 4738   3.354   1.592  12.820 -0.4427  1.3581 -1.6239
  311MPD2    N1 4739   3.794   1.719  12.663  1.0218  0.3743 -0.1411
  311MPD2    H7 4740   3.789   1.775  12.747  0.1009  0.0213  0.0382
  312TMC3    C1 4741   3.154   1.466  12.852 -0.2401 -0.6980 -0.0571
  312TMC3    C2 4742   3.032   1.403  12.822  0.4785 -0.3488 -0.2077
  312TMC3    C3 4743   2.920   1.450  12.882  0.3889 -0.4079  0.3644
  312TMC3    C4 4744   3.167   1.578  12.932  0.4554 -0.2221  0.1788
  312TMC3    C5 4745   3.044   1.627  12.977  0.5730  0.9804  0.0179
  312TMC3    C6 4746   2.922   1.561  12.957  0.1529 -0.9149 -0.1206
  312TMC3     C 4747   3.272   1.410  12.779  0.2318  0.2478 -0.1624
  312TMC3     O 4748   3.275   1.292  12.766  0.1617 -0.2707  0.1805
  312TMC3     H 4749   3.022   1.325  12.746 -1.3838 -0.5913  0.2922
  312TMC3    H1 4750   3.256   1.639  12.935  0.4116 -0.1529  0.0805
  312TMC3    H2 4751   2.842   1.601  13.018  1.6962 -0.4965  1.6118
  312TMC3    C7 4752   3.035   1.742  13.068 -0.0929 -0.3962 -0.2983
  312TMC3    C8 4753   2.799   1.400  12.831 -0.6904 -0.2772  0.6690
  312TMC3    O1 4754   2.933   1.806  13.060  0.1855  0.5252 -0.0010
  312TMC3    O2 4755   2.795   1.282  12.799 -0.3015 -0.0254 -0.0243
  313MPD2     C 4756   2.710   0.442  10.439  0.0345  0.6227  0.1244
  313MPD2    C1 4757   2.597   0.515  10.456  0.4401  0.0452 -0.0131
  313MPD2    C2 4758   2.477   0.450  10.430 -0.4038  0.5366 -0.2131
  313MPD2    C3 4759   2.464   0.313  10.409 -1.0654  0.1051 -0.2044
  313MPD2    C4 4760   2.581   0.248  10.386  0.0603  0.0120 -0.1357
  313MPD2    C5 4761   2.704   0.314  10.394  0.4116 -0.1787 -0.0370
  313MPD2     H 4762   2.387   0.508  10.450 -0.4290  1.3710 -2.6840
  313MPD2    H1 4763   2.587   0.141  10.372 -0.1085  0.1796 -1.4953
  313MPD2    H2 4764   2.810   0.483  10.447  0.7578 -1.4614  1.8675
  313MPD2    H3 4765   2.795   0.263  10.364  0.5186  0.0451 -0.1003
  313MPD2     N 4766   2.332   0.253  10.415  0.0582 -0.3905  0.0055
  313MPD2    H5 4767   2.249   0.303  10.447  1.1077  1.1491  0.3316
  313MPD2    N1 4768   2.600   0.642  10.517  0.4125  0.4379  0.2359
  313MPD2    H7 4769   2.505   0.670  10.538  0.8691  1.9978  0.2437
  314TMC3    C1 4770   2.663   0.855  10.595  0.0268 -0.2380 -0.3934
  314TMC3    C2 4771   2.770   0.919  10.656  0.2914  0.2205  0.2608
  314TMC3    C3 4772   2.739   1.013  10.751  0.3434  0.1715  0.1465
  314TMC3    C4 4773   2.534   0.890  10.621 -0.3050 -0.3902 -0.4784
  314TMC3    C5 4774   2.504   0.994  10.713 -0.1272  0.7322 -0.1399
  314TMC3    C6 4775   2.608   1.054  10.777  0.7322  0.4203 -0.1834
  314TMC3     C 4776   2.704   0.727  10.528  0.2909 -0.4694  0.4069
  314TMC3     O 4777   2.822   0.709  10.499 -0.0874 -0.3951 -0.3883
  314TMC3     H 4778   2.870   0.881  10.635  1.4518  1.2535  3.9228
  314TMC3    H1 4779   2.453   0.858  10.557  0.4032 -0.6166 -1.2525
  314TMC3    H2 4780   2.588   1.136  10.845 -0.9475 -0.1896  0.0570
  314TMC3    C7 4781   2.390   1.076  10.693 -0.1180  0.2620 -0.4445
  314TMC3    C8 4782   2.835   1.112  10.785 -0.2027 -0.0611 -0.0615
  314TMC3    O1 4783   2.355   1.160  10.774  0.0940 -0.6874 -0.1025
  314TMC3    O2 4784   2.808   1.197  10.868  0.5701  0.0292  0.3724
  315MPD2     C 4785   2.637   4.150  17.360 -0.3148 -0.0739 -0.5049
  315MPD2    C1 4786   2.701   4.226  17.458 -0.4869 -0.1097 -0.1654
  315MPD2    C2 4787   2.765   4.348  17.426 -0.6209 -0.0154 -0.5575
  315MPD2    C3 4788   2.759   4.397  17.293 -0.0551 -0.3148 -0.2545
  315MPD2    C4 4789   2.689   4.326  17.201 -0.7788 -0.3726  0.4123
  315MPD2    C5 4790   2.634   4.208  17.238  0.0287 -0.3897 -0.1112
  315MPD2     H 4791   2.836   4.394  17.494  2.2061 -2.0521 -2.1592
  315MPD2    H1 4792   2.684   4.349  17.096 -0.4230 -1.7917  0.0767
  315MPD2    H2 4793   2.591   4.053  17.371 -0.3646  0.2290  1.8708
  315MPD2    H3 4794   2.584   4.156  17.156 -1.5400  2.0803 -0.7300
  315MPD2     N 4795   2.841   4.505  17.265  0.0120 -0.3658  0.2360
  315MPD2    H5 4796   2.892   4.533  17.348  0.9146 -0.6269 -0.2321
  315MPD2    N1 4797   2.713   4.191  17.595 -0.0155  0.2183 -0.7779
  315MPD2    H7 4798   2.762   4.257  17.655 -2.1792  0.0933  1.1183
  316TMC3    C1 4799   2.891   4.713  17.159 -0.1092  0.5095 -0.5077
  316TMC3    C2 4800   2.979   0.015  17.256 -0.6299 -0.4218  0.1852
  316TMC3    C3 4801   3.010   0.148  17.279  0.0638 -0.1940  0.7599
  316TMC3    C4 4802   2.849   0.072  17.069 -0.1459 -0.0362  0.1263
  316TMC3    C5 4803   2.870   0.203  17.091  0.2590  0.1764  0.2601
  316TMC3    C6 4804   2.942   0.243  17.206 -0.3190 -0.6496 -0.2408
  316TMC3     C 4805   2.842   4.573  17.143  0.8821  0.2905 -0.4843
  316TMC3     O 4806   2.763   4.556  17.051 -0.8929  0.0096 -0.2831
  316TMC3     H 4807   3.043   4.677  17.300  0.7979  0.2093 -0.8178
  316TMC3    H1 4808   2.782   0.041  16.989 -0.3610 -2.1193  1.0914
  316TMC3    H2 4809   2.981   0.343  17.213 -0.6745 -0.3439 -2.5055
  316TMC3    C7 4810   2.880   0.275  16.962 -0.1593 -0.4544 -0.3072
  316TMC3    C8 4811   3.114   0.196  17.371 -0.1512  0.4357 -0.3311
  316TMC3    O1 4812   2.829   0.389  16.956  0.1488 -0.3434  0.6646
  316TMC3    O2 4813   3.164   0.307  17.345  0.5470 -0.3691  0.2154
  317MPD2     C 4814   0.059   3.440  12.975 -0.6632 -0.3329 -0.1379
  317MPD2    C1 4815   0.100   3.318  12.929  0.6874 -0.5698  0.6260
  317MPD2    C2 4816   0.200   3.251  13.002 -0.0881 -0.5336 -0.1707
  317MPD2    C3 4817   0.256   3.305  13.119 -0.2767  0.6809  0.1605
  317MPD2    C4 4818   0.207   3.426  13.162  1.1178 -0.4186  0.6638
  317MPD2    C5 4819   0.109   3.491  13.093  0.2036 -0.5645 -0.4152
  317MPD2     H 4820   0.233   3.161  12.952  0.8463  0.4892 -1.3992
  317MPD2    H1 4821   0.233   3.465  13.260  0.5069  0.5161  0.4545
  317MPD2    H2 4822   0.001   3.505  12.911 -0.1456 -0.4517 -0.7296
  317MPD2    H3 4823   0.071   3.580  13.144  3.3085 -1.0919  2.8152
  317MPD2     N 4824   0.372   3.249  13.183 -0.1472 -0.3970  0.1508
  317MPD2    H5 4825   0.401   3.160  13.143  0.6773 -0.3414  0.6256
  317MPD2    N1 4826   0.056   3.262  12.805  0.0771 -0.5281 -0.3590
  317MPD2    H7 4827   0.101   3.174  12.780 -2.8388 -2.0440 -0.1826
  318TMC3    C1 4828   0.561   3.201  13.322  0.7446 -0.1249 -0.2000
  318TMC3    C2 4829   0.549   3.077  13.265 -0.3324  0.2655 -0.0568
  318TMC3    C3 4830   0.551   2.965  13.345 -0.1311  0.7492 -0.3625
  318TMC3    C4 4831   0.591   3.202  13.452  0.4113  0.5051 -0.7577
  318TMC3    C5 4832   0.623   3.087  13.523 -0.4006 -0.1457  0.1564
  318TMC3    C6 4833   0.598   2.969  13.474  0.0910  0.1441  1.0275
  318TMC3     C 4834   0.451   3.293  13.289 -0.4091  0.8170  0.2364
  318TMC3     O 4835   0.446   3.402  13.350 -0.5093 -0.3571  0.2694
  318TMC3     H 4836   0.556   3.086  13.157  1.6119  0.7794  0.1061
  318TMC3    H1 4837   0.602   3.303  13.489  2.1759  0.0309  0.0134
  318TMC3    H2 4838   0.601   2.875  13.529 -0.1803 -0.9962 -0.9196
  318TMC3    C7 4839   0.691   3.099  13.654 -0.0668 -0.2500  0.0561
  318TMC3    C8 4840   0.514   2.835  13.283  0.4028  0.0837 -0.5108
  318TMC3    O1 4841   0.696   3.211  13.698  0.5345  0.3729  0.3210
  318TMC3    O2 4842   0.530   2.725  13.336 -0.3350 -0.2114  0.0551
  319MPD2     C 4843   0.687   3.893  16.977  0.4065  0.3685 -0.6283
  319MPD2    C1 4844   0.652   4.009  16.914 -0.2301  0.4696 -1.1454
  319MPD2    C2 4845   0.644   4.009  16.774 -0.6141  0.3337  0.5115
  319MPD2    C3 4846   0.678   3.896  16.701 -0.1162  0.5787 -0.1696
  319MPD2    C4 4847   0.718   3.784  16.771 -0.5209  0.4319 -0.7536
  319MPD2    C5 4848   0.731   3.783  16.904 -0.2602 -0.6369 -0.4828
  319MPD2     H 4849   0.610   4.096  16.720  2.0569 -1.1560 -3.5168
  319MPD2    H1 4850   0.756   3.701  16.712  0.0915 -0.3482  0.7094
  319MPD2    H2 4851   0.695   3.887  17.085  1.4362  0.9613 -0.6780
  319MPD2    H3 4852   0.776   3.698  16.954 -1.0048  0.0290  1.3412
  319MPD2     N 4853   0.689   3.888  16.564 -0.2053  0.2488 -0.5171
  319MPD2    H5 4854   0.741   3.809  16.527 -2.7371 -1.8088  0.3624
  319MPD2    N1 4855   0.620   4.135  16.983 -0.1267 -0.2291 -0.2752
  319MPD2    H7 4856   0.581   4.212  16.929  0.3468 -0.6896 -1.2798
  320TMC3    C1 4857   0.637   3.937  16.341  0.5463  0.2867 -0.9001
  320TMC3    C2 4858   0.597   4.031  16.249 -0.3191 -0.1824  0.3271
  320TMC3    C3 4859   0.529   3.991  16.134  0.0351 -0.3692 -0.3325
  320TMC3    C4 4860   0.617   3.805  16.316  0.3207  0.5206  0.5678
  320TMC3    C5 4861   0.542   3.771  16.204 -0.7224 -0.3761 -0.0525
  320TMC3    C6 4862   0.488   3.859  16.119  0.7757  0.2828 -0.8437
  320TMC3     C 4863   0.643   3.985  16.477  0.3032  0.0815  0.4028
  320TMC3     O 4864   0.585   4.091  16.491  0.2043  0.5429 -0.0747
  320TMC3     H 4865   0.622   4.135  16.268 -1.7290  0.2887 -0.3936
  320TMC3    H1 4866   0.651   3.728  16.385  0.7991  0.2123 -0.0180
  320TMC3    H2 4867   0.409   3.834  16.048  0.5111 -1.0009 -0.0929
  320TMC3    C7 4868   0.521   3.630  16.168 -0.1135 -0.1725  0.9053
  320TMC3    C8 4869   0.489   4.095  16.038  0.0525 -0.5190 -0.1509
  320TMC3    O1 4870   0.486   3.620  16.049  0.2311 -0.1693 -0.1925
  320TMC3    O2 4871   0.518   4.207  16.071  0.5191 -0.3618 -0.1635
  321TMC3    C1 4872   0.639   4.286  17.152  0.2554  0.1242 -0.1262
  321TMC3    C2 4873   0.643   4.316  17.287  0.3087 -0.3759 -0.5119
  321TMC3    C3 4874   0.691   4.438  17.331 -0.3209  0.3684 -0.2889
  321TMC3    C4 4875   0.709   4.361  17.061  0.0323 -0.9759  0.3992
  321TMC3    C5 4876   0.774   4.469  17.108 -0.4173 -0.0232 -0.1285
  321TMC3    C6 4877   0.757   4.514  17.239 -0.0857  0.2834 -0.6256
  321TMC3     C 4878   0.644   4.149  17.118  0.2212  0.3612  0.4480
  321TMC3     O 4879   0.706   4.077  17.194  0.4754 -0.2074 -0.7929
  321TMC3     H 4880   0.608   4.238  17.352 -2.0109  0.6788 -0.4991
  321TMC3    H1 4881   0.731   4.332  16.959 -0.1656 -0.7551  0.2938
  321TMC3    H2 4882   0.817   4.599  17.269  1.3662 -0.8513 -0.3456
  321TMC3    C7 4883   0.917   4.471  17.072  0.0577  0.0803  0.0830
  321TMC3    C8 4884   0.768   4.439  17.457  1.1214 -0.3694  0.2090
  321TMC3    O1 4885   0.933   4.435  16.957  0.4882  0.0299 -0.1066
  321TMC3    O2 4886   0.874   4.501  17.451 -0.2438  0.4707 -0.6298
  322MPD2     C 4887   4.455   1.404  13.465 -0.4483 -0.7437 -0.5392
  322MPD2    C1 4888   4.465   1.323  13.575 -0.2152  0.7986 -0.3019
  322MPD2    C2 4889   4.442   1.188  13.558  0.5227  0.1427  0.2662
  322MPD2    C3 4890   4.423   1.139  13.430 -0.4733 -0.2849 -0.0757
  322MPD2    C4 4891   4.400   1.220  13.322  0.4835  0.6142 -0.0340
  322MPD2    C5 4892   4.419   1.353  13.339  0.3020  0.7661  1.0280
  322MPD2     H 4893   4.449   1.125  13.645 -0.5891  0.2055  0.4108
  322MPD2    H1 4894   4.375   1.178  13.225  0.1788 -2.0800  1.2207
  322MPD2    H2 4895   4.481   1.510  13.469 -0.5609 -0.8100  1.5878
  322MPD2    H3 4896   4.403   1.418  13.253 -0.9690 -2.0005 -0.8488
  322MPD2     N 4897   4.436   0.994  13.405 -0.5654  0.3025 -0.1109
  322MPD2    H5 4898   4.432   0.929  13.483 -3.0378  1.3184  0.6138
  322MPD2    N1 4899   4.509   1.380  13.695 -0.7889  0.2380  0.3773
  322MPD2    H7 4900   4.555   1.470  13.691  1.5019 -0.8896  1.1398
  323TMC3    C1 4901   4.567   1.377  13.926  0.9305  0.0030 -0.0625
  323TMC3    C2 4902   4.698   1.412  13.899 -0.0252 -0.9052 -0.5329
  323TMC3    C3 4903   0.044   1.413  14.007 -0.8045  0.1553  0.3824
  323TMC3    C4 4904   4.530   1.334  14.055 -0.0075  0.4839 -0.2044
  323TMC3    C5 4905   4.616   1.339  14.156 -0.0037  0.8149  0.0463
  323TMC3    C6 4906   0.005   1.383  14.132  0.4604 -0.1754  0.4740
  323TMC3     C 4907   4.491   1.325  13.818  0.0054 -0.4678 -0.1508
  323TMC3     O 4908   4.411   1.238  13.852  0.0113 -0.3962  0.3729
  323TMC3     H 4909   4.735   1.426  13.798 -0.8277  0.7872 -0.5921
  323TMC3    H1 4910   4.429   1.297  14.067  0.3053 -0.8647 -1.7948
  323TMC3    H2 4911   0.074   1.383  14.216  1.4658  0.7530 -0.3511
  323TMC3    C7 4912   4.589   1.237  14.256 -0.4450  0.3429 -0.2045
  323TMC3    C8 4913   0.187   1.389  13.988  0.6217 -0.4670  0.2040
  323TMC3    O1 4914   4.496   1.166  14.229 -0.0821 -0.5993  0.7354
  323TMC3    O2 4915   0.246   1.316  14.063 -0.6370  0.3325 -0.8753
  324MPD2     C 4916   1.499   1.713  14.593  0.2115 -0.5671  0.8617
  324MPD2    C1 4917   1.517   1.854  14.589  0.4622  0.6520 -0.3356
  324MPD2    C2 4918   1.407   1.926  14.540  0.6169  0.0992 -0.1419
  324MPD2    C3 4919   1.290   1.869  14.492  0.5371 -0.7417  0.3441
  324MPD2    C4 4920   1.284   1.730  14.489 -0.2020  0.0768  0.2514
  324MPD2    C5 4921   1.390   1.655  14.532 -0.0215 -0.5033  0.3041
  324MPD2     H 4922   1.433   2.031  14.534  0.8534  0.1079  0.9425
  324MPD2    H1 4923   1.199   1.673  14.452 -0.5064  0.2166  0.7389
  324MPD2    H2 4924   1.580   1.655  14.637  2.1238 -0.8911 -3.0307
  324MPD2    H3 4925   1.376   1.548  14.517 -1.8748 -0.2015 -0.0809
  324MPD2     N 4926   1.176   1.949  14.457 -0.3901  0.6502  0.0513
  324MPD2    H5 4927   1.093   1.897  14.430 -2.1915  3.2815  0.5160
  324MPD2    N1 4928   1.632   1.930  14.626 -0.4050  0.1049  0.0432
  324MPD2    H7 4929   1.634   2.030  14.608  0.5384  0.0354 -0.2061
  325TMC3    C1 4930   1.048   2.144  14.388  0.3152  0.3943  0.3515
  325TMC3    C2 4931   0.961   2.064  14.317  0.8118  0.0651  1.6013
  325TMC3    C3 4932   0.859   2.127  14.244  0.5150  0.5218 -0.2907
  325TMC3    C4 4933   1.032   2.280  14.375 -0.2225  0.2359 -0.5102
  325TMC3    C5 4934   0.932   2.334  14.300 -0.3250 -1.2123  0.1758
  325TMC3    C6 4935   0.840   2.261  14.230 -0.0080 -0.2741  0.2090
  325TMC3     C 4936   1.166   2.093  14.457 -0.1413 -0.1092  0.5215
  325TMC3     O 4937   1.250   2.176  14.488 -0.2548  0.7422 -0.5061
  325TMC3     H 4938   0.975   1.957  14.312 -0.6769 -0.1506  2.1001
  325TMC3    H1 4939   1.095   2.358  14.416  1.0017 -1.5387  0.9910
  325TMC3    H2 4940   0.776   2.307  14.155 -0.6181 -3.4251 -1.2114
  325TMC3    C7 4941   0.925   2.483  14.294 -0.3672 -0.6002 -0.3425
  325TMC3    C8 4942   0.802   2.040  14.142  0.4188  0.2101 -0.2267
  325TMC3    O1 4943   1.030   2.547  14.282  0.0396  0.2422 -0.1205
  325TMC3    O2 4944   0.837   1.925  14.145 -0.0326  0.1105 -0.0099
  326MPD2     C 4945   2.074   3.706  10.952  0.2448  0.0310 -0.0258
  326MPD2    C1 4946   2.129   3.614  10.871  0.4045 -0.3854  0.3033
  326MPD2    C2 4947   2.255   3.573  10.905  0.1362 -0.3627  0.0825
  326MPD2    C3 4948   2.332   3.621  11.013 -0.1460  0.0583  0.1857
  326MPD2    C4 4949   2.268   3.717  11.097  0.7740  1.1665 -0.5436
  326MPD2    C5 4950   2.139   3.754  11.063  0.0191  0.0744 -0.0837
  326MPD2     H 4951   2.290   3.490  10.845  0.3709 -1.3007  1.5251
  326MPD2    H1 4952   2.324   3.756  11.181 -0.5638 -0.9021  1.3055
  326MPD2    H2 4953   1.974   3.745  10.938  0.6179  0.7343 -0.7838
  326MPD2    H3 4954   2.083   3.810  11.136  0.3630 -0.0877  0.3045
  326MPD2     N 4955   2.464   3.593  11.039 -0.0555 -0.2548  0.5446
  326MPD2    H5 4956   2.500   3.627  11.128 -0.5333 -2.6269  1.6361
  326MPD2    N1 4957   2.056   3.563  10.758 -0.3757  0.0832 -0.1363
  326MPD2    H7 4958   2.094   3.485  10.706 -3.2830 -1.1898 -0.3617
  327TMC3    C1 4959   1.885   3.554  10.585 -0.7802 -0.5067 -0.1117
  327TMC3    C2 4960   1.818   3.621  10.486  0.1188  0.2132 -0.2264
  327TMC3    C3 4961   1.779   3.546  10.378 -0.0485  0.3358  0.3256
  327TMC3    C4 4962   1.909   3.417  10.579  0.2090  0.1584  0.4800
  327TMC3    C5 4963   1.873   3.354  10.464 -0.2060 -0.8232  0.2383
  327TMC3    C6 4964   1.807   3.418  10.364 -1.0190 -0.6515  0.1342
  327TMC3     C 4965   1.948   3.622  10.700  0.1568 -0.1594  0.5111
  327TMC3     O 4966   1.916   3.741  10.712 -0.5024  0.0285  0.2091
  327TMC3     H 4967   1.804   3.728  10.488  0.7287  0.2913 -0.0679
  327TMC3    H1 4968   1.922   3.363  10.672 -0.4377  0.3285  0.6689
  327TMC3    H2 4969   1.793   3.368  10.269 -1.2893  1.0753 -0.7472
  327TMC3    C7 4970   1.885   3.208  10.450  0.4467  0.5823  0.1528
  327TMC3    C8 4971   1.696   3.613  10.277 -0.0068 -0.1893 -0.2413
  327TMC3    O1 4972   1.831   3.144  10.362 -0.2616  0.5709  0.2502
  327TMC3    O2 4973   1.673   3.731  10.307  0.1110 -0.6744 -0.3593
  328MPD2     C 4974   0.312   3.992  17.308 -1.1041 -0.5570 -0.1318
  328MPD2    C1 4975   0.314   3.864  17.358  0.4882 -0.5280  0.5515
  328MPD2    C2 4976   0.346   3.758  17.273 -0.5235  0.3757 -0.8781
  328MPD2    C3 4977   0.366   3.779  17.140 -0.6398 -0.1477  0.2126
  328MPD2    C4 4978   0.352   3.906  17.093  0.1231 -0.1252  0.6473
  328MPD2    C5 4979   0.335   4.009  17.176 -0.5556  0.0475  0.6542
  328MPD2     H 4980   0.349   3.656  17.311 -0.6627  0.7193  0.0304
  328MPD2    H1 4981   0.361   3.938  16.989 -0.3743  0.7159  0.8664
  328MPD2    H2 4982   0.288   4.080  17.366  0.2062 -0.3154  0.0367
  328MPD2    H3 4983   0.323   4.109  17.135 -0.4350  1.2134  3.4077
  328MPD2     N 4984   0.381   3.675  17.041  0.0003  0.0315 -0.0985
  328MPD2    H5 4985   0.370   3.706  16.945  0.7024  0.4185 -0.0581
  328MPD2    N1 4986   0.269   3.844  17.489 -0.7048  0.2138 -0.2233
  328MPD2    H7 4987   0.225   3.927  17.529  0.0575  0.4652  0.1039
  329TMC3    C1 4988   0.165   3.734  17.669 -0.2867  0.0667  0.0476
  329TMC3    C2 4989   0.048   3.804  17.642 -0.6816  0.1417 -0.5791
  329TMC3    C3 4990   4.696   3.817  17.746  0.4137 -0.1455  0.0229
  329TMC3    C4 4991   0.190   3.682   0.043  0.3799 -0.2128  0.1202
  329TMC3    C5 4992   0.099   3.700   0.147  0.6077 -0.1209  0.4818
  329TMC3    C6 4993   4.716   3.767   0.123  0.0315 -0.4988 -0.3541
  329TMC3     C 4994   0.269   3.727  17.564 -0.2184  0.0302 -0.4044
  329TMC3     O 4995   0.349   3.633  17.552  0.3438 -0.4378  0.0953
  329TMC3     H 4996   0.014   3.831  17.542  2.3577  1.7944 -1.1569
  329TMC3    H1 4997   0.283   3.629   0.061  0.4029  0.5465  2.1640
  329TMC3    H2 4998   4.646   3.763   0.206  1.3662 -3.0968  0.6685
  329TMC3    C7 4999   0.090   3.607   0.259  0.5170  0.5514  0.4789
  329TMC3    C8 5000   4.573   3.887  17.729 -0.4457  0.5337  0.4919
  329TMC3    O1 5001   4.719   3.555   0.282  0.2064  0.0129 -0.1420
  329TMC3    O2 5002   4.563   3.965  17.637  0.2983  0.2290  0.4343
  330TMC3    C1 5003   2.747   3.002   9.651 -0.5102 -0.2108 -0.3806
  330TMC3    C2 5004   2.626   2.966   9.603  0.2577  0.1423 -0.1650
  330TMC3    C3 5005   2.566   2.855   9.657  0.4519 -0.9074  0.0387
  330TMC3    C4 5006   2.813   2.931   9.751  0.6318  0.4146  0.7899
  330TMC3    C5 5007   2.761   2.812   9.788  0.0234  0.3120  0.2185
  330TMC3    C6 5008   2.638   2.781   9.757 -0.0499  0.0007  0.1227
  330TMC3     C 5009   2.806   3.128   9.617  0.1831 -0.3481  0.1202
  330TMC3     O 5010   2.919   3.139   9.664  0.1346 -0.1998  0.4245
  330TMC3     H 5011   2.574   3.028   9.531  1.1243  1.3409  0.2232
  330TMC3    H1 5012   2.904   2.968   9.797  1.3354  0.4754 -0.6462
  330TMC3    H2 5013   2.582   2.694   9.789 -0.3154 -0.2481 -1.0184
  330TMC3    C7 5014   2.799   2.759   9.920 -0.1400 -0.1618  0.1747
  330TMC3    C8 5015   2.460   2.799   9.584 -0.4783 -0.2637  0.6392
  330TMC3    O1 5016   2.842   2.842   9.995 -0.0042  0.3514  0.0153
  330TMC3    O2 5017   2.435   2.865   9.484  0.6739 -0.1516  0.4455
  331MPD2     C 5018   1.537   1.440  13.143 -0.3861  0.1467 -0.6876
  331MPD2    C1 5019   1.552   1.449  13.006  0.1548 -0.3428  0.4461
  331MPD2    C2 5020   1.456   1.403  12.920  1.1009 -0.2436  0.2671
  331MPD2    C3 5021   1.363   1.320  12.975 -0.4103 -0.1474  0.6594
  331MPD2    C4 5022   1.356   1.296  13.111 -0.1108  0.0931 -0.2328
  331MPD2    C5 5023   1.439   1.363  13.201  0.2861 -0.2771 -0.0064
  331MPD2     H 5024   1.471   1.417  12.813 -1.0244 -0.9915 -0.1228
  331MPD2    H1 5025   1.277   1.238  13.159  0.7141  0.0517  1.0767
  331MPD2    H2 5026   1.609   1.491  13.207 -1.1429  1.7803 -1.1504
  331MPD2    H3 5027   1.429   1.344  13.307 -1.8252 -1.6434 -0.4664
  331MPD2     N 5028   1.272   1.268  12.878  0.4232  0.6177 -0.2896
  331MPD2    H5 5029   1.275   1.313  12.786 -2.3125  0.3403 -0.5200
  331MPD2    N1 5030   1.662   1.523  12.963  0.5307 -0.3021  0.4119
  331MPD2    H7 5031   1.704   1.590  13.027 -0.0257  1.0256 -0.6003
  332TMC3    C1 5032   1.138   1.123  12.773  0.3103  0.4618  0.8017
  332TMC3    C2 5033   1.065   1.223  12.711 -0.0142  0.3391 -0.2247
  332TMC3    C3 5034   0.999   1.196  12.592 -0.5929 -0.3628  0.7750
  332TMC3    C4 5035   1.153   1.007  12.715  0.8583  0.6766 -0.2101
  332TMC3    C5 5036   1.098   0.982  12.590  0.6444  0.2845  0.0947
  332TMC3    C6 5037   1.018   1.071  12.527  0.0768  0.0011 -0.0690
  332TMC3     C 5038   1.218   1.146  12.885  0.6280 -0.8912 -1.0304
  332TMC3     O 5039   1.246   1.052  12.957 -0.5751 -0.7732  0.2281
  332TMC3     H 5040   1.063   1.323  12.752  1.9787 -1.2612  3.7652
  332TMC3    H1 5041   1.199   0.926  12.770 -0.3906  1.0602  1.3938
  332TMC3    H2 5042   0.973   1.050  12.430 -2.8363 -3.0642  1.9443
  332TMC3    C7 5043   1.185   0.901  12.491  0.3766 -0.3735  0.2881
  332TMC3    C8 5044   1.011   1.290  12.490 -0.3861  0.1886 -0.7067
  332TMC3    O1 5045   1.137   0.871  12.383  0.0266  0.0930  0.2262
  332TMC3    O2 5046   1.090   1.266  12.402 -0.4518 -0.0381 -0.3153
  333MPD2     C 5047   0.881   1.879  11.255  0.2688 -0.4429  0.4477
  333MPD2    C1 5048   0.914   1.779  11.164 -0.0516  0.0728 -0.2978
  333MPD2    C2 5049   0.892   1.651  11.202 -0.2584  0.3557 -0.3720
  333MPD2    C3 5050   0.837   1.612  11.321  0.0188  0.4751 -0.5933
  333MPD2    C4 5051   0.819   1.712  11.407  1.0956  0.9114 -0.2569
  333MPD2    C5 5052   0.844   1.841  11.378 -0.5151  0.0738 -0.1199
  333MPD2     H 5053   0.898   1.568  11.133 -1.6647 -0.1098  0.0596
  333MPD2    H1 5054   0.775   1.687  11.503  1.3188 -1.8791 -0.8916
  333MPD2    H2 5055   0.905   1.983  11.236 -0.8742 -0.5694 -1.7723
  333MPD2    H3 5056   0.821   1.918  11.451 -0.1705  0.4539 -0.4102
  333MPD2     N 5057   0.808   1.482  11.353 -0.1105 -0.0848  0.1662
  333MPD2    H5 5058   0.848   1.422  11.283 -0.9015  0.4224 -0.7225
  333MPD2    N1 5059   0.954   1.821  11.034 -0.1178 -0.3310  0.1127
  333MPD2    H7 5060   0.955   1.918  11.005  0.7721 -0.3763 -0.0035
  334TMC3    C1 5061   1.039   1.783  10.816  0.2510  0.2856 -0.9487
  334TMC3    C2 5062   1.113   1.703  10.730  0.3596 -0.5556 -0.2617
  334TMC3    C3 5063   1.176   1.756  10.624  0.1727  0.4862 -0.2381
  334TMC3    C4 5064   1.018   1.914  10.779 -0.1818 -0.1462 -0.0448
  334TMC3    C5 5065   1.082   1.960  10.661 -0.2396  0.1088 -0.0682
  334TMC3    C6 5066   1.159   1.885  10.586 -0.2454  0.7992  0.1420
  334TMC3     C 5067   0.997   1.724  10.940  0.0943  0.0649 -1.5149
  334TMC3     O 5068   1.010   1.603  10.946 -0.7772  0.4158  0.7069
  334TMC3     H 5069   1.135   1.598  10.743 -0.4019 -0.6647  0.0955
  334TMC3    H1 5070   0.963   1.977  10.849 -0.1986  1.5808 -1.6425
  334TMC3    H2 5071   1.176   1.933  10.490 -4.6329 -0.9374 -1.4806
  334TMC3    C7 5072   1.079   2.103  10.638  0.8243 -0.3479  0.3839
  334TMC3    C8 5073   1.279   1.675  10.551 -1.1323  0.3482  0.6284
  334TMC3    O1 5074   0.970   2.149  10.662 -0.5548 -0.4019 -0.5502
  334TMC3    O2 5075   1.256   1.554  10.550 -0.2642 -0.3982 -0.2621
  335TMC3    C1 5076   1.260   3.132  17.578 -0.0181  0.0661  0.0759
  335TMC3    C2 5077   1.165   3.122  17.486 -0.0948  0.6574  0.0848
  335TMC3    C3 5078   1.196   3.167  17.363 -0.5723  0.4449 -0.9640
  335TMC3    C4 5079   1.397   3.156  17.548  0.1368 -0.0557  0.1632
  335TMC3    C5 5080   1.428   3.185  17.410  0.1004  0.2283 -0.0079
  335TMC3    C6 5081   1.322   3.202  17.322 -0.7339  1.0060 -0.0096
  335TMC3     C 5082   1.225   3.136  17.716 -0.0221 -0.1285 -0.2486
  335TMC3     O 5083   1.119   3.188  17.747  0.3510  0.2722  0.1079
  335TMC3     H 5084   1.061   3.103  17.509 -0.4509  1.6435 -0.7496
  335TMC3    H1 5085   1.475   3.165  17.623 -0.1329 -1.6798  0.6456
  335TMC3    H2 5086   1.347   3.240  17.223 -0.2900  1.4670  0.2773
  335TMC3    C7 5087   1.559   3.183  17.361  0.3461 -0.1816 -0.0827
  335TMC3    C8 5088   1.102   3.166  17.257 -0.2483 -0.4731  0.3238
  335TMC3    O1 5089   1.583   3.221  17.245  0.4631  0.2851 -0.3532
  335TMC3    O2 5090   1.128   3.238  17.160 -1.0032  0.2576 -0.2292
  336MPD2     C 5091   0.754   0.759  16.198  0.4372  0.4714 -0.8530
  336MPD2    C1 5092   0.730   0.735  16.065  0.6978  0.5345  0.2321
  336MPD2    C2 5093   0.759   0.610  16.007  0.3455  0.6005 -0.3036
  336MPD2    C3 5094   0.800   0.510  16.095 -0.0665 -0.2905 -0.0109
  336MPD2    C4 5095   0.823   0.535  16.231 -0.9404  0.3665 -0.0979
  336MPD2    C5 5096   0.803   0.659  16.277  0.5643 -0.3361 -0.4430
  336MPD2     H 5097   0.740   0.594  15.902  1.2759 -2.7280  0.0177
  336MPD2    H1 5098   0.872   0.453  16.282  0.0614  1.9958  1.5435
  336MPD2    H2 5099   0.729   0.851  16.248 -0.7065 -0.7392  0.7889
  336MPD2    H3 5100   0.825   0.689  16.379 -3.0173  2.0292 -0.3497
  336MPD2     N 5101   0.824   0.373  16.056  0.2515 -0.5721  0.1109
  336MPD2    H5 5102   0.880   0.327  16.127  1.4114 -0.8732 -0.9914
  336MPD2    N1 5103   0.673   0.840  15.977  0.3070  0.2436  0.5675
  336MPD2    H7 5104   0.666   0.828  15.876  0.0575 -2.3173  0.8787
  337TMC3    C1 5105   0.579   1.042  15.915 -0.3832 -0.2257  0.1439
  337TMC3    C2 5106   0.477   0.979  15.845  0.5970 -0.1830 -0.4071
  337TMC3    C3 5107   0.390   1.070  15.795 -0.2058  0.5178  0.3166
  337TMC3    C4 5108   0.576   1.173  15.950  0.3682  0.1526 -0.0088
  337TMC3    C5 5109   0.480   1.252  15.905 -0.0601 -0.4329 -0.2698
  337TMC3    C6 5110   0.392   1.203  15.813  0.3898  0.9594  0.1605
  337TMC3     C 5111   0.637   0.963  16.016  0.5379 -0.1117 -0.3054
  337TMC3     O 5112   0.643   1.023  16.126  0.3768 -0.1789  0.5631
  337TMC3     H 5113   0.488   0.874  15.818  0.8292 -0.2966  0.1144
  337TMC3    H1 5114   0.647   1.219  16.017 -0.1500  1.9120 -0.6691
  337TMC3    H2 5115   0.316   1.270  15.774  0.0835  0.9900  0.8083
  337TMC3    C7 5116   0.467   1.389  15.945 -0.5747 -0.1918 -0.1802
  337TMC3    C8 5117   0.296   1.020  15.699 -0.6032 -0.6808  0.1692
  337TMC3    O1 5118   0.354   1.438  15.956  0.1899  0.0893 -0.1591
  337TMC3    O2 5119   0.341   0.946  15.613 -0.6733  0.1485 -0.1448
  338MPD2     C 5120   0.974   0.997   0.847 -0.0241  0.8310  0.1298
  338MPD2    C1 5121   0.904   0.901   0.776  0.5491  0.7604 -0.7797
  338MPD2    C2 5122   0.762   0.900   0.781 -0.1993  0.4809 -0.5255
  338MPD2    C3 5123   0.693   0.999   0.848 -0.4046 -1.0639 -0.3689
  338MPD2    C4 5124   0.771   1.098   0.915 -0.3076  0.4876 -0.6012
  338MPD2    C5 5125   0.905   1.099   0.906  0.3704  0.0226  0.1859
  338MPD2     H 5126   0.707   0.825   0.726  0.0949 -0.3802  0.3601
  338MPD2    H1 5127   0.723   1.177   0.971 -1.4412  1.4181 -2.9054
  338MPD2    H2 5128   1.082   1.004   0.837 -0.3154  1.9740 -2.2804
  338MPD2    H3 5129   0.967   1.178   0.947 -0.3308 -0.0610  1.4013
  338MPD2     N 5130   0.554   1.000   0.835 -0.4834  0.4281  1.1123
  338MPD2    H5 5131   0.509   0.930   0.777  1.4225 -0.0148  0.1427
  338MPD2    N1 5132   0.968   0.807   0.688 -0.3348  0.7676 -0.4826
  338MPD2    H7 5133   0.900   0.749   0.640 -1.5095 -0.1304  2.2859
  339TMC3    C1 5134   0.337   1.058   0.853  0.3252  1.3951 -0.3522
  339TMC3    C2 5135   0.224   1.066   0.937 -0.0753 -1.0343 -0.1488
  339TMC3    C3 5136   0.102   1.069   0.872 -0.5837  0.6944 -0.2071
  339TMC3    C4 5137   0.327   1.061   0.715  0.0032 -0.4226 -0.2389
  339TMC3    C5 5138   0.206   1.065   0.657 -0.3122  0.4985  0.4506
  339TMC3    C6 5139   0.095   1.073   0.736  0.3639  0.2665 -0.1473
  339TMC3     C 5140   0.470   1.079   0.906 -0.1456  0.0788  0.0096
  339TMC3     O 5141   0.484   1.149   1.006  0.2533  0.5781 -0.3402
  339TMC3     H 5142   0.235   1.064   1.045 -0.7475  1.8337 -0.0106
  339TMC3    H1 5143   0.417   1.083   0.659  0.0390  0.0316 -0.0002
  339TMC3    H2 5144   4.735   1.067   0.688  0.6572  2.2477 -0.9694
  339TMC3    C7 5145   0.199   1.063   0.514 -1.2258  0.4342 -0.5527
  339TMC3    C8 5146   4.722   1.022   0.942 -0.2357 -0.6239  0.8386
  339TMC3    O1 5147   0.311   1.041   0.464 -0.3573  0.1608 -0.0920
  339TMC3    O2 5148   4.632   0.997   0.864  0.2100  0.1878  0.5692
  340MPD2     C 5149   0.403   2.250  10.216  0.2111 -0.3826  0.6715
  340MPD2    C1 5150   0.454   2.302  10.102 -0.1665  0.2769  0.2608
  340MPD2    C2 5151   0.480   2.444  10.096 -0.5360  1.0138 -0.7344
  340MPD2    C3 5152   0.471   2.525  10.205  0.3635 -0.1298 -0.3076
  340MPD2    C4 5153   0.424   2.464  10.321 -0.6276 -0.5540 -0.0364
  340MPD2    C5 5154   0.378   2.331  10.326 -0.1986 -0.3291 -0.6546
  340MPD2     H 5155   0.532   2.479  10.008  1.0547  0.7520  0.1000
  340MPD2    H1 5156   0.426   2.523  10.412  0.6603 -1.9647  0.8558
  340MPD2    H2 5157   0.386   2.143  10.226  3.4173 -1.0328 -0.7834
  340MPD2    H3 5158   0.342   2.289  10.419 -0.9468 -0.1366 -0.8579
  340MPD2     N 5159   0.501   2.663  10.204  0.4465  0.1507  0.5148
  340MPD2    H5 5160   0.516   2.716  10.289  1.5873  1.9625 -0.8140
  340MPD2    N1 5161   0.463   2.208   9.986 -0.3242 -0.0780  0.4044
  340MPD2    H7 5162   0.436   2.112  10.004  0.3981  0.0355  2.0836
  341TMC3    C1 5163   0.530   2.099   9.794 -0.1437 -0.2698  0.9217
  341TMC3    C2 5164   0.432   2.005   9.819  0.4106 -0.1977  0.1639
  341TMC3    C3 5165   0.439   1.894   9.739 -0.6818  0.8208 -0.5005
  341TMC3    C4 5166   0.633   2.085   9.705 -0.3231  0.5451 -0.3437
  341TMC3    C5 5167   0.633   1.968   9.630 -0.7776  0.6959 -0.3997
  341TMC3    C6 5168   0.535   1.876   9.644 -0.7001 -0.0707  0.4705
  341TMC3     C 5169   0.530   2.225   9.866 -0.5353  0.2166  0.1162
  341TMC3     O 5170   0.592   2.325   9.838 -0.1151 -0.1549 -0.3401
  341TMC3     H 5171   0.350   2.016   9.890  1.9186 -0.7658  1.9823
  341TMC3    H1 5172   0.715   2.156   9.697 -0.8619  1.2235  0.2196
  341TMC3    H2 5173   0.530   1.781   9.591  2.2098 -0.4366  0.8389
  341TMC3    C7 5174   0.750   1.923   9.561 -0.2934 -0.2096 -0.5417
  341TMC3    C8 5175   0.360   1.774   9.783  0.3593 -0.7720  0.1536
  341TMC3    O1 5176   0.818   2.002   9.494  0.7479 -0.0759 -1.0203
  341TMC3    O2 5177   0.317   1.698   9.695  0.5892  0.3990  0.0374
  342MPD2     C 5178   3.554   0.971  17.341  0.2792 -0.3156 -0.2734
  342MPD2    C1 5179   3.691   0.984  17.328  0.0591 -1.2045 -0.0981
  342MPD2    C2 5180   3.755   1.105  17.334  0.1453  0.3949 -0.8775
  342MPD2    C3 5181   3.680   1.228  17.357  0.3381  1.1089  0.1204
  342MPD2    C4 5182   3.544   1.212  17.371  0.0804 -0.1279 -0.3912
  342MPD2    C5 5183   3.476   1.086  17.364 -0.2258 -0.4019 -0.4450
  342MPD2     H 5184   3.860   1.108  17.309 -0.1984 -2.7575 -2.8165
  342MPD2    H1 5185   3.474   1.294  17.383  0.9836  0.8569 -1.8555
  342MPD2    H2 5186   3.497   0.878  17.335  0.1215 -0.1458 -1.3956
  342MPD2    H3 5187   3.368   1.090  17.372 -0.3222 -0.2608 -1.7793
  342MPD2     N 5188   3.750   1.351  17.388  0.0839  0.1456  0.1949
  342MPD2    H5 5189   3.698   1.431  17.424  0.3376  1.0308 -1.3853
  342MPD2    N1 5190   3.778   0.875  17.301 -0.1911 -0.0027  0.2747
  342MPD2    H7 5191   3.871   0.894  17.265 -0.7065 -0.4497 -1.2780
  343TMC3    C1 5192   3.822   0.660  17.228  0.7986  0.7431 -0.7135
  343TMC3    C2 5193   3.911   0.714  17.135  0.4423  0.7610  0.0501
  343TMC3    C3 5194   3.996   0.624  17.064  0.2052  0.9251 -0.3512
  343TMC3    C4 5195   3.819   0.523  17.256 -0.2448 -0.1485  0.3784
  343TMC3    C5 5196   3.906   0.442  17.185 -0.3356  0.0396  0.6472
  343TMC3    C6 5197   3.997   0.488  17.095  0.1104  0.1943  0.5682
  343TMC3     C 5198   3.734   0.745  17.299  0.5543  0.8371  0.7137
  343TMC3     O 5199   3.644   0.691  17.356 -0.0158  0.1457  0.1150
  343TMC3     H 5200   3.898   0.817  17.102 -2.1252  0.1980 -0.6962
  343TMC3    H1 5201   3.754   0.492  17.337 -0.1625  2.0237  1.2756
  343TMC3    H2 5202   4.070   0.428  17.042 -1.3871 -1.0576 -0.0837
  343TMC3    C7 5203   3.877   0.300  17.175  0.1221  0.1742 -0.4819
  343TMC3    C8 5204   4.101   0.691  16.995  0.1668  0.0471 -0.4013
  343TMC3    O1 5205   3.912   0.228  17.079  0.1446 -0.5332 -0.6974
  343TMC3    O2 5206   4.117   0.810  17.013 -0.8859  0.2372 -0.1489
  344MPD2     C 5207   4.207   0.262  10.092 -0.0630  0.1258 -0.0035
  344MPD2    C1 5208   4.167   0.317  10.213 -0.6954  0.2863  0.3677
  344MPD2    C2 5209   4.153   0.452  10.214 -0.3339 -0.5953  0.2128
  344MPD2    C3 5210   4.190   0.531  10.100 -0.9674  0.1636  0.4247
  344MPD2    C4 5211   4.223   0.473   9.979  0.9463  0.2008 -0.3698
  344MPD2    C5 5212   4.235   0.334   9.982 -1.0338 -0.8775 -0.0834
  344MPD2     H 5213   4.114   0.502  10.301 -2.6375 -0.2698 -1.0181
  344MPD2    H1 5214   4.254   0.533   9.894  2.7271 -0.1013  0.0521
  344MPD2    H2 5215   4.224   0.155  10.089  2.6009  0.5114  1.9280
  344MPD2    H3 5216   4.273   0.279   9.897 -1.0331 -1.9951  0.6486
  344MPD2     N 5217   4.190   0.678  10.108 -0.4035 -0.1887 -0.0466
  344MPD2    H5 5218   4.197   0.733  10.022  0.6163 -1.8035 -0.9808
  344MPD2    N1 5219   4.158   0.236  10.329  0.4194 -0.7070  0.1395
  344MPD2    H7 5220   4.146   0.136  10.324 -3.7972 -0.1785 -0.6952
  345TMC3    C1 5221   4.213   0.890  10.220 -0.5598  0.6264 -0.2118
  345TMC3    C2 5222   4.287   0.935  10.326  0.3633  0.0798  0.7055
  345TMC3    C3 5223   4.324   1.069  10.312 -0.0762 -0.4750 -0.6038
  345TMC3    C4 5224   4.167   0.964  10.108  0.7594  0.1590  0.5370
  345TMC3    C5 5225   4.202   1.099  10.104  0.1963  0.0952  0.4034
  345TMC3    C6 5226   4.274   1.154  10.216  0.0754  0.2948 -0.2668
  345TMC3     C 5227   4.184   0.747  10.223  0.2507  0.0586 -0.0972
  345TMC3     O 5228   4.192   0.703  10.338 -0.7103 -0.2958  0.4600
  345TMC3     H 5229   4.328   0.865  10.398  2.7191  0.8232  0.0911
  345TMC3    H1 5230   4.088   0.923  10.046  0.3815 -0.2743  1.3073
  345TMC3    H2 5231   4.321   1.252  10.208 -2.1939  1.5291  1.4682
  345TMC3    C7 5232   4.143   1.197  10.015 -0.0655 -0.3162  0.7198
  345TMC3    C8 5233   4.344   1.129  10.444  0.3027  0.2629 -0.4629
  345TMC3    O1 5234   4.162   1.314  10.042 -0.3764  0.4096  0.4906
  345TMC3    O2 5235   4.371   1.050  10.538  0.2457  0.2713 -0.5325
  346MPD2     C 5236   4.690   2.813  13.713 -0.0602  0.0861  0.6086
  346MPD2    C1 5237   0.020   2.709  13.777  0.3922 -0.3994 -0.5672
  346MPD2    C2 5238   0.054   2.729  13.911 -0.0108 -0.2685  0.3774
  346MPD2    C3 5239   0.004   2.836  13.979 -0.6008 -0.3382  0.4213
  346MPD2    C4 5240   4.671   2.934  13.913  0.2517  0.1475 -0.3249
  346MPD2    C5 5241   4.654   2.927  13.777 -0.1536  0.8752 -0.5596
  346MPD2     H 5242   0.102   2.654  13.972  2.5575  1.6362  0.7056
  346MPD2    H1 5243   4.631   3.019  13.967  0.3973 -0.2413  0.3811
  346MPD2    H2 5244   4.656   2.803  13.610  0.0335  1.9461  0.3951
  346MPD2    H3 5245   4.599   2.999  13.717 -2.1850 -0.3869 -0.2075
  346MPD2     N 5246   0.038   2.847  14.116  0.4818 -0.1152 -0.3011
  346MPD2    H5 5247   0.090   2.769  14.155  1.9652  0.6393 -0.7553
  346MPD2    N1 5248   0.051   2.593  13.704  0.3386 -0.2830  0.1980
  346MPD2    H7 5249   0.026   2.576  13.607  0.9794 -1.9902  0.3303
  347TMC3    C1 5250   0.053   2.936  14.335 -0.5223  0.5468  0.3245
  347TMC3    C2 5251   0.185   2.907  14.345  0.0657 -0.0208  0.3272
  347TMC3    C3 5252   0.235   2.831  14.449  0.4130 -0.2318  0.3771
  347TMC3    C4 5253   4.701   2.906  14.436  0.2157 -0.4263 -0.0167
  347TMC3    C5 5254   0.010   2.829  14.539 -0.0385  0.0074 -0.6981
  347TMC3    C6 5255   0.146   2.787  14.546 -0.1647  0.5497 -0.8501
  347TMC3     C 5256   4.726   2.937  14.206  0.1619 -0.2901  0.0407
  347TMC3     O 5257   4.638   3.020  14.196 -0.1824  0.1979 -0.2336
  347TMC3     H 5258   0.243   2.926  14.256 -0.8002 -1.3543 -0.5152
  347TMC3    H1 5259   4.595   2.925  14.421  0.4940  3.0837  2.4065
  347TMC3    H2 5260   0.171   2.706  14.614 -1.0526  2.4850  1.7799
  347TMC3    C7 5261   4.652   2.781  14.635 -0.2802  0.0232 -0.4480
  347TMC3    C8 5262   0.367   2.771  14.436  0.6391 -0.6606  0.1627
  347TMC3    O1 5263   4.534   2.775  14.597 -1.0547  0.3200  0.3937
  347TMC3    O2 5264   0.394   2.667  14.493  0.1713 -0.0905 -0.1354
  348MPD2     C 5265   3.210   2.306  11.981  0.1768 -0.1984 -0.0123
  348MPD2    C1 5266   3.309   2.379  11.930 -0.3641  0.0464  0.5239
  348MPD2    C2 5267   3.279   2.461  11.822  0.0862 -0.2455 -0.0622
  348MPD2    C3 5268   3.153   2.479  11.772 -0.4708  0.9100  0.4988
  348MPD2    C4 5269   3.056   2.404  11.829  0.1930 -0.2439 -0.4319
  348MPD2    C5 5270   3.082   2.315  11.934 -0.0209 -0.0051  0.6227
  348MPD2     H 5271   3.362   2.519  11.785 -0.7632  0.9620 -0.0700
  348MPD2    H1 5272   2.955   2.410  11.789 -0.0210 -0.1220  0.1286
  348MPD2    H2 5273   3.213   2.237  12.064  2.9936  0.5411  0.5083
  348MPD2    H3 5274   3.011   2.245  11.978 -0.1010 -2.0364 -2.6512
  348MPD2     N 5275   3.122   2.565  11.658 -0.0242  0.2182 -0.9201
  348MPD2    H5 5276   3.199   2.627  11.636  0.8134 -1.0816 -1.6984
  348MPD2    N1 5277   3.441   2.364  11.971 -0.2947 -0.7475  0.4042
  348MPD2    H7 5278   3.515   2.407  11.917 -2.2837  0.2734 -1.5152
  349TMC3    C1 5279   3.631   2.289  12.071  0.6361  0.4747 -0.4393
  349TMC3    C2 5280   3.686   2.173  12.113 -0.0670  0.7229  0.2087
  349TMC3    C3 5281   3.804   2.130  12.055  0.7973 -0.8824 -0.4793
  349TMC3    C4 5282   3.699   2.368  11.985 -0.5115  0.0992  0.0067
  349TMC3    C5 5283   3.806   2.326  11.907 -0.0866  0.3250  0.9228
  349TMC3    C6 5284   3.857   2.206  11.943 -0.0306  0.3105 -0.2286
  349TMC3     C 5285   3.487   2.282  12.069 -0.2960  0.7170  0.4017
  349TMC3     O 5286   3.429   2.199  12.138  0.0571 -1.3320  0.3148
  349TMC3     H 5287   3.643   2.121  12.198  2.3590 -1.8383 -0.1033
  349TMC3    H1 5288   3.656   2.463  11.954  0.4029  0.5788  0.2078
  349TMC3    H2 5289   3.941   2.172  11.883  0.1108  0.9811 -0.4060
  349TMC3    C7 5290   3.760   2.328  11.765  0.6697 -1.0205  0.7972
  349TMC3    C8 5291   3.875   2.018  12.115 -0.0833  0.3842  0.0372
  349TMC3    O1 5292   3.731   2.217  11.720 -0.4629  0.5443  0.3853
  349TMC3    O2 5293   3.807   1.945  12.191 -0.1630  0.0432 -0.2849
  350MPD2     C 5294   1.673   4.321   9.983 -0.8948  0.7579 -0.3312
  350MPD2    C1 5295   1.725   4.442   9.947 -0.9981  0.8759  0.6153
  350MPD2    C2 5296   1.814   4.514  10.027 -0.1277 -0.5524 -0.1443
  350MPD2    C3 5297   1.848   4.468  10.157 -0.5029  1.0423 -0.0501
  350MPD2    C4 5298   1.789   4.347  10.199  0.1287  0.4646 -0.4188
  350MPD2    C5 5299   1.699   4.284  10.111  0.2054 -0.0207 -0.3039
  350MPD2     H 5300   1.856   4.609   9.995  0.7123 -0.9371 -0.1978
  350MPD2    H1 5301   1.810   4.292  10.290  2.0980  0.1459 -1.0719
  350MPD2    H2 5302   1.616   4.256   9.917 -0.8766  0.4011  0.0095
  350MPD2    H3 5303   1.661   4.188  10.144 -0.5077  0.2900 -0.2165
  350MPD2     N 5304   1.940   4.546  10.237 -0.3588  0.1432  0.1436
  350MPD2    H5 5305   1.965   4.634  10.193  2.4518 -0.8641 -0.2301
  350MPD2    N1 5306   1.721   4.492   9.811  0.5098  1.0869 -0.0919
  350MPD2    H7 5307   1.781   4.564   9.773  0.0990  3.0565  3.0751
  351TMC3    C1 5308   1.653   4.501   9.595 -0.0370  0.1783 -0.8492
  351TMC3    C2 5309   1.774   4.525   9.537  0.3306  0.0966  0.6933
  351TMC3    C3 5310   1.775   4.528   9.401 -0.0591  0.0781  0.1152
  351TMC3    C4 5311   1.537   4.490   9.520 -0.9326  0.1440  0.2813
  351TMC3    C5 5312   1.537   4.512   9.390 -0.0155 -0.2572 -0.0519
  351TMC3    C6 5313   1.657   4.531   9.326 -0.1500 -0.1011 -0.2086
  351TMC3     C 5314   1.640   4.434   9.715  0.3258 -0.8924  0.1540
  351TMC3     O 5315   1.548   4.352   9.723 -0.1511  0.2702  0.3618
  351TMC3     H 5316   1.866   4.523   9.595  0.7146 -1.9476  0.0306
  351TMC3    H1 5317   1.443   4.484   9.574  0.3474 -2.4715  2.2426
  351TMC3    H2 5318   1.658   4.558   9.220 -1.7193  1.1815  0.0982
  351TMC3    C7 5319   1.399   4.536   9.340  0.3977 -0.4230 -0.1498
  351TMC3    C8 5320   1.901   4.488   9.340 -0.0056  0.6613 -0.3406
  351TMC3    O1 5321   1.306   4.547   9.421 -0.3729 -0.0945  0.5778
  351TMC3    O2 5322   1.997   4.521   9.410 -0.5510 -0.0077 -0.0753
  352MPD2     C 5323   1.216   2.644   0.698 -0.2209  1.0830 -0.5057
  352MPD2    C1 5324   1.120   2.587   0.774  0.5914  0.2502 -0.7371
  352MPD2    C2 5325   1.158   2.467   0.841 -0.3336 -0.2228 -0.0657
  352MPD2    C3 5326   1.281   2.406   0.826 -1.4170  0.3846 -0.3411
  352MPD2    C4 5327   1.379   2.474   0.760 -0.5899  0.4849 -0.0317
  352MPD2    C5 5328   1.343   2.590   0.692  0.3827 -0.7914 -0.5868
  352MPD2     H 5329   1.083   2.419   0.903 -0.9222  2.4693  1.3168
  352MPD2    H1 5330   1.483   2.444   0.762 -0.8256 -0.3445 -0.3801
  352MPD2    H2 5331   1.205   2.735   0.640  0.0422  1.0703 -0.5764
  352MPD2    H3 5332   1.422   2.637   0.635 -0.0834  0.9706  0.2507
  352MPD2     N 5333   1.317   2.274   0.865  0.5803  0.8677  0.4170
  352MPD2    H5 5334   1.410   2.234   0.855 -0.4085 -1.8020  1.7413
  352MPD2    N1 5335   0.995   2.646   0.773  0.2699 -0.0535 -0.6383
  352MPD2    H7 5336   0.982   2.731   0.720  1.4927  0.6595  0.2170
  353TMC3    C1 5337   1.284   2.050   0.948  0.8380  0.1169  0.8218
  353TMC3    C2 5338   1.415   2.028   0.978 -0.8060  0.1565 -0.3319
  353TMC3    C3 5339   1.455   1.899   0.962 -0.1895  0.3581  0.2933
  353TMC3    C4 5340   1.197   1.951   0.911 -0.1477  0.0567 -0.6455
  353TMC3    C5 5341   1.251   1.825   0.893 -1.0206  0.2147 -0.1683
  353TMC3    C6 5342   1.379   1.799   0.911 -0.0241  0.2485  0.6076
  353TMC3     C 5343   1.226   2.182   0.911 -0.9619 -0.1313 -0.2031
  353TMC3     O 5344   1.103   2.192   0.925  0.1887  0.2744  0.2007
  353TMC3     H 5345   1.484   2.110   0.997  0.2317 -0.2899 -2.1953
  353TMC3    H1 5346   1.095   1.977   0.885  0.1606  2.6812  0.8275
  353TMC3    H2 5347   1.415   1.697   0.919 -1.3506 -0.1343  1.7329
  353TMC3    C7 5348   1.167   1.711   0.847  0.4391  0.6538 -0.3068
  353TMC3    C8 5349   1.597   1.880   0.978  0.0914  0.3228 -0.0146
  353TMC3    O1 5350   1.217   1.609   0.812  0.1196 -0.8674  0.0367
  353TMC3    O2 5351   1.672   1.976   0.953 -0.2300  0.0751  0.7005
  354TMC3    C1 5352   2.737   3.447  13.052 -0.3178 -0.3385  0.9116
  354TMC3    C2 5353   2.740   3.585  13.033 -0.1761  0.0550 -0.0423
  354TMC3    C3 5354   2.807   3.634  12.924  0.7187  0.0227  0.4597
  354TMC3    C4 5355   2.788   3.361  12.957  0.3449  0.2928 -0.1027
  354TMC3    C5 5356   2.838   3.418  12.843 -0.3092 -0.0447  0.3485
  354TMC3    C6 5357   2.859   3.551  12.825 -0.1539 -0.1713  0.3062
  354TMC3     C 5358   2.752   3.393  13.185 -0.0796 -0.4267  0.4080
  354TMC3     O 5359   2.699   3.458  13.276 -0.2622  0.3520  0.5999
  354TMC3     H 5360   2.696   3.649  13.109  0.3049  0.4348 -0.0830
  354TMC3    H1 5361   2.750   3.260  12.970  0.8975  0.0394 -0.4357
  354TMC3    H2 5362   2.901   3.583  12.730 -0.5105  1.4198  0.6732
  354TMC3    C7 5363   2.888   3.327  12.739 -0.7991 -0.5476 -1.3013
  354TMC3    C8 5364   2.832   3.776  12.901 -0.0682 -0.5531 -0.3458
  354TMC3    O1 5365   2.833   3.220  12.718  0.1913 -0.0829 -0.5937
  354TMC3    O2 5366   2.898   3.794  12.796  0.1479  0.3281  0.3045
  355MPD2     C 5367   2.854   3.932  11.683 -0.0323  0.5230  0.6792
  355MPD2    C1 5368   2.904   4.044  11.745  0.3898 -0.0462 -1.0172
  355MPD2    C2 5369   2.964   4.028  11.870  0.3883 -0.0429 -0.4769
  355MPD2    C3 5370   2.986   3.904  11.919  0.1833 -0.7402 -0.0417
  355MPD2    C4 5371   2.925   3.794  11.864 -0.5574 -0.2362 -0.4317
  355MPD2    C5 5372   2.856   3.811  11.751  0.4248 -0.2863 -0.0551
  355MPD2     H 5373   3.001   4.112  11.928 -0.1674  0.4889 -0.8889
  355MPD2    H1 5374   2.928   3.699  11.915 -1.2295  0.1147  0.2482
  355MPD2    H2 5375   2.801   3.935  11.588 -1.8601  0.4644  1.6878
  355MPD2    H3 5376   2.799   3.729  11.708  0.4106 -0.1416 -0.3124
  355MPD2     N 5377   3.062   3.873  12.037 -0.6138 -0.4538  0.7167
  355MPD2    H5 5378   3.042   3.780  12.072 -1.0536 -0.3204  0.8194
  355MPD2    N1 5379   2.914   4.168  11.674 -0.5184  0.1655 -0.2881
  355MPD2    H7 5380   2.863   4.162  11.587 -2.7058  0.2986  0.9824
  356TMC3    C1 5381   3.218   4.074  12.052 -0.1221 -0.1433 -0.3113
  356TMC3    C2 5382   3.268   4.059  11.923  0.1832 -0.2464 -0.0593
  356TMC3    C3 5383   3.332   4.164  11.865 -0.2999  0.1109 -0.1069
  356TMC3    C4 5384   3.265   4.173  12.129  0.3853  0.1019  0.7421
  356TMC3    C5 5385   3.337   4.278  12.069  0.7369  1.0293 -0.2681
  356TMC3    C6 5386   3.368   4.279  11.933 -0.2871  0.2609 -0.0211
  356TMC3     C 5387   3.149   3.958  12.112 -0.2452 -0.0647  0.4465
  356TMC3     O 5388   3.201   3.926  12.217  0.4791  0.3453 -0.2025
  356TMC3     H 5389   3.239   3.975  11.861  1.0797 -1.0710  0.6499
  356TMC3    H1 5390   3.244   4.172  12.235 -1.6567  0.0249  0.3305
  356TMC3    H2 5391   3.421   4.363  11.889  1.6934  0.0357  1.9414
  356TMC3    C7 5392   3.411   4.350  12.164  0.7870  0.2987 -0.2407
  356TMC3    C8 5393   3.332   4.170  11.713  0.0688 -0.5287  0.1878
  356TMC3    O1 5394   3.415   4.306  12.274  0.3529 -0.5732 -0.1401
  356TMC3    O2 5395   3.271   4.080  11.654 -0.9028  0.1705  0.0204
  357MPD2     C 5396   2.964   4.075   1.772 -0.2419 -0.0483  0.4148
  357MPD2    C1 5397   2.899   4.040   1.654  0.3741  0.8053 -0.5921
  357MPD2    C2 5398   2.764   4.068   1.637  0.1469  0.7083  0.4269
  357MPD2    C3 5399   2.702   4.143   1.726 -0.5299 -0.0299 -0.1766
  357MPD2    C4 5400   2.769   4.180   1.847  0.4753  0.3623  0.9835
  357MPD2    C5 5401   2.900   4.149   1.865 -0.7735  0.0305  0.8448
  357MPD2     H 5402   2.710   4.011   1.562  1.0682 -1.8553  1.7511
  357MPD2    H1 5403   2.716   4.231   1.927  0.5806  2.1189 -0.0555
  357MPD2    H2 5404   3.069   4.056   1.795 -0.8144  1.5156  4.2694
  357MPD2    H3 5405   2.953   4.178   1.956 -1.0478 -0.4151  1.1451
  357MPD2     N 5406   2.570   4.175   1.721  0.6076 -0.1252  0.6737
  357MPD2    H5 5407   2.537   4.217   1.807  0.0452  2.0255 -0.5907
  357MPD2    N1 5408   2.965   3.950   1.565  0.1817  0.4362  0.2352
  357MPD2    H7 5409   3.054   3.920   1.605  0.1940 -0.8509 -0.7556
  358TMC3    C1 5410   3.005   3.800   1.389  0.8014 -0.4309 -0.4780
  358TMC3    C2 5411   2.973   3.765   1.264  0.7490 -0.1648 -0.0519
  358TMC3    C3 5412   3.061   3.692   1.190  1.0134 -0.7047  1.1138
  358TMC3    C4 5413   3.110   3.742   1.450 -0.4322 -0.0493 -0.7384
  358TMC3    C5 5414   3.187   3.660   1.377  0.8723  0.4128  0.5629
  358TMC3    C6 5415   3.174   3.636   1.240 -0.4167 -0.3183  0.3466
  358TMC3     C 5416   2.913   3.896   1.454 -0.3068  0.0809  0.6018
  358TMC3     O 5417   2.818   3.932   1.385 -0.3421 -0.0338  0.5990
  358TMC3     H 5418   2.873   3.783   1.226  1.0633  0.6323 -0.4876
  358TMC3    H1 5419   3.117   3.733   1.557 -1.6068  0.8080 -0.5920
  358TMC3    H2 5420   3.230   3.567   1.178  0.0619 -0.6115  1.1107
  358TMC3    C7 5421   3.305   3.605   1.437  0.6332 -0.0596 -1.0852
  358TMC3    C8 5422   3.031   3.661   1.051  0.4751  0.0329 -0.4462
  358TMC3    O1 5423   3.371   3.535   1.366 -0.3064 -0.3250  0.4905
  358TMC3    O2 5424   2.912   3.670   1.013 -0.8584 -0.3344  0.2925
  359MPD2     C 5425   2.852   3.416  12.275 -0.7138 -0.0504 -0.4731
  359MPD2    C1 5426   2.790   3.294  12.256  0.3847  0.5120  0.4183
  359MPD2    C2 5427   2.692   3.258  12.342 -0.1642  0.0237 -0.3926
  359MPD2    C3 5428   2.645   3.335  12.449  0.1968  0.1162  0.0041
  359MPD2    C4 5429   2.707   3.456  12.473 -0.2938  0.4806  0.1648
  359MPD2    C5 5430   2.813   3.497  12.383 -0.3513  0.4103 -0.0346
  359MPD2     H 5431   2.648   3.162  12.316 -2.4303  0.4974  1.6776
  359MPD2    H1 5432   2.697   3.516  12.563 -0.5493  0.2790  0.2713
  359MPD2    H2 5433   2.933   3.446  12.210 -0.7914  2.0583  0.4062
  359MPD2    H3 5434   2.864   3.590  12.403  0.3764  0.4224 -1.9238
  359MPD2     N 5435   2.542   3.292  12.533 -0.6439 -0.7682  0.4552
  359MPD2    H5 5436   2.517   3.360  12.605  0.6479 -0.0304  0.2094
  359MPD2    N1 5437   2.829   3.202  12.159 -0.2197 -0.1081 -0.0109
  359MPD2    H7 5438   2.777   3.115  12.149  1.4691 -1.3802  2.3507
  360TMC3    C1 5439   2.951   3.086  12.007  0.4208 -0.0615 -0.4412
  360TMC3    C2 5440   3.077   3.035  11.998 -0.9739 -0.2384 -0.5458
  360TMC3    C3 5441   3.081   2.909  11.959 -1.1146  0.2386  0.2031
  360TMC3    C4 5442   2.841   3.023  11.969 -0.4050  0.5872 -0.4343
  360TMC3    C5 5443   2.847   2.891  11.939  0.3471  0.3072  0.1788
  360TMC3    C6 5444   2.967   2.834  11.934 -0.4093 -0.0568  0.3316
  360TMC3     C 5445   2.944   3.201  12.090 -0.7129 -0.2078 -1.0378
  360TMC3     O 5446   3.039   3.279  12.082  0.1318  0.4993 -0.4143
  360TMC3     H 5447   3.163   3.096  12.023 -2.4772  1.5144  0.4362
  360TMC3    H1 5448   2.749   3.079  11.956 -0.8205 -0.2091 -0.8897
  360TMC3    H2 5449   2.982   2.729  11.909  0.6934 -0.1533  1.4012
  360TMC3    C7 5450   2.769   2.851  11.822 -0.0536  0.3080  0.5963
  360TMC3    C8 5451   3.209   2.854  11.925  0.0511 -0.1159 -0.2639
  360TMC3    O1 5452   2.703   2.944  11.784  0.1467 -0.4121 -0.0964
  360TMC3    O2 5453   3.235   2.743  11.972 -0.4003 -0.1777  0.7288
  361MPD2     C 5454   4.650   1.408  16.442 -0.3241  0.5510 -0.2674
  361MPD2    C1 5455   4.650   1.512  16.536  0.7127 -0.4763  0.1805
  361MPD2    C2 5456   0.032   1.534  16.604 -0.0116 -0.0042 -0.1407
  361MPD2    C3 5457   0.149   1.454  16.576 -0.1781 -0.8499  0.4144
  361MPD2    C4 5458   0.146   1.359  16.479 -0.6857 -0.1979  0.2000
  361MPD2    C5 5459   0.028   1.344  16.413 -0.1526 -0.8739 -0.0278
  361MPD2     H 5460   0.029   1.608  16.684  1.9615  0.8299 -0.8370
  361MPD2    H1 5461   0.234   1.298  16.461 -0.3413  0.2363  0.4163
  361MPD2    H2 5462   4.569   1.376  16.377 -1.4460  2.3100  0.2579
  361MPD2    H3 5463   0.018   1.270  16.334  0.2968 -0.0135 -0.8804
  361MPD2     N 5464   0.273   1.473  16.637 -0.5664 -0.4867 -0.2345
  361MPD2    H5 5465   0.354   1.424  16.599 -0.6156 -1.6698  1.2044
  361MPD2    N1 5466   4.542   1.598  16.552 -0.9911  0.0025  0.2383
  361MPD2    H7 5467   4.541   1.661  16.631  0.6809  0.1716  0.1222
  362TMC3    C1 5468   4.352   1.705  16.530  0.5769  0.1553  0.6771
  362TMC3    C2 5469   4.334   1.726  16.666 -0.1185 -0.3612  0.9966
  362TMC3    C3 5470   4.305   1.857  16.703 -0.2069 -0.5877  0.0952
  362TMC3    C4 5471   4.340   1.796  16.433 -0.0756 -0.5656  0.0536
  362TMC3    C5 5472   4.319   1.921  16.479 -0.6297  0.0303  0.7875
  362TMC3    C6 5473   4.288   1.950  16.607  0.6648  0.1287 -0.4641
  362TMC3     C 5474   4.426   1.595  16.483  0.2427 -0.0823  0.0413
  362TMC3     O 5475   4.402   1.533  16.383 -0.5394  0.1833  0.2847
  362TMC3     H 5476   4.341   1.642  16.735  0.6791 -1.1439 -0.0366
  362TMC3    H1 5477   4.377   1.762  16.337  0.8611  1.6117 -0.3705
  362TMC3    H2 5478   4.300   2.055  16.633 -2.5644  0.7796 -1.5449
  362TMC3    C7 5479   4.348   2.029  16.386  0.0944 -0.2348 -0.0571
  362TMC3    C8 5480   4.260   1.883  16.831 -0.3061 -0.3535 -0.3027
  362TMC3    O1 5481   4.379   2.138  16.433  0.0439 -0.2343 -0.4441
  362TMC3    O2 5482   4.316   1.826  16.921  0.1502 -0.3507 -0.1336
  363TMC3    C1 5483   3.239   3.902   9.121  0.6207  0.0510 -0.5756
  363TMC3    C2 5484   3.312   3.854   9.228 -0.3968 -0.4620 -0.6781
  363TMC3    C3 5485   3.365   3.958   9.310  0.8670  0.3511 -0.3837
  363TMC3    C4 5486   3.211   4.032   9.099  0.8383  0.0195 -0.2329
  363TMC3    C5 5487   3.274   4.128   9.181 -0.1457  0.8775  0.1802
  363TMC3    C6 5488   3.359   4.094   9.276 -0.7019  0.0433  0.1726
  363TMC3     C 5489   3.163   3.815   9.031  0.6662 -0.0743 -0.3238
  363TMC3     O 5490   3.078   3.860   8.955 -0.3432 -0.0495 -0.2248
  363TMC3     H 5491   3.312   3.752   9.264  0.6245  0.0727  0.8518
  363TMC3    H1 5492   3.138   4.063   9.025 -1.5229  1.6627  2.7746
  363TMC3    H2 5493   3.393   4.176   9.339  0.8984 -0.1693 -0.4178
  363TMC3    C7 5494   3.237   4.267   9.176  0.1835 -0.9046  0.7321
  363TMC3    C8 5495   3.430   3.929   9.435  0.0255 -0.2645 -0.9296
  363TMC3    O1 5496   3.265   4.334   9.276  0.6611  0.6010 -0.4247
  363TMC3    O2 5497   3.488   4.018   9.492  0.0847  0.4979 -0.2136
  364MPD2     C 5498   1.325   3.649   9.924  0.3956  0.3513  0.3427
  364MPD2    C1 5499   1.389   3.746  10.001 -0.0867  0.6461  1.1728
  364MPD2    C2 5500   1.497   3.706  10.075  0.9867 -0.0772 -0.3167
  364MPD2    C3 5501   1.539   3.576  10.092  0.5742  0.1615  0.1775
  364MPD2    C4 5502   1.485   3.484  10.009 -0.0516 -0.3411  0.5212
  364MPD2    C5 5503   1.386   3.519   9.918 -0.1851 -0.1983  0.2670
  364MPD2     H 5504   1.562   3.782  10.116  2.6104 -1.5286 -0.2112
  364MPD2    H1 5505   1.516   3.382  10.027 -0.5056 -0.5471  0.1311
  364MPD2    H2 5506   1.238   3.665   9.861  1.0996 -1.5367 -1.0993
  364MPD2    H3 5507   1.340   3.439   9.861 -3.3649  0.5969  1.6708
  364MPD2     N 5508   1.637   3.533  10.187  0.0002 -0.3206  0.2969
  364MPD2    H5 5509   1.663   3.435  10.190 -2.3691 -0.9377  1.4003
  364MPD2    N1 5510   1.341   3.881   9.996 -0.1746  0.3913 -1.0021
  364MPD2    H7 5511   1.253   3.887   9.947 -1.1744 -2.7622  0.4355
  365TMC3    C1 5512   1.339   4.119  10.018 -0.2827  0.0812  0.8132
  365TMC3    C2 5513   1.271   4.124   9.898  0.0740 -0.6030 -0.1101
  365TMC3    C3 5514   1.222   4.247   9.855  0.1468 -0.2083  1.4290
  365TMC3    C4 5515   1.347   4.225  10.103  0.1030 -0.0710  0.8767
  365TMC3    C5 5516   1.281   4.343  10.064  0.6629 -0.3751 -0.2479
  365TMC3    C6 5517   1.215   4.354   9.941  0.2118  0.2867  0.0727
  365TMC3     C 5518   1.395   3.992  10.063 -0.3724 -0.2379 -0.4736
  365TMC3     O 5519   1.489   4.003  10.142  0.9120 -0.1188  0.0687
  365TMC3     H 5520   1.292   4.041   9.833 -0.4386  1.8849 -3.4255
  365TMC3    H1 5521   1.412   4.218  10.189  0.2528  0.3298  0.7949
  365TMC3    H2 5522   1.164   4.443   9.907 -1.5212 -0.4217  0.7997
  365TMC3    C7 5523   1.287   4.462  10.149  0.7861 -0.0418  0.0914
  365TMC3    C8 5524   1.197   4.268   9.721 -1.0386 -0.3006 -0.0279
  365TMC3    O1 5525   1.265   4.573  10.104  0.5135  0.4668 -0.3624
  365TMC3    O2 5526   1.105   4.340   9.681  0.4118  0.5689  0.1154
  366MPD2     C 5527   0.485   4.250  15.256  0.1439 -0.0478 -0.6145
  366MPD2    C1 5528   0.462   4.350  15.162  0.3027  0.4407 -0.4182
  366MPD2    C2 5529   0.503   4.332  15.033 -0.5537 -0.1870  0.0489
  366MPD2    C3 5530   0.580   4.229  14.988  0.8747 -0.2575 -0.6211
  366MPD2    C4 5531   0.591   4.124  15.075  0.4257  0.0918 -0.5206
  366MPD2    C5 5532   0.542   4.133  15.208 -0.6329  0.4758  0.4727
  366MPD2     H 5533   0.464   4.414  14.973  0.2836 -0.1984 -0.5082
  366MPD2    H1 5534   0.636   4.033  15.036 -0.1131 -0.0332 -0.8379
  366MPD2    H2 5535   0.475   4.257  15.364  1.8105  0.9561 -0.5162
  366MPD2    H3 5536   0.568   4.054  15.278 -3.5688 -1.6111 -0.8088
  366MPD2     N 5537   0.602   4.216  14.851  0.1063 -0.3732 -0.9156
  366MPD2    H5 5538   0.624   4.121  14.821 -2.3737 -0.9587 -0.8662
  366MPD2    N1 5539   0.409   4.477  15.206 -0.4067  0.7913 -0.1931
  366MPD2    H7 5540   0.377   4.541  15.135  1.0134  2.9799  1.1656
  367TMC3    C1 5541   0.442   4.675  15.328  0.1363 -0.0507 -0.1571
  367TMC3    C2 5542   0.537   0.003  15.396 -0.1146 -0.5122 -0.5139
  367TMC3    C3 5543   0.553   0.133  15.356  0.1939 -0.1958  0.0379
  367TMC3    C4 5544   0.369   4.733  15.222  0.7531 -0.8565 -0.0493
  367TMC3    C5 5545   0.385   0.130  15.201  0.1170  0.4184 -0.3236
  367TMC3    C6 5546   0.482   0.205  15.261  0.0994  0.1304  0.0013
  367TMC3     C 5547   0.448   4.531  15.329 -0.3014  0.0302 -1.1618
  367TMC3     O 5548   0.509   4.473  15.418 -0.8292 -0.5619  0.3328
  367TMC3     H 5549   0.585   4.700  15.485  0.4453  4.2560  1.3794
  367TMC3    H1 5550   0.275   4.685  15.199  1.3096 -1.7542 -0.4834
  367TMC3    H2 5551   0.485   0.313  15.253 -1.0876  0.3161  1.9550
  367TMC3    C7 5552   0.279   0.205  15.123 -0.2866  0.2160 -0.4682
  367TMC3    C8 5553   0.642   0.210  15.437  0.7127  0.3754  0.0537
  367TMC3    O1 5554   0.265   0.324  15.152  0.3141  0.8670 -0.5733
  367TMC3    O2 5555   0.690   0.153  15.535  0.3794 -0.4347 -0.1701
  368MPD2     C 5556   2.266   1.844  13.154  0.1544  0.6027  0.0467
  368MPD2    C1 5557   2.208   1.915  13.053  0.1116 -0.0154  0.5528
  368MPD2    C2 5558   2.288   1.948  12.947 -0.4550 -0.2040  0.2986
  368MPD2    C3 5559   2.413   1.903  12.932 -0.5920  0.5764  0.3557
  368MPD2    C4 5560   2.473   1.841  13.041 -0.3509  0.7610 -0.1122
  368MPD2    C5 5561   2.399   1.809  13.153  0.0495  0.7179 -0.4404
  368MPD2     H 5562   2.237   1.992  12.862  1.6555 -0.7485 -1.2524
  368MPD2    H1 5563   2.575   1.806  13.029  0.4004  2.5253  1.1013
  368MPD2    H2 5564   2.212   1.815  13.244 -1.7226  2.7837 -0.3672
  368MPD2    H3 5565   2.440   1.754  13.238 -0.0654  3.8312  1.6226
  368MPD2     N 5566   2.495   1.946  12.823  0.1824 -0.2943 -0.0633
  368MPD2    H5 5567   2.595   1.943  12.839  0.3420  3.1609 -0.3067
  368MPD2    N1 5568   2.071   1.959  13.062  0.7469 -0.2726 -0.1301
  368MPD2    H7 5569   2.019   1.938  13.146 -2.2337 -0.9307 -2.1453
  369TMC3    C1 5570   1.872   2.062  13.016  0.8618 -0.3287  0.1357
  369TMC3    C2 5571   1.809   2.167  12.954 -0.1242 -0.2672 -0.5174
  369TMC3    C3 5572   1.675   2.163  12.943 -0.6998 -0.3302 -0.4225
  369TMC3    C4 5573   1.804   1.968  13.090  0.3106 -0.3545 -0.2092
  369TMC3    C5 5574   1.665   1.984  13.101 -1.0720  0.5519  0.2806
  369TMC3    C6 5575   1.602   2.073  13.016 -0.1248 -0.3086  0.1686
  369TMC3     C 5576   2.008   2.032  12.973  0.1332 -0.8787 -0.1938
  369TMC3     O 5577   2.051   2.092  12.873 -0.1833 -0.6106  0.0842
  369TMC3     H 5578   1.868   2.238  12.897 -0.3632  0.2860 -0.0679
  369TMC3    H1 5579   1.844   1.868  13.105 -2.2851 -0.9802  2.5628
  369TMC3    H2 5580   1.494   2.081  13.023 -0.3408 -1.0728 -2.1281
  369TMC3    C7 5581   1.584   1.867  13.122 -0.1496 -0.0306 -0.1099
  369TMC3    C8 5582   1.613   2.256  12.844 -0.6310 -0.7851  0.8930
  369TMC3    O1 5583   1.607   1.802  13.217  0.0872 -0.4166 -0.0672
  369TMC3    O2 5584   1.690   2.311  12.771 -0.0670  0.1338 -0.5526
  370TMC3    C1 5585   1.321   2.653  16.183 -0.4706  0.0564 -0.0239
  370TMC3    C2 5586   1.231   2.598  16.272 -0.3214  0.0353  0.2803
  370TMC3    C3 5587   1.155   2.491  16.223  0.0927 -0.0960  0.9123
  370TMC3    C4 5588   1.343   2.607  16.062 -0.6502  0.2739  0.0078
  370TMC3    C5 5589   1.278   2.488  16.026  0.6838  0.0416  0.4543
  370TMC3    C6 5590   1.185   2.431  16.105 -0.2217  0.9182 -0.0547
  370TMC3     C 5591   1.420   2.742  16.243 -0.6161 -0.0318 -0.4124
  370TMC3     O 5592   1.444   2.729  16.360 -0.2076 -0.6261  0.0300
  370TMC3     H 5593   1.238   2.623  16.377  0.2591 -1.3993  0.5885
  370TMC3    H1 5594   1.434   2.636  16.012 -1.1569  0.3835 -0.8482
  370TMC3    H2 5595   1.137   2.339  16.072 -0.3891  0.8377  0.4162
  370TMC3    C7 5596   1.324   2.424  15.902 -0.5063 -0.7331 -0.2019
  370TMC3    C8 5597   1.057   2.443  16.316 -0.4803  0.7366  0.5914
  370TMC3    O1 5598   1.333   2.486  15.801 -0.2198  0.1458  0.1249
  370TMC3    O2 5599   1.034   2.322  16.321 -0.3327  0.2851  0.6905
  371TMC3    C1 5600   2.457   0.850  15.398 -0.0773 -0.1123  0.4578
  371TMC3    C2 5601   2.390   0.811  15.508 -0.0603  0.3350  0.1540
  371TMC3    C3 5602   2.355   0.920  15.593 -0.1152  0.0297 -0.0225
  371TMC3    C4 5603   2.492   0.978  15.371 -0.0825 -0.4055 -0.2590
  371TMC3    C5 5604   2.459   1.078  15.459  0.5413 -0.6927  0.7683
  371TMC3    C6 5605   2.390   1.051  15.574 -0.8665 -0.2834 -0.4653
  371TMC3     C 5606   2.520   0.751  15.312  0.4743  0.0125  0.2081
  371TMC3     O 5607   2.581   0.791  15.215 -0.1851  0.1513 -0.3187
  371TMC3     H 5608   2.347   0.711  15.514  0.5984  0.0787  0.5963
  371TMC3    H1 5609   2.536   0.999  15.274  0.3170  0.3214  0.0828
  371TMC3    H2 5610   2.399   1.113  15.663 -0.6413 -1.4327  0.3145
  371TMC3    C7 5611   2.482   1.223  15.430 -0.4209 -0.1789  0.3627
  371TMC3    C8 5612   2.272   0.884  15.699  0.4018 -0.2719 -0.2069
  371TMC3    O1 5613   2.398   1.295  15.491 -0.0127 -0.3174  0.4764
  371TMC3    O2 5614   2.285   0.766  15.740 -0.3124 -0.2221 -0.1287
  372MPD2     C 5615   1.741   2.418  13.182  0.6937  1.3217  1.2096
  372MPD2    C1 5616   1.840   2.336  13.239  0.1744 -0.2795 -0.2863
  372MPD2    C2 5617   1.794   2.245  13.331  0.1234  0.3443  0.1003
  372MPD2    C3 5618   1.663   2.238  13.364  0.1459 -0.5257  0.2321
  372MPD2    C4 5619   1.566   2.323  13.320 -0.5779  1.4676  0.0050
  372MPD2    C5 5620   1.611   2.414  13.233 -0.5641 -0.5591 -0.3964
  372MPD2     H 5621   1.871   2.192  13.388 -0.5975  0.4254  1.1486
  372MPD2    H1 5622   1.463   2.329  13.350 -0.4071  0.5585  0.7605
  372MPD2    H2 5623   1.766   2.492  13.108 -0.4704 -0.5223 -1.0257
  372MPD2    H3 5624   1.550   2.496  13.198 -0.2613 -0.2857 -0.2787
  372MPD2     N 5625   1.620   2.128  13.448 -0.0248 -0.2400 -0.0837
  372MPD2    H5 5626   1.682   2.073  13.507 -0.3691 -1.3293 -0.7386
  372MPD2    N1 5627   1.979   2.333  13.203 -0.4890  0.0099 -0.0028
  372MPD2    H7 5628   2.040   2.275  13.260  1.0907  1.0945 -0.6079
  373TMC3    C1 5629   1.471   1.988  13.560 -0.1411 -0.0296  0.2725
  373TMC3    C2 5630   1.516   2.030  13.683 -0.6634  0.6044  0.1760
  373TMC3    C3 5631   1.523   1.940  13.784  0.4256 -0.2350 -0.1359
  373TMC3    C4 5632   1.446   1.860  13.527  0.1201  0.4032  0.0766
  373TMC3    C5 5633   1.469   1.769  13.628  0.0245  0.0840  0.1780
  373TMC3    C6 5634   1.497   1.801  13.757  0.6958  0.3965  0.2075
  373TMC3     C 5635   1.492   2.083  13.450  0.5211 -0.6736  0.4329
  373TMC3     O 5636   1.406   2.087  13.359  0.0278 -0.0296  0.3385
  373TMC3     H 5637   1.532   2.136  13.700 -2.8377  1.2084 -1.5142
  373TMC3    H1 5638   1.428   1.831  13.424  1.1624 -0.1513  0.0477
  373TMC3    H2 5639   1.504   1.723  13.832  1.1539 -0.4827 -0.7643
  373TMC3    C7 5640   1.504   1.644  13.579  0.6024 -0.0931  0.0329
  373TMC3    C8 5641   1.583   1.986  13.906  0.5273  0.6284  0.7879
  373TMC3    O1 5642   1.442   1.605  13.479 -0.0455  0.1026 -0.0229
  373TMC3    O2 5643   1.640   2.092  13.906  0.3603  0.2591 -0.1617
  374TMC3    C1 5644   1.940   2.975   9.496  0.1829 -0.5260 -0.0997
  374TMC3    C2 5645   2.051   3.024   9.563 -0.4527 -0.1567  0.2276
  374TMC3    C3 5646   2.160   3.058   9.481  0.4960 -0.3099  0.7337
  374TMC3    C4 5647   1.946   2.932   9.364  0.1927  0.4429 -0.5446
  374TMC3    C5 5648   2.068   2.952   9.301 -0.3385  0.8126 -0.0732
  374TMC3    C6 5649   2.175   3.019   9.351  0.2342  0.6123 -0.6530
  374TMC3     C 5650   1.810   2.982   9.552  0.2007  0.3219  0.1839
  374TMC3     O 5651   1.719   3.016   9.476  0.2675  0.2681 -0.1975
  374TMC3     H 5652   2.036   3.095   9.643 -1.3770 -0.6828  0.5177
  374TMC3    H1 5653   1.862   2.889   9.311 -1.1230  1.2493  0.8682
  374TMC3    H2 5654   2.269   3.029   9.297  1.2034 -0.2594  0.8521
  374TMC3    C7 5655   2.090   2.890   9.175  0.2310  0.1928  0.1753
  374TMC3    C8 5656   2.270   3.107   9.551  0.7669  0.4984 -0.8378
  374TMC3    O1 5657   2.195   2.914   9.117  0.5851 -0.3497  0.1550
  374TMC3    O2 5658   2.359   3.158   9.485  0.3428 -0.0311  0.7158
  375MPD2     C 5659   2.773   2.905  16.869 -0.3530 -0.1738 -0.1237
  375MPD2    C1 5660   2.685   2.900  16.763 -0.3933  0.8067 -0.1861
  375MPD2    C2 5661   2.718   2.826  16.647  0.3078  0.4798 -0.1163
  375MPD2    C3 5662   2.841   2.776  16.625  0.2165  0.2740 -0.1476
  375MPD2    C4 5663   2.931   2.789  16.732  0.6150 -0.0899 -0.7925
  375MPD2    C5 5664   2.898   2.847  16.852 -0.2242  0.2164 -0.5128
  375MPD2     H 5665   2.634   2.825  16.579 -1.4919  0.2270  2.1158
  375MPD2    H1 5666   3.033   2.751  16.735  0.4595 -0.4730 -0.4632
  375MPD2    H2 5667   2.762   2.952  16.966 -2.9352  0.5105 -0.7493
  375MPD2    H3 5668   2.972   2.862  16.930 -0.9134  0.2558  0.1329
  375MPD2     N 5669   2.891   2.715  16.505  0.1173 -0.6580 -0.4326
  375MPD2    H5 5670   2.985   2.678  16.506 -0.0231 -1.0114 -0.3396
  375MPD2    N1 5671   2.557   2.963  16.777  0.5701  0.0925 -0.0097
  375MPD2    H7 5672   2.490   2.954  16.702 -1.2202 -1.0128  1.7080
  376TMC3    C1 5673   2.923   2.676  16.283  0.4838 -0.2050  0.4888
  376TMC3    C2 5674   3.051   2.714  16.304 -0.1503  0.0661 -0.0959
  376TMC3    C3 5675   3.136   2.691  16.196 -0.2881  0.6181  0.4122
  376TMC3    C4 5676   2.868   2.643  16.163 -0.4613 -0.4020  0.2940
  376TMC3    C5 5677   2.955   2.634  16.055  0.3285  0.0623  0.7932
  376TMC3    C6 5678   3.090   2.653  16.071 -0.2133  0.2118 -1.1620
  376TMC3     C 5679   2.822   2.700  16.385  0.1891  0.7441 -0.2166
  376TMC3     O 5680   2.708   2.726  16.357  0.1946  0.2699 -0.7680
  376TMC3     H 5681   3.089   2.771  16.388 -0.4780  0.3076 -0.1092
  376TMC3    H1 5682   2.760   2.645  16.155 -0.3854 -1.7418 -1.1390
  376TMC3    H2 5683   3.164   2.620  16.000  1.1600  0.1003  0.3092
  376TMC3    C7 5684   2.911   2.663  15.922  0.7458  0.5937 -0.4802
  376TMC3    C8 5685   3.273   2.734  16.204  0.0542 -0.1024 -0.1659
  376TMC3    O1 5686   2.996   2.700  15.842  0.4513 -0.1619  0.3463
  376TMC3    O2 5687   3.338   2.735  16.101 -0.1242  0.3237  0.3415
  377MPD2     C 5688   1.121   2.706  12.401  0.1458  1.1680  0.1681
  377MPD2    C1 5689   1.021   2.768  12.327  0.5488 -0.5048 -0.4239
  377MPD2    C2 5690   0.888   2.748  12.370  0.1321  0.0144 -0.7481
  377MPD2    C3 5691   0.853   2.659  12.471  0.1039 -0.6899 -0.4072
  377MPD2    C4 5692   0.956   2.589  12.538 -0.8929 -0.0011 -0.1778
  377MPD2    C5 5693   1.084   2.610  12.493  0.2591  0.7282  0.2989
  377MPD2     H 5694   0.804   2.797  12.322  0.3148  0.9387 -0.1235
  377MPD2    H1 5695   0.923   2.509  12.602  0.8106 -0.9409 -0.4640
  377MPD2    H2 5696   1.225   2.721  12.377  0.3951 -1.2909 -0.3433
  377MPD2    H3 5697   1.160   2.553  12.546 -0.9575 -1.5940 -0.4369
  377MPD2     N 5698   0.719   2.627  12.506 -0.6190 -0.0301  0.5027
  377MPD2    H5 5699   0.706   2.554  12.576  0.3206  0.4462  1.1739
  377MPD2    N1 5700   1.064   2.851  12.226  0.4288  0.0913 -0.1549
  377MPD2    H7 5701   1.159   2.859  12.191  0.9868  0.0939  1.3350
  378TMC3    C1 5702   1.031   3.118  11.831 -0.2993 -0.5931  0.3570
  378TMC3    C2 5703   0.976   3.061  11.942  0.1067 -0.0831 -0.1870
  378TMC3    C3 5704   1.051   3.009  12.042 -0.4871  0.3442 -0.1778
  378TMC3    C4 5705   1.167   3.106  11.814 -0.0497  0.1074  0.5028
  378TMC3    C5 5706   1.233   3.051  11.913  0.5430  0.7195  0.1514
  378TMC3    C6 5707   1.188   3.013  12.037 -0.2077 -0.9158  0.3256
  378TMC3     C 5708   0.952   3.128  11.710  0.2861  0.0087 -0.7212
  378TMC3     O 5709   0.857   3.054  11.700  0.2360  0.6562 -0.2932
  378TMC3     H 5710   0.870   3.076  11.955  0.2787  1.1470 -0.1884
  378TMC3    H1 5711   1.217   3.138  11.723 -2.9212 -1.5178 -1.6689
  378TMC3    H2 5712   1.262   2.967  12.101 -2.8842  0.0764  4.0840
  378TMC3    C7 5713   1.365   3.005  11.889 -0.2022  0.3007  0.1029
  378TMC3    C8 5714   0.977   2.931  12.144  0.6815 -0.0340 -1.3776
  378TMC3    O1 5715   1.447   3.020  11.979  0.1740 -0.3711 -0.2093
  378TMC3    O2 5716   0.854   2.921  12.145 -0.0488 -0.1971  0.3173
  379MPD2     C 5717   1.097   0.512  16.459 -0.6994 -0.4671  0.5201
  379MPD2    C1 5718   1.219   0.496  16.409  0.0549  0.5013 -0.2672
  379MPD2    C2 5719   1.329   0.459  16.493 -0.0046  0.2839  0.0461
  379MPD2    C3 5720   1.307   0.426  16.621  0.4805 -0.1591 -0.5141
  379MPD2    C4 5721   1.184   0.437  16.675  0.9108 -0.0744  0.4680
  379MPD2    C5 5722   1.085   0.493  16.595 -0.2339 -0.3629 -0.0721
  379MPD2     H 5723   1.430   0.463  16.455  0.2476  0.9476  0.7836
  379MPD2    H1 5724   1.168   0.414  16.780  1.9638  1.5432  0.9786
  379MPD2    H2 5725   1.011   0.538  16.398 -0.7562  1.8637  1.5981
  379MPD2    H3 5726   0.986   0.513  16.636  0.3333 -0.3074  1.2710
  379MPD2     N 5727   1.411   0.403  16.712  0.2163 -0.1871  0.8492
  379MPD2    H5 5728   1.386   0.381  16.808 -0.2819 -0.9521  0.5467
  379MPD2    N1 5729   1.236   0.514  16.273  0.0791 -0.0223 -0.1709
  379MPD2    H7 5730   1.148   0.521  16.222  0.3894  2.7436 -0.2849
  380TMC3    C1 5731   1.313   0.474  16.054 -0.3425 -0.2268 -0.3627
  380TMC3    C2 5732   1.400   0.396  15.974 -0.0968 -0.1809  0.1733
  380TMC3    C3 5733   1.362   0.368  15.848 -0.3857 -0.3653 -0.7190
  380TMC3    C4 5734   1.195   0.516  15.998 -0.7282 -0.7192 -0.1901
  380TMC3    C5 5735   1.160   0.487  15.867 -0.1039  0.1097 -0.0726
  380TMC3    C6 5736   1.246   0.409  15.794  0.0207  0.3144 -0.0557
  380TMC3     C 5737   1.349   0.491  16.195 -0.3917 -0.0378  0.0716
  380TMC3     O 5738   1.458   0.453  16.240 -0.4152 -0.9257  0.0921
  380TMC3     H 5739   1.499   0.373  16.012  0.7116 -0.8240 -2.3268
  380TMC3    H1 5740   1.134   0.593  16.045  0.3455 -0.3950  0.6599
  380TMC3    H2 5741   1.239   0.393  15.687 -0.0169 -2.0020  0.2798
  380TMC3    C7 5742   1.054   0.561  15.795 -0.6167  0.7984  0.4361
  380TMC3    C8 5743   1.472   0.337  15.747  0.0259 -0.4612  0.8157
  380TMC3    O1 5744   1.018   0.671  15.839  0.3455  0.4704 -0.1683
  380TMC3    O2 5745   1.457   0.386  15.633 -0.3403  0.5371 -0.0862
  381TMC3    C1 5746   1.066   1.764  16.210  0.5092 -0.0135 -0.4384
  381TMC3    C2 5747   1.131   1.879  16.179  0.5969 -0.3877 -0.5425
  381TMC3    C3 5748   1.136   1.979  16.270  0.6256 -0.2646  0.2948
  381TMC3    C4 5749   1.014   1.744  16.334  0.6024  0.3416 -0.1527
  381TMC3    C5 5750   1.013   1.854  16.414 -1.0903 -0.7814 -0.1739
  381TMC3    C6 5751   1.079   1.970  16.390 -0.1224  0.1785  0.0834
  381TMC3     C 5752   1.093   1.650  16.123  0.2786  0.2333 -0.7355
  381TMC3     O 5753   1.173   1.670  16.032 -0.1389  0.0747  0.1607
  381TMC3     H 5754   1.170   1.888  16.078  1.0001 -1.2358 -0.4674
  381TMC3    H1 5755   0.968   1.648  16.354 -0.7702  1.0074 -0.1406
  381TMC3    H2 5756   1.072   2.047  16.466 -1.1793  1.3929 -1.2538
  381TMC3    C7 5757   0.936   1.838  16.535 -0.1863  0.0865 -0.5538
  381TMC3    C8 5758   1.236   2.086  16.241  0.1980 -0.0797 -0.3447
  381TMC3    O1 5759   0.915   1.720  16.571  0.3257 -0.1897 -0.4839
  381TMC3    O2 5760   1.282   2.095  16.131  0.2171  0.2565  0.5112
  382MPD2     C 5761   0.223   4.349  16.694 -0.0629  0.2239 -0.0021
  382MPD2    C1 5762   0.126   4.359  16.792 -0.1591  1.0983 -0.3656
  382MPD2    C2 5763   0.081   4.244  16.841  0.5160  0.8656 -0.0409
  382MPD2    C3 5764   0.124   4.116  16.795 -0.2300 -0.7308 -0.5518
  382MPD2    C4 5765   0.211   4.113  16.693  0.1330 -0.7754 -0.5717
  382MPD2    C5 5766   0.272   4.231  16.653  0.0536  0.8706  0.7560
  382MPD2     H 5767   0.032   4.242  16.937  1.6147 -0.7588  0.4966
  382MPD2    H1 5768   0.253   4.017  16.664  0.3045 -0.5754 -0.9917
  382MPD2    H2 5769   0.268   4.436  16.647 -1.6428  2.1013  1.9668
  382MPD2    H3 5770   0.358   4.235  16.587  0.3942 -1.7710  1.0529
  382MPD2     N 5771   0.089   3.990  16.855  0.8452  0.3222  0.0922
  382MPD2    H5 5772   0.116   3.902  16.813 -0.5916  2.0203 -4.2894
  382MPD2    N1 5773   0.090   4.488  16.844 -0.6999  0.7565  0.2131
  382MPD2    H7 5774   0.033   4.485  16.927  1.2397  1.2802  1.5498
  383TMC3    C1 5775   0.021   3.829  17.012  0.0179  0.4215 -0.0328
  383TMC3    C2 5776   4.736   3.734  16.917  0.5366  0.8671 -0.3145
  383TMC3    C3 5777   4.716   3.609  16.962  0.2172 -0.0909 -0.1775
  383TMC3    C4 5778   0.021   3.797  17.146 -0.4313  0.6386  0.1416
  383TMC3    C5 5779   0.014   3.669  17.185  0.0809  0.1621 -0.6245
  383TMC3    C6 5780   4.737   3.571  17.092  0.4704  0.0048 -0.5649
  383TMC3     C 5781   0.031   3.972  16.980  0.6997 -0.4349 -0.6171
  383TMC3     O 5782   0.004   4.055  17.065  0.0802 -0.1882 -0.2345
  383TMC3     H 5783   4.710   3.757  16.814  0.6892 -0.6566 -0.6995
  383TMC3    H1 5784   0.046   3.877  17.215  1.0416 -0.2927  0.6944
  383TMC3    H2 5785   0.010   3.467  17.123 -1.5181 -0.4839 -1.5598
  383TMC3    C7 5786   4.667   3.651  17.302 -0.6827  0.4221  0.6964
  383TMC3    C8 5787   4.638   3.525  16.877  0.0737  0.5592 -0.1324
  383TMC3    O1 5788   4.600   3.747  17.339 -0.6494  0.0676 -0.1129
  383TMC3    O2 5789   4.652   3.528  16.757  0.2820  0.0203 -0.1418
  384MPD2     C 5790   1.718   0.279  11.832  0.3523 -0.0876 -0.2507
  384MPD2    C1 5791   1.791   0.385  11.769 -0.4253 -0.3709 -0.2652
  384MPD2    C2 5792   1.883   0.344  11.673 -0.3373 -0.3301 -0.5522
  384MPD2    C3 5793   1.921   0.207  11.664 -0.0379  0.0737 -0.6936
  384MPD2    C4 5794   1.852   0.107  11.736 -0.0931 -0.7762 -0.2626
  384MPD2    C5 5795   1.744   0.146  11.811 -0.5443 -0.1716  0.4831
  384MPD2     H 5796   1.936   0.420  11.617 -2.6075  2.2271  0.7880
  384MPD2    H1 5797   1.875   0.002  11.724 -0.6811 -0.7082 -1.9961
  384MPD2    H2 5798   1.630   0.296  11.893  2.0069  2.8049  1.3623
  384MPD2    H3 5799   1.689   0.066  11.859  0.3219 -0.6954  0.6049
  384MPD2     N 5800   2.025   0.153  11.585 -0.3272  0.0019 -0.0823
  384MPD2    H5 5801   2.045   0.053  11.580  0.4420  0.2246 -1.2562
  384MPD2    N1 5802   1.772   0.520  11.803 -0.0975 -0.3480 -0.6674
  384MPD2    H7 5803   1.801   0.592  11.737 -1.6715  1.2140  0.3418
  385TMC3    C1 5804   2.212   0.138  11.464  0.0074  0.4178 -0.1795
  385TMC3    C2 5805   2.168   0.007  11.446  0.5033  0.4866  0.1704
  385TMC3    C3 5806   2.252   4.642  11.473 -0.1279  0.4138 -0.2618
  385TMC3    C4 5807   2.319   0.162  11.542  0.2479  0.2978  0.1595
  385TMC3    C5 5808   2.389   0.052  11.600  0.4495  0.6237 -0.0891
  385TMC3    C6 5809   2.368   4.663  11.548 -0.2819 -0.2468 -0.2003
  385TMC3     C 5810   2.107   0.226  11.509  0.6072  0.3380 -0.1351
  385TMC3     O 5811   2.132   0.349  11.516 -0.5144 -0.1017 -0.0533
  385TMC3     H 5812   2.077   4.732  11.389  1.1152  0.4465 -0.7916
  385TMC3    H1 5813   2.341   0.264  11.570  0.0543 -0.6848  3.8292
  385TMC3    H2 5814   2.421   4.574  11.580  2.7584  1.7486  0.3434
  385TMC3    C7 5815   2.362   0.062  11.741 -0.5905  0.9946 -0.1742
  385TMC3    C8 5816   2.189   4.517  11.498  0.4932 -0.2830  0.4059
  385TMC3    O1 5817   2.346   0.173  11.791  0.1832  0.5234  0.1775
  385TMC3    O2 5818   2.228   4.457  11.599 -0.2184  0.7335  0.1914
  386TMC3    C1 5819   2.429   2.151  11.511  0.9088 -0.4334 -0.7576
  386TMC3    C2 5820   2.385   2.171  11.377  0.2073 -0.2370  0.1448
  386TMC3    C3 5821   2.264   2.233  11.359  0.4730  0.1659 -0.6429
  386TMC3    C4 5822   2.351   2.197  11.613 -0.3556  0.1615  0.3613
  386TMC3    C5 5823   2.226   2.249  11.587  0.3826 -0.4467 -0.5166
  386TMC3    C6 5824   2.188   2.279  11.460 -0.1007 -0.8193  0.2539
  386TMC3     C 5825   2.570   2.128  11.518  0.2641 -0.6002  0.5153
  386TMC3     O 5826   2.649   2.182  11.443 -0.2567 -0.0098 -0.6001
  386TMC3     H 5827   2.454   2.171  11.294 -2.0475 -0.0791 -1.7341
  386TMC3    H1 5828   2.385   2.170  11.713 -0.0351  0.6677  0.3928
  386TMC3    H2 5829   2.092   2.325  11.441 -0.2752 -1.8750 -1.4099
  386TMC3    C7 5830   2.131   2.258  11.693  0.3359 -0.3247  0.3985
  386TMC3    C8 5831   2.236   2.296  11.228 -0.0841 -0.0650  0.2122
  386TMC3    O1 5832   2.031   2.323  11.661  0.0761 -0.2151 -0.3994
  386TMC3    O2 5833   2.167   2.396  11.239  0.2499 -0.1980  0.0219
  387MPD2     C 5834   3.986   2.534   9.337  0.1413  0.2297 -0.0648
  387MPD2    C1 5835   4.084   2.501   9.427 -0.0511  0.6327 -0.0636
  387MPD2    C2 5836   4.115   2.367   9.440 -0.3773 -0.2865 -0.0733
  387MPD2    C3 5837   4.057   2.265   9.369 -0.4600 -0.5434 -1.0342
  387MPD2    C4 5838   3.964   2.299   9.273  0.3497 -0.4111 -0.7048
  387MPD2    C5 5839   3.933   2.432   9.260  0.1778  0.1544 -0.7609
  387MPD2     H 5840   4.171   2.341   9.529  1.6078  1.7964 -0.7261
  387MPD2    H1 5841   3.921   2.222   9.210  0.9493 -1.5313  0.2635
  387MPD2    H2 5842   3.949   2.635   9.323 -0.9692  0.0077  1.2450
  387MPD2    H3 5843   3.860   2.457   9.184 -1.9023 -2.2847  0.4256
  387MPD2     N 5844   4.094   2.127   9.399  0.2921  0.7166 -0.2255
  387MPD2    H5 5845   4.183   2.119   9.447  0.7834  0.6946 -1.1449
  387MPD2    N1 5846   4.138   2.595   9.516 -0.2903 -0.7860  0.2966
  387MPD2    H7 5847   4.213   2.552   9.571  0.7281 -1.1272 -1.3484
  388TMC3    C1 5848   4.155   2.782   9.661  1.3026 -0.8835  0.6205
  388TMC3    C2 5849   4.099   2.900   9.703 -0.2845  0.2465 -0.0377
  388TMC3    C3 5850   4.110   2.944   9.837 -0.0554 -0.1217  0.0823
  388TMC3    C4 5851   4.208   2.702   9.758 -1.3370 -0.3547  0.1240
  388TMC3    C5 5852   4.201   2.740   9.890 -1.0598  0.5059 -0.0537
  388TMC3    C6 5853   4.155   2.865   9.930  0.2639  0.4702  0.3376
  388TMC3     C 5854   4.111   2.732   9.529  0.4251 -0.1409 -0.4279
  388TMC3     O 5855   4.035   2.803   9.461  0.0297 -0.1678  0.2322
  388TMC3     H 5856   4.046   2.965   9.634  0.4872  1.5681  0.6218
  388TMC3    H1 5857   4.243   2.603   9.733 -1.5391 -0.0592 -1.3399
  388TMC3    H2 5858   4.139   2.883  10.036  3.1363  1.3055  0.6535
  388TMC3    C7 5859   4.198   2.634   9.984 -0.7752 -0.1573 -0.0922
  388TMC3    C8 5860   4.043   3.065   9.885 -0.5672  0.4502 -0.7497
  388TMC3    O1 5861   4.272   2.644  10.079  0.0443 -0.0337  0.3056
  388TMC3    O2 5862   3.962   3.114   9.808 -0.1499  0.1339  0.0770
  389MPD2     C 5863   3.569   0.787  10.430 -0.5896  1.1509  0.5968
  389MPD2    C1 5864   3.508   0.670  10.394  0.1715  0.4893 -0.3826
  389MPD2    C2 5865   3.462   0.590  10.487 -0.4648 -0.8516  0.0576
  389MPD2    C3 5866   3.480   0.615  10.621 -0.2921 -0.1254  0.0130
  389MPD2    C4 5867   3.530   0.734  10.662  0.1871  0.2668  0.3041
  389MPD2    C5 5868   3.582   0.814  10.568 -0.0993  0.6888 -0.1770
  389MPD2     H 5869   3.411   0.497  10.465 -5.4874  1.2959  2.6681
  389MPD2    H1 5870   3.551   0.768  10.763  1.8750  0.3732 -0.0936
  389MPD2    H2 5871   3.601   0.866  10.363 -0.6274  0.7996  0.1627
  389MPD2    H3 5872   3.614   0.912  10.602  1.9230  0.3730 -1.1285
  389MPD2     N 5873   3.427   0.534  10.722  0.2742  0.8467  0.1646
  389MPD2    H5 5874   3.445   0.569  10.816  1.3041  0.3730  0.1425
  389MPD2    N1 5875   3.485   0.657  10.251  0.1898  0.0765 -0.0883
  389MPD2    H7 5876   3.536   0.717  10.188  1.1185  0.2830  0.8602
  390TMC3    C1 5877   3.302   0.379  10.843  1.0019 -0.0847  0.3307
  390TMC3    C2 5878   3.379   0.431  10.943  0.5776 -0.4863  0.2037
  390TMC3    C3 5879   3.318   0.484  11.050  0.3611  0.6582 -0.0857
  390TMC3    C4 5880   3.171   0.355  10.861 -0.8543 -0.3543  0.2018
  390TMC3    C5 5881   3.112   0.409  10.970  0.1356  0.1425 -0.9937
  390TMC3    C6 5882   3.182   0.493  11.055  0.0630 -0.0559 -0.5414
  390TMC3     C 5883   3.356   0.411  10.711  0.7165 -0.0395 -0.1345
  390TMC3     O 5884   3.327   0.348  10.610 -0.5649 -0.4314 -0.3249
  390TMC3     H 5885   3.487   0.422  10.940  0.5545 -0.7253  0.0871
  390TMC3    H1 5886   3.108   0.310  10.785 -0.9448  1.0922 -0.5689
  390TMC3    H2 5887   3.139   0.551  11.136 -0.1493 -1.5335  0.4153
  390TMC3    C7 5888   3.022   0.332  11.047 -0.3277 -0.4409  0.3360
  390TMC3    C8 5889   3.345   0.392  11.159  0.0497 -0.2104 -0.3824
  390TMC3    O1 5890   2.960   0.393  11.135  0.6752  0.0995  0.2652
  390TMC3    O2 5891   3.376   0.284  11.120  0.3593 -0.7201  0.2712
  391MPD2     C 5892   2.643   2.472  11.043  0.1142 -0.5564 -0.0819
  391MPD2    C1 5893   2.705   2.599  11.040 -0.1332  0.3430 -0.2179
  391MPD2    C2 5894   2.692   2.688  10.932 -0.1059  0.1146 -0.3849
  391MPD2    C3 5895   2.596   2.662  10.834 -0.1886 -0.2789 -0.2795
  391MPD2    C4 5896   2.518   2.549  10.856  1.0156  0.6024  0.7264
  391MPD2    C5 5897   2.554   2.449  10.945  0.5843 -0.5225  0.2393
  391MPD2     H 5898   2.762   2.769  10.920  0.3122 -0.5309 -2.2663
  391MPD2    H1 5899   2.453   2.520  10.775  1.1655  0.1535  0.7711
  391MPD2    H2 5900   2.666   2.394  11.115 -4.2690 -0.7764  1.0850
  391MPD2    H3 5901   2.511   2.350  10.934  0.4802 -0.4216 -0.2910
  391MPD2     N 5902   2.586   2.758  10.727 -0.5391  0.2047 -0.2166
  391MPD2    H5 5903   2.646   2.839  10.735 -1.0320  0.6363 -0.9491
  391MPD2    N1 5904   2.802   2.626  11.140  0.0009 -0.1064  0.2759
  391MPD2    H7 5905   2.804   2.559  11.216 -0.5592 -0.8700 -0.3724
  392TMC3    C1 5906   2.567   2.817  10.504  0.2538  0.6019  1.0651
  392TMC3    C2 5907   2.485   2.842  10.391  0.2866 -0.0767  0.7540
  392TMC3    C3 5908   2.552   2.879  10.273  0.1642  0.2064  0.0877
  392TMC3    C4 5909   2.709   2.838  10.493 -0.1649 -0.1952 -0.1571
  392TMC3    C5 5910   2.764   2.879  10.376 -0.1065  0.1986 -0.2802
  392TMC3    C6 5911   2.690   2.894  10.268 -0.1816 -0.3275  0.5306
  392TMC3     C 5912   2.516   2.730  10.614  0.3968  0.2635  0.4323
  392TMC3     O 5913   2.420   2.663  10.581  0.2811  0.3336  0.6117
  392TMC3     H 5914   2.378   2.825  10.390  0.2033  0.3229  2.3132
  392TMC3    H1 5915   2.772   2.821  10.580  0.7877 -0.4328 -0.9053
  392TMC3    H2 5916   2.741   2.928  10.178  2.1986 -2.0774  1.1952
  392TMC3    C7 5917   2.898   2.934  10.389 -0.1226 -0.0935  0.5126
  392TMC3    C8 5918   2.465   2.935  10.173  0.8102 -0.0374 -0.0927
  392TMC3    O1 5919   2.907   3.013  10.484  0.4787 -0.3747 -0.1274
  392TMC3    O2 5920   2.356   2.881  10.157  0.0190  0.1745  0.0940
  393TMC3    C1 5921   1.583   0.808  11.003  0.6419 -0.2666 -0.3747
  393TMC3    C2 5922   1.523   0.869  11.107 -0.1961  0.0260  0.7326
  393TMC3    C3 5923   1.471   0.793  11.210 -0.4546 -0.6902 -0.0099
  393TMC3    C4 5924   1.592   0.670  10.996 -0.2360  0.3162 -1.0518
  393TMC3    C5 5925   1.546   0.596  11.104 -0.1282  0.8510 -0.0685
  393TMC3    C6 5926   1.479   0.657  11.207 -0.3597  0.2984  0.0428
  393TMC3     C 5927   1.610   0.878  10.877  0.0195 -0.3140  0.0594
  393TMC3     O 5928   1.565   0.990  10.884 -0.3770  0.1606 -0.7554
  393TMC3     H 5929   1.524   0.977  11.116  1.0118  0.1870 -1.2306
  393TMC3    H1 5930   1.622   0.623  10.902  0.2555 -1.0197 -0.2299
  393TMC3    H2 5931   1.446   0.587  11.283 -1.6973 -0.0327 -0.8282
  393TMC3    C7 5932   1.554   0.454  11.102  0.1561 -0.0690 -0.9742
  393TMC3    C8 5933   1.394   0.859  11.312  0.4627  0.1578 -0.4491
  393TMC3    O1 5934   1.503   0.395  11.199 -0.4155 -0.0914  0.4821
  393TMC3    O2 5935   1.348   0.783  11.398  0.0387  0.8448  0.2137
  394TMC3    C1 5936   3.392   0.586  10.051  0.1464 -0.4683 -0.2362
  394TMC3    C2 5937   3.362   0.485   9.974 -0.4896 -0.3505  0.3007
  394TMC3    C3 5938   3.348   0.498   9.834  0.2044 -1.0290 -0.0070
  394TMC3    C4 5939   3.404   0.713   9.996  0.3116  0.0507  0.7240
  394TMC3    C5 5940   3.401   0.725   9.859 -0.1351 -0.1441  1.1527
  394TMC3    C6 5941   3.379   0.619   9.769 -0.0444  0.5021  0.0202
  394TMC3     C 5942   3.399   0.564  10.192 -0.0623  0.4925  0.8337
  394TMC3     O 5943   3.339   0.466  10.237  0.3309 -0.0350 -0.1725
  394TMC3     H 5944   3.344   0.387  10.018  0.0919 -0.9190 -0.7108
  394TMC3    H1 5945   3.420   0.802  10.054  0.0137  1.0135 -0.6724
  394TMC3    H2 5946   3.361   0.638   9.664  2.9709 -1.6413 -0.8813
  394TMC3    C7 5947   3.420   0.852   9.802 -0.4699  0.1932 -0.3781
  394TMC3    C8 5948   3.364   0.380   9.753  0.7179  0.3284  0.3533
  394TMC3    O1 5949   3.387   0.945   9.874  0.4936 -0.3344  0.0194
  394TMC3    O2 5950   3.413   0.388   9.644 -0.1006 -0.3054  0.1561
  395TMC3    C1 5951   3.272   2.629  14.100 -0.7226 -0.4453  0.3427
  395TMC3    C2 5952   3.162   2.711  14.095 -0.0726 -0.4355 -0.2311
  395TMC3    C3 5953   3.175   2.842  14.135 -0.3686  0.3179 -0.3149
  395TMC3    C4 5954   3.402   2.681  14.114  0.1562 -1.2427  0.5427
  395TMC3    C5 5955   3.414   2.813  14.142 -0.1693 -0.4437  0.4475
  395TMC3    C6 5956   3.302   2.894  14.160 -0.7728  0.0009 -0.1719
  395TMC3     C 5957   3.259   2.502  14.162  0.3751 -0.1236  0.3189
  395TMC3     O 5958   3.348   2.472  14.240  0.1351  0.7532 -0.9213
  395TMC3     H 5959   3.065   2.661  14.092  1.0251 -2.6439  1.4265
  395TMC3    H1 5960   3.485   2.619  14.146  1.0987 -1.4746 -2.3547
  395TMC3    H2 5961   3.312   2.993  14.203 -0.9100  0.3031 -0.8409
  395TMC3    C7 5962   3.545   2.872  14.166  0.0982 -0.6252 -0.0111
  395TMC3    C8 5963   3.064   2.913  14.204 -0.7234 -0.4834 -0.6738
  395TMC3    O1 5964   3.557   2.952  14.258 -0.0691  0.1936  0.5433
  395TMC3    O2 5965   3.093   3.006  14.276  0.2144 -0.5456 -0.5450
  396MPD2     C 5966   3.139   3.497  16.759 -0.0658 -0.1677 -0.0553
  396MPD2    C1 5967   3.226   3.592  16.811  0.2500 -0.7720  0.1980
  396MPD2    C2 5968   3.301   3.668  16.720  0.2438  0.8534 -0.3111
  396MPD2    C3 5969   3.276   3.660  16.587  0.3056  0.2015 -0.0942
  396MPD2    C4 5970   3.183   3.568  16.539  0.4720 -0.6581  0.2258
  396MPD2    C5 5971   3.112   3.490  16.622 -0.3910 -0.8531 -0.2603
  396MPD2     H 5972   3.373   3.742  16.752  2.9550 -2.5735  1.4897
  396MPD2    H1 5973   3.163   3.550  16.434 -1.0072  2.7985 -0.0689
  396MPD2    H2 5974   3.084   3.429  16.823  1.2127  0.5741  1.8280
  396MPD2    H3 5975   3.036   3.417  16.597 -0.5277 -0.6996 -0.2875
  396MPD2     N 5976   3.344   3.754  16.505  0.0791  0.9033  0.1516
  396MPD2    H5 5977   3.406   3.821  16.549  1.3897 -1.1591  1.4274
  396MPD2    N1 5978   3.246   3.595  16.951  0.2901 -0.4135  0.4769
  396MPD2    H7 5979   3.187   3.530  17.002 -0.3205  0.1342  0.4554
  397TMC3    C1 5980   3.349   3.660  17.160 -0.0959 -0.0343 -0.3267
  397TMC3    C2 5981   3.468   3.715  17.206 -0.0272  0.4973  0.2555
  397TMC3    C3 5982   3.551   3.628  17.278 -0.4503  0.0093  0.1131
  397TMC3    C4 5983   3.302   3.541  17.214  0.6288 -0.3143 -0.1991
  397TMC3    C5 5984   3.369   3.480  17.317  0.6429  0.2373  0.8933
  397TMC3    C6 5985   3.497   3.514  17.343 -0.2144  0.8365  0.4387
  397TMC3     C 5986   3.331   3.677  17.019  0.4332  0.4465  0.1031
  397TMC3     O 5987   3.390   3.776  16.968  0.2240  0.7219  0.2082
  397TMC3     H 5988   3.509   3.795  17.146  0.2267  0.5619  0.5149
  397TMC3    H1 5989   3.211   3.494  17.180 -0.2944  0.1241  1.6393
  397TMC3    H2 5990   3.559   3.452  17.406  0.2105  0.9046  0.0866
  397TMC3    C7 5991   3.316   3.358  17.382  0.3267 -0.3046  0.1382
  397TMC3    C8 5992   3.664   3.584  17.195 -0.0193 -0.2665 -0.9852
  397TMC3    O1 5993   3.226   3.304  17.318 -0.6059 -0.0462  0.7892
  397TMC3    O2 5994   3.700   3.466  17.187 -0.1454 -0.2592  0.2264
  398MPD2     C 5995   1.657   0.782   0.102 -0.5719  0.3430 -0.0660
  398MPD2    C1 5996   1.720   0.664   0.149  0.8148 -1.1716  0.3222
  398MPD2    C2 5997   1.859   0.663   0.167 -0.5587  0.3542  1.1152
  398MPD2    C3 5998   1.934   0.771   0.136  0.6675  0.3721 -0.4624
  398MPD2    C4 5999   1.872   0.883   0.086 -0.0050 -0.0848 -0.4821
  398MPD2    C5 6000   1.736   0.886   0.068  0.5180  0.6211 -0.5397
  398MPD2     H 6001   1.905   0.573   0.205 -0.1429 -0.3150 -0.9582
  398MPD2    H1 6002   1.922   0.974   0.054  0.1237 -0.6967 -1.9869
  398MPD2    H2 6003   1.551   0.796   0.084 -0.3076  0.2799 -1.6382
  398MPD2    H3 6004   1.697   0.980   0.031  0.1321  0.0202 -1.6693
  398MPD2     N 6005   2.074   0.759   0.161  0.4941  0.1707  0.2864
  398MPD2    H5 6006   2.100   0.670   0.203 -0.3754  0.4882  1.4858
  398MPD2    N1 6007   1.652   0.548   0.178 -0.5225  0.6281 -0.3843
  398MPD2    H7 6008   1.706   0.472   0.217 -0.2228  2.0545  1.9162
  399TMC3    C1 6009   1.496   0.375   0.196  0.2276  0.4246 -0.0232
  399TMC3    C2 6010   1.576   0.304   0.282  0.1645  0.3134  0.2391
  399TMC3    C3 6011   1.543   0.175   0.310  0.0617  0.5426  0.1382
  399TMC3    C4 6012   1.377   0.323   0.158  0.4991 -0.3119 -0.4643
  399TMC3    C5 6013   1.341   0.196   0.188 -0.2948 -0.0105  0.0305
  399TMC3    C6 6014   1.425   0.116   0.264  0.2496  0.9599 -0.2287
  399TMC3     C 6015   1.520   0.516   0.156  0.2907 -0.4461  0.2970
  399TMC3     O 6016   1.436   0.568   0.083 -0.2590 -0.2252 -0.0511
  399TMC3     H 6017   1.653   0.356   0.337  0.3080  1.3593 -0.9668
  399TMC3    H1 6018   1.300   0.380   0.107  1.4371 -0.2288 -1.7925
  399TMC3    H2 6019   1.417   0.008   0.260 -0.6810  1.0500 -0.9438
  399TMC3    C7 6020   1.204   0.147   0.156  0.2226  0.1148 -0.3592
  399TMC3    C8 6021   1.652   0.093   0.359 -0.4480 -0.1157 -0.6322
  399TMC3    O1 6022   1.125   0.220   0.101  0.1823 -0.4888 -0.3367
  399TMC3    O2 6023   1.762   0.149   0.378  0.7710  0.6004  0.1605
  400TMC3    C1 6024   0.346   3.469  16.941  0.2158 -0.0232 -0.4397
  400TMC3    C2 6025   0.245   3.374  16.954  0.2278 -0.1552 -0.8079
  400TMC3    C3 6026   0.189   3.329  16.836  0.6179 -0.0628  0.0022
  400TMC3    C4 6027   0.379   3.524  16.817 -0.5681 -0.4054 -0.6787
  400TMC3    C5 6028   0.308   3.488  16.701  0.2245  0.2831  0.5080
  400TMC3    C6 6029   0.209   3.389  16.711  0.6593 -0.1958  0.4251
  400TMC3     C 6030   0.377   3.542  17.062  0.1237 -0.1100 -0.8779
  400TMC3     O 6031   0.332   3.485  17.165 -0.1352 -0.7459 -0.0370
  400TMC3     H 6032   0.223   3.325  17.048 -0.3318 -0.6934 -1.2204
  400TMC3    H1 6033   0.468   3.585  16.806 -0.1746 -0.5657  1.6609
  400TMC3    H2 6034   0.149   3.379  16.622  1.8997 -0.2665 -0.4065
  400TMC3    C7 6035   0.328   3.574  16.584  0.3279 -0.7459  0.5836
  400TMC3    C8 6036   0.087   3.220  16.843 -0.0532 -0.5349  0.1423
  400TMC3    O1 6037   0.438   3.622  16.552  0.2556 -0.0441 -0.1288
  400TMC3    O2 6038   0.045   3.190  16.952  0.1481  0.4016  0.1731
  401MPD2     C 6039   2.735   1.465  17.672  0.0267  0.0004 -0.5672
  401MPD2    C1 6040   2.738   1.458   0.065 -0.2736 -0.2015 -0.1075
  401MPD2    C2 6041   2.786   1.342   0.122  0.4259  0.7969  0.1591
  401MPD2    C3 6042   2.853   1.245   0.057  0.3743 -0.2653 -0.7550
  401MPD2    C4 6043   2.856   1.257  17.664 -0.3507  0.5961 -1.3901
  401MPD2    C5 6044   2.795   1.360  17.603  0.5703  0.2793  0.3176
  401MPD2     H 6045   2.787   1.332   0.230  0.7203 -0.3047  0.0599
  401MPD2    H1 6046   2.895   1.178  17.600  1.2794  1.3620 -1.3416
  401MPD2    H2 6047   2.697   1.553  17.622  0.6888  0.0410 -1.0071
  401MPD2    H3 6048   2.798   1.364  17.494  1.0730  0.2028  0.3272
  401MPD2     N 6049   2.912   1.142   0.135  0.3955 -0.3170 -0.3818
  401MPD2    H5 6050   2.903   1.140   0.236  0.4220  0.7514 -0.3636
  401MPD2    N1 6051   2.688   1.561   0.149  0.3255  0.5636  0.2258
  401MPD2    H7 6052   2.699   1.547   0.249  1.8217  1.8925  0.2499
  402TMC3    C1 6053   3.032   0.942   0.168  0.1806  0.3198 -1.2365
  402TMC3    C2 6054   3.066   0.964   0.300 -0.4481  0.0606 -0.0218
  402TMC3    C3 6055   3.126   0.863   0.369  0.5232 -0.3150 -0.3222
  402TMC3    C4 6056   3.085   0.830   0.105  0.1140 -0.6729 -0.2796
  402TMC3    C5 6057   3.152   0.736   0.178 -0.4590  0.1276  0.2400
  402TMC3    C6 6058   3.169   0.749   0.313 -0.0938  0.6884  0.1158
  402TMC3     C 6059   2.993   1.048   0.078  0.0911 -0.5155 -0.3425
  402TMC3     O 6060   3.043   1.037  17.717 -0.1908 -0.2809  0.2460
  402TMC3     H 6061   3.050   1.063   0.342  2.6235 -0.4197  2.3356
  402TMC3    H1 6062   3.055   0.817   0.001 -0.9326  0.8629 -0.1747
  402TMC3    H2 6063   3.217   0.675   0.375 -0.1542  0.7775  0.2697
  402TMC3    C7 6064   3.139   0.600   0.135 -0.4259  0.2767  0.1831
  402TMC3    C8 6065   3.137   0.871   0.512  0.2518 -0.2914 -0.4717
  402TMC3    O1 6066   3.065   0.574   0.042  0.0438 -0.5492  0.0097
  402TMC3    O2 6067   3.221   0.800   0.566  0.1921  0.5597 -0.6171
  403MPD2     C 6068   1.483   0.247  12.921  0.0836 -0.1931  0.4175
  403MPD2    C1 6069   1.379   0.212  13.004  0.2150 -0.4145 -0.0401
  403MPD2    C2 6070   1.374   0.268  13.128 -0.0675 -0.2465 -0.5916
  403MPD2    C3 6071   1.480   0.337  13.180 -0.3359  0.4448 -0.0249
  403MPD2    C4 6072   1.590   0.373  13.094  0.4984 -0.2984  0.2332
  403MPD2    C5 6073   1.587   0.323  12.966 -0.3151 -0.4492 -0.3287
  403MPD2     H 6074   1.297   0.233  13.195  1.4673  1.3584  2.0157
  403MPD2    H1 6075   1.662   0.447  13.125  0.7579 -0.6528  0.4759
  403MPD2    H2 6076   1.484   0.209  12.820  1.1212 -1.4362  0.9037
  403MPD2    H3 6077   1.660   0.349  12.890 -0.2340 -0.6337 -0.3139
  403MPD2     N 6078   1.476   0.375  13.317 -0.1350  0.1001 -0.2744
  403MPD2    H5 6079   1.402   0.334  13.373  1.5727 -2.0112  0.4262
  403MPD2    N1 6080   1.277   0.134  12.957  0.3952  0.1865 -0.1670
  403MPD2    H7 6081   1.293   0.103  12.862 -2.3072  2.6972 -1.4599
  404TMC3    C1 6082   1.110   4.715  12.969 -0.6735 -0.2846 -0.2533
  404TMC3    C2 6083   1.091   4.632  13.071  0.5864  0.0665 -0.8024
  404TMC3    C3 6084   1.092   4.493  13.045  0.1349 -0.4836 -0.2953
  404TMC3    C4 6085   1.138   4.667  12.838 -0.7229  0.0587  0.4161
  404TMC3    C5 6086   1.128   4.531  12.814 -0.9944 -0.1118 -0.4575
  404TMC3    C6 6087   1.109   4.440  12.919  0.6088  0.7924 -0.4982
  404TMC3     C 6088   1.153   0.108  13.012 -0.1421 -0.2899 -0.5304
  404TMC3     O 6089   1.099   0.154  13.112 -0.0453  0.0525 -0.5021
  404TMC3     H 6090   1.084   4.669  13.173 -0.2675  1.6430 -1.4226
  404TMC3    H1 6091   1.175   4.733  12.760  0.3059  2.7025  3.1562
  404TMC3    H2 6092   1.104   4.333  12.906  1.5449  0.7399 -0.4588
  404TMC3    C7 6093   1.143   4.489  12.673  0.1741 -1.0400 -0.0259
  404TMC3    C8 6094   1.135   4.399  13.151  0.1236  0.5418 -0.0045
  404TMC3    O1 6095   1.196   4.577  12.609 -0.8395 -0.2215 -0.3189
  404TMC3    O2 6096   1.218   4.315  13.115 -0.0633  0.2335 -0.2119
  405MPD2     C 6097   1.745   0.965  14.802  0.0116 -0.1628 -0.2724
  405MPD2    C1 6098   1.668   0.873  14.722  0.3143 -0.0104  0.3158
  405MPD2    C2 6099   1.532   0.889  14.725  0.4988 -0.3344  0.0127
  405MPD2    C3 6100   1.475   0.991  14.798 -0.4221  0.0484 -0.3934
  405MPD2    C4 6101   1.552   1.079  14.872  0.0860  0.4571 -0.4877
  405MPD2    C5 6102   1.689   1.070  14.866 -0.3386 -0.2245  0.4409
  405MPD2     H 6103   1.468   0.824  14.667 -1.0473  0.2970  1.0292
  405MPD2    H1 6104   1.506   1.153  14.937 -1.1787 -1.0051  0.2836
  405MPD2    H2 6105   1.846   0.938  14.828  0.7030 -0.7931 -3.6116
  405MPD2    H3 6106   1.755   1.118  14.937  0.7093 -0.2264 -0.5247
  405MPD2     N 6107   1.339   1.006  14.785 -0.2554 -0.4934  0.1559
  405MPD2    H5 6108   1.299   0.948  14.712  0.9390 -0.2706 -0.6712
  405MPD2    N1 6109   1.728   0.763  14.664 -0.1070  0.2482 -0.2586
  405MPD2    H7 6110   1.820   0.743  14.702  0.7922  2.2441 -1.3185
  406TMC3    C1 6111   0.900   1.084  14.779 -0.8219  0.6241  0.4580
  406TMC3    C2 6112   0.872   0.951  14.761  0.2243 -0.0923 -0.0796
  406TMC3    C3 6113   0.976   0.857  14.763 -0.1597 -0.1055 -0.3400
  406TMC3    C4 6114   1.028   1.118  14.822 -0.9445 -0.9434 -0.3703
  406TMC3    C5 6115   1.119   1.019  14.844 -0.7318  0.8164  0.3070
  406TMC3    C6 6116   1.103   0.887  14.814 -0.6344 -0.1333 -0.1631
  406TMC3     C 6117   0.840   1.171  14.675  0.6110 -0.4811  0.5274
  406TMC3     O 6118   0.858   1.292  14.682 -0.7835  0.0776  0.6872
  406TMC3     H 6119   0.775   0.923  14.722 -0.7673  1.1770  1.4983
  406TMC3    H1 6120   1.063   1.221  14.816  0.1082 -1.2142  1.1636
  406TMC3    H2 6121   1.179   0.816  14.843  0.1091  1.6604  2.2709
  406TMC3    C7 6122   1.253   1.065  14.869  0.5559 -0.8283 -0.3898
  406TMC3    C8 6123   0.963   0.769  14.644  0.1320  0.0424  0.0273
  406TMC3    O1 6124   1.277   1.143  14.959  0.3845 -0.5078 -0.5741
  406TMC3    O2 6125   0.879   0.800  14.562 -0.2277  0.0774 -0.7384
  407MPD2     C 6126   3.442   1.892   9.348  0.0710  0.0581  0.2748
  407MPD2    C1 6127   3.556   1.826   9.406 -0.0375 -0.0361 -0.2853
  407MPD2    C2 6128   3.594   1.864   9.531  0.4685 -0.3923  0.3689
  407MPD2    C3 6129   3.514   1.944   9.608  0.3422 -0.0081 -0.4193
  407MPD2    C4 6130   3.409   2.010   9.549 -0.5637  0.6110  0.0572
  407MPD2    C5 6131   3.372   1.983   9.422 -0.0370  0.2139 -0.3081
  407MPD2     H 6132   3.679   1.827   9.586  0.6011 -1.1836 -0.3566
  407MPD2    H1 6133   3.363   2.088   9.610  2.4235  1.0367  1.7802
  407MPD2    H2 6134   3.409   1.865   9.248  1.6841  2.4946 -0.9336
  407MPD2    H3 6135   3.284   2.033   9.382  0.6940  2.8926  1.4703
  407MPD2     N 6136   3.545   1.980   9.741  0.3918  0.5050  0.2472
  407MPD2    H5 6137   3.492   2.057   9.779 -1.1225 -0.7769  0.7455
  407MPD2    N1 6138   3.639   1.738   9.342  0.5973  0.5674  0.2282
  407MPD2    H7 6139   3.702   1.679   9.394  1.3333  0.0252 -1.2875
  408TMC3    C1 6140   3.775   1.684   9.167  0.0555  0.0079  0.7408
  408TMC3    C2 6141   3.824   1.568   9.216  0.0111  0.1320 -0.1666
  408TMC3    C3 6142   3.955   1.541   9.208 -0.2963 -0.9263 -0.0215
  408TMC3    C4 6143   3.856   1.775   9.100 -0.6584  0.2701 -0.3864
  408TMC3    C5 6144   3.991   1.748   9.088  0.4781 -0.2071  0.1290
  408TMC3    C6 6145   4.042   1.632   9.151 -0.3450  0.4237 -0.2599
  408TMC3     C 6146   3.643   1.731   9.202 -0.7361 -0.7288 -0.2433
  408TMC3     O 6147   3.580   1.792   9.116  0.0171 -0.4390  0.2934
  408TMC3     H 6148   3.763   1.489   9.257  1.2046 -0.0010  1.3460
  408TMC3    H1 6149   3.815   1.867   9.061  0.9989  1.5864  0.9899
  408TMC3    H2 6150   4.148   1.619   9.164 -0.2549 -0.1370 -1.4892
  408TMC3    C7 6151   4.077   1.867   9.080  0.1528  0.2044  0.0187
  408TMC3    C8 6152   4.007   1.421   9.282  0.0077 -0.1293 -0.2044
  408TMC3    O1 6153   4.176   1.876   9.152  0.3546 -0.2451 -0.4477
  408TMC3    O2 6154   3.959   1.316   9.250  0.0240  0.2070  0.0768
  409MPD2     C 6155   3.766   2.534  16.251 -0.2992  0.0073 -0.0354
  409MPD2    C1 6156   3.807   2.602  16.363 -0.0502  0.0841  0.1908
  409MPD2    C2 6157   3.921   2.679  16.358 -0.1457  0.2878  0.8799
  409MPD2    C3 6158   3.997   2.706  16.250 -0.0959 -0.0617 -0.0385
  409MPD2    C4 6159   3.951   2.638  16.134  0.9586 -0.1117  0.2728
  409MPD2    C5 6160   3.843   2.556  16.137  0.6852 -0.3426  0.2875
  409MPD2     H 6161   3.932   2.722  16.457  0.2981 -1.7882  1.7339
  409MPD2    H1 6162   4.004   2.655  16.041  0.4438 -1.3926 -0.2461
  409MPD2    H2 6163   3.701   2.448  16.242 -0.3234  0.0832 -0.5766
  409MPD2    H3 6164   3.811   2.507  16.046 -1.4236 -1.2770  1.5295
  409MPD2     N 6165   4.102   2.794  16.247  0.2691  0.3007 -0.4961
  409MPD2    H5 6166   4.155   2.789  16.160  0.9670 -1.1469  0.0197
  409MPD2    N1 6167   3.725   2.596  16.482  0.4736  0.1738 -0.2260
  409MPD2    H7 6168   3.761   2.652  16.558  0.7679 -2.1758  1.3651
  410TMC3    C1 6169   4.232   2.974  16.311 -0.4545  0.6405  0.0929
  410TMC3    C2 6170   4.287   3.049  16.410  0.2871  0.0376  0.2339
  410TMC3    C3 6171   4.334   3.170  16.381  0.5980 -0.1102 -0.3895
  410TMC3    C4 6172   4.221   3.026  16.180  0.1474 -0.3024 -0.3415
  410TMC3    C5 6173   4.273   3.149  16.153 -0.5248  0.2275 -0.3238
  410TMC3    C6 6174   4.331   3.223  16.254  0.8425 -0.2339  0.0390
  410TMC3     C 6175   4.131   2.881  16.352  0.1992 -1.2327  0.2869
  410TMC3     O 6176   4.087   2.886  16.468  0.2067 -0.0423  0.0300
  410TMC3     H 6177   4.297   2.997  16.504  0.8807  2.7406  1.6522
  410TMC3    H1 6178   4.177   2.971  16.097  0.5602  1.3796 -1.6944
  410TMC3    H2 6179   4.395   3.309  16.236  0.4978  0.3098  1.4579
  410TMC3    C7 6180   4.282   3.182  16.008 -0.7510  0.0582  0.2812
  410TMC3    C8 6181   4.352   3.268  16.492  0.2608  0.1273  0.5891
  410TMC3    O1 6182   4.274   3.083  15.939 -0.2290 -0.3231  0.1580
  410TMC3    O2 6183   4.401   3.377  16.461  0.6660 -0.1103 -0.3592
  411MPD2     C 6184   4.314   3.615  14.136 -0.9037 -0.1569  0.0041
  411MPD2    C1 6185   4.199   3.653  14.081  0.0367  0.5795 -0.9666
  411MPD2    C2 6186   4.099   3.561  14.049 -0.1030  0.0265  0.7457
  411MPD2    C3 6187   4.123   3.420  14.063 -0.2944 -0.1105  0.0469
  411MPD2    C4 6188   4.250   3.387  14.104  0.1674 -0.2762  0.2244
  411MPD2    C5 6189   4.339   3.485  14.151 -0.4735  0.0617 -0.7781
  411MPD2     H 6190   4.001   3.589  14.013  0.6504  0.1643 -1.1993
  411MPD2    H1 6191   4.273   3.283  14.122 -0.6474 -0.7321 -1.4385
  411MPD2    H2 6192   4.396   3.684  14.154 -1.0045 -0.3747  1.3176
  411MPD2    H3 6193   4.430   3.445  14.195  1.2719  2.5287 -2.1487
  411MPD2     N 6194   4.040   3.318  14.012  0.1733  0.1685 -0.2093
  411MPD2    H5 6195   4.083   3.231  13.982  1.4568  0.9105 -0.5177
  411MPD2    N1 6196   4.188   3.791  14.055 -0.7519  0.1164  0.3396
  411MPD2    H7 6197   4.255   3.849  14.104 -1.0299  1.4299 -0.8249
  412TMC3    C1 6198   3.829   3.237  13.940  0.5072  0.3931 -0.3409
  412TMC3    C2 6199   3.701   3.203  13.975 -0.1154 -0.2435  0.9417
  412TMC3    C3 6200   3.624   3.135  13.886  0.0156 -0.2292 -0.6408
  412TMC3    C4 6201   3.873   3.220  13.808 -0.4343  0.4187  0.2059
  412TMC3    C5 6202   3.786   3.173  13.712 -0.1192  0.8192 -0.0128
  412TMC3    C6 6203   3.668   3.109  13.756  0.7416  0.1452 -0.4779
  412TMC3     C 6204   3.903   3.330  14.022 -0.4935 -1.0399 -0.7941
  412TMC3     O 6205   3.845   3.409  14.091  0.3603  0.2702 -0.3050
  412TMC3     H 6206   3.659   3.243  14.067 -0.3605  1.2736  0.1775
  412TMC3    H1 6207   3.976   3.245  13.781 -1.2797  2.7595 -0.9247
  412TMC3    H2 6208   3.594   3.069  13.689  0.0759 -0.7387  0.7786
  412TMC3    C7 6209   3.747   3.280  13.622 -0.2788 -0.6506  0.3729
  412TMC3    C8 6210   3.488   3.178  13.899  0.0543 -0.0437 -0.9003
  412TMC3    O1 6211   3.632   3.267  13.579  0.4791 -0.0365 -0.2173
  412TMC3    O2 6212   3.437   3.166  14.006 -0.2127  0.2141 -0.0168
  413MPD2     C 6213   1.118   2.003  15.774 -0.4889 -0.0304 -0.8018
  413MPD2    C1 6214   1.053   1.968  15.650 -0.0125  0.8486 -0.3498
  413MPD2    C2 6215   1.115   1.898  15.552 -0.1115 -0.2674 -0.0495
  413MPD2    C3 6216   1.245   1.859  15.577 -0.3379  0.4997  0.5983
  413MPD2    C4 6217   1.306   1.901  15.688 -0.5025  0.0635 -0.4236
  413MPD2    C5 6218   1.241   1.957  15.793  0.0675  0.3152  0.3199
  413MPD2     H 6219   1.061   1.871  15.462 -0.6113  1.6967 -0.3227
  413MPD2    H1 6220   1.412   1.883  15.702  0.4211  3.0780 -3.6267
  413MPD2    H2 6221   1.071   2.063  15.851 -2.2055 -1.6846 -0.5722
  413MPD2    H3 6222   1.299   1.989  15.879  1.9559  0.3711 -0.9846
  413MPD2     N 6223   1.316   1.782  15.476 -0.7376 -0.6736 -0.3711
  413MPD2    H5 6224   1.265   1.732  15.404 -1.4230 -0.4370 -0.0442
  413MPD2    N1 6225   0.924   2.027  15.626 -0.0986  0.1738  0.0844
  413MPD2    H7 6226   0.890   2.093  15.695  0.9594 -0.1310  0.9040
  414TMC3    C1 6227   1.457   1.660  15.352  0.2856 -0.6894  0.4347
  414TMC3    C2 6228   1.541   1.555  15.372  0.1724  0.5902  0.3767
  414TMC3    C3 6229   1.528   1.448  15.293 -0.0130 -0.0353 -0.7778
  414TMC3    C4 6230   1.363   1.668  15.252  0.7223  0.5293 -0.0006
  414TMC3    C5 6231   1.367   1.557  15.169  0.4889 -1.1216  0.3684
  414TMC3    C6 6232   1.450   1.454  15.178 -0.0738 -0.3551  0.1427
  414TMC3     C 6233   1.444   1.740  15.472 -0.2760 -0.6885  0.4388
  414TMC3     O 6234   1.538   1.760  15.549  0.0845  0.1209 -0.0486
  414TMC3     H 6235   1.610   1.541  15.454  0.4314  0.7499  0.1861
  414TMC3    H1 6236   1.325   1.762  15.212 -1.7731 -0.4657  0.0074
  414TMC3    H2 6237   1.437   1.366  15.117  0.6055 -1.9666  2.3126
  414TMC3    C7 6238   1.275   1.571  15.055 -0.5681 -0.9310  0.0419
  414TMC3    C8 6239   1.633   1.343  15.291  0.4849 -0.2911 -0.4116
  414TMC3    O1 6240   1.170   1.627  15.086 -0.1553  0.4677 -0.0730
  414TMC3    O2 6241   1.604   1.236  15.238  1.1227 -0.1004 -0.1533
  415TMC3    C1 6242   0.923   4.609  10.078  0.6144  0.6417  0.7413
  415TMC3    C2 6243   0.972   4.737  10.047  0.2047 -0.2826  0.8360
  415TMC3    C3 6244   0.952   0.047   9.912 -0.2954 -0.4843 -0.2426
  415TMC3    C4 6245   0.856   4.540   9.993 -0.7896  0.0889 -0.2241
  415TMC3    C5 6246   0.830   4.583   9.865  0.7331  0.0591 -0.2775
  415TMC3    C6 6247   0.876   4.708   9.823 -0.3015 -0.3584 -0.0250
  415TMC3     C 6248   0.904   4.565  10.216  0.9531 -0.0829  0.1378
  415TMC3     O 6249   0.871   4.447  10.244 -0.3282  0.4646 -0.1949
  415TMC3     H 6250   1.028   0.063  10.115  0.8793 -0.1496  0.1562
  415TMC3    H1 6251   0.809   4.448  10.026  0.2763 -0.1825  0.5440
  415TMC3    H2 6252   0.859   0.015   9.726 -0.8908 -0.8491 -0.1409
  415TMC3    C7 6253   0.770   4.496   9.765  0.4835 -0.1022  0.3347
  415TMC3    C8 6254   0.968   0.188   9.877  0.2935 -0.2287  0.3656
  415TMC3    O1 6255   0.719   4.560   9.674  0.6350 -0.1118 -0.4053
  415TMC3    O2 6256   0.895   0.238   9.797 -0.3908 -0.0420 -0.0959
  416MPD2     C 6257   2.880   3.618  11.418 -1.2490 -0.0376 -0.9653
  416MPD2    C1 6258   2.746   3.617  11.405  0.2133 -0.0720  0.5779
  416MPD2    C2 6259   2.685   3.498  11.357  0.3218  0.3820 -0.0592
  416MPD2    C3 6260   2.774   3.391  11.313 -0.3180 -0.3951  0.2444
  416MPD2    C4 6261   2.905   3.396  11.340 -0.0458  0.9348 -0.2745
  416MPD2    C5 6262   2.959   3.508  11.401 -0.1542  0.0593  0.3030
  416MPD2     H 6263   2.577   3.492  11.353  0.1840  2.2660  0.5108
  416MPD2    H1 6264   2.965   3.307  11.325  0.4017  1.5508 -2.1323
  416MPD2    H2 6265   2.939   3.696  11.466 -3.9308  0.7630  1.0470
  416MPD2    H3 6266   3.063   3.508  11.431 -0.2002  0.2302  0.4611
  416MPD2     N 6267   2.713   3.279  11.250 -0.3006  0.0402  0.4107
  416MPD2    H5 6268   2.773   3.212  11.203  0.2906 -0.6064  2.0596
  416MPD2    N1 6269   2.667   3.719  11.461 -0.4746 -0.6079  0.3450
  416MPD2    H7 6270   2.711   3.791  11.517 -0.3067 -1.5976  1.4896
  417TMC3    C1 6271   2.478   3.858  11.475 -0.1514 -0.3523 -0.3171
  417TMC3    C2 6272   2.527   3.899  11.592 -0.0541 -0.1276 -0.2799
  417TMC3    C3 6273   2.478   4.012  11.653  0.2015 -0.1970 -0.5107
  417TMC3    C4 6274   2.376   3.922  11.419  0.2941 -0.1217  0.2387
  417TMC3    C5 6275   2.335   4.038  11.469 -0.4050  0.2116  0.5366
  417TMC3    C6 6276   2.382   4.087  11.591  0.2798 -0.2374  0.2319
  417TMC3     C 6277   2.541   3.748  11.404 -0.4320  0.1626 -0.0801
  417TMC3     O 6278   2.502   3.708  11.295  0.8551 -0.4042  0.5824
  417TMC3     H 6279   2.590   3.836  11.654 -0.9410  0.1605  0.9307
  417TMC3    H1 6280   2.340   3.904  11.318 -0.0784  2.7012 -0.1367
  417TMC3    H2 6281   2.354   4.184  11.631  0.9427  0.4128 -0.8717
  417TMC3    C7 6282   2.252   4.117  11.383  0.8416  0.1016 -0.4159
  417TMC3    C8 6283   2.498   4.044  11.797 -0.7224  0.2702  0.7792
  417TMC3    O1 6284   2.292   4.225  11.355 -0.2998 -0.5463 -0.4804
  417TMC3    O2 6285   2.458   4.151  11.823 -0.3824  0.1580  0.0281
  418TMC3    C1 6286   2.437   0.634  17.745  0.0208  0.3423  0.4157
  418TMC3    C2 6287   2.354   0.749   0.002 -0.3552  0.0619 -0.1495
  418TMC3    C3 6288   2.294   0.779   0.114  0.6392 -0.5146 -0.3708
  418TMC3    C4 6289   2.466   0.567   0.111 -0.1277 -0.1230  0.6782
  418TMC3    C5 6290   2.392   0.594   0.222 -0.4702 -0.6089  0.0639
  418TMC3    C6 6291   2.312   0.700   0.229  0.4894  0.3400  0.6339
  418TMC3     C 6292   2.476   0.585  17.613 -0.6442  0.0309 -0.0021
  418TMC3     O 6293   2.459   0.661  17.522 -0.3332  0.5702  0.3170
  418TMC3     H 6294   2.335   0.804  17.659  0.8020  0.7071 -0.0105
  418TMC3    H1 6295   2.542   0.489   0.108  0.0270 -0.0540  2.6420
  418TMC3    H2 6296   2.259   0.724   0.321  1.8160  1.8763  0.9980
  418TMC3    C7 6297   2.412   0.506   0.341 -0.1611 -0.2468 -0.2806
  418TMC3    C8 6298   2.168   0.840   0.104  0.3205  0.5968  0.0647
  418TMC3    O1 6299   2.435   0.389   0.326  0.7518 -0.4183 -0.3728
  418TMC3    O2 6300   2.165   0.939   0.034 -0.1397  0.6945 -0.3477
  419MPD2     C 6301   0.689   3.580  12.152  0.3265 -0.3777 -0.3321
  419MPD2    C1 6302   0.581   3.502  12.179 -0.6484  0.6503  0.2916
  419MPD2    C2 6303   0.510   3.525  12.294 -0.0602 -0.0476  0.3043
  419MPD2    C3 6304   0.561   3.621  12.383 -0.3600  0.4711 -0.0752
  419MPD2    C4 6305   0.662   3.705  12.344  0.0379  0.4753 -0.5043
  419MPD2    C5 6306   0.732   3.684  12.231  0.2752  0.5845 -0.0769
  419MPD2     H 6307   0.419   3.471  12.314 -2.8419  4.3858 -0.2960
  419MPD2    H1 6308   0.698   3.782  12.412  4.5939 -2.5433  0.4790
  419MPD2    H2 6309   0.746   3.549  12.065 -2.4130  0.3030 -2.3679
  419MPD2    H3 6310   0.822   3.735  12.199  1.6420 -1.4219  0.4930
  419MPD2     N 6311   0.492   3.652  12.504  0.0488 -0.6173 -0.2690
  419MPD2    H5 6312   0.532   3.737  12.544 -4.2284  1.3246 -0.1424
  419MPD2    N1 6313   0.537   3.402  12.090 -0.4292 -0.4053  0.4282
  419MPD2    H7 6314   0.442   3.373  12.113 -0.4797 -1.8704 -1.5440
  420TMC3    C1 6315   0.302   3.661  12.643 -0.6538 -0.5452  1.0003
  420TMC3    C2 6316   0.169   3.651  12.625  0.4364 -0.1802  0.4411
  420TMC3    C3 6317   0.086   3.713  12.715  0.1678  0.1003 -0.5152
  420TMC3    C4 6318   0.360   3.706  12.755 -0.2827 -0.0123 -0.6248
  420TMC3    C5 6319   0.275   3.767  12.849 -0.1760  0.6878 -0.3814
  420TMC3    C6 6320   0.147   3.781  12.826  0.2725  0.4581  0.4929
  420TMC3     C 6321   0.390   3.581  12.562  0.2191  0.6323  0.4162
  420TMC3     O 6322   0.358   3.466  12.533  0.3325  0.3291  0.6281
  420TMC3     H 6323   0.136   3.605  12.532 -1.5935  0.9976  0.5856
  420TMC3    H1 6324   0.465   3.692  12.776  0.4609  3.2423 -2.2313
  420TMC3    H2 6325   0.080   3.847  12.879  1.0675  1.3108  0.4370
  420TMC3    C7 6326   0.331   3.779  12.984  0.1412  0.2937  1.3820
  420TMC3    C8 6327   4.695   3.769  12.677 -0.4184 -0.4680  0.3984
  420TMC3    O1 6328   0.444   3.731  13.007  0.3407 -0.4174  0.2752
  420TMC3    O2 6329   4.659   3.877  12.722 -0.0923  0.1299 -0.2537
  421TMC3    C1 6330   1.543   0.437  13.529 -0.9068 -0.5552  0.3982
  421TMC3    C2 6331   1.566   0.550  13.598 -0.1706  0.3183  0.4274
  421TMC3    C3 6332   1.529   0.558  13.725  0.4373 -0.4805 -0.4334
  421TMC3    C4 6333   1.501   0.320  13.590 -0.4915 -0.6029  0.2873
  421TMC3    C5 6334   1.501   0.331  13.727 -0.2160  0.1248 -1.1759
  421TMC3    C6 6335   1.487   0.451  13.796  0.2429  0.1158 -0.1065
  421TMC3     C 6336   1.570   0.448  13.386  0.0941  0.2518  0.1247
  421TMC3     O 6337   1.655   0.526  13.340  0.1778  0.1343  0.1047
  421TMC3     H 6338   1.595   0.639  13.544 -0.3905  0.8888  1.2468
  421TMC3    H1 6339   1.507   0.233  13.526 -0.7516 -1.4042  1.3551
  421TMC3    H2 6340   1.479   0.460  13.904  2.7487 -0.1177  0.1210
  421TMC3    C7 6341   1.602   0.251  13.794  0.1247  0.0809  0.6604
  421TMC3    C8 6342   1.528   0.689  13.785 -0.0307 -0.7660  0.2775
  421TMC3    O1 6343   1.642   0.307  13.895  0.0124  0.2093  0.0505
  421TMC3    O2 6344   1.623   0.763  13.758 -0.2162  0.3077 -0.3093
  422TMC3    C1 6345   4.172   1.979  12.575 -0.4672  0.7502  0.0575
  422TMC3    C2 6346   4.204   1.994  12.708 -0.3982  0.1570 -0.3240
  422TMC3    C3 6347   4.114   1.943  12.803 -0.2396  0.6574 -0.5642
  422TMC3    C4 6348   4.057   1.926  12.534  0.4790  0.5228 -0.4709
  422TMC3    C5 6349   3.975   1.871  12.630 -0.7391  0.3919  0.5034
  422TMC3    C6 6350   4.000   1.881  12.761  0.1082  0.5898  0.0759
  422TMC3     C 6351   4.258   2.043  12.480  0.2557  0.3741  0.0347
  422TMC3     O 6352   4.377   2.048  12.504 -0.1566  0.2064  0.0212
  422TMC3     H 6353   4.296   2.042  12.740  0.8571 -1.7570 -1.0810
  422TMC3    H1 6354   4.040   1.916  12.428 -0.7970 -0.7377 -0.1559
  422TMC3    H2 6355   3.921   1.869  12.834  1.0522 -4.7148  0.2579
  422TMC3    C7 6356   3.883   1.771  12.570 -0.5818  0.5694  0.1599
  422TMC3    C8 6357   4.103   2.006  12.935  0.0641 -0.4078 -0.9371
  422TMC3    O1 6358   3.915   1.723  12.463 -0.0735 -0.9186  0.1573
  422TMC3    O2 6359   4.019   1.963  13.014  0.4140 -0.7366 -0.0649
  423MPD2     C 6360   0.573   2.944   0.282  0.0937 -0.6216  0.3973
  423MPD2    C1 6361   0.612   2.820   0.325 -0.0475 -0.0307 -0.3295
  423MPD2    C2 6362   0.641   2.730   0.224  0.3615  0.0053  0.4157
  423MPD2    C3 6363   0.609   2.747   0.089 -0.1781 -0.2775 -0.5914
  423MPD2    C4 6364   0.564   2.877   0.049 -0.4753  0.2763 -0.0030
  423MPD2    C5 6365   0.560   2.973   0.149  0.2769 -0.5150 -0.3149
  423MPD2     H 6366   0.683   2.637   0.261  1.2736  0.8117  1.3849
  423MPD2    H1 6367   0.522   2.902  17.701  1.3291  0.9469 -0.6252
  423MPD2    H2 6368   0.548   3.021   0.354 -2.0279  0.2651 -1.2612
  423MPD2    H3 6369   0.526   3.074   0.128  0.8435 -0.6322 -1.8562
  423MPD2     N 6370   0.616   2.650  17.737 -0.4683 -0.4319 -0.2287
  423MPD2    H5 6371   0.603   2.686  17.643 -0.7915 -3.0463 -1.1634
  423MPD2    N1 6372   0.633   2.784   0.455  0.0479 -0.0708 -0.1860
  423MPD2    H7 6373   0.681   2.694   0.458 -0.9965 -0.6790 -2.0078
  424TMC3    C1 6374   0.614   2.770   0.691  0.5801  0.0195  0.2953
  424TMC3    C2 6375   0.734   2.713   0.706  0.2450  0.1534 -0.0373
  424TMC3    C3 6376   0.767   2.670   0.829  0.1496  0.5933 -0.0307
  424TMC3    C4 6377   0.520   2.778   0.788 -0.6692  0.4211  0.5037
  424TMC3    C5 6378   0.552   2.723   0.910  0.7882 -0.0582  0.2836
  424TMC3    C6 6379   0.675   2.667   0.927  0.2541  0.8536 -0.1086
  424TMC3     C 6380   0.588   2.849   0.569  0.5004  0.0024 -0.3424
  424TMC3     O 6381   0.502   2.936   0.570  0.0310  0.1677  0.2858
  424TMC3     H 6382   0.809   2.710   0.628 -0.7246  2.9264 -1.0626
  424TMC3    H1 6383   0.429   2.833   0.769 -2.1922 -1.9832  0.8397
  424TMC3    H2 6384   0.705   2.638   1.027 -1.1846  1.7833  0.5933
  424TMC3    C7 6385   0.493   2.775   1.029  0.4433 -0.0439 -0.7018
  424TMC3    C8 6386   0.888   2.599   0.849 -0.8166  0.2062 -0.2818
  424TMC3    O1 6387   0.566   2.790   1.126  1.1472 -0.0568  0.0301
  424TMC3    O2 6388   0.885   2.522   0.936  0.0925 -0.1176 -0.2123
  425MPD2     C 6389   4.660   1.618  17.201 -0.2601 -0.0492 -0.6451
  425MPD2    C1 6390   4.590   1.504  17.237 -0.5854 -0.9049  0.9523
  425MPD2    C2 6391   4.464   1.517  17.284  0.5587  0.6379 -0.4936
  425MPD2    C3 6392   4.413   1.643  17.299  1.0844 -0.3573  0.6578
  425MPD2    C4 6393   4.485   1.758  17.263 -0.6635  0.6282 -0.3319
  425MPD2    C5 6394   4.608   1.746  17.212  0.0046  0.8013 -0.1182
  425MPD2     H 6395   4.394   1.435  17.298 -0.0915  1.3487  0.4286
  425MPD2    H1 6396   4.441   1.857  17.255 -1.7573  0.0453 -1.7401
  425MPD2    H2 6397   0.024   1.613  17.162 -0.3290 -1.1568 -0.6750
  425MPD2    H3 6398   4.669   1.834  17.194  0.9497  0.1149 -0.2296
  425MPD2     N 6399   4.275   1.637  17.336 -0.0074 -0.3378  0.3380
  425MPD2    H5 6400   4.228   1.547  17.334  1.8229 -1.3011  0.9984
  425MPD2    N1 6401   4.654   1.384  17.212  0.7836 -0.4166  0.0839
  425MPD2    H7 6402   0.015   1.381  17.188  1.5477  2.1007  2.9593
  426TMC3    C1 6403   4.656   1.147  17.190 -0.1345  0.0026 -1.0203
  426TMC3    C2 6404   4.705   1.146  17.063  0.0149  1.0410 -0.4607
  426TMC3    C3 6405   4.736   1.027  17.015 -0.6789 -0.2148 -0.0571
  426TMC3    C4 6406   4.627   1.035  17.263  0.9710 -0.4350  0.7000
  426TMC3    C5 6407   4.648   0.916  17.201 -0.1527 -0.3456  0.1906
  426TMC3    C6 6408   4.704   0.905  17.078  0.1002  0.0498 -0.4083
  426TMC3     C 6409   4.595   1.263  17.241 -0.5178 -0.6579  0.0623
  426TMC3     O 6410   4.499   1.231  17.313 -0.3899  0.3600 -0.5221
  426TMC3     H 6411   4.723   1.243  17.016 -1.9888  1.6228 -0.0284
  426TMC3    H1 6412   4.593   1.039  17.365  0.0301 -3.2753  0.5193
  426TMC3    H2 6413   4.708   0.810  17.027 -0.2527  0.3908 -1.0734
  426TMC3    C7 6414   4.545   0.812  17.220  1.1511  0.0625 -0.2384
  426TMC3    C8 6415   4.724   1.020  16.875  0.2614 -0.2346  1.0649
  426TMC3    O1 6416   4.594   0.701  17.230 -0.2714 -0.0918 -0.5386
  426TMC3    O2 6417   0.044   0.932  16.815  0.0732 -0.3024 -0.2912
  427MPD2     C 6418   3.183   3.786  14.497 -0.2352  0.3810  1.0146
  427MPD2    C1 6419   3.097   3.677  14.498 -0.3391  0.1231  0.1393
  427MPD2    C2 6420   2.958   3.705  14.502  0.4152  0.0858 -0.7382
  427MPD2    C3 6421   2.911   3.837  14.505 -0.2028  0.5905 -0.3970
  427MPD2    C4 6422   3.005   3.939  14.507 -0.2453 -0.4006 -0.5182
  427MPD2    C5 6423   3.138   3.916  14.511  0.3423  0.6063  0.2020
  427MPD2     H 6424   2.888   3.622  14.501 -1.6986  1.8689  1.3684
  427MPD2    H1 6425   2.971   4.042  14.510 -0.9869 -0.5947 -2.2167
  427MPD2    H2 6426   3.290   3.770  14.491 -0.3689 -0.1420 -0.0450
  427MPD2    H3 6427   3.198   4.005  14.529  1.8910 -0.1796 -1.0950
  427MPD2     N 6428   2.776   3.874  14.523 -0.9056  0.8518  0.3253
  427MPD2    H5 6429   2.763   3.967  14.560 -4.1845  0.6976 -0.4675
  427MPD2    N1 6430   3.151   3.546  14.502  0.4438 -0.3067  0.1622
  427MPD2    H7 6431   3.253   3.545  14.497  0.2996  0.4219 -2.7389
  428TMC3    C1 6432   3.171   3.316  14.544 -0.2126 -0.2454  0.2998
  428TMC3    C2 6433   3.106   3.215  14.603  0.4770 -0.2826 -0.4169
  428TMC3    C3 6434   3.172   3.139  14.694 -0.4871  0.0272 -0.5879
  428TMC3    C4 6435   3.303   3.343  14.561 -0.6292  0.6168 -0.3370
  428TMC3    C5 6436   3.363   3.251  14.641  0.0036  0.5634  0.4032
  428TMC3    C6 6437   3.307   3.154  14.716 -0.5125 -0.1664  0.8255
  428TMC3     C 6438   3.088   3.432  14.517 -0.4497 -0.2097 -0.8192
  428TMC3     O 6439   2.969   3.416  14.541  0.5988  0.5570  0.5853
  428TMC3     H 6440   3.006   3.191  14.567  0.8092 -2.5841  0.2385
  428TMC3    H1 6441   3.360   3.424  14.517  0.2802  0.6678  0.9483
  428TMC3    H2 6442   3.359   3.099  14.793  1.0299 -0.3772 -0.3687
  428TMC3    C7 6443   3.505   3.269  14.664 -0.1929 -0.0821  0.0159
  428TMC3    C8 6444   3.105   3.022  14.751  0.1559 -0.5560 -0.6570
  428TMC3    O1 6445   3.547   3.266  14.780  0.0975 -0.0430  0.2198
  428TMC3    O2 6446   3.183   2.932  14.775  0.5944  0.6167 -0.3535
  429MPD2     C 6447   4.161   3.920  17.384 -0.4973  0.8593 -0.8771
  429MPD2    C1 6448   4.157   3.838  17.270 -1.2754 -0.7850 -0.0831
  429MPD2    C2 6449   4.198   3.899  17.155  0.6043  0.0296 -0.6181
  429MPD2    C3 6450   4.246   4.024  17.144  0.4340 -0.5973  0.1094
  429MPD2    C4 6451   4.257   4.106  17.262 -0.1638 -0.0895  0.6102
  429MPD2    C5 6452   4.207   4.055  17.377 -0.3693 -0.1772 -0.5618
  429MPD2     H 6453   4.195   3.847  17.060  0.1155 -0.9920 -0.0488
  429MPD2    H1 6454   4.296   4.207  17.262 -0.0957 -0.1263 -1.4730
  429MPD2    H2 6455   4.124   3.882  17.478  2.4319  0.6205  0.1648
  429MPD2    H3 6456   4.213   4.118  17.465  1.0386  1.3063 -1.7299
  429MPD2     N 6457   4.297   4.068  17.021  0.3721  0.5935 -0.1039
  429MPD2    H5 6458   4.298   4.010  16.938  0.9689  1.1471 -0.4912
  429MPD2    N1 6459   4.125   3.700  17.285  0.4090 -0.1928 -0.3971
  429MPD2    H7 6460   4.093   3.678  17.379  2.3564 -0.1461  0.2665
  430TMC3    C1 6461   4.383   4.203  16.855  0.2354  0.2961 -0.3757
  430TMC3    C2 6462   4.354   4.300  16.775 -0.8005  0.4457 -0.2733
  430TMC3    C3 6463   4.384   4.302  16.641  0.3808  0.6862 -1.8022
  430TMC3    C4 6464   4.442   4.088  16.808 -0.2967 -0.1707 -0.4518
  430TMC3    C5 6465   4.472   4.087  16.675 -0.2951  0.2091 -0.5956
  430TMC3    C6 6466   4.441   4.190  16.589  0.2321 -0.0115  0.3580
  430TMC3     C 6467   4.336   4.199  16.985 -0.3169  0.4955 -0.0588
  430TMC3     O 6468   4.324   4.305  17.049 -0.3786  0.4945  0.0273
  430TMC3     H 6469   4.318   4.394  16.814  1.6905  0.3473  2.2721
  430TMC3    H1 6470   4.487   4.021  16.880 -0.6465 -1.2742 -1.2565
  430TMC3    H2 6471   4.474   4.189  16.486  0.7922 -0.5455  0.5423
  430TMC3    C7 6472   4.551   3.975  16.629 -0.1629 -0.2182  0.2227
  430TMC3    C8 6473   4.292   4.380  16.558  0.1839  0.7089  1.0108
  430TMC3    O1 6474   4.544   3.871  16.695  0.1188 -0.4936  0.0135
  430TMC3    O2 6475   4.245   4.485  16.597 -0.0479 -0.3262  0.5923
  431MPD2     C 6476   0.113   3.631  12.277  0.0855  0.4178 -0.1696
  431MPD2    C1 6477   0.198   3.666  12.176  0.4187 -0.0932 -0.3903
  431MPD2    C2 6478   0.214   3.577  12.077  0.0841  0.3422  0.2224
  431MPD2    C3 6479   0.150   3.458  12.080  0.0591  1.0074  0.4474
  431MPD2    C4 6480   0.052   3.431  12.168  0.6585 -0.0242  0.0621
  431MPD2    C5 6481   0.030   3.524  12.269  0.1797 -0.7191  0.8119
  431MPD2     H 6482   0.283   3.605  11.998  1.1325 -1.5651  0.4786
  431MPD2    H1 6483   4.727   3.343  12.159  1.2143 -0.6707  2.7199
  431MPD2    H2 6484   0.092   3.701  12.357  1.5380 -1.7101  2.0714
  431MPD2    H3 6485   4.682   3.509  12.334  1.1807 -0.1424  2.2491
  431MPD2     N 6486   0.165   3.360  11.975 -0.5854  0.3185  0.1239
  431MPD2    H5 6487   0.132   3.267  11.998  0.3962  0.9656  4.1492
  431MPD2    N1 6488   0.277   3.780  12.183 -0.4784  0.0706 -0.3726
  431MPD2    H7 6489   0.332   3.803  12.100 -1.0131  1.7318 -0.2773
  432TMC3    C1 6490   0.321   3.257  11.846 -0.0475  0.2203 -0.1936
  432TMC3    C2 6491   0.376   3.262  11.718  0.5872  0.3982  0.2522
  432TMC3    C3 6492   0.505   3.242  11.700 -0.1671 -0.0644 -0.1718
  432TMC3    C4 6493   0.396   3.231  11.952  0.0553 -0.6711  0.3884
  432TMC3    C5 6494   0.534   3.233  11.933 -0.1291  0.1000 -0.8416
  432TMC3    C6 6495   0.576   3.204  11.804  0.3811  0.2117  0.1867
  432TMC3     C 6496   0.242   3.374  11.866  0.7785  0.1102 -1.1776
  432TMC3     O 6497   0.276   3.477  11.807 -0.4959  0.0632  0.1428
  432TMC3     H 6498   0.333   3.313  11.633 -0.2743 -0.5793  0.0959
  432TMC3    H1 6499   0.349   3.252  12.047  0.5464  1.3370  0.2025
  432TMC3    H2 6500   0.682   3.181  11.795  0.1628  0.4907 -3.1394
  432TMC3    C7 6501   0.611   3.332  12.000  0.2559 -0.4138 -0.5322
  432TMC3    C8 6502   0.564   3.335  11.596 -0.4205  0.4663  0.3257
  432TMC3    O1 6503   0.719   3.354  11.947  0.1015 -0.2767 -0.4245
  432TMC3    O2 6504   0.505   3.352  11.490 -0.3968  0.6250  0.1525
  433MPD2     C 6505   3.385   2.510  10.639 -0.8094 -1.1134  0.4023
  433MPD2    C1 6506   3.486   2.449  10.716 -0.8499 -0.2455 -0.8896
  433MPD2    C2 6507   3.536   2.528  10.825  1.1923  0.3293 -0.7436
  433MPD2    C3 6508   3.501   2.657  10.849  0.2337 -0.0067 -0.7332
  433MPD2    C4 6509   3.398   2.708  10.775 -0.3361 -0.0562  0.3900
  433MPD2    C5 6510   3.337   2.630  10.676  0.5588  0.1854 -0.1220
  433MPD2     H 6511   3.615   2.486  10.886 -0.8600  1.5873  2.7533
  433MPD2    H1 6512   3.357   2.806  10.797  1.8297  0.2884  2.9284
  433MPD2    H2 6513   3.346   2.470  10.546 -0.4353  0.4134 -0.4052
  433MPD2    H3 6514   3.260   2.674  10.614 -0.0283 -1.2374 -0.4103
  433MPD2     N 6515   3.569   2.725  10.952 -0.6708 -0.0367  0.3632
  433MPD2    H5 6516   3.640   2.664  10.992 -1.8576 -0.8800  1.1936
  433MPD2    N1 6517   3.528   2.320  10.685 -0.9334 -0.1674 -0.0559
  433MPD2    H7 6518   3.483   2.272  10.607 -0.7446  1.4745 -1.1704
  434TMC3    C1 6519   3.598   2.099  10.727  0.6112 -0.4608  1.5717
  434TMC3    C2 6520   3.668   2.022  10.823 -0.5105  0.1377 -0.0454
  434TMC3    C3 6521   3.618   1.909  10.876 -0.0905  0.4682  0.5399
  434TMC3    C4 6522   3.466   2.067  10.701 -0.6257 -0.7142  0.1252
  434TMC3    C5 6523   3.410   1.961  10.769  0.4345 -0.7364 -0.1255
  434TMC3    C6 6524   3.482   1.881  10.862  0.3023  0.2316  0.3042
  434TMC3     C 6525   3.614   2.242  10.755  0.1527 -0.2158 -0.3642
  434TMC3     O 6526   3.673   2.256  10.862  0.9091 -0.1325 -0.2698
  434TMC3     H 6527   3.768   2.055  10.849 -0.4860 -1.0955  1.3946
  434TMC3    H1 6528   3.405   2.120  10.630  1.4356  1.7222  0.1840
  434TMC3    H2 6529   3.439   1.793  10.910 -1.7649 -0.0789 -2.1052
  434TMC3    C7 6530   3.310   1.886  10.697 -0.2334  0.7441 -0.1783
  434TMC3    C8 6531   3.691   1.869  10.996  0.4076 -0.6085  0.4431
  434TMC3    O1 6532   3.301   1.768  10.716 -0.2006 -0.2346 -0.3643
  434TMC3    O2 6533   3.798   1.929  11.011 -0.2905  0.2790  0.2811
  435MPD2     C 6534   1.651   2.643  15.449  0.8559  0.4259 -0.4100
  435MPD2    C1 6535   1.587   2.607  15.566  0.2574 -0.5555  0.2953
  435MPD2    C2 6536   1.651   2.529  15.661  0.4940  0.3768 -0.1421
  435MPD2    C3 6537   1.785   2.498  15.648 -0.3033 -0.0154  0.2119
  435MPD2    C4 6538   1.841   2.537  15.530  0.4710 -0.2924  0.3955
  435MPD2    C5 6539   1.777   2.601  15.434 -0.1022  0.1126  0.5848
  435MPD2     H 6540   1.605   2.502  15.755 -2.2871 -1.6312 -2.0709
  435MPD2    H1 6541   1.948   2.523  15.518  0.5833 -0.4712  1.5874
  435MPD2    H2 6542   1.603   2.707  15.376  0.6542  1.0580  0.2775
  435MPD2    H3 6543   1.827   2.618  15.340  1.0725 -0.0119  1.1782
  435MPD2     N 6544   1.847   2.430  15.752  0.1468  0.5203  0.1899
  435MPD2    H5 6545   1.788   2.414  15.833  0.4489 -1.9610 -0.0726
  435MPD2    N1 6546   1.458   2.653  15.602  0.0840  0.1934 -0.2316
  435MPD2    H7 6547   1.418   2.625  15.690  0.4395 -0.0213 -0.1357
  436TMC3    C1 6548   1.137   2.808  15.786 -0.2351  0.3009 -0.3455
  436TMC3    C2 6549   1.265   2.774  15.720  0.5042  0.6398  1.1316
  436TMC3    C3 6550   1.258   2.757  15.586  0.1155 -0.2224 -0.7963
  436TMC3    C4 6551   1.023   2.808  15.718 -0.1489  0.3430 -0.4985
  436TMC3    C5 6552   1.031   2.777  15.585  0.1608 -0.7859  0.2064
  436TMC3    C6 6553   1.143   2.763  15.517  0.5986  0.8428 -0.3334
  436TMC3     C 6554   1.148   2.863  15.913 -0.0069  0.0851  0.4689
  436TMC3     O 6555   1.258   2.908  15.939  0.3278 -0.4893  0.2172
  436TMC3     H 6556   1.356   2.785  15.778  0.6301  1.8813  0.7029
  436TMC3    H1 6557   0.932   2.841  15.767  0.0627 -1.7616  1.3377
  436TMC3    H2 6558   1.146   2.754  15.409  3.5408  2.0762 -0.3696
  436TMC3    C7 6559   0.912   2.772  15.508  0.1262 -0.5804  0.5004
  436TMC3    C8 6560   1.379   2.724  15.514 -0.2070 -0.1177  0.5688
  436TMC3    O1 6561   0.917   2.820  15.397 -0.3810 -0.1213 -0.3808
  436TMC3    O2 6562   1.381   2.733  15.394  0.3789  0.0061  0.1972
  437TMC3    C1 6563   4.712   4.309  11.813 -0.2885  0.0393 -0.5837
  437TMC3    C2 6564   4.617   4.321  11.714  0.0385  0.3270  0.5296
  437TMC3    C3 6565   4.638   4.399  11.607  0.3344  0.2444 -0.3893
  437TMC3    C4 6566   0.094   4.381  11.810 -0.2049 -0.6297  0.2406
  437TMC3    C5 6567   0.109   4.458  11.699 -0.4418 -0.7767  0.3917
  437TMC3    C6 6568   0.018   4.469  11.601 -0.2537  0.0184  0.4512
  437TMC3     C 6569   4.684   4.223  11.923 -0.9481  0.6090 -0.2821
  437TMC3     O 6570   4.607   4.131  11.903  0.5696 -0.0316 -0.3938
  437TMC3     H 6571   4.529   4.259  11.724  1.3992 -1.6205  0.3317
  437TMC3    H1 6572   0.163   4.370  11.893  0.5055 -0.8462 -0.3765
  437TMC3    H2 6573   0.052   4.517  11.510 -0.1749 -0.2812  0.3249
  437TMC3    C7 6574   0.238   4.514  11.678  0.0172  0.1744  0.3723
  437TMC3    C8 6575   4.571   4.368  11.483 -0.2261 -0.2039 -0.3644
  437TMC3    O1 6576   0.269   4.538  11.560  0.0180  0.1909 -0.3583
  437TMC3    O2 6577   4.583   4.450  11.391  0.2772  0.6399 -0.6429
  438MPD2     C 6578   2.506   0.435  16.550 -0.0338 -0.1390  0.3459
  438MPD2    C1 6579   2.534   0.309  16.590  0.3606  0.2150 -0.2867
  438MPD2    C2 6580   2.471   0.249  16.697 -0.0294  0.1934 -0.4556
  438MPD2    C3 6581   2.360   0.318  16.754  0.5999  0.2227  0.3460
  438MPD2    C4 6582   2.325   0.439  16.699  0.2042  0.3817 -0.9189
  438MPD2    C5 6583   2.400   0.499  16.603 -0.6729  0.0843  0.4412
  438MPD2     H 6584   2.494   0.146  16.723  0.5247  0.0208 -1.6074
  438MPD2    H1 6585   2.239   0.487  16.744 -0.8629 -1.8874 -0.4971
  438MPD2    H2 6586   2.561   0.491  16.475 -1.7940 -0.0967 -0.9165
  438MPD2    H3 6587   2.380   0.597  16.562  1.5992  0.2081 -0.4020
  438MPD2     N 6588   2.299   0.281  16.867  0.2783  0.2131 -0.0588
  438MPD2    H5 6589   2.225   0.342  16.901 -0.1820 -1.5251  2.0550
  438MPD2    N1 6590   2.622   0.219  16.517 -0.2197  0.3642 -0.1726
  438MPD2    H7 6591   2.619   0.122  16.544 -3.1410  0.4089 -0.3198
  439TMC3    C1 6592   2.746   0.132  16.338  0.3890  0.1400 -0.1398
  439TMC3    C2 6593   2.761   0.140  16.201  0.2877 -0.1791  0.3117
  439TMC3    C3 6594   2.833   0.034  16.152  0.0831  0.5353 -0.6680
  439TMC3    C4 6595   2.813   0.050  16.420  0.1876 -0.5851  0.2274
  439TMC3    C5 6596   2.891   4.690  16.363  0.2051 -0.5498 -0.0804
  439TMC3    C6 6597   2.885   4.672  16.232 -0.2947  0.0572  0.0389
  439TMC3     C 6598   2.672   0.247  16.394 -0.4828  0.5819  0.3349
  439TMC3     O 6599   2.670   0.353  16.334 -0.3462 -0.4511 -0.3780
  439TMC3     H 6600   2.708   0.216  16.146 -0.0194 -1.3243 -0.9543
  439TMC3    H1 6601   2.804   0.044  16.528  0.7034  1.4035  0.3827
  439TMC3    H2 6602   2.951   4.597  16.191  0.7541  0.3894  1.0947
  439TMC3    C7 6603   2.970   4.596  16.447 -0.5672  0.5961 -0.1833
  439TMC3    C8 6604   2.810   4.727  16.018  0.4295  0.6193  0.0118
  439TMC3    O1 6605   3.009   4.643  16.556 -0.3674 -0.8116  0.0467
  439TMC3    O2 6606   2.837   4.606  15.999 -0.2038  0.1656  0.0788
  440MPD2     C 6607   1.165   0.645  15.135  0.3205 -0.7066 -0.0767
  440MPD2    C1 6608   1.246   0.754  15.154 -0.7136  0.2092 -0.3414
  440MPD2    C2 6609   1.381   0.741  15.136 -0.5806  0.1267 -0.0332
  440MPD2    C3 6610   1.444   0.621  15.106 -0.3278 -0.6337 -0.2469
  440MPD2    C4 6611   1.366   0.513  15.101 -0.4501  0.4363  0.2771
  440MPD2    C5 6612   1.231   0.524  15.120 -0.4778  0.0620  0.0174
  440MPD2     H 6613   1.447   0.827  15.148 -1.9351  1.3292 -1.1811
  440MPD2    H1 6614   1.398   0.410  15.086 -1.2673  0.4153 -1.2526
  440MPD2    H2 6615   1.058   0.643  15.151  0.3891 -0.3449  0.4197
  440MPD2    H3 6616   1.169   0.435  15.120 -1.7208  0.9281 -2.1408
  440MPD2     N 6617   1.587   0.607  15.096 -0.3449  0.4070  0.2471
  440MPD2    H5 6618   1.622   0.516  15.067 -1.4334  0.1474 -0.2325
  440MPD2    N1 6619   1.197   0.878  15.170  0.2308  0.1555  0.2515
  440MPD2    H7 6620   1.264   0.953  15.187  1.0987 -0.6886  0.5304
  441TMC3    C1 6621   1.816   0.639  15.097  0.0239  0.1489  0.0204
  441TMC3    C2 6622   1.909   0.734  15.136 -0.0763 -0.6418  0.4457
  441TMC3    C3 6623   1.969   0.723  15.260  0.6898  0.6906  0.4646
  441TMC3    C4 6624   1.816   0.518  15.160  0.1257 -0.8298  0.9934
  441TMC3    C5 6625   1.899   0.505  15.266  0.5186 -0.3942 -0.2512
  441TMC3    C6 6626   1.973   0.606  15.316 -0.2317 -0.9905 -0.1507
  441TMC3     C 6627   1.686   0.698  15.114  0.2451 -0.3577  0.2376
  441TMC3     O 6628   1.692   0.812  15.153 -0.2533  0.4597 -0.3140
  441TMC3     H 6629   1.925   0.817  15.068 -0.0521 -0.7240  0.3524
  441TMC3    H1 6630   1.744   0.439  15.140 -0.5813  0.0602  0.0084
  441TMC3    H2 6631   2.012   0.603  15.417 -2.6613  1.3569  0.8602
  441TMC3    C7 6632   1.828   0.432  15.373  0.1707 -0.4747 -0.3112
  441TMC3    C8 6633   2.021   0.839  15.328 -0.1924 -0.2465 -0.0821
  441TMC3    O1 6634   1.704   0.438  15.370  0.2744  0.0866 -0.2345
  441TMC3    O2 6635   2.116   0.823  15.405 -0.1647  0.2722 -0.8937
  442MPD2     C 6636   4.148   1.075  16.219  0.1420  0.3887  0.1619
  442MPD2    C1 6637   4.057   1.003  16.286 -0.0167  0.3806 -0.0238
  442MPD2    C2 6638   4.028   0.869  16.243  0.1025  0.3037  0.0744
  442MPD2    C3 6639   4.078   0.827  16.123  0.2870  0.1021  0.0956
  442MPD2    C4 6640   4.164   0.903  16.054  0.3655 -0.2275 -0.2519
  442MPD2    C5 6641   4.208   1.021  16.108  0.1498  0.1222 -0.3928
  442MPD2     H 6642   3.962   0.814  16.309 -0.8458  1.1916 -0.1270
  442MPD2    H1 6643   4.208   0.865  15.963  0.4104 -1.7009  0.3888
  442MPD2    H2 6644   4.173   1.171  16.261 -0.9702 -0.8103  3.5941
  442MPD2    H3 6645   4.271   1.082  16.044 -0.2012 -1.6290 -2.4197
  442MPD2     N 6646   4.059   0.696  16.056 -0.0153  0.0810  0.0998
  442MPD2    H5 6647   4.106   0.688  15.967  0.0808 -2.6994  0.3907
  442MPD2    N1 6648   4.005   1.040  16.416 -0.1074  0.3824 -0.1987
  442MPD2    H7 6649   3.943   0.969  16.455  0.8347  0.8261  2.0805
  443TMC3    C1 6650   3.912   1.171  16.591 -0.3466 -0.6334  0.8761
  443TMC3    C2 6651   3.825   1.278  16.584  0.2578  0.9573  0.0007
  443TMC3    C3 6652   3.712   1.275  16.664  0.0510  0.4991  0.2400
  443TMC3    C4 6653   3.899   1.065  16.670 -1.0627  0.2113  0.6416
  443TMC3    C5 6654   3.789   1.068  16.755 -0.0312 -1.1914  0.6272
  443TMC3    C6 6655   3.695   1.168  16.750  0.2050  0.1016  0.2113
  443TMC3     C 6656   4.015   1.166  16.486  0.1530  0.2316  0.2184
  443TMC3     O 6657   4.061   1.274  16.451  0.0907  0.1703 -0.4106
  443TMC3     H 6658   3.844   1.342  16.499  2.6098  0.4784  0.1838
  443TMC3    H1 6659   3.971   0.983  16.674  0.2417  1.4101  1.7303
  443TMC3    H2 6660   3.594   1.151  16.783  0.2232 -1.8417 -0.7513
  443TMC3    C7 6661   3.759   0.940  16.824 -0.9533  0.9417 -0.0141
  443TMC3    C8 6662   3.602   1.375  16.660 -0.4035  0.0180  0.1733
  443TMC3    O1 6663   3.842   0.852  16.822  0.0528 -0.0601  0.3415
  443TMC3    O2 6664   3.633   1.485  16.701 -0.0043  0.1891  0.0425
  444MPD2     C 6665   4.373   0.737  16.870  0.7607  0.2099 -0.0581
  444MPD2    C1 6666   4.310   0.615  16.870  0.3326  0.4548  0.2991
  444MPD2    C2 6667   4.373   0.514  16.802  0.2401  0.5475 -0.2666
  444MPD2    C3 6668   4.483   0.539  16.720 -0.1569 -0.3282  0.2591
  444MPD2    C4 6669   4.538   0.662  16.717 -0.8222  0.6586 -0.4796
  444MPD2    C5 6670   4.482   0.761  16.788 -0.0132  0.1833 -0.1605
  444MPD2     H 6671   4.329   0.415  16.811 -1.0435  1.0654 -0.8359
  444MPD2    H1 6672   4.627   0.694  16.664 -0.7672 -0.1785 -0.8851
  444MPD2    H2 6673   4.331   0.829  16.910  0.3274 -0.8104  1.8103
  444MPD2    H3 6674   4.529   0.858  16.781 -1.5269  0.8754 -0.8249
  444MPD2     N 6675   4.537   0.432  16.645 -0.1429  0.0397  0.0818
  444MPD2    H5 6676   4.490   0.342  16.652  3.4251 -1.9610 -1.4443
  444MPD2    N1 6677   4.180   0.593  16.928  0.1945 -0.3825 -0.4848
  444MPD2    H7 6678   4.144   0.499  16.919  0.7162 -0.4136 -2.1140
  445TMC3    C1 6679   4.668   0.302  16.508  0.4952  0.7161  0.0196
  445TMC3    C2 6680   4.569   0.244  16.437  0.1276  0.7257  0.3418
  445TMC3    C3 6681   4.602   0.140  16.352  0.0593  0.3963 -0.6325
  445TMC3    C4 6682   0.059   0.253  16.502 -0.1800  0.3301  0.0948
  445TMC3    C5 6683   0.079   0.143  16.435 -0.4619  0.4253  0.2519
  445TMC3    C6 6684   4.726   0.085  16.352  0.2489  0.3134  0.2091
  445TMC3     C 6685   4.644   0.428  16.559  0.2722 -0.1491 -0.2431
  445TMC3     O 6686   4.728   0.511  16.538  0.0779 -0.1198 -0.1301
  445TMC3     H 6687   4.475   0.299  16.429 -0.7998 -1.0102 -0.8292
  445TMC3    H1 6688   0.141   0.305  16.550  0.4386 -1.2598  0.7617
  445TMC3    H2 6689   0.012   4.736  16.292 -0.4418  0.8075 -0.7813
  445TMC3    C7 6690   0.212   0.087  16.431  0.2365  0.0085  0.2363
  445TMC3    C8 6691   4.498   0.088  16.261 -0.1367 -0.5247 -0.2820
  445TMC3    O1 6692   0.303   0.169  16.451 -0.3924  0.0560 -0.3275
  445TMC3    O2 6693   4.429   0.173  16.203 -0.1939  0.2897  0.2412
  446MPD2     C 6694   3.427   1.964  11.290 -0.7190 -0.2930 -0.4842
  446MPD2    C1 6695   3.406   2.054  11.186  0.0479 -0.4811 -0.5812
  446MPD2    C2 6696   3.505   2.146  11.152  0.5972  0.6805 -0.7037
  446MPD2    C3 6697   3.621   2.147  11.232  0.1945 -0.0942  0.1055
  446MPD2    C4 6698   3.630   2.067  11.350  0.2501  0.4470  0.4371
  446MPD2    C5 6699   3.530   1.980  11.372  0.6623 -0.7205 -0.0942
  446MPD2     H 6700   3.498   2.193  11.054 -1.0476  1.6928 -0.1003
  446MPD2    H1 6701   3.711   2.057  11.421 -0.6013 -1.4535  1.1431
  446MPD2    H2 6702   3.353   1.895  11.329 -1.7750  2.2225  2.0103
  446MPD2    H3 6703   3.535   1.915  11.459 -0.2123  0.3945  0.7965
  446MPD2     N 6704   3.737   2.217  11.187 -0.5409 -0.0919 -0.8911
  446MPD2    H5 6705   3.727   2.246  11.091 -0.4133 -2.3822 -1.6003
  446MPD2    N1 6706   3.292   2.040  11.093  0.5296  0.3178 -0.0417
  446MPD2    H7 6707   3.288   2.096  11.008 -0.8706 -1.6029 -1.2346
  447TMC3    C1 6708   3.972   2.224  11.161  0.0568  0.3944  0.6757
  447TMC3    C2 6709   3.959   2.215  11.021  0.1192  0.2743  0.6484
  447TMC3    C3 6710   4.065   2.147  10.956  0.1318  0.2971 -0.3087
  447TMC3    C4 6711   4.087   2.178  11.221  0.6138  0.4662  0.2213
  447TMC3    C5 6712   4.192   2.110  11.153  0.8571 -0.5448 -0.4232
  447TMC3    C6 6713   4.174   2.092  11.018 -0.1477 -0.5325  0.4207
  447TMC3     C 6714   3.857   2.213  11.251  0.3585  0.5474  0.3094
  447TMC3     O 6715   3.878   2.219  11.373 -0.6919 -0.2611 -0.2221
  447TMC3     H 6716   3.883   2.267  10.964  0.9017  1.5580  0.7866
  447TMC3    H1 6717   4.091   2.184  11.329  1.1825  1.4179  0.1508
  447TMC3    H2 6718   4.254   2.036  10.969 -0.5052  0.4935 -1.3303
  447TMC3    C7 6719   4.232   1.997  11.224 -0.5131 -0.4988  0.3335
  447TMC3    C8 6720   4.047   2.136  10.811 -0.6452  0.4022 -0.0126
  447TMC3    O1 6721   4.140   1.958  11.291 -0.0801  0.2899 -0.5854
  447TMC3    O2 6722   3.975   2.216  10.754  0.1648  0.5193  0.0019
  448TMC3    C1 6723   2.812   1.859  16.948 -0.4142 -0.9728  0.0300
  448TMC3    C2 6724   2.829   1.800  16.827  0.2078  0.0848 -0.1238
  448TMC3    C3 6725   2.910   1.688  16.815 -0.4678  0.4009 -0.0628
  448TMC3    C4 6726   2.899   1.827  17.052  0.0055  0.0552  0.2083
  448TMC3    C5 6727   2.981   1.724  17.034 -0.9131 -0.0676 -0.1741
  448TMC3    C6 6728   2.988   1.647  16.923  0.7923  0.8308  0.2779
  448TMC3     C 6729   2.728   1.982  16.964 -0.3132  0.1980  0.6962
  448TMC3     O 6730   2.752   2.052  17.059  0.1597 -0.6125  0.0906
  448TMC3     H 6731   2.774   1.829  16.738 -0.9325  0.3918  0.6681
  448TMC3    H1 6732   2.895   1.883  17.145 -0.3793  2.3211 -1.1615
  448TMC3    H2 6733   3.060   1.567  16.910  0.1237  0.0281  1.4858
  448TMC3    C7 6734   3.044   1.660  17.146  0.5756  0.3175  0.5658
  448TMC3    C8 6735   2.866   1.577  16.727 -0.0495 -0.1693  0.2142
  448TMC3    O1 6736   3.098   1.725  17.236  0.6201 -0.3444  0.1538
  448TMC3    O2 6737   2.937   1.479  16.722  0.1100 -0.3495  0.3561
  449MPD2     C 6738   3.437   0.964  13.854  0.4164 -0.3646 -0.7595
  449MPD2    C1 6739   3.381   1.088  13.831  0.1693 -0.3513 -0.1516
  449MPD2    C2 6740   3.241   1.101  13.842  0.4213  0.1088 -0.3465
  449MPD2    C3 6741   3.157   0.997  13.875  0.4969 -0.5914 -0.3502
  449MPD2    C4 6742   3.212   0.870  13.890 -0.4815  0.4149 -0.3544
  449MPD2    C5 6743   3.350   0.859  13.884  0.4303 -0.6869 -0.7988
  449MPD2     H 6744   3.186   1.189  13.810  1.7903  0.9468 -0.4389
  449MPD2    H1 6745   3.159   0.781  13.923  1.7546 -0.5561  0.5995
  449MPD2    H2 6746   3.545   0.952  13.855  0.3572 -0.7997  1.6077
  449MPD2    H3 6747   3.383   0.755  13.891 -2.0058 -1.3259  0.9076
  449MPD2     N 6748   3.017   1.022  13.871 -0.4770  0.1810 -0.5439
  449MPD2    H5 6749   2.984   1.117  13.863 -0.5717  0.0744 -1.4006
  449MPD2    N1 6750   3.459   1.196  13.784  0.1817 -0.8789 -0.0031
  449MPD2    H7 6751   3.405   1.282  13.788  1.2683 -0.2923  1.9495
  450TMC3    C1 6752   3.639   1.326  13.712 -0.9344 -0.0216 -0.9045
  450TMC3    C2 6753   3.680   1.324  13.582  0.1042  0.5967  0.0736
  450TMC3    C3 6754   3.625   1.423  13.509  0.1626  0.0715  0.0192
  450TMC3    C4 6755   3.569   1.425  13.770  0.1236 -0.4748 -0.3478
  450TMC3    C5 6756   3.516   1.528  13.692 -0.3157  0.0849  0.0941
  450TMC3    C6 6757   3.544   1.526  13.554  0.2952 -0.2023  0.3235
  450TMC3     C 6758   3.593   1.191  13.746 -0.0871  0.0426  0.3399
  450TMC3     O 6759   3.673   1.097  13.744  0.0407 -0.1827  0.2345
  450TMC3     H 6760   3.711   1.230  13.539  1.5957  0.7008  0.9468
  450TMC3    H1 6761   3.558   1.418  13.878  0.0403 -1.6647 -0.4277
  450TMC3    H2 6762   3.484   1.591  13.492  0.4051 -1.2443 -0.8909
  450TMC3    C7 6763   3.374   1.532  13.724 -0.2504  0.4676  0.1219
  450TMC3    C8 6764   3.612   1.392  13.372  0.3482  0.3963  0.6164
  450TMC3    O1 6765   3.335   1.438  13.789  0.0389 -0.4289  0.1425
  450TMC3    O2 6766   3.518   1.446  13.313  0.4057 -0.3185 -0.2466
  451MPD2     C 6767   0.060   4.176   1.245 -0.2334 -1.2554 -0.0399
  451MPD2    C1 6768   0.089   4.277   1.155 -0.2306  0.2010  0.8950
  451MPD2    C2 6769   0.082   4.242   1.025 -0.3969  0.2915  0.5594
  451MPD2    C3 6770   0.070   4.109   0.975 -0.1906  1.1852 -0.0168
  451MPD2    C4 6771   0.064   4.010   1.069 -0.0899  0.3067 -0.3554
  451MPD2    C5 6772   0.055   4.047   1.199 -0.4924 -0.0492  0.5734
  451MPD2     H 6773   0.085   4.322   0.951 -0.2321 -1.4283 -1.2944
  451MPD2    H1 6774   0.062   3.904   1.044  1.5286 -0.3057  2.0966
  451MPD2    H2 6775   0.050   4.191   1.352  1.2297 -2.6834  0.3038
  451MPD2    H3 6776   0.037   3.962   1.265  0.9366 -0.5478  0.3132
  451MPD2     N 6777   0.048   4.075   0.838 -0.3168 -0.6264  0.0408
  451MPD2    H5 6778   0.044   3.976   0.816 -0.4704 -0.2928 -1.4461
  451MPD2    N1 6779   0.099   4.406   1.200  0.5743 -0.9637 -0.3064
  451MPD2    H7 6780   0.073   4.436   1.294 -1.8311 -0.0646 -1.2621
  452TMC3    C1 6781   4.714   4.102   0.615  0.2081  0.3640  0.2035
  452TMC3    C2 6782   4.645   3.983   0.616  0.3646  0.2614  0.0746
  452TMC3    C3 6783   4.599   3.943   0.489 -0.4854  0.3149 -0.4932
  452TMC3    C4 6784   0.008   4.170   0.497  0.1315 -0.0443  0.3800
  452TMC3    C5 6785   4.705   4.117   0.377 -0.0930  0.5924  0.5612
  452TMC3    C6 6786   4.613   4.012   0.377 -0.3295  0.0829  0.0175
  452TMC3     C 6787   0.028   4.162   0.734 -0.9432  1.0284  0.0133
  452TMC3     O 6788   0.054   4.282   0.736 -0.2983 -0.2299 -0.5613
  452TMC3     H 6789   4.623   3.926   0.705 -2.5274  0.1814 -0.6744
  452TMC3    H1 6790   0.076   4.255   0.498 -1.2515  1.0716 -0.4830
  452TMC3    H2 6791   4.569   3.967   0.289 -2.0128  2.3848 -0.3035
  452TMC3    C7 6792   0.015   4.186   0.257 -0.2070 -0.4251 -0.0775
  452TMC3    C8 6793   4.539   3.811   0.476 -0.1375 -0.7123 -0.3480
  452TMC3    O1 6794   0.125   4.241   0.267 -0.2528  0.6045  0.2411
  452TMC3    O2 6795   4.463   3.801   0.384  0.0490 -0.3738  0.9778
  453TMC3    C1 6796   1.613   1.158  11.843 -0.1998 -0.4174 -0.1168
  453TMC3    C2 6797   1.529   1.060  11.892  0.6083  0.4092 -0.6376
  453TMC3    C3 6798   1.394   1.079  11.867  0.4731 -0.5115  0.6594
  453TMC3    C4 6799   1.568   1.268  11.779 -0.2138 -0.0213 -0.7126
  453TMC3    C5 6800   1.430   1.290  11.784 -0.1175  0.7272 -0.1638
  453TMC3    C6 6801   1.343   1.198  11.820  0.1649 -0.3513  0.2878
  453TMC3     C 6802   1.749   1.159  11.889  0.0051 -0.0718  0.0225
  453TMC3     O 6803   1.830   1.233  11.839  0.3819 -0.3767  0.0336
  453TMC3     H 6804   1.560   0.981  11.959 -0.7973  0.4094  0.0015
  453TMC3    H1 6805   1.639   1.340  11.741 -1.8952  2.7170  1.3031
  453TMC3    H2 6806   1.236   1.214  11.812  0.8253  2.8449 -2.2713
  453TMC3    C7 6807   1.385   1.399  11.698  0.6896  0.4141 -0.8061
  453TMC3    C8 6808   1.296   0.989  11.918 -0.2671  0.0184  0.1635
  453TMC3    O1 6809   1.464   1.422  11.606  0.8831 -0.4889  0.0205
  453TMC3    O2 6810   1.209   1.044  11.984  0.1755  0.6566 -0.3150
  454MPD2     C 6811   0.507   0.304  16.175 -0.2712  0.0346  1.0858
  454MPD2    C1 6812   0.472   0.366  16.059  0.0787  0.5176  0.3926
  454MPD2    C2 6813   0.429   0.496  16.059  0.4574 -0.0004  0.2485
  454MPD2    C3 6814   0.402   0.568  16.172  0.6366  0.4873 -0.0178
  454MPD2    C4 6815   0.436   0.511  16.293 -0.0959 -0.3677 -0.6079
  454MPD2    C5 6816   0.486   0.381  16.294  0.2517 -0.7089  0.1579
  454MPD2     H 6817   0.399   0.528  15.959 -2.5605  0.4907  1.3126
  454MPD2    H1 6818   0.412   0.562  16.386 -0.8402  0.0510 -1.0284
  454MPD2    H2 6819   0.538   0.201  16.179  2.1480  0.6801 -1.3929
  454MPD2    H3 6820   0.505   0.336  16.390 -2.7790 -1.7240  0.2838
  454MPD2     N 6821   0.330   0.697  16.167  0.3847 -0.3491 -0.3589
  454MPD2    H5 6822   0.275   0.723  16.249 -0.1851 -1.8265 -0.2703
  454MPD2    N1 6823   0.457   0.309  15.928  0.0946  0.2804 -0.0963
  454MPD2    H7 6824   0.429   0.374  15.855  0.5668 -0.5670 -1.0308
  455TMC3    C1 6825   0.166   0.813  16.058 -0.0549 -0.6116 -0.2305
  455TMC3    C2 6826   0.128   0.894  16.160 -0.2047 -0.2150  0.3875
  455TMC3    C3 6827   0.002   0.899  16.209  0.6684 -0.0600 -0.8723
  455TMC3    C4 6828   0.082   0.720  16.010  0.0403 -0.6483 -0.1289
  455TMC3    C5 6829   4.692   0.719  16.064  0.1029 -0.0326 -0.0212
  455TMC3    C6 6830   4.648   0.815  16.152  0.0296  0.3075  0.3109
  455TMC3     C 6831   0.304   0.764  16.048  0.5493  0.2018  0.4788
  455TMC3     O 6832   0.342   0.737  15.937 -0.0676  0.2086  0.1247
  455TMC3     H 6833   0.200   0.960  16.206 -2.4669  2.0904  0.6130
  455TMC3    H1 6834   0.115   0.653  15.932 -2.1690 -0.9900 -0.7707
  455TMC3    H2 6835   4.558   0.793  16.208 -0.7031  0.2139 -0.8974
  455TMC3    C7 6836   4.649   0.582  16.093  0.0679  0.0047  0.0892
  455TMC3    C8 6837   4.724   0.968  16.330  0.6334 -0.4961  0.6219
  455TMC3    O1 6838   4.530   0.564  16.083 -0.3045 -0.0951 -0.2188
  455TMC3    O2 6839   0.087   0.973  16.403  0.2085  1.0912 -0.4200
  456MPD2     C 6840   2.853   0.625  15.619 -0.3201 -0.4551  0.5589
  456MPD2    C1 6841   2.919   0.551  15.711 -0.3411 -0.3445  0.0551
  456MPD2    C2 6842   2.910   0.585  15.844 -0.6694 -0.2571 -0.1468
  456MPD2    C3 6843   2.830   0.681  15.889  0.0332  0.1882 -0.0178
  456MPD2    C4 6844   2.765   0.757  15.797 -0.3288  0.3855 -0.1902
  456MPD2    C5 6845   2.782   0.734  15.667  0.4521  0.2044  0.1238
  456MPD2     H 6846   2.961   0.531  15.923 -1.3045 -1.0216 -0.2680
  456MPD2    H1 6847   2.696   0.838  15.817 -1.1097 -0.6526  1.2373
  456MPD2    H2 6848   2.870   0.606  15.514 -0.4525  0.8267  0.3082
  456MPD2    H3 6849   2.731   0.806  15.603  0.6071 -0.6264 -0.9457
  456MPD2     N 6850   2.827   0.698  16.025  0.1132 -0.6265 -0.1750
  456MPD2    H5 6851   2.870   0.633  16.090 -0.7278  0.2494  1.2514
  456MPD2    N1 6852   2.997   0.439  15.662 -0.0450  0.0921 -0.1829
  456MPD2    H7 6853   2.987   0.410  15.566  0.8946  0.1278 -0.2896
  457TMC3    C1 6854   2.778   0.827  16.233  0.3381  0.0348 -0.7765
  457TMC3    C2 6855   2.788   0.956  16.284  0.2294  0.2508 -0.1390
  457TMC3    C3 6856   2.833   0.965  16.411 -0.4864  0.1517  0.0639
  457TMC3    C4 6857   2.799   0.722  16.310 -0.5456 -1.4205  0.2447
  457TMC3    C5 6858   2.819   0.736  16.444  0.3545 -0.2257  0.0886
  457TMC3    C6 6859   2.840   0.861  16.496 -0.8756 -0.9075 -0.2687
  457TMC3     C 6860   2.782   0.817  16.082  0.0497  0.1100  0.1709
  457TMC3     O 6861   2.750   0.922  16.024  0.5130 -0.1311  0.5566
  457TMC3     H 6862   2.796   1.032  16.208 -1.4759  1.2448  0.6695
  457TMC3    H1 6863   2.787   0.622  16.270  0.6236 -1.1506 -0.7675
  457TMC3    H2 6864   2.865   0.876  16.601 -2.8832  3.0452 -0.3648
  457TMC3    C7 6865   2.849   0.629  16.545 -0.0151 -0.2673 -0.0896
  457TMC3    C8 6866   2.826   1.096  16.472 -0.2294 -0.8133 -0.0805
  457TMC3    O1 6867   2.849   0.663  16.661  1.0864  0.7337  0.1955
  457TMC3    O2 6868   2.891   1.121  16.574  0.6083 -0.8443  0.1042
  458MPD2     C 6869   0.710   4.696  11.814 -0.0725 -0.0866 -0.2289
  458MPD2    C1 6870   0.656   4.610  11.905 -0.6240  0.7593  0.1360
  458MPD2    C2 6871   0.535   4.546  11.886 -0.1305 -0.7020  0.0057
  458MPD2    C3 6872   0.454   4.569  11.777  0.6158 -0.2834  0.1878
  458MPD2    C4 6873   0.505   4.660  11.689  0.3659 -0.2393 -0.5605
  458MPD2    C5 6874   0.629   4.719  11.705 -0.0020  0.4483  0.9997
  458MPD2     H 6875   0.489   4.485  11.963 -1.3759  0.4196  0.1617
  458MPD2    H1 6876   0.445   4.684  11.602 -1.2731  1.4257  1.0185
  458MPD2    H2 6877   0.803   0.012  11.826  0.6546 -1.2718 -0.4976
  458MPD2    H3 6878   0.662   0.050  11.629 -1.8259  1.1890  0.8706
  458MPD2     N 6879   0.322   4.517  11.787 -0.8395  0.5596 -0.1134
  458MPD2    H5 6880   0.302   4.469  11.874  0.1065  0.0064 -0.2074
  458MPD2    N1 6881   0.728   4.608  12.033  0.0091  0.1756  0.2276
  458MPD2    H7 6882   0.816   4.658  12.031  0.1595 -0.0579  1.1644
  459TMC3    C1 6883   0.789   4.568  12.255 -0.2559  0.2944  0.5234
  459TMC3    C2 6884   0.907   4.637  12.231 -0.7932 -0.4189 -0.1000
  459TMC3    C3 6885   0.969   4.687  12.336 -0.1139  0.7566 -0.1274
  459TMC3    C4 6886   0.738   4.561  12.382 -0.3126 -0.6038 -0.7187
  459TMC3    C5 6887   0.812   4.614  12.480 -0.9670 -0.0936 -0.0831
  459TMC3    C6 6888   0.923   4.689  12.461  0.2064 -0.0060 -0.3323
  459TMC3     C 6889   0.686   4.553  12.149  0.5779 -0.1908  0.1004
  459TMC3     O 6890   0.583   4.492  12.184 -0.1365 -0.3850  0.2536
  459TMC3     H 6891   0.950   4.630  12.132  2.7690  0.0105  1.4344
  459TMC3    H1 6892   0.640   4.521  12.402 -0.6210  0.7149  0.4110
  459TMC3    H2 6893   0.979   0.002  12.539 -0.6626 -0.2481  0.4526
  459TMC3    C7 6894   0.762   4.602  12.611 -0.2550  0.0308 -0.5385
  459TMC3    C8 6895   1.072   0.042  12.311  0.8191 -0.1725  0.1826
  459TMC3    O1 6896   0.690   4.504  12.632 -0.5729  0.4019  0.0926
  459TMC3    O2 6897   1.154   0.016  12.223 -0.2041 -0.0339 -0.0573
  460MPD2     C 6898   4.215   1.880  10.591 -0.0056  0.5068 -0.0840
  460MPD2    C1 6899   4.127   1.982  10.625  0.1947  0.1986 -0.0953
  460MPD2    C2 6900   4.038   2.030  10.528 -0.0352  0.0366 -0.7285
  460MPD2    C3 6901   4.038   1.967  10.404 -1.0257 -0.3961  0.0459
  460MPD2    C4 6902   4.117   1.858  10.374  0.1042 -0.4271 -0.1877
  460MPD2    C5 6903   4.206   1.818  10.465  0.2710  0.0239 -0.4434
  460MPD2     H 6904   3.958   2.102  10.541  0.6517  0.4964  1.0626
  460MPD2    H1 6905   4.115   1.822  10.272 -0.2335 -2.4805  0.5569
  460MPD2    H2 6906   4.287   1.852  10.667  1.8206  0.6344 -1.7663
  460MPD2    H3 6907   4.279   1.744  10.436  2.5631  1.1054  2.5819
  460MPD2     N 6908   3.929   1.998  10.313  0.0541  0.2236 -0.1492
  460MPD2    H5 6909   3.865   2.076  10.325  1.0362  0.9628  0.3465
  460MPD2    N1 6910   4.123   2.030  10.757  0.4425 -0.3404 -0.3429
  460MPD2    H7 6911   4.197   1.997  10.819  0.0289 -0.4660  0.0891
  461TMC3    C1 6912   3.810   1.996  10.111 -0.0247 -0.0758  0.1644
  461TMC3    C2 6913   3.735   1.922  10.029  0.1379 -0.0700  0.0622
  461TMC3    C3 6914   3.649   1.983   9.946  0.0851 -0.4845  0.0362
  461TMC3    C4 6915   3.808   2.133  10.116 -0.0727 -0.0829  0.2368
  461TMC3    C5 6916   3.723   2.194  10.030 -0.0384  0.4811  0.1654
  461TMC3    C6 6917   3.643   2.123   9.945 -0.5056 -0.1911 -0.5607
  461TMC3     C 6918   3.900   1.925  10.200  0.0174  0.0962  0.1220
  461TMC3     O 6919   3.932   1.815  10.159 -0.2381  0.6147 -0.2075
  461TMC3     H 6920   3.736   1.816  10.049  2.3700  0.2086  1.4539
  461TMC3    H1 6921   3.885   2.187  10.171 -0.5814  0.5595  0.3267
  461TMC3    H2 6922   3.581   2.174   9.873 -0.5525  0.7128  0.1230
  461TMC3    C7 6923   3.731   2.339  10.010  0.7069  0.2246 -0.0167
  461TMC3    C8 6924   3.623   1.907   9.830 -0.0345  0.8430  0.2548
  461TMC3    O1 6925   3.665   2.385   9.918 -0.2521  0.1956  0.0416
  461TMC3    O2 6926   3.685   1.802   9.809  0.3286  0.2758 -0.1800
  462TMC3    C1 6927   3.892   3.401   0.467  1.1542  0.3322  0.7402
  462TMC3    C2 6928   3.932   3.515   0.402  0.0255  0.6287  0.3389
  462TMC3    C3 6929   3.865   3.552   0.289 -0.5477  0.3846 -0.4299
  462TMC3    C4 6930   3.786   3.331   0.418 -0.4737  0.4946 -0.1842
  462TMC3    C5 6931   3.713   3.373   0.311 -0.5828 -0.0435  0.3128
  462TMC3    C6 6932   3.756   3.482   0.237 -0.2067  0.4508  0.5817
  462TMC3     C 6933   3.955   3.342   0.587  0.0521  0.1209 -0.3654
  462TMC3     O 6934   3.938   3.223   0.607  0.6967 -0.1439  0.2370
  462TMC3     H 6935   4.017   3.571   0.440  0.1213  0.6706  0.0597
  462TMC3    H1 6936   3.748   3.234   0.447  1.5949  0.5945  2.8746
  462TMC3    H2 6937   3.689   3.530   0.167 -1.3987 -3.0058 -0.6490
  462TMC3    C7 6938   3.632   3.278   0.234 -0.0461  0.2558  0.3318
  462TMC3    C8 6939   3.914   3.662   0.199 -0.4952  0.9203 -0.1179
  462TMC3    O1 6940   3.592   3.170   0.284 -0.2915 -0.4257 -0.4347
  462TMC3    O2 6941   3.836   3.710   0.121  0.2413 -0.3313 -0.3503
  463MPD2     C 6942   1.190   0.933   1.257 -0.3874 -0.1339 -0.0414
  463MPD2    C1 6943   1.194   1.071   1.262 -0.6528 -0.3371  0.3863
  463MPD2    C2 6944   1.315   1.139   1.283 -0.9293  0.2257  0.2189
  463MPD2    C3 6945   1.438   1.064   1.273  0.4977 -0.5026 -0.7766
  463MPD2    C4 6946   1.430   0.926   1.274  0.1130 -0.1161  0.8253
  463MPD2    C5 6947   1.308   0.864   1.261 -0.9929  0.5465 -0.0467
  463MPD2     H 6948   1.320   1.243   1.313  1.2510  0.4203 -0.8022
  463MPD2    H1 6949   1.512   0.856   1.265 -1.2072 -1.2956 -1.9117
  463MPD2    H2 6950   1.105   0.866   1.253 -1.5482  1.3426 -0.0253
  463MPD2    H3 6951   1.308   0.757   1.245 -1.3824  0.5098  0.1961
  463MPD2     N 6952   1.563   1.125   1.293  0.0049 -0.7336 -0.6943
  463MPD2    H5 6953   1.639   1.061   1.311  0.2548 -0.0323  0.7123
  463MPD2    N1 6954   1.077   1.155   1.270 -0.4716  0.3649 -0.0194
  463MPD2    H7 6955   1.091   1.255   1.284 -0.6277 -0.0558  3.0748
  464TMC3    C1 6956   0.846   1.205   1.243  0.0363  0.3022 -0.9809
  464TMC3    C2 6957   0.877   1.334   1.208  0.1221 -0.1873  0.4387
  464TMC3    C3 6958   0.773   1.420   1.216  0.8606  0.3622 -0.4206
  464TMC3    C4 6959   0.726   1.169   1.292 -0.9164  0.1752  0.5058
  464TMC3    C5 6960   0.618   1.249   1.278 -0.2591  0.4671 -0.2678
  464TMC3    C6 6961   0.642   1.381   1.238 -0.2533  0.2696 -0.2720
  464TMC3     C 6962   0.953   1.100   1.263 -0.9581 -0.0367 -0.3332
  464TMC3     O 6963   0.907   0.987   1.264  0.1489  0.1853  0.2100
  464TMC3     H 6964   0.972   1.353   1.160 -0.8226  0.4718 -1.1411
  464TMC3    H1 6965   0.717   1.071   1.337  0.9442  0.6794  1.9815
  464TMC3    H2 6966   0.568   1.460   1.249 -1.3695 -1.0135  1.5446
  464TMC3    C7 6967   0.511   1.217   1.359 -0.3824 -0.4999  0.3840
  464TMC3    C8 6968   0.794   1.562   1.201  0.0421  0.3316  0.0769
  464TMC3    O1 6969   0.523   1.138   1.454 -0.7311  0.2768  0.7774
  464TMC3    O2 6970   0.695   1.633   1.204 -0.0478  0.2618 -0.2873
  465MPD2     C 6971   1.723   0.679  16.748  0.1317  0.1637  0.7163
  465MPD2    C1 6972   1.616   0.689  16.838 -0.6782 -0.8846  0.5160
  465MPD2    C2 6973   1.487   0.717  16.790  1.0117 -0.7991  0.5188
  465MPD2    C3 6974   1.472   0.727  16.657 -0.8776 -0.2089  0.1373
  465MPD2    C4 6975   1.578   0.710  16.567 -0.0430  0.1189 -0.2368
  465MPD2    C5 6976   1.698   0.677  16.610  0.0919 -0.1483  0.5095
  465MPD2     H 6977   1.408   0.750  16.856  0.8642  0.2179 -0.1641
  465MPD2    H1 6978   1.562   0.726  16.462 -1.5883 -0.5376 -0.0961
  465MPD2    H2 6979   1.828   0.660  16.770  0.8108  0.1348 -2.5082
  465MPD2    H3 6980   1.774   0.661  16.534 -0.5481  2.6234 -0.7284
  465MPD2     N 6981   1.351   0.778  16.612 -0.1289 -0.0686  0.2294
  465MPD2    H5 6982   1.275   0.789  16.679  0.7168 -0.5545  1.2595
  465MPD2    N1 6983   1.639   0.697  16.979 -0.3154  0.1991 -0.1654
  465MPD2    H7 6984   1.558   0.715  17.037 -1.7101  1.9566 -2.6414
  466TMC3    C1 6985   0.990   0.956  16.596  0.3476  0.4547  0.2938
  466TMC3    C2 6986   0.971   1.073  16.516 -0.4961 -0.3161 -0.4019
  466TMC3    C3 6987   1.086   1.106  16.443  0.3125  0.4344  0.6386
  466TMC3    C4 6988   1.103   0.877  16.590 -0.2778  0.0088  0.0344
  466TMC3    C5 6989   1.200   0.910  16.494 -0.1137  0.0084  0.1966
  466TMC3    C6 6990   1.197   1.026  16.422 -0.0056 -0.0811 -0.2149
  466TMC3     C 6991   0.956   0.981  16.739 -1.0873 -0.5481 -0.3395
  466TMC3     O 6992   0.961   0.888  16.820 -0.1850 -0.1337  0.3656
  466TMC3     H 6993   0.878   1.127  16.528 -0.1097  0.7181 -1.9691
  466TMC3    H1 6994   1.105   0.800  16.666  1.5581 -0.8651 -0.9005
  466TMC3    H2 6995   1.282   1.058  16.364 -0.9437  0.8081 -1.1094
  466TMC3    C7 6996   1.333   0.843  16.495 -0.0519  0.3642  0.2771
  466TMC3    C8 6997   1.110   1.247  16.460  0.0595  0.5023 -0.4055
  466TMC3    O1 6998   1.409   0.879  16.406 -0.3408  0.4279  0.1920
  466TMC3    O2 6999   1.039   1.295  16.545 -0.8351  0.2822  0.1161
  467TMC3    C1 7000   2.589   4.041  13.840 -0.0499 -0.1506 -0.2687
  467TMC3    C2 7001   2.524   4.143  13.782  0.1344  0.5988  0.3801
  467TMC3    C3 7002   2.390   4.129  13.758 -0.4975  1.1063 -0.0593
  467TMC3    C4 7003   2.519   3.937  13.894 -0.5647 -0.5979 -0.3134
  467TMC3    C5 7004   2.386   3.930  13.874 -0.8351 -0.7066 -0.4167
  467TMC3    C6 7005   2.318   4.020  13.801  0.8009  0.9475  0.5894
  467TMC3     C 7006   2.729   4.033  13.822 -0.7263  0.3688 -0.5251
  467TMC3     O 7007   2.781   4.136  13.784 -0.1821  0.0125 -0.2776
  467TMC3     H 7008   2.577   4.228  13.740  1.8548 -1.1120 -0.9391
  467TMC3    H1 7009   2.565   3.872  13.968  0.7145  0.4512 -0.1867
  467TMC3    H2 7010   2.217   3.997  13.770  1.7719 -0.9623 -1.2392
  467TMC3    C7 7011   2.299   3.841  13.942  0.3307 -0.3407  0.3194
  467TMC3    C8 7012   2.338   4.252  13.693 -0.8971  0.1670  0.0719
  467TMC3    O1 7013   2.339   3.729  13.962  0.1965 -0.1321  0.0789
  467TMC3    O2 7014   2.411   4.352  13.692  0.5904  0.0344 -0.7339
  468MPD2     C 7015   1.260   2.557  10.506  0.4729 -0.4374 -0.5083
  468MPD2    C1 7016   1.366   2.472  10.532  0.1468 -0.0167  0.0410
  468MPD2    C2 7017   1.344   2.345  10.569 -0.1510  0.6271  0.3598
  468MPD2    C3 7018   1.221   2.295  10.590  1.1749  0.7405 -0.5046
  468MPD2    C4 7019   1.116   2.388  10.587  0.1023  0.0902 -0.0670
  468MPD2    C5 7020   1.138   2.507  10.530  0.6316 -0.3930 -0.8701
  468MPD2     H 7021   1.428   2.280  10.589  0.2984  0.4281 -2.1077
  468MPD2    H1 7022   1.017   2.350  10.611  0.2260  0.3592  0.8719
  468MPD2    H2 7023   1.272   2.653  10.457  0.5754 -0.5225 -0.6471
  468MPD2    H3 7024   1.050   2.569  10.520  0.8258  0.1729  0.9797
  468MPD2     N 7025   1.206   2.154  10.607 -0.5309 -0.5689  0.3333
  468MPD2    H5 7026   1.286   2.093  10.598 -0.7099 -0.9111  1.0446
  468MPD2    N1 7027   1.500   2.524  10.544  0.2730 -0.4221 -0.0210
  468MPD2    H7 7028   1.572   2.460  10.574  1.0811 -1.3118 -3.9655
  469TMC3    C1 7029   1.666   2.682  10.581  0.0137  0.0806 -0.6504
  469TMC3    C2 7030   1.751   2.578  10.597  0.2517  1.0501 -0.1293
  469TMC3    C3 7031   1.866   2.606  10.668  1.2518 -0.3733 -0.3844
  469TMC3    C4 7032   1.681   2.803  10.643  0.5238 -0.4452  0.2925
  469TMC3    C5 7033   1.788   2.820  10.733 -0.5814  0.2008 -0.1256
  469TMC3    C6 7034   1.879   2.722  10.747  0.1024  0.2680  0.0322
  469TMC3     C 7035   1.535   2.654  10.525 -0.5646 -0.2586  0.4505
  469TMC3     O 7036   1.471   2.753  10.496  0.5193 -0.8683  0.5681
  469TMC3     H 7037   1.746   2.499  10.524 -1.2832  0.8452  0.2084
  469TMC3    H1 7038   1.608   2.881  10.626  0.4980  0.1071  2.9903
  469TMC3    H2 7039   1.973   2.740  10.798 -0.0554 -0.5045  0.5907
  469TMC3    C7 7040   1.766   2.933  10.818  0.4459  0.0483  0.4424
  469TMC3    C8 7041   1.973   2.513  10.655  0.5620  0.2174 -0.6168
  469TMC3    O1 7042   1.716   3.034  10.777 -0.3364  0.2812 -0.0496
  469TMC3    O2 7043   1.979   2.437  10.561  0.1493  0.5819 -0.2007
  470TMC3    C1 7044   4.040   3.175   1.292 -0.2901 -0.0431 -0.0433
  470TMC3    C2 7045   4.037   3.303   1.241  0.7489  0.1130 -1.1990
  470TMC3    C3 7046   4.115   3.390   1.310  0.6359  1.0130  0.8624
  470TMC3    C4 7047   4.085   3.144   1.417  0.1553 -0.6985 -0.5258
  470TMC3    C5 7048   4.158   3.240   1.483  1.1240 -0.6568 -0.0450
  470TMC3    C6 7049   4.190   3.362   1.425 -0.2464  0.8101  0.1476
  470TMC3     C 7050   3.942   3.088   1.241  0.0737  0.7123  0.3643
  470TMC3     O 7051   3.875   3.034   1.325 -0.1690  0.1248 -0.3768
  470TMC3     H 7052   3.996   3.326   1.143 -1.8515 -1.8645 -0.5710
  470TMC3    H1 7053   4.063   3.052   1.469 -2.1083 -0.0952 -0.4156
  470TMC3    H2 7054   4.247   3.441   1.473  1.4322 -0.5288  0.3764
  470TMC3    C7 7055   4.133   3.267   1.625  0.4288 -0.3742  0.5232
  470TMC3    C8 7056   4.143   3.519   1.253 -0.0504 -0.5496  0.0962
  470TMC3    O1 7057   4.236   3.300   1.688  0.3389 -0.5876  0.4525
  470TMC3    O2 7058   4.048   3.579   1.217 -0.4392 -0.2581  0.3670
  471MPD2     C 7059   3.981   4.395  16.144  0.3770 -0.0138 -0.6922
  471MPD2    C1 7060   4.071   4.294  16.127  0.1837 -0.4703  0.2853
  471MPD2    C2 7061   4.152   4.260  16.235  0.1493  0.4617 -0.4710
  471MPD2    C3 7062   4.169   4.343  16.346 -0.3482  0.4989  0.5219
  471MPD2    C4 7063   4.079   4.448  16.359  0.1699 -0.4652  0.4945
  471MPD2    C5 7064   3.986   4.470  16.258 -0.9987  0.2876  0.0299
  471MPD2     H 7065   4.215   4.173  16.244 -0.5720 -0.3652 -3.4436
  471MPD2    H1 7066   4.069   4.514  16.443  0.2763  1.1948 -0.7966
  471MPD2    H2 7067   3.911   4.429  16.068  1.1621  0.7511 -1.0672
  471MPD2    H3 7068   3.921   4.553  16.280 -1.6176 -0.0508 -0.5246
  471MPD2     N 7069   4.268   4.309  16.441  0.4140  0.2021  0.0519
  471MPD2    H5 7070   4.324   4.229  16.414  1.9542  0.9110  1.1679
  471MPD2    N1 7071   4.080   4.206  16.005  0.3835 -0.0018 -0.3301
  471MPD2    H7 7072   4.142   4.126  16.006 -0.7180 -0.8987 -3.8177
  472TMC3    C1 7073   4.044   4.133  15.780 -0.1416 -0.0335  0.3579
  472TMC3    C2 7074   3.938   4.098  15.707 -0.6173  0.5515  0.1453
  472TMC3    C3 7075   3.906   3.970  15.669 -0.1179  0.0978  0.5055
  472TMC3    C4 7076   4.136   4.040  15.806 -0.1580 -0.6966 -0.2650
  472TMC3    C5 7077   4.121   3.915  15.754 -0.0389  0.4071 -0.2916
  472TMC3    C6 7078   3.999   3.877  15.697 -0.1515 -0.5275 -0.6493
  472TMC3     C 7079   4.031   4.241  15.875 -0.0852 -0.4380  0.3080
  472TMC3     O 7080   3.965   4.339  15.844  0.3704  0.1925  0.2900
  472TMC3     H 7081   3.870   4.179  15.688 -1.1217 -0.1221 -0.9198
  472TMC3    H1 7082   4.222   4.064  15.868  1.0809 -0.0702 -2.2492
  472TMC3    H2 7083   3.964   3.774  15.696  0.9024 -0.8984  0.2764
  472TMC3    C7 7084   4.202   3.804  15.794  0.5223  0.5958  0.2839
  472TMC3    C8 7085   3.773   3.935  15.683  0.1814 -0.4404 -0.8909
  472TMC3    O1 7086   4.270   3.810  15.895  0.6813  0.5145  0.2883
  472TMC3    O2 7087   3.684   3.988  15.614 -0.3853  0.1829  0.4332
  473MPD2     C 7088   4.527   1.744  13.990 -0.0025  0.4968  0.5680
  473MPD2    C1 7089   4.453   1.828  13.907 -0.7457  0.7183  0.5609
  473MPD2    C2 7090   4.484   1.956  13.901 -0.3916 -0.0502  0.5435
  473MPD2    C3 7091   4.577   2.010  13.985 -1.6352 -1.0089 -0.4881
  473MPD2    C4 7092   4.661   1.924  14.058 -0.2335 -1.0620 -0.1183
  473MPD2    C5 7093   4.631   1.792  14.067  0.3931  0.7019 -0.0355
  473MPD2     H 7094   4.433   2.018  13.828  0.8320 -0.7689 -0.9258
  473MPD2    H1 7095   4.735   1.969  14.123 -2.1787  1.6128  0.2376
  473MPD2    H2 7096   4.495   1.640  13.998  0.0840  0.3740 -0.6146
  473MPD2    H3 7097   4.688   1.727  14.132 -0.4447  1.9808  1.9820
  473MPD2     N 7098   4.611   2.145  13.994 -0.0102  0.5449  0.1320
  473MPD2    H5 7099   4.670   2.179  14.069 -0.1326 -0.6638  0.7881
  473MPD2    N1 7100   4.344   1.792  13.821 -0.4999  0.3323  0.3767
  473MPD2    H7 7101   4.308   1.871  13.769 -0.8150 -0.3970 -0.5170
  474TMC3    C1 7102   4.585   2.381  13.966  0.3134  0.0167  0.0435
  474TMC3    C2 7103   4.532   2.470  13.884 -0.4015  0.0630 -0.1093
  474TMC3    C3 7104   4.466   2.581  13.930 -0.5318  0.6031  0.6617
  474TMC3    C4 7105   4.591   2.409  14.102 -0.1782  0.9197 -0.0816
  474TMC3    C5 7106   4.532   2.523  14.152 -0.0536 -0.0280  0.1071
  474TMC3    C6 7107   4.460   2.601  14.065 -0.1798  0.5161  0.7242
  474TMC3     C 7108   4.553   2.246  13.921 -0.4190  0.1391  0.2784
  474TMC3     O 7109   4.484   2.235  13.818  0.2245 -0.4030 -0.0492
  474TMC3     H 7110   4.531   2.459  13.776 -0.4477 -1.2995  0.0290
  474TMC3    H1 7111   4.625   2.338  14.176  1.7517  0.5822 -1.2901
  474TMC3    H2 7112   4.392   2.677  14.104 -0.6004  0.1846  0.6361
  474TMC3    C7 7113   4.480   2.501  14.282  0.2323 -0.1833  0.7842
  474TMC3    C8 7114   4.398   2.671  13.835  0.5886  0.3787  0.1167
  474TMC3    O1 7115   4.360   2.519  14.286 -0.3753 -0.0500  0.4024
  474TMC3    O2 7116   4.391   2.627  13.718 -0.0981  0.0910  0.1611
  475MPD2     C 7117   1.665   4.734  10.917 -0.1238  0.5985 -0.2074
  475MPD2    C1 7118   1.748   0.088  10.856 -0.0593  0.4201 -0.5838
  475MPD2    C2 7119   1.740   0.221  10.881 -0.9081  0.2882 -0.4749
  475MPD2    C3 7120   1.648   0.271  10.980 -1.0287 -0.3696  0.0192
  475MPD2    C4 7121   1.565   0.184  11.042  0.3118  0.2478 -0.4545
  475MPD2    C5 7122   1.580   0.052  11.008  0.2252  0.4626 -0.3581
  475MPD2     H 7123   1.806   0.288  10.826 -1.9087  1.9851  0.3691
  475MPD2    H1 7124   1.496   0.199  11.125  0.4193 -1.4279 -0.0770
  475MPD2    H2 7125   1.660   4.626  10.907 -2.6718  0.6547  0.4863
  475MPD2    H3 7126   1.536   4.712  11.070  0.3819  1.4682  1.0062
  475MPD2     N 7127   1.636   0.407  10.999 -0.3547 -0.4642  0.1264
  475MPD2    H5 7128   1.688   0.469  10.938 -0.0195 -0.9764 -0.1029
  475MPD2    N1 7129   1.846   0.040  10.768 -0.1747 -0.6036  0.4509
  475MPD2    H7 7130   1.837   4.681  10.740  1.3314 -0.6777  0.2581
  476TMC3    C1 7131   2.029   0.051  10.617 -0.3263  0.1782  0.2537
  476TMC3    C2 7132   1.964   4.689  10.546  0.7151  0.1380 -0.4645
  476TMC3    C3 7133   2.022   4.647  10.422  1.0866  0.2916  0.4686
  476TMC3    C4 7134   2.143   0.108  10.560 -0.0419 -0.0120 -0.6658
  476TMC3    C5 7135   2.183   0.068  10.432 -0.1288  0.7839  0.1565
  476TMC3    C6 7136   2.122   4.706  10.362  0.0494 -0.0544 -0.4497
  476TMC3     C 7137   1.968   0.096  10.739 -0.1911 -0.1991  0.6932
  476TMC3     O 7138   2.015   0.205  10.779  0.2283  0.3894  0.4633
  476TMC3     H 7139   1.877   4.635  10.582  0.7627 -1.7938 -3.2767
  476TMC3    H1 7140   2.200   0.183  10.614  0.1544 -1.0899  0.6364
  476TMC3    H2 7141   2.157   4.659  10.270  0.4883 -0.3173 -0.1489
  476TMC3    C7 7142   2.314   0.115  10.386 -0.2077 -0.2563  0.0726
  476TMC3    C8 7143   1.969   4.524  10.367 -0.2843  0.5144 -0.1747
  476TMC3    O1 7144   2.389   0.034  10.325  0.0690  0.0578 -0.7070
  476TMC3    O2 7145   1.932   4.431  10.441 -0.2204  0.4065 -0.4559
  477MPD2     C 7146   4.707   1.986  11.809  0.7001 -0.0116  0.1948
  477MPD2    C1 7147   4.603   1.904  11.849 -0.4696  0.0299 -0.3574
  477MPD2    C2 7148   4.618   1.789  11.927 -0.9394  0.5550 -0.1096
  477MPD2    C3 7149   0.003   1.783  11.996 -0.6191  0.0372 -0.4713
  477MPD2    C4 7150   0.109   1.864  11.970  0.0084  0.2914 -0.1490
  477MPD2    C5 7151   0.092   1.961  11.873  0.0688 -0.2592  0.4705
  477MPD2     H 7152   4.536   1.723  11.953 -1.5603  0.9555 -1.0612
  477MPD2    H1 7153   0.205   1.849  12.017  0.4260  0.7702 -0.8483
  477MPD2    H2 7154   4.697   2.065  11.735 -2.4168 -1.6539 -1.1274
  477MPD2    H3 7155   0.179   2.022  11.852  0.5126 -1.7738 -2.0421
  477MPD2     N 7156   0.009   1.670  12.086  0.0655 -0.1920  0.4734
  477MPD2    H5 7157   4.672   1.602  12.082  0.0418 -0.1677  0.5092
  477MPD2    N1 7158   4.477   1.942  11.794 -0.2371 -0.0437  0.2633
  477MPD2    H7 7159   4.466   2.029  11.743 -1.4502 -0.1913  0.2508
  478TMC3    C1 7160   4.267   1.915  11.702 -0.3902  0.2428  0.3390
  478TMC3    C2 7161   4.246   2.050  11.682  0.0471  0.2496  0.3211
  478TMC3    C3 7162   4.135   2.105  11.622 -0.4105 -0.3018  0.0004
  478TMC3    C4 7163   4.161   1.828  11.670 -0.2931  0.6847  0.2145
  478TMC3    C5 7164   4.056   1.891  11.610  0.3837 -0.8331 -0.1051
  478TMC3    C6 7165   4.033   2.027  11.594 -0.5345  0.1316  0.3836
  478TMC3     C 7166   4.382   1.852  11.763  0.7026 -0.9044 -0.0683
  478TMC3     O 7167   4.381   1.731  11.782 -0.4718 -0.6892  0.1665
  478TMC3     H 7168   4.321   2.121  11.715 -1.1540  1.2885  0.7969
  478TMC3    H1 7169   4.158   1.720  11.679  0.3900  0.3709 -3.1993
  478TMC3    H2 7170   3.940   2.067  11.556 -0.1193 -0.7877 -1.6250
  478TMC3    C7 7171   3.949   1.800  11.587 -0.5438  0.0036  0.0148
  478TMC3    C8 7172   4.104   2.237  11.667  0.6100  0.0495 -0.2497
  478TMC3    O1 7173   3.922   1.721  11.673 -0.3617  0.3026  0.1122
  478TMC3    O2 7174   4.118   2.253  11.785 -0.2612 -0.1780  0.5593
  479MPD2     C 7175   3.777   3.321  14.418 -0.1380 -0.0586 -0.7450
  479MPD2    C1 7176   3.709   3.330  14.538  0.2304  0.2437  0.1325
  479MPD2    C2 7177   3.769   3.399  14.642 -0.1780 -0.2400 -0.6510
  479MPD2    C3 7178   3.894   3.473  14.624  0.4040 -0.3230  0.5485
  479MPD2    C4 7179   3.953   3.463  14.503 -0.5825 -0.1214  0.2522
  479MPD2    C5 7180   3.901   3.380  14.408  0.5194  0.3875 -0.0770
  479MPD2     H 7181   3.725   3.389  14.741  0.7400 -0.6311 -0.2831
  479MPD2    H1 7182   4.051   3.505  14.487 -0.0410 -1.3929  0.2156
  479MPD2    H2 7183   3.739   3.259  14.338  0.7716 -0.6305 -0.7264
  479MPD2    H3 7184   3.960   3.369  14.318  2.2659  1.7613  0.8800
  479MPD2     N 7185   3.956   3.545  14.722 -0.4192 -0.0318 -0.3541
  479MPD2    H5 7186   4.054   3.563  14.701 -0.8732  0.7190 -1.8229
  479MPD2    N1 7187   3.576   3.280  14.549 -0.3063 -0.7673 -0.7232
  479MPD2    H7 7188   3.536   3.242  14.464 -0.8969  0.9820 -1.2325
  480TMC3    C1 7189   4.054   3.710  15.152 -0.7715 -0.6680  0.3808
  480TMC3    C2 7190   4.162   3.778  15.116  0.3127  0.0226  0.2760
  480TMC3    C3 7191   4.168   3.794  14.975 -0.2153 -0.4958 -0.0620
  480TMC3    C4 7192   3.968   3.647  15.069  0.0070 -0.8812  1.1600
  480TMC3    C5 7193   3.994   3.639  14.940 -0.4630 -0.8017  0.2888
  480TMC3    C6 7194   4.087   3.727  14.890  0.8617  0.3795 -0.1830
  480TMC3     C 7195   4.029   3.684  15.293 -0.5791  0.5937 -0.1601
  480TMC3     O 7196   4.123   3.693  15.370  0.4487  0.1414  0.4414
  480TMC3     H 7197   4.218   3.840  15.184 -0.1158  2.1474 -1.3130
  480TMC3    H1 7198   3.897   3.576  15.109 -0.6377 -0.0308  1.5281
  480TMC3    H2 7199   4.115   3.730  14.785 -0.0035  0.0744 -0.4167
  480TMC3    C7 7200   3.906   3.563  14.850 -0.8944  0.1168  0.0853
  480TMC3    C8 7201   4.239   3.907  14.926 -0.2286  0.7870  0.3374
  480TMC3    O1 7202   3.807   3.518  14.903  0.1802 -0.2781  0.0252
  480TMC3    O2 7203   4.340   3.938  14.992  0.1840  0.0964 -0.5693
  481MPD2     C 7204   0.939   3.444  13.983  0.6868 -0.1774  0.1493
  481MPD2    C1 7205   0.821   3.401  14.035 -0.2365 -0.7535  0.3755
  481MPD2    C2 7206   0.807   3.353  14.169 -0.4172 -0.1510 -0.7456
  481MPD2    C3 7207   0.918   3.374  14.252  0.3333  0.6208 -0.4457
  481MPD2    C4 7208   1.041   3.415  14.200 -0.2007  0.0825  0.3634
  481MPD2    C5 7209   1.047   3.441  14.066  0.0260  0.5220  0.8300
  481MPD2     H 7210   0.715   3.308  14.205  0.1996 -0.8120 -0.0071
  481MPD2    H1 7211   1.124   3.426  14.268 -0.3693  4.3706 -0.1378
  481MPD2    H2 7212   0.940   3.473  13.879  0.0291  0.0259  0.1959
  481MPD2    H3 7213   1.136   3.492  14.032 -0.3866  0.3051 -0.5769
  481MPD2     N 7214   0.915   3.335  14.390 -0.2020  0.1938  0.0963
  481MPD2    H5 7215   0.996   3.356  14.448 -0.5679 -0.3866  0.8042
  481MPD2    N1 7216   0.713   3.409  13.947  0.0171  0.1071  0.2739
  481MPD2    H7 7217   0.724   3.471  13.867 -0.1176  0.9468  0.9018
  482TMC3    C1 7218   0.501   3.374  13.845  0.1600  0.3697  0.1904
  482TMC3    C2 7219   0.417   3.272  13.810  0.7750  0.6914 -0.6968
  482TMC3    C3 7220   0.343   3.295  13.690  0.1717  0.0180 -0.7710
  482TMC3    C4 7221   0.497   3.495  13.778  0.4980 -0.4607  0.2999
  482TMC3    C5 7222   0.429   3.506  13.662  0.5888  0.4118 -0.1284
  482TMC3    C6 7223   0.350   3.410  13.615  0.3627  0.2820 -0.2780
  482TMC3     C 7224   0.589   3.349  13.960 -0.2877  0.2167  0.5401
  482TMC3     O 7225   0.562   3.257  14.036 -0.1469  0.0374 -0.4785
  482TMC3     H 7226   0.424   3.179  13.864 -2.4993  0.1443 -1.2123
  482TMC3    H1 7227   0.548   3.580  13.823  1.6971 -1.1435  0.2257
  482TMC3    H2 7228   0.292   3.426  13.525  0.8371  1.3966 -0.3940
  482TMC3    C7 7229   0.400   3.643  13.628 -0.8576  0.1119 -0.3200
  482TMC3    C8 7230   0.280   3.173  13.634 -0.2615 -0.3097  0.8802
  482TMC3    O1 7231   0.382   3.726  13.718 -0.1418 -0.4835 -0.1434
  482TMC3    O2 7232   0.291   3.070  13.703  0.4241  0.1153 -0.6220
  483TMC3    C1 7233   2.646   1.786   0.221 -0.1380 -0.4487 -0.6004
  483TMC3    C2 7234   2.674   1.908   0.193 -0.0156 -1.1962 -0.1228
  483TMC3    C3 7235   2.720   1.991   0.294  0.5804 -0.8331  1.0866
  483TMC3    C4 7236   2.655   1.737   0.349  0.0361 -0.8733  0.0731
  483TMC3    C5 7237   2.687   1.824   0.451  0.0579 -0.0942  0.2787
  483TMC3    C6 7238   2.733   1.945   0.423  0.0276  0.2373  0.0374
  483TMC3     C 7239   2.668   1.693   0.106 -0.6539 -0.6987  0.0874
  483TMC3     O 7240   2.697   1.748  17.747 -0.1745 -0.6761 -0.0157
  483TMC3     H 7241   2.642   1.943   0.096 -1.9169  1.8290  1.5798
  483TMC3    H1 7242   2.633   1.635   0.380  1.1636 -0.7499  1.3120
  483TMC3    H2 7243   2.774   2.010   0.500 -0.0342  0.4857 -0.1388
  483TMC3    C7 7244   2.732   1.764   0.572  0.5592  0.1470  0.2716
  483TMC3    C8 7245   2.798   2.110   0.257 -0.3065  0.1878 -0.6642
  483TMC3    O1 7246   2.754   1.641   0.576  0.5350  0.2653 -0.2468
  483TMC3    O2 7247   2.821   2.105   0.135  0.0207 -0.1898  0.1549
  484MPD2     C 7248   1.047   0.405  12.393 -0.3316 -0.2381 -0.2778
  484MPD2    C1 7249   1.115   0.285  12.360 -0.6117 -0.0324 -0.8644
  484MPD2    C2 7250   1.252   0.287  12.340 -0.5394  0.1259  0.6206
  484MPD2    C3 7251   1.329   0.401  12.352 -0.1721  0.3575 -0.1965
  484MPD2    C4 7252   1.259   0.515  12.390 -0.5336  0.0585 -0.6619
  484MPD2    C5 7253   1.120   0.522  12.408  0.0747  0.4129  1.0432
  484MPD2     H 7254   1.300   0.200  12.297 -1.5243  1.0077 -2.2532
  484MPD2    H1 7255   1.308   0.611  12.402 -0.5778 -0.1315  1.1363
  484MPD2    H2 7256   0.939   0.411  12.400 -0.2705 -1.0196  1.2192
  484MPD2    H3 7257   1.077   0.621  12.417 -0.3217  0.1799  1.6704
  484MPD2     N 7258   1.460   0.420  12.312 -0.6271 -0.3259 -0.1881
  484MPD2    H5 7259   1.490   0.516  12.331  0.3854 -0.6637 -0.0847
  484MPD2    N1 7260   1.040   0.165  12.362  0.3439 -0.9883 -0.5429
  484MPD2    H7 7261   0.945   0.172  12.399  1.6076  1.0158  2.3319
  485TMC3    C1 7262   1.671   0.374  12.208 -0.0480  0.6890  0.1350
  485TMC3    C2 7263   1.783   0.301  12.198  0.7850 -0.3030  0.0448
  485TMC3    C3 7264   1.888   0.336  12.110 -0.0157  0.0759  0.3703
  485TMC3    C4 7265   1.658   0.474  12.121 -0.5376  0.4396  0.1232
  485TMC3    C5 7266   1.755   0.504  12.036  0.1360 -0.2937  0.0757
  485TMC3    C6 7267   1.876   0.445  12.029  0.5646  0.0468 -0.3434
  485TMC3     C 7268   1.552   0.324  12.273  0.2605  0.1568  0.4258
  485TMC3     O 7269   1.532   0.202  12.282  0.2753  0.0760 -0.3200
  485TMC3     H 7270   1.800   0.214  12.261 -2.2356 -1.5373 -0.8328
  485TMC3    H1 7271   1.558   0.515  12.106 -1.9567 -2.5524  1.2509
  485TMC3    H2 7272   1.950   0.479  11.957 -1.1050  0.5878 -1.7879
  485TMC3    C7 7273   1.710   0.568  11.916 -0.4690 -0.0481 -0.1051
  485TMC3    C8 7274   2.002   0.245  12.083  0.5235  0.0490 -0.1020
  485TMC3    O1 7275   1.649   0.675  11.919 -0.4787  0.1041 -0.6451
  485TMC3    O2 7276   2.093   0.290  12.017  0.0710  0.3909 -0.2568
  486MPD2     C 7277   3.933   4.008  12.528 -0.1984  0.0859 -0.0747
  486MPD2    C1 7278   3.807   3.954  12.512 -0.0977 -0.0501  0.0263
  486MPD2    C2 7279   3.693   4.021  12.535 -0.5358 -0.0997 -0.2018
  486MPD2    C3 7280   3.704   4.157  12.565  0.2852 -0.2031  0.8122
  486MPD2    C4 7281   3.831   4.217  12.581  0.8579  0.3762  0.2904
  486MPD2    C5 7282   3.942   4.146  12.561  0.8093 -0.0993 -0.6139
  486MPD2     H 7283   3.592   3.981  12.538 -0.4754 -0.4261 -2.2992
  486MPD2    H1 7284   3.843   4.322  12.605  0.5802  0.0064  2.0594
  486MPD2    H2 7285   4.016   3.940  12.509 -0.3770 -0.2908  0.4810
  486MPD2    H3 7286   4.042   4.188  12.570  0.6271  0.4044 -0.9420
  486MPD2     N 7287   3.586   4.233  12.567 -0.0660 -0.0168 -0.9130
  486MPD2    H5 7288   3.502   4.181  12.547 -0.8333  0.6013  0.7102
  486MPD2    N1 7289   3.793   3.811  12.490 -0.4140  0.4603 -0.7458
  486MPD2    H7 7290   3.879   3.757  12.488 -1.9394 -1.9638 -0.7841
  487TMC3    C1 7291   3.696   3.603  12.444 -0.1415  0.5368  0.0365
  487TMC3    C2 7292   3.608   3.532  12.370  0.1260  0.3650  0.3732
  487TMC3    C3 7293   3.625   3.400  12.364  0.3639  0.5985  0.6192
  487TMC3    C4 7294   3.777   3.546  12.533  0.4251  0.7114 -0.2638
  487TMC3    C5 7295   3.772   3.413  12.545 -0.5489  0.2374 -0.0368
  487TMC3    C6 7296   3.718   3.337  12.446 -0.6425  0.2952  0.4973
  487TMC3     C 7297   3.678   3.745  12.449  0.7422 -0.0579  0.2268
  487TMC3     O 7298   3.576   3.786  12.402  0.3766 -0.6389  0.3643
  487TMC3     H 7299   3.525   3.585  12.324  0.4494 -0.6396 -1.3415
  487TMC3    H1 7300   3.818   3.605  12.615 -0.9855  2.1411 -0.5682
  487TMC3    H2 7301   3.710   3.229  12.454 -0.2392  0.3386  1.4546
  487TMC3    C7 7302   3.725   3.391  12.679 -1.0896  0.6157 -0.3559
  487TMC3    C8 7303   3.510   3.315  12.331 -0.3200 -0.0333 -0.7128
  487TMC3    O1 7304   3.725   3.482  12.759  0.1435 -0.7792  0.3653
  487TMC3    O2 7305   3.530   3.203  12.290  0.0323  0.3201  0.0679
  488MPD2     C 7306   3.486   0.378  16.060  0.2017 -0.0824 -0.8177
  488MPD2    C1 7307   3.579   0.439  16.138 -0.4718 -0.1086 -1.1835
  488MPD2    C2 7308   3.608   0.383  16.261 -0.1826  0.2222 -0.5275
  488MPD2    C3 7309   3.529   0.282  16.315 -0.1583 -1.1005 -1.1011
  488MPD2    C4 7310   3.419   0.233  16.239  0.8929  1.0059  0.0572
  488MPD2    C5 7311   3.411   0.278  16.110  0.0721 -0.9397  0.6916
  488MPD2     H 7312   3.686   0.433  16.319 -0.4332  1.7430 -1.5063
  488MPD2    H1 7313   3.356   0.150  16.268 -0.7985  1.1323 -3.2286
  488MPD2    H2 7314   3.462   0.417  15.962 -2.2290  0.2115 -0.0852
  488MPD2    H3 7315   3.335   0.239  16.043 -1.6451 -0.8455  2.5649
  488MPD2     N 7316   3.555   0.255  16.451 -0.0728 -0.6773  0.2852
  488MPD2    H5 7317   3.636   0.294  16.498 -0.3193  0.9785 -0.6396
  488MPD2    N1 7318   3.640   0.565  16.096 -0.7264 -0.0497  0.2233
  488MPD2    H7 7319   3.693   0.612  16.168 -2.0774  0.2294  1.0423
  489TMC3    C1 7320   3.509   0.174  16.676 -0.5753  0.2109 -0.0471
  489TMC3    C2 7321   3.597   0.262  16.728  0.1511  0.7014 -0.2604
  489TMC3    C3 7322   3.618   0.270  16.869 -0.1117 -1.2034 -0.8045
  489TMC3    C4 7323   3.436   0.095  16.768  0.2244  0.0754  0.1461
  489TMC3    C5 7324   3.463   0.103  16.904 -0.0768 -0.0620  0.1471
  489TMC3    C6 7325   3.549   0.192  16.964  0.0485 -0.4105 -0.0064
  489TMC3     C 7326   3.480   0.168  16.530  0.6152 -0.0205  0.1702
  489TMC3     O 7327   3.392   0.091  16.495  0.0739 -0.3711 -0.2949
  489TMC3     H 7328   3.645   0.338  16.668 -3.1070  3.7508  0.9671
  489TMC3    H1 7329   3.364   0.027  16.724  0.6415  0.4891 -1.1766
  489TMC3    H2 7330   3.570   0.197  17.070 -1.1624  1.5408  0.1353
  489TMC3    C7 7331   3.391   0.014  16.998  0.1671 -0.1261 -0.8708
  489TMC3    C8 7332   3.658   0.403  16.899 -0.3224  0.2482  0.3749
  489TMC3    O1 7333   3.426   0.014  17.115  0.8849  0.6319 -0.0990
  489TMC3    O2 7334   3.746   0.457  16.828  0.3360  0.7393 -0.2233
  490MPD2     C 7335   4.475   0.207  16.977  0.7655 -0.4964 -0.0273
  490MPD2    C1 7336   4.401   0.166  17.090  0.2764  0.1869  0.0036
  490MPD2    C2 7337   4.420   0.225  17.210  0.0279  0.1059 -0.1027
  490MPD2    C3 7338   4.514   0.331  17.217 -0.6720  0.0500  0.7266
  490MPD2    C4 7339   4.580   0.371  17.106  0.4648  0.2058 -0.2132
  490MPD2    C5 7340   4.556   0.311  16.983 -0.2105 -0.2215 -0.3083
  490MPD2     H 7341   4.367   0.207  17.303  1.0820 -0.6905  0.3519
  490MPD2    H1 7342   4.643   0.459  17.097 -0.3396  0.7807 -0.2104
  490MPD2    H2 7343   4.470   0.153  16.883 -1.4128 -1.4273  0.6389
  490MPD2    H3 7344   4.614   0.342  16.897 -0.8626  1.1038 -0.2715
  490MPD2     N 7345   4.546   0.411  17.333  0.2240  0.2773 -0.0487
  490MPD2    H5 7346   4.605   0.492  17.321  1.5375 -0.5387  0.8755
  490MPD2    N1 7347   4.314   0.054  17.086 -0.0402  0.6132  0.1650
  490MPD2    H7 7348   4.252   0.045  17.166  1.3366  0.4177  1.2135
  491TMC3    C1 7349   4.193   4.605  16.995  0.5633  0.2368 -0.7340
  491TMC3    C2 7350   4.172   4.558  17.123  0.6038 -0.2063  0.0813
  491TMC3    C3 7351   4.084   4.464  17.146 -0.8376  0.1775  0.3128
  491TMC3    C4 7352   4.124   4.553  16.886 -0.2091 -0.0812 -0.6803
  491TMC3    C5 7353   4.038   4.450  16.918  0.6564  0.6769 -0.2105
  491TMC3    C6 7354   4.012   4.406  17.045  0.3933 -0.0308  0.5806
  491TMC3     C 7355   4.293   4.707  16.977  0.3253 -0.3679  0.0051
  491TMC3     O 7356   4.349   4.713  16.866  0.0648 -0.2185  0.7191
  491TMC3     H 7357   4.241   4.596  17.198  2.1742  0.8070 -1.8808
  491TMC3    H1 7358   4.156   4.587  16.788  0.1435 -0.9182 -0.8536
  491TMC3    H2 7359   3.948   4.321  17.061  0.8517  0.0599  2.9623
  491TMC3    C7 7360   3.942   4.415  16.813 -0.1950  1.1262  0.1164
  491TMC3    C8 7361   4.065   4.407  17.275  0.4783  0.1475 -0.2188
  491TMC3    O1 7362   3.889   4.307  16.808  0.2152  0.5465 -0.6014
  491TMC3    O2 7363   3.965   4.343  17.286  0.5932 -0.3117  0.4777
  492MPD2     C 7364   4.364   0.377  11.102  0.1963  0.4655 -0.6991
  492MPD2    C1 7365   4.286   0.266  11.085 -0.6926 -0.5789  0.1786
  492MPD2    C2 7366   4.208   0.218  11.193  0.3054  0.2827  0.0802
  492MPD2    C3 7367   4.242   0.260  11.316 -0.2165  0.0078 -0.9346
  492MPD2    C4 7368   4.330   0.365  11.338  0.0633 -0.6163  0.6714
  492MPD2    C5 7369   4.385   0.426  11.226 -0.0953 -0.2767 -0.2802
  492MPD2     H 7370   4.140   0.137  11.170 -1.2379  1.7402 -0.5352
  492MPD2    H1 7371   4.357   0.381  11.441 -1.1378 -0.6806  0.9998
  492MPD2    H2 7372   4.413   0.419  11.014  1.0209 -0.0389 -0.4805
  492MPD2    H3 7373   4.457   0.506  11.241 -1.0261  0.5921 -0.4428
  492MPD2     N 7374   4.181   0.195  11.432  0.0230  0.1470 -0.8878
  492MPD2    H5 7375   4.220   0.204  11.525  0.4906  1.9757 -1.2793
  492MPD2    N1 7376   4.267   0.227  10.954 -0.1616  0.1192 -0.9695
  492MPD2    H7 7377   4.295   0.295  10.884  3.1484 -1.7501 -1.4835
  493TMC3    C1 7378   4.141   0.120  10.778  0.8235 -0.7376 -0.4716
  493TMC3    C2 7379   4.162   0.219  10.683  0.0474 -0.6881 -0.0745
  493TMC3    C3 7380   4.111   0.196  10.559 -0.2276 -0.1801 -0.0726
  493TMC3    C4 7381   4.062   0.010  10.744  0.5928  0.2367  0.7004
  493TMC3    C5 7382   4.007   4.737  10.615  0.1837  1.1738  0.2829
  493TMC3    C6 7383   4.036   0.095  10.518  0.0432  0.3799  0.1328
  493TMC3     C 7384   4.179   0.125  10.915  0.0725  0.1080  0.8395
  493TMC3     O 7385   4.146   0.030  10.986 -0.1143  0.5741 -0.0527
  493TMC3     H 7386   4.214   0.312  10.698 -2.2348  0.7383 -1.0158
  493TMC3    H1 7387   4.058   4.663  10.812 -2.3587  0.6903  1.1007
  493TMC3    H2 7388   3.985   0.093  10.423  2.0710 -1.2705 -0.9160
  493TMC3    C7 7389   3.902   4.643  10.587 -0.2192  0.0984 -0.0197
  493TMC3    C8 7390   4.150   0.292  10.457 -0.0032 -0.9610 -0.5233
  493TMC3    O1 7391   3.830   4.659  10.491  0.6935  0.1545  0.1774
  493TMC3    O2 7392   4.159   0.413  10.493 -0.7575 -0.1399 -0.2290
  494TMC3    C1 7393   0.198   2.118   0.491  0.3374 -0.6946 -0.4843
  494TMC3    C2 7394   0.246   1.990   0.476 -0.2330 -0.1161  0.5833
  494TMC3    C3 7395   0.250   1.940   0.347  0.0779 -0.0900  0.6435
  494TMC3    C4 7396   0.174   2.200   0.385 -0.3799 -0.0836  0.2572
  494TMC3    C5 7397   0.215   2.151   0.258 -0.5277  0.1467 -0.0372
  494TMC3    C6 7398   0.237   2.015   0.235 -0.1224 -1.0076  0.4946
  494TMC3     C 7399   0.223   2.184   0.618  0.4562  0.2807 -1.1625
  494TMC3     O 7400   0.321   2.134   0.676 -0.0234  0.3006  0.3445
  494TMC3     H 7401   0.270   1.938   0.568 -0.0493 -1.1213 -0.0378
  494TMC3    H1 7402   0.143   2.304   0.390 -0.4745 -0.1162  0.3703
  494TMC3    H2 7403   0.234   1.976   0.135 -0.3951  0.5760 -0.1176
  494TMC3    C7 7404   0.243   2.241   0.144  0.4710 -0.4124 -0.5133
  494TMC3    C8 7405   0.290   1.799   0.338  0.0760 -0.3099  0.2262
  494TMC3    O1 7406   0.277   2.179   0.045  0.3690 -0.3332 -0.7301
  494TMC3    O2 7407   0.360   1.758   0.429  0.1521  0.3085 -0.2836
  495TMC3    C1 7408   4.061   3.988  14.006  0.9889 -0.4298  0.4145
  495TMC3    C2 7409   3.938   4.019  13.954  0.1837  0.0599  0.3079
  495TMC3    C3 7410   3.843   4.076  14.035  0.4399  1.5807 -0.9998
  495TMC3    C4 7411   4.098   4.030  14.132 -0.3748  0.0184 -0.8681
  495TMC3    C5 7412   4.003   4.114  14.197 -0.1522 -0.0932  0.4686
  495TMC3    C6 7413   3.876   4.124  14.159  0.1761  0.3008 -0.7413
  495TMC3     C 7414   4.089   3.847  13.978 -1.1142 -0.1413 -0.6351
  495TMC3     O 7415   4.008   3.791  13.901 -0.5135 -0.2823  0.0638
  495TMC3     H 7416   3.925   3.986  13.852 -0.9533  0.8228  0.1978
  495TMC3    H1 7417   4.202   4.026  14.159 -0.9029 -0.0525  1.1905
  495TMC3    H2 7418   3.797   4.177  14.211 -1.9137 -3.1518 -0.3874
  495TMC3    C7 7419   4.030   4.145  14.334 -0.6745 -0.5165 -0.1921
  495TMC3    C8 7420   3.718   4.007  14.024 -0.1681 -0.6804  0.0151
  495TMC3    O1 7421   3.939   4.137  14.415 -0.2441 -0.2851  0.3780
  495TMC3    O2 7422   3.632   4.052  14.098  0.4315 -0.2964 -0.1017
  496MPD2     C 7423   0.918   4.310  15.474 -0.0508 -0.5579  0.0382
  496MPD2    C1 7424   1.020   4.235  15.522 -0.1586  0.0672 -0.0270
  496MPD2    C2 7425   1.044   4.105  15.481  0.1106  0.4332  0.7328
  496MPD2    C3 7426   0.963   4.052  15.384  0.2638 -0.5463 -0.0484
  496MPD2    C4 7427   0.862   4.125  15.333  0.0985  0.2470 -0.1740
  496MPD2    C5 7428   0.836   4.258  15.373  0.4941  0.1153 -0.2194
  496MPD2     H 7429   1.110   4.040  15.538 -0.6303 -0.9601  0.0163
  496MPD2    H1 7430   0.790   4.081  15.264  1.6127 -0.6532 -1.1868
  496MPD2    H2 7431   0.896   4.410  15.509 -0.7261 -0.3347 -1.0100
  496MPD2    H3 7432   0.756   4.315  15.327 -0.6940  0.4534  2.2599
  496MPD2     N 7433   0.955   3.917  15.355  0.4712  0.2261 -0.1129
  496MPD2    H5 7434   0.870   3.877  15.318 -0.2249  2.3989 -0.8917
  496MPD2    N1 7435   1.106   4.298  15.622  0.3724  0.2790 -1.4339
  496MPD2    H7 7436   1.069   4.380  15.670 -2.4595 -2.8173  1.6616
  497TMC3    C1 7437   0.994   3.690  15.369 -0.3046  0.3453 -0.6849
  497TMC3    C2 7438   0.888   3.700  15.276 -0.6655 -0.4728  0.5382
  497TMC3    C3 7439   0.773   3.630  15.290  0.5446 -0.1716 -0.6290
  497TMC3    C4 7440   0.985   3.607  15.479 -0.0839  0.2027 -0.1751
  497TMC3    C5 7441   0.852   3.558  15.508 -0.6500 -0.4400 -0.1424
  497TMC3    C6 7442   0.755   3.565  15.414 -0.0316 -0.0578 -0.1295
  497TMC3     C 7443   1.045   3.820  15.393  0.8009 -0.3852 -0.4409
  497TMC3     O 7444   1.146   3.819  15.463  0.4481 -0.0885 -0.4581
  497TMC3     H 7445   0.910   3.757  15.186  0.2916 -0.5070  0.7472
  497TMC3    H1 7446   1.069   3.602  15.548  0.9367  1.2237 -1.3363
  497TMC3    H2 7447   0.656   3.535  15.446  0.2669 -1.3216 -0.4070
  497TMC3    C7 7448   0.815   3.522  15.646  0.2030  0.3280  0.5698
  497TMC3    C8 7449   0.663   3.699  15.230  0.0030 -0.1551 -0.2982
  497TMC3    O1 7450   0.707   3.472  15.672  0.0723 -0.5083  0.1230
  497TMC3    O2 7451   0.688   3.808  15.178  0.4103 -0.5742 -0.3449
  498MPD2     C 7452   1.038   0.650  10.039 -0.7214 -0.1217  0.3382
  498MPD2    C1 7453   1.159   0.591  10.058  0.1816  0.1114 -0.6924
  498MPD2    C2 7454   1.168   0.457  10.031 -0.6193 -0.3451  0.3023
  498MPD2    C3 7455   1.056   0.386   9.984 -0.0216  0.2746 -0.5901
  498MPD2    C4 7456   0.937   0.447   9.976  0.9980  0.4873 -0.0362
  498MPD2    C5 7457   0.926   0.578  10.000 -0.5807  0.2771 -0.3027
  498MPD2     H 7458   1.264   0.407  10.022 -1.2704 -1.5259 -0.0967
  498MPD2    H1 7459   0.843   0.402   9.945  2.6032 -1.3087 -2.3162
  498MPD2    H2 7460   1.040   0.759  10.043  2.8096 -0.1609 -0.3257
  498MPD2    H3 7461   0.845   0.634   9.956 -0.6133 -0.6284 -1.4022
  498MPD2     N 7462   1.055   0.246   9.964 -0.2836  0.0598  0.1237
  498MPD2    H5 7463   1.128   0.183   9.997 -1.7569 -0.5677  2.1927
  498MPD2    N1 7464   1.275   0.660  10.086  0.4095 -0.5547  0.1340
  498MPD2    H7 7465   1.260   0.759  10.105 -1.0058 -0.8632  0.5995
  499TMC3    C1 7466   1.494   0.735  10.065  0.5933  0.7401  0.5658
  499TMC3    C2 7467   1.630   0.721  10.097 -0.0483 -0.0557 -0.2402
  499TMC3    C3 7468   1.706   0.830  10.087 -0.9000 -0.1204 -0.3774
  499TMC3    C4 7469   1.449   0.852  10.020 -0.6702 -0.3186 -0.8201
  499TMC3    C5 7470   1.526   0.960  10.019 -0.2192  0.1322 -0.2935
  499TMC3    C6 7471   1.662   0.950  10.046  0.4574  0.4558 -0.0458
  499TMC3     C 7472   1.405   0.614  10.088 -0.9084 -0.0598  0.1772
  499TMC3     O 7473   1.456   0.511  10.128  0.2174 -0.2123 -0.3199
  499TMC3     H 7474   1.672   0.625  10.124 -0.4411  0.1375  1.0948
  499TMC3    H1 7475   1.346   0.857   9.985 -0.6062 -1.8283 -1.2372
  499TMC3    H2 7476   1.734   1.031  10.037  1.7411 -0.4339  2.1323
  499TMC3    C7 7477   1.465   1.094  10.000 -0.4151  0.4734 -0.1126
  499TMC3    C8 7478   1.850   0.807  10.067 -0.4075 -0.0744 -0.2286
  499TMC3    O1 7479   1.536   1.183   9.955  0.0707 -0.0947  0.0272
  499TMC3    O2 7480   1.908   0.878   9.983 -0.0971  0.1318  0.5930
  500MPD2     C 7481   2.976   1.417   9.648 -0.2104 -0.0635  0.1421
  500MPD2    C1 7482   2.946   1.403   9.782 -0.3226 -0.3717 -0.0987
  500MPD2    C2 7483   2.815   1.407   9.827  0.0000 -0.7507 -0.7007
  500MPD2    C3 7484   2.713   1.415   9.735 -0.2204  0.2558 -0.6694
  500MPD2    C4 7485   2.749   1.431   9.605  0.1981  0.6577  0.2392
  500MPD2    C5 7486   2.872   1.441   9.559 -0.4432  0.0682 -0.0321
  500MPD2     H 7487   2.793   1.386   9.931 -1.0874  0.4829 -0.6842
  500MPD2    H1 7488   2.679   1.441   9.523 -1.3445  1.3124  1.6522
  500MPD2    H2 7489   3.075   1.416   9.605  0.5925  0.4097  1.9551
  500MPD2    H3 7490   2.892   1.469   9.456 -0.6054  2.4414  0.5893
  500MPD2     N 7491   2.575   1.403   9.752  0.6148 -0.4404 -1.1364
  500MPD2    H5 7492   2.525   1.406   9.665  0.5762  0.4771 -1.0752
  500MPD2    N1 7493   3.044   1.381   9.881 -0.7136 -0.6223 -0.3969
  500MPD2    H7 7494   3.008   1.381   9.976  1.0347 -0.7997  0.2660
  501TMC3    C1 7495   3.258   1.357   9.969 -0.1089 -0.2368 -0.0801
  501TMC3    C2 7496   3.216   1.432  10.074  0.0916 -0.2054 -0.3711
  501TMC3    C3 7497   3.294   1.437  10.189 -0.3355 -0.3058 -0.0418
  501TMC3    C4 7498   3.379   1.283   9.974  0.6578  0.0423  0.5356
  501TMC3    C5 7499   3.456   1.300  10.088  1.5158  0.1829 -0.0363
  501TMC3    C6 7500   3.405   1.366  10.198 -0.6956  0.7902  0.7615
  501TMC3     C 7501   3.175   1.343   9.857  0.3305  0.3121 -0.1579
  501TMC3     O 7502   3.231   1.307   9.756 -0.4319  0.0217 -0.2928
  501TMC3     H 7503   3.127   1.493  10.071  0.2431  0.0241 -0.1822
  501TMC3    H1 7504   3.409   1.224   9.888  1.2320  0.3729  0.5143
  501TMC3    H2 7505   3.470   1.386  10.282 -0.0498  0.3921  0.3540
  501TMC3    C7 7506   3.552   1.197  10.132  0.4662 -0.0008  0.4816
  501TMC3    C8 7507   3.269   1.531  10.298  0.5365  0.2889 -0.6863
  501TMC3    O1 7508   3.565   1.180  10.248 -0.1690 -0.4402 -0.1378
  501TMC3    O2 7509   3.366   1.553  10.371  0.1906  0.5689  0.4541
  502TMC3    C1 7510   3.112   4.694  14.418  0.8443  0.3430  0.0282
  502TMC3    C2 7511   3.082   0.087  14.429 -0.3501  0.1983 -0.1766
  502TMC3    C3 7512   2.958   0.129  14.470  0.1001  0.5426  0.5487
  502TMC3    C4 7513   3.020   4.602  14.446  0.4401  0.2024  0.1634
  502TMC3    C5 7514   2.894   4.639  14.486  0.0270  0.8263  0.2494
  502TMC3    C6 7515   2.865   0.039  14.508 -1.2512  0.7435  0.2186
  502TMC3     C 7516   3.229   4.669  14.498  0.0223  0.1733  0.8122
  502TMC3     O 7517   3.320   0.011  14.486  0.2424 -0.4124  0.2376
  502TMC3     H 7518   3.160   0.159  14.404  0.9878 -1.0843  0.2519
  502TMC3    H1 7519   3.035   4.496  14.425  1.6364  0.2957  0.5042
  502TMC3    H2 7520   2.767   0.068  14.544 -0.6118  2.2082  0.7854
  502TMC3    C7 7521   2.839   4.546  14.577 -0.1092  0.1366 -0.2350
  502TMC3    C8 7522   2.943   0.268  14.507 -0.0015  0.3031 -0.1579
  502TMC3    O1 7523   2.924   4.479  14.632  0.0181 -0.4041  0.5026
  502TMC3    O2 7524   3.045   0.335  14.522  0.1647 -0.3789 -0.3361
  503MPD2     C 7525   0.607   0.961  16.658 -0.7058 -0.4886 -0.1652
  503MPD2    C1 7526   0.618   1.007  16.784 -0.1510  0.3604  0.6027
  503MPD2    C2 7527   0.618   0.911  16.886  0.5002  0.5923  0.7397
  503MPD2    C3 7528   0.603   0.774  16.867 -0.0577 -0.3705  0.2276
  503MPD2    C4 7529   0.591   0.731  16.737  0.2852  0.3682  0.4014
  503MPD2    C5 7530   0.599   0.822  16.636  0.4305  0.1786  0.1194
  503MPD2     H 7531   0.611   0.948  16.988  0.0445  0.1140  0.8792
  503MPD2    H1 7532   0.573   0.630  16.701 -0.6678  1.2800 -1.6712
  503MPD2    H2 7533   0.581   1.027  16.576 -0.0189  0.1143  0.1054
  503MPD2    H3 7534   0.587   0.794  16.532 -2.4077 -2.5475  1.1560
  503MPD2     N 7535   0.618   0.689  16.982  0.8148 -0.2313  0.8121
  503MPD2    H5 7536   0.634   0.727  17.075 -1.2251  1.0246  0.6348
  503MPD2    N1 7537   0.624   1.143  16.812  0.3859 -0.7049  0.2008
  503MPD2    H7 7538   0.625   1.171  16.909 -1.0836 -3.9625  1.1446
  504TMC3    C1 7539   0.661   0.510  17.108  0.3485 -0.5826  0.2321
  504TMC3    C2 7540   0.616   0.591  17.210  0.0308  0.1855  0.1792
  504TMC3    C3 7541   0.677   0.571  17.331 -0.5450  0.4728  0.1575
  504TMC3    C4 7542   0.749   0.407  17.122 -0.6132 -1.3439 -0.7710
  504TMC3    C5 7543   0.806   0.394  17.244 -0.1275  0.0853 -0.8111
  504TMC3    C6 7544   0.768   0.472  17.347  1.1851 -0.6469 -0.2349
  504TMC3     C 7545   0.637   0.555  16.976  1.0259 -0.6462 -0.3420
  504TMC3     O 7546   0.649   0.479  16.884 -0.2780 -0.1970 -0.1513
  504TMC3     H 7547   0.534   0.660  17.194 -0.0723  0.2268  0.9167
  504TMC3    H1 7548   0.792   0.349  17.041  0.3188  0.6607 -1.7071
  504TMC3    H2 7549   0.813   0.458  17.445  1.7272 -0.0711 -0.3982
  504TMC3    C7 7550   0.947   0.372  17.235 -0.2450  0.6226 -0.1154
  504TMC3    C8 7551   0.618   0.639  17.444  0.5978 -0.6403 -0.5077
  504TMC3    O1 7552   0.993   0.400  17.126 -0.4762  0.3760 -0.0277
  504TMC3    O2 7553   0.521   0.712  17.429  0.1310 -0.3019  0.7190
  505MPD2     C 7554   0.296   4.049  10.386  0.0439  0.0324  0.4760
  505MPD2    C1 7555   0.390   3.954  10.386  0.0260  0.2140 -0.6246
  505MPD2    C2 7556   0.486   3.948  10.485  0.5028 -1.2282  0.2605
  505MPD2    C3 7557   0.489   4.040  10.589 -0.5444  0.1533 -0.6471
  505MPD2    C4 7558   0.387   4.135  10.591 -0.4191 -1.2196 -0.5426
  505MPD2    C5 7559   0.291   4.136  10.494 -0.2211  0.1755  0.2268
  505MPD2     H 7560   0.568   3.878  10.489 -1.0193 -2.9909  0.4155
  505MPD2    H1 7561   0.378   4.208  10.671  0.3576  0.4899 -2.0123
  505MPD2    H2 7562   0.229   4.072  10.303  0.9537  0.4632 -0.1375
  505MPD2    H3 7563   0.215   4.213  10.495 -0.1710  0.2350 -0.8525
  505MPD2     N 7564   0.597   4.029  10.675 -0.1829  0.1673  0.4138
  505MPD2    H5 7565   0.658   3.951  10.656 -1.2672 -0.6313  0.2229
  505MPD2    N1 7566   0.386   3.872  10.274  0.6249  0.3011 -0.2795
  505MPD2    H7 7567   0.326   3.898  10.197 -1.7409 -0.3923  1.3442
  506TMC3    C1 7568   0.451   3.685  10.141  0.0915  0.1857 -0.2283
  506TMC3    C2 7569   0.432   3.772  10.030  0.0827 -0.2981 -0.1647
  506TMC3    C3 7570   0.491   3.731   9.911 -0.5159  0.2368 -0.3319
  506TMC3    C4 7571   0.522   3.566  10.134 -0.1849  0.1171  0.2144
  506TMC3    C5 7572   0.599   3.549  10.017  0.1201  0.0828  0.0684
  506TMC3    C6 7573   0.577   3.628   9.910 -0.2441  0.2445 -0.3890
  506TMC3     C 7574   0.453   3.749  10.267 -0.6031  0.3913  0.8564
  506TMC3     O 7575   0.530   3.698  10.347  0.2025  0.1838 -0.0289
  506TMC3     H 7576   0.377   3.865  10.029 -2.5482 -1.8158  1.3566
  506TMC3    H1 7577   0.540   3.501  10.219 -1.4866  0.8337  1.0248
  506TMC3    H2 7578   0.629   3.612   9.817 -0.2317 -0.0145 -0.3380
  506TMC3    C7 7579   0.741   3.552  10.051 -0.9194 -0.1288 -0.4360
  506TMC3    C8 7580   0.494   3.824   9.808  0.2111 -1.0136 -0.7128
  506TMC3    O1 7581   0.823   3.521   9.968  0.2616 -0.4014 -0.3860
  506TMC3    O2 7582   0.494   3.772   9.699  0.4918  0.5543 -0.0193
  507TMC3    C1 7583   1.717   0.381  14.666  0.0299  0.2624 -0.1591
  507TMC3    C2 7584   1.659   0.315  14.567 -1.0070  0.1849  0.1273
  507TMC3    C3 7585   1.615   0.376  14.452 -0.3592 -0.0802  0.0593
  507TMC3    C4 7586   1.760   0.510  14.651  0.6613  0.0888  0.0559
  507TMC3    C5 7587   1.730   0.568  14.528  0.6963  0.0701 -0.3267
  507TMC3    C6 7588   1.665   0.502  14.425  0.7844  0.0654 -0.1586
  507TMC3     C 7589   1.664   0.351  14.797  0.4841 -0.3732 -0.5468
  507TMC3     O 7590   1.719   0.399  14.892  0.0823  0.2710 -0.1365
  507TMC3     H 7591   1.628   0.212  14.575  2.1637 -0.9997 -2.7295
  507TMC3    H1 7592   1.822   0.552  14.729 -0.4704  2.5258 -0.3543
  507TMC3    H2 7593   1.634   0.557  14.337  2.6220 -0.1266 -0.9342
  507TMC3    C7 7594   1.680   0.703  14.554 -0.1863 -0.3642 -0.0746
  507TMC3    C8 7595   1.465   0.379  14.465  0.2764  0.4961 -0.7496
  507TMC3    O1 7596   1.593   0.750  14.477  0.1806 -0.5981 -0.4998
  507TMC3    O2 7597   1.406   0.333  14.561  0.0358  0.4518 -0.2855
  508MPD2     C 7598   2.611   2.502  15.772  0.7502 -0.2753 -0.3772
  508MPD2    C1 7599   2.713   2.594  15.773  0.0133  0.5435  0.4485
  508MPD2    C2 7600   2.747   2.667  15.659 -0.3483  0.7222 -0.4381
  508MPD2    C3 7601   2.672   2.636  15.541  0.3786  0.7444  0.0174
  508MPD2    C4 7602   2.566   2.549  15.549  0.8219  0.1924  0.4666
  508MPD2    C5 7603   2.529   2.484  15.664 -0.3298  0.0048 -0.3212
  508MPD2     H 7604   2.830   2.736  15.663 -0.8841  1.2663  1.2987
  508MPD2    H1 7605   2.490   2.526  15.475  0.3135 -0.3270  1.1484
  508MPD2    H2 7606   2.607   2.425  15.849  1.0269 -0.5342 -0.6207
  508MPD2    H3 7607   2.445   2.417  15.679 -2.0008  2.0132 -0.6765
  508MPD2     N 7608   2.693   2.713  15.420 -0.2985 -0.3166 -0.4235
  508MPD2    H5 7609   2.756   2.792  15.428  1.0933 -1.5012  0.2803
  508MPD2    N1 7610   2.787   2.604  15.898 -0.1449 -0.1340 -0.4508
  508MPD2    H7 7611   2.743   2.567  15.982  1.9623 -0.7844  0.3624
  509TMC3    C1 7612   2.558   3.041  15.169  0.0214  0.6300 -0.0790
  509TMC3    C2 7613   2.682   3.085  15.140 -0.1751  0.4591 -0.2726
  509TMC3    C3 7614   2.788   2.988  15.160 -0.1889 -0.0421  0.1439
  509TMC3    C4 7615   2.534   2.911  15.207  0.7142 -0.3663  0.5785
  509TMC3    C5 7616   2.639   2.824  15.228  1.0151  0.0649 -0.3598
  509TMC3    C6 7617   2.767   2.859  15.197 -0.3242 -0.0795 -0.1704
  509TMC3     C 7618   2.443   3.130  15.162  0.0647  0.5058  0.4872
  509TMC3     O 7619   2.349   3.111  15.234 -0.0610 -0.2313 -0.0428
  509TMC3     H 7620   2.694   3.185  15.100 -1.5829 -0.3193 -2.6237
  509TMC3    H1 7621   2.433   2.880  15.227  0.2772  0.5668 -0.1726
  509TMC3    H2 7622   2.852   2.792  15.200 -1.6182 -1.7058  0.0379
  509TMC3    C7 7623   2.615   2.710  15.312 -0.0311 -0.2219  1.5385
  509TMC3    C8 7624   2.922   3.025  15.133  1.0115 -0.3413  0.0486
  509TMC3    O1 7625   2.514   2.642  15.288  0.0994 -0.3228 -0.4665
  509TMC3    O2 7626   3.014   2.945  15.145  0.1042  0.3139 -0.1135
  510MPD2     C 7627   0.181   4.360  14.168  0.4209 -0.1499 -0.7238
  510MPD2    C1 7628   0.261   4.342  14.282  0.4083 -0.1700  0.6116
  510MPD2    C2 7629   0.399   4.361  14.284  0.0084  0.3432 -0.2890
  510MPD2    C3 7630   0.459   4.399  14.161  0.1466  0.3663 -0.5293
  510MPD2    C4 7631   0.384   4.409  14.039  0.1984 -0.1036  0.5077
  510MPD2    C5 7632   0.246   4.392  14.049 -0.2597 -0.7038 -0.1645
  510MPD2     H 7633   0.455   4.339  14.374  3.8618 -0.1416 -2.8286
  510MPD2    H1 7634   0.427   4.425  13.941 -2.2884 -2.2570 -0.9162
  510MPD2    H2 7635   0.074   4.348  14.176  0.2037  2.4242  0.1062
  510MPD2    H3 7636   0.184   4.392  13.960  0.1716  0.2718 -0.4628
  510MPD2     N 7637   0.597   4.423  14.169 -0.6243  0.0966  0.4287
  510MPD2    H5 7638   0.644   4.405  14.256  0.0689  0.9185  0.2248
  510MPD2    N1 7639   0.194   4.291  14.398  0.1035 -0.9045 -0.2883
  510MPD2    H7 7640   0.101   4.256  14.377 -0.1345 -0.6380  0.3183
  511TMC3    C1 7641   0.155   4.194  14.613  0.0549 -0.3123 -0.6143
  511TMC3    C2 7642   0.179   4.217  14.747  0.2280 -0.0883  0.3601
  511TMC3    C3 7643   0.144   4.116  14.835  0.0557  0.6516 -0.0195
  511TMC3    C4 7644   0.088   4.087  14.563  0.2067 -0.4104 -0.2441
  511TMC3    C5 7645   0.062   3.986  14.659 -0.8915 -0.1656  0.2119
  511TMC3    C6 7646   0.079   4.002  14.794  0.3126 -0.2513 -0.7377
  511TMC3     C 7647   0.245   4.267  14.525 -0.0124  0.2944  0.5266
  511TMC3     O 7648   0.335   4.321  14.580 -0.1218 -0.2563  0.2036
  511TMC3     H 7649   0.238   4.300  14.784 -0.0417 -0.0239  0.6415
  511TMC3    H1 7650   0.088   4.059  14.458  0.2164  1.4386 -0.7386
  511TMC3    H2 7651   0.058   3.918  14.859 -0.7167  0.3090 -0.3484
  511TMC3    C7 7652   0.055   3.851  14.603 -0.4913 -0.1558  0.5311
  511TMC3    C8 7653   0.108   4.166  14.965 -0.2602 -0.1935 -0.2581
  511TMC3    O1 7654   0.106   3.835  14.496  0.7841  0.2053 -0.0825
  511TMC3    O2 7655   0.162   4.272  15.003 -0.1808 -0.1994  0.2567
  512TMC3    C1 7656   3.924   3.963  12.967  0.2509  0.4630  0.2590
  512TMC3    C2 7657   4.014   3.967  13.074 -0.0679  0.4630 -0.9028
  512TMC3    C3 7658   4.123   3.885  13.069 -1.1130 -0.1219 -0.1216
  512TMC3    C4 7659   3.940   3.875  12.859 -0.3217  0.1964  0.4682
  512TMC3    C5 7660   4.053   3.798  12.868  0.4486 -0.0151  0.0084
  512TMC3    C6 7661   4.141   3.791  12.977  0.6438 -0.1168 -0.8981
  512TMC3     C 7662   3.795   4.030  12.986 -0.4497  0.0728  0.8454
  512TMC3     O 7663   3.805   4.123  13.063  0.2317  0.5390 -0.8163
  512TMC3     H 7664   3.996   4.032  13.158 -0.6209  1.5319 -1.8460
  512TMC3    H1 7665   3.864   3.858  12.784 -1.0740  1.2946  0.9905
  512TMC3    H2 7666   4.230   3.730  12.988 -0.0593 -0.9366  0.2087
  512TMC3    C7 7667   4.064   3.696  12.757  0.3653  0.0260  0.4344
  512TMC3    C8 7668   4.229   3.908  13.169  0.6467 -0.0165 -0.1765
  512TMC3    O1 7669   4.018   3.735  12.648  0.0223 -0.2808 -0.4019
  512TMC3    O2 7670   4.312   3.818  13.181 -0.1801 -0.2379 -0.7058
  513MPD2     C 7671   0.645   3.768  13.294 -0.0559  0.8467  0.5147
  513MPD2    C1 7672   0.677   3.637  13.265 -0.1929 -0.5749  0.3188
  513MPD2    C2 7673   0.756   3.575  13.357  0.3730 -0.4765 -0.2129
  513MPD2    C3 7674   0.815   3.645  13.455 -0.0318  0.6722 -0.1750
  513MPD2    C4 7675   0.780   3.774  13.490 -0.2552 -0.1275  0.3189
  513MPD2    C5 7676   0.690   3.836  13.411  0.2381 -0.0224  0.3140
  513MPD2     H 7677   0.799   3.477  13.337 -0.0893 -0.3228 -2.0021
  513MPD2    H1 7678   0.835   3.833  13.562  1.1709  1.1180 -1.7793
  513MPD2    H2 7679   0.573   3.822  13.233 -0.9717  2.3165  2.8879
  513MPD2    H3 7680   0.660   3.938  13.433  2.9634  0.8602 -0.1420
  513MPD2     N 7681   0.918   3.573  13.522 -0.6430 -0.4371  0.3421
  513MPD2    H5 7682   0.945   3.480  13.492  2.0154 -0.1285  1.8081
  513MPD2    N1 7683   0.639   3.584  13.140 -0.4877  0.4500  0.4134
  513MPD2    H7 7684   0.575   3.635  13.079  1.4028  0.6212 -1.4265
  514TMC3    C1 7685   0.652   3.438  12.956 -0.5111  0.5517  0.6105
  514TMC3    C2 7686   0.685   3.548  12.873  0.4202  0.4141  0.3663
  514TMC3    C3 7687   0.760   3.536  12.757  0.3330  0.1935  0.1431
  514TMC3    C4 7688   0.698   3.313  12.919  0.1984 -0.3764 -0.3107
  514TMC3    C5 7689   0.785   3.307  12.812  0.3240  0.0330  0.4923
  514TMC3    C6 7690   0.809   3.411  12.725  0.2996  0.2475  0.1440
  514TMC3     C 7691   0.672   3.461  13.097  0.4007 -0.5722  0.6117
  514TMC3     O 7692   0.738   3.377  13.152 -0.2039 -0.1461 -0.4226
  514TMC3     H 7693   0.636   3.643  12.890  3.9660  1.8420  2.5717
  514TMC3    H1 7694   0.678   3.224  12.978  0.5315 -1.3050 -1.5884
  514TMC3    H2 7695   0.870   3.392  12.637 -0.8098  0.3213 -0.6389
  514TMC3    C7 7696   0.915   3.252  12.841 -0.4123 -0.2286  0.5752
  514TMC3    C8 7697   0.822   3.655  12.723 -0.7985 -0.0881  0.8733
  514TMC3    O1 7698   0.986   3.224  12.743 -0.0392 -1.0039  0.3084
  514TMC3    O2 7699   0.820   3.741  12.806 -0.3009  0.0888  0.3419
  515MPD2     C 7700   3.915   1.148  14.724 -0.1232  0.2716 -0.5388
  515MPD2    C1 7701   3.963   1.035  14.659  0.2792 -0.0441  0.1703
  515MPD2    C2 7702   4.084   0.983  14.695  0.1248  0.1950 -0.2701
  515MPD2    C3 7703   4.149   1.040  14.799  0.4506  0.3128 -0.3558
  515MPD2    C4 7704   4.099   1.146  14.868  0.5802 -0.3017 -0.5543
  515MPD2    C5 7705   3.981   1.195  14.827  0.3911  0.5222  0.9886
  515MPD2     H 7706   4.116   0.890  14.648  0.4794  1.8898 -3.3778
  515MPD2    H1 7707   4.145   1.191  14.955 -0.5604  0.3657 -0.2866
  515MPD2    H2 7708   3.824   1.203  14.703 -0.5675 -0.5756 -0.8021
  515MPD2    H3 7709   3.942   1.274  14.891 -2.2601 -0.5250  0.6725
  515MPD2     N 7710   4.250   0.973  14.861  0.3001  0.3964  0.1329
  515MPD2    H5 7711   4.273   1.022  14.947  1.1214  2.4687 -1.2506
  515MPD2    N1 7712   3.892   0.971  14.552 -0.5061  0.2962  0.6228
  515MPD2    H7 7713   3.934   0.885  14.520 -1.2205 -0.3547  1.4410
  516TMC3    C1 7714   3.718   0.925  14.413 -0.0689 -0.3134 -0.7156
  516TMC3    C2 7715   3.618   0.971  14.331  0.6145  0.1909  1.3563
  516TMC3    C3 7716   3.524   0.885  14.295 -0.5714 -0.2026  0.3510
  516TMC3    C4 7717   3.726   0.792  14.441  0.0278 -0.0966  0.1145
  516TMC3    C5 7718   3.631   0.709  14.403  0.0012 -0.9365 -0.1707
  516TMC3    C6 7719   3.522   0.752  14.334 -0.1117 -0.0909  0.0325
  516TMC3     C 7720   3.779   1.019  14.496 -0.9131  0.2059  0.2342
  516TMC3     O 7721   3.723   1.130  14.504 -0.7935  0.8369 -0.4710
  516TMC3     H 7722   3.604   1.078  14.320 -2.0863 -0.1525  1.5634
  516TMC3    H1 7723   3.791   0.752  14.518 -0.6591 -2.1546 -0.3734
  516TMC3    H2 7724   3.436   0.695  14.301 -0.0643  0.4488 -1.0538
  516TMC3    C7 7725   3.658   0.563  14.400 -0.0108 -1.2764 -0.1668
  516TMC3    C8 7726   3.394   0.930  14.247  0.0001 -0.4376  0.2573
  516TMC3    O1 7727   3.769   0.530  14.445 -0.3691 -0.0136  0.4265
  516TMC3    O2 7728   3.289   0.872  14.283  0.7710  0.1886  0.0473
  517MPD2     C 7729   3.771   1.927   0.164 -1.2784  0.0071  0.7579
  517MPD2    C1 7730   3.777   1.961   0.029 -1.0113  0.3900  0.3683
  517MPD2    C2 7731   3.739   2.091  17.747 -0.1147  0.4892 -0.6002
  517MPD2    C3 7732   3.677   2.178   0.092  0.0306 -0.6081  0.4551
  517MPD2    C4 7733   3.682   2.140   0.223  0.2110 -0.3797 -0.5914
  517MPD2    C5 7734   3.734   2.020   0.258 -0.1647  0.1780  0.6348
  517MPD2     H 7735   3.751   2.129  17.646  1.7896  2.1115  0.2411
  517MPD2    H1 7736   3.651   2.212   0.298  0.4752  1.6372 -2.4173
  517MPD2    H2 7737   3.810   1.831   0.194 -0.5301  0.1484  0.2341
  517MPD2    H3 7738   3.740   1.983   0.359 -0.8534 -0.2276  0.5259
  517MPD2     N 7739   3.607   2.299   0.068  0.6699  0.4595  0.0750
  517MPD2    H5 7740   3.553   2.346   0.141  2.4425  0.4823  1.3606
  517MPD2    N1 7741   3.824   1.875  17.673  0.9939 -0.0765  0.4720
  517MPD2    H7 7742   3.833   1.921  17.583 -2.5841 -0.8468 -0.2998
  518TMC3    C1 7743   3.896   1.685  17.548 -0.7423 -0.2810 -0.3348
  518TMC3    C2 7744   3.854   1.561  17.513  0.2998 -0.0301  0.7522
  518TMC3    C3 7745   3.922   1.500  17.416  0.3658  0.0825  0.6854
  518TMC3    C4 7746   3.985   1.766  17.480 -0.2496 -0.9001  0.5626
  518TMC3    C5 7747   4.055   1.694  17.380 -0.5691  0.3408 -0.3136
  518TMC3    C6 7748   4.031   1.563  17.355  1.2210 -0.1297  0.0350
  518TMC3     C 7749   3.838   1.738  17.672 -0.5882 -0.0446  0.2318
  518TMC3     O 7750   3.813   1.652   0.003  0.0284 -0.0156  0.3733
  518TMC3     H 7751   3.777   1.512  17.571 -1.1298  1.4580  0.1205
  518TMC3    H1 7752   4.031   1.855  17.523  1.2959 -0.7821 -1.3123
  518TMC3    H2 7753   4.066   1.507  17.269  0.2643 -0.6447 -0.0238
  518TMC3    C7 7754   4.191   1.749  17.357 -0.1268 -0.7134  0.4018
  518TMC3    C8 7755   3.884   1.372  17.362 -0.3698 -0.7075 -0.0585
  518TMC3    O1 7756   4.232   1.856  17.397 -0.0825 -0.2930  0.3693
  518TMC3    O2 7757   3.963   1.312  17.294 -0.0592 -0.4229 -0.4553
  519MPD2     C 7758   0.443   0.373  14.258  0.1534  0.2619 -0.8802
  519MPD2    C1 7759   0.433   0.479  14.174  0.2898  0.5349  0.1820
  519MPD2    C2 7760   0.505   0.477  14.063  0.5916 -0.5974  0.5276
  519MPD2    C3 7761   0.593   0.378  14.043 -0.5621  1.0423  0.7624
  519MPD2    C4 7762   0.620   0.279  14.136 -0.5856 -0.1121  0.0362
  519MPD2    C5 7763   0.537   0.279  14.242 -0.2723 -0.3965 -0.0619
  519MPD2     H 7764   0.497   0.563  13.999  1.9943  0.9964  2.4972
  519MPD2    H1 7765   0.680   0.189  14.132 -1.8461 -0.9039 -1.0891
  519MPD2    H2 7766   0.372   0.367  14.340 -0.9646 -1.8092 -1.9918
  519MPD2    H3 7767   0.534   0.190  14.305  0.1056 -0.9972 -0.8924
  519MPD2     N 7768   0.674   0.375  13.929  0.2356  0.3449 -0.1932
  519MPD2    H5 7769   0.729   0.290  13.922  0.9214  0.7619  0.1686
  519MPD2    N1 7770   0.336   0.575  14.203 -0.5038  0.2547 -0.5016
  519MPD2    H7 7771   0.284   0.564  14.289 -0.2988 -0.3021 -0.4441
  520TMC3    C1 7772   0.778   0.434  13.713 -0.4589 -1.0792  0.5436
  520TMC3    C2 7773   0.739   0.466  13.585 -0.5814 -0.1638 -0.2536
  520TMC3    C3 7774   0.803   0.400  13.484  0.1880  0.2844 -0.5505
  520TMC3    C4 7775   0.886   0.353  13.744 -0.4197  1.0602 -0.4879
  520TMC3    C5 7776   0.951   0.298  13.638 -0.2571 -0.3196  0.4580
  520TMC3    C6 7777   0.910   0.313  13.508  0.6071  0.7340 -0.7006
  520TMC3     C 7778   0.675   0.465  13.818  0.2351  0.5398 -0.0487
  520TMC3     O 7779   0.588   0.541  13.780 -0.1283 -0.0952 -0.0290
  520TMC3     H 7780   0.658   0.537  13.567 -1.8356 -1.1541  1.4474
  520TMC3    H1 7781   0.914   0.334  13.847 -2.2196  2.9070  0.3387
  520TMC3    H2 7782   0.941   0.254  13.422 -1.2030 -0.8192 -0.2854
  520TMC3    C7 7783   1.050   0.194  13.672  0.1655 -1.6423 -0.6317
  520TMC3    C8 7784   0.747   0.403  13.354 -0.4961  0.1399  0.2879
  520TMC3    O1 7785   1.068   0.162  13.790  0.2122 -0.4640 -0.2250
  520TMC3    O2 7786   0.819   0.368  13.259 -0.3939  0.0119  0.1029
  521MPD2     C 7787   1.848   3.051  17.548  0.1139 -0.3467 -0.0347
  521MPD2    C1 7788   1.776   3.102  17.435 -0.2417 -0.2427  0.0327
  521MPD2    C2 7789   1.848   3.133  17.322 -0.5992  0.1009 -0.0828
  521MPD2    C3 7790   1.983   3.107  17.310 -0.0272  0.4872  0.8473
  521MPD2    C4 7791   2.052   3.049  17.415 -0.4312 -0.1986  0.0463
  521MPD2    C5 7792   1.982   3.015  17.523 -0.3092  0.0938  0.2675
  521MPD2     H 7793   1.802   3.169  17.230 -0.1333  1.1265  0.0864
  521MPD2    H1 7794   2.158   3.024  17.418 -0.4993 -0.3703  1.1338
  521MPD2    H2 7795   1.789   3.018  17.633 -1.3265 -0.4970 -1.0909
  521MPD2    H3 7796   2.034   2.946  17.589 -0.8812 -1.6740 -1.1225
  521MPD2     N 7797   2.040   3.162  17.194  0.3081 -0.5818  0.9011
  521MPD2    H5 7798   1.982   3.218  17.132  0.4089  0.1561  1.4784
  521MPD2    N1 7799   1.643   3.138  17.458 -0.1107  0.3786  0.8406
  521MPD2    H7 7800   1.613   3.116  17.553  1.9955 -3.2639  0.6941
  522TMC3    C1 7801   2.207   3.164  17.023 -0.2220  0.1629 -0.8917
  522TMC3    C2 7802   2.341   3.156  16.993 -0.1011  0.3552  0.8535
  522TMC3    C3 7803   2.384   3.097  16.878 -0.0656  0.4253  1.0856
  522TMC3    C4 7804   2.115   3.126  16.931 -0.2804  0.6381 -0.4049
  522TMC3    C5 7805   2.163   3.076  16.809  0.2502 -0.4509  0.0378
  522TMC3    C6 7806   2.295   3.051  16.787  0.2368  0.4770 -0.1889
  522TMC3     C 7807   2.173   3.140  17.165  0.5595  0.0044  0.2435
  522TMC3     O 7808   2.262   3.081  17.229 -0.3883  0.1106 -0.3104
  522TMC3     H 7809   2.405   3.186  17.075  3.0405  2.3257 -2.3253
  522TMC3    H1 7810   2.008   3.137  16.941 -0.4901 -1.4247 -0.3381
  522TMC3    H2 7811   2.327   2.996  16.699 -2.0057 -1.1975  0.0627
  522TMC3    C7 7812   2.070   3.001  16.725 -0.1933 -0.0308 -0.8325
  522TMC3    C8 7813   2.522   3.043  16.889 -0.5456 -0.5431  0.1325
  522TMC3    O1 7814   2.104   2.888  16.692 -0.1262 -1.0004 -0.5149
  522TMC3    O2 7815   2.579   3.076  16.991 -0.1816  1.0279  0.1521
  523MPD2     C 7816   3.895   2.596  10.226  0.3522  0.6008 -0.1055
  523MPD2    C1 7817   3.811   2.544  10.127 -0.0632 -0.3706 -0.2570
  523MPD2    C2 7818   3.761   2.635  10.037  0.3456 -0.0199 -0.3338
  523MPD2    C3 7819   3.785   2.776  10.054  0.0515 -0.3954  0.5111
  523MPD2    C4 7820   3.868   2.822  10.158  0.1555 -0.5590  0.0884
  523MPD2    C5 7821   3.923   2.728  10.237 -0.6796 -0.1943  0.0746
  523MPD2     H 7822   3.681   2.600   9.973 -1.9546  2.3621  1.2338
  523MPD2    H1 7823   3.886   2.928  10.168 -0.3610 -0.4572 -0.0710
  523MPD2    H2 7824   3.934   2.529  10.302  0.6717  0.9620  0.0507
  523MPD2    H3 7825   3.980   2.761  10.324 -1.1717 -1.2821  0.8082
  523MPD2     N 7826   3.720   2.868   9.977  0.0698  0.5178 -0.0411
  523MPD2    H5 7827   3.720   2.964  10.009  0.9752  0.5496 -0.1289
  523MPD2    N1 7828   3.790   2.401  10.116  0.1490 -0.2359 -0.3695
  523MPD2    H7 7829   3.837   2.342  10.185 -0.6125 -1.5637 -1.0006
  524TMC3    C1 7830   3.604   2.949   9.788  0.1791 -0.4372  0.3432
  524TMC3    C2 7831   3.526   2.914   9.684 -0.8263  0.2914 -0.2735
  524TMC3    C3 7832   3.441   3.015   9.637 -0.3608  1.3856 -0.1815
  524TMC3    C4 7833   3.612   3.080   9.827 -0.0827  0.4987 -0.0395
  524TMC3    C5 7834   3.544   3.177   9.769 -0.0660  0.1047  0.5763
  524TMC3    C6 7835   3.453   3.144   9.672 -0.4835 -0.7032  0.7825
  524TMC3     C 7836   3.669   2.841   9.855  0.0968  0.9602  1.1693
  524TMC3     O 7837   3.667   2.729   9.801 -0.0732 -0.0000  0.8081
  524TMC3     H 7838   3.509   2.810   9.656 -5.0209  0.7783  0.5291
  524TMC3    H1 7839   3.673   3.104   9.914 -0.3195 -1.3493  0.6347
  524TMC3    H2 7840   3.394   3.217   9.618  2.2504 -0.0865 -1.4182
  524TMC3    C7 7841   3.547   3.313   9.812 -0.2684 -0.1228 -0.4265
  524TMC3    C8 7842   3.314   2.988   9.568  0.4208 -0.5070 -0.1927
  524TMC3    O1 7843   3.578   3.339   9.926  0.2888 -0.1416  0.5900
  524TMC3    O2 7844   3.250   3.084   9.523  0.4811  0.1233  0.1667
  525MPD2     C 7845   1.938   4.735  14.244 -0.0068  0.4593 -0.3520
  525MPD2    C1 7846   2.048   0.004  14.328  0.4072 -0.7562  0.6648
  525MPD2    C2 7847   2.108   0.130  14.357 -0.6757  0.2743 -0.9823
  525MPD2    C3 7848   2.050   0.241  14.299  0.5748 -0.2522  0.0045
  525MPD2    C4 7849   1.940   0.234  14.215 -0.4116  0.4766  0.2524
  525MPD2    C5 7850   1.885   0.113  14.191  0.1178  0.3202  0.9689
  525MPD2     H 7851   2.200   0.133  14.415  0.0385 -0.4755 -2.0749
  525MPD2    H1 7852   1.892   0.324  14.178 -0.4484  1.3947  2.5109
  525MPD2    H2 7853   1.874   4.649  14.228 -0.8795  1.1933 -0.8279
  525MPD2    H3 7854   1.796   0.119  14.130  0.2191 -0.5014  0.7399
  525MPD2     N 7855   2.095   0.372  14.341  0.9143 -0.3621 -0.6131
  525MPD2    H5 7856   2.049   0.454  14.302 -2.3370 -1.5508  0.7131
  525MPD2    N1 7857   2.102   4.624  14.381  0.2717 -0.0454 -0.2134
  525MPD2    H7 7858   2.190   4.635  14.430 -0.5446  2.1245  0.7242
  526TMC3    C1 7859   2.125   4.413  14.473  0.2559 -0.5070  0.7185
  526TMC3    C2 7860   2.081   4.364  14.596  0.5275 -0.8493 -0.0429
  526TMC3    C3 7861   2.178   4.304  14.674 -0.2415  0.0067  0.2186
  526TMC3    C4 7862   2.253   4.432  14.437  0.3139  0.3464  0.0058
  526TMC3    C5 7863   2.343   4.370  14.524 -0.0761 -0.6504 -0.2122
  526TMC3    C6 7864   2.311   4.303  14.638  0.3354 -0.1573 -0.7091
  526TMC3     C 7865   2.037   4.505  14.408  0.2429  0.3382  0.5003
  526TMC3     O 7866   1.919   4.482  14.380  0.0967  0.7050  0.5818
  526TMC3     H 7867   1.978   4.382  14.624  0.7325  0.1132  0.0755
  526TMC3    H1 7868   2.280   4.440  14.333  0.6283  0.5799  0.1075
  526TMC3    H2 7869   2.389   4.258  14.698  0.8965  0.2132 -1.1577
  526TMC3    C7 7870   2.480   4.356  14.477  0.0973 -0.3825 -0.2241
  526TMC3    C8 7871   2.152   4.265  14.808 -0.4139  0.5026  0.0196
  526TMC3    O1 7872   2.551   4.265  14.523 -0.3424 -0.2202  0.2852
  526TMC3    O2 7873   2.244   4.232  14.876  0.1382  0.0689 -0.4435
  527MPD2     C 7874   0.079   2.834   1.322 -0.5022 -0.1046  0.7896
  527MPD2    C1 7875   0.034   2.813   1.192  0.1644  0.3237 -0.5516
  527MPD2    C2 7876   0.125   2.820   1.090 -0.2490 -0.5470  0.0192
  527MPD2    C3 7877   0.263   2.814   1.123  0.4610  0.6380 -0.0207
  527MPD2    C4 7878   0.303   2.842   1.251  0.4351 -0.4421  0.3772
  527MPD2    C5 7879   0.205   2.853   1.345 -0.0697  0.0912 -0.5052
  527MPD2     H 7880   0.087   2.813   0.989 -0.4906 -2.6776  0.2499
  527MPD2    H1 7881   0.406   2.850   1.282  0.2977  1.0159  0.4711
  527MPD2    H2 7882   0.011   2.832   1.407 -0.1067  1.1274  1.1363
  527MPD2    H3 7883   0.228   2.870   1.449  0.5563  2.0944 -0.9744
  527MPD2     N 7884   0.357   2.794   1.018 -0.0989 -0.0603 -0.0050
  527MPD2    H5 7885   0.325   2.777   0.924  1.8325 -0.3347 -0.6248
  527MPD2    N1 7886   4.633   2.797   1.165  0.5812  0.3414 -0.3286
  527MPD2    H7 7887   4.602   2.805   1.069  0.1463 -0.8879 -0.2912
  528TMC3    C1 7888   4.401   2.781   1.205 -0.4642 -0.3063  0.7800
  528TMC3    C2 7889   4.364   2.789   1.070  0.1001  0.0054 -0.5625
  528TMC3    C3 7890   4.224   2.778   1.046 -0.0641  0.7642 -0.2015
  528TMC3    C4 7891   4.304   2.760   1.307  0.4349  0.2552 -0.0700
  528TMC3    C5 7892   4.170   2.751   1.269 -1.2064 -1.3991 -0.5971
  528TMC3    C6 7893   4.132   2.756   1.138 -0.0209 -0.1259  0.0811
  528TMC3     C 7894   4.538   2.788   1.258 -0.7182  0.8227  0.1573
  528TMC3     O 7895   4.537   2.800   1.377  0.3876  0.0668  0.3988
  528TMC3     H 7896   4.434   2.819   0.994  1.7949 -0.2661  0.8835
  528TMC3    H1 7897   4.328   2.735   1.410  1.2250  0.5295 -0.1859
  528TMC3    H2 7898   4.027   2.759   1.108 -0.2736 -1.3332  0.8472
  528TMC3    C7 7899   4.063   2.746   1.366 -0.1050 -0.6733 -0.0757
  528TMC3    C8 7900   4.190   2.809   0.909 -0.3825 -1.0755  0.4070
  528TMC3    O1 7901   3.957   2.703   1.324  0.2796  0.1209 -0.3494
  528TMC3    O2 7902   4.271   2.879   0.848 -0.3902 -0.3671  0.6998
  529MPD2     C 7903   2.538   0.930   0.450 -0.1204  0.1789  0.0279
  529MPD2    C1 7904   2.638   0.848   0.400  0.2559  0.1991 -0.1692
  529MPD2    C2 7905   2.668   0.855   0.268 -0.2310 -0.7438 -0.9481
  529MPD2    C3 7906   2.593   0.933   0.180  0.6921 -0.5740  0.1161
  529MPD2    C4 7907   2.483   1.004   0.227 -0.4711 -0.3939  0.1342
  529MPD2    C5 7908   2.461   1.001   0.362  0.2514 -0.3939  0.4644
  529MPD2     H 7909   2.745   0.788   0.232  0.2698  0.0467 -1.3438
  529MPD2    H1 7910   2.418   1.063   0.163  1.4156  0.7856 -0.6932
  529MPD2    H2 7911   2.514   0.948   0.554 -0.7301 -3.5386  0.5298
  529MPD2    H3 7912   2.373   1.058   0.388  0.0437 -0.0677 -0.9144
  529MPD2     N 7913   2.611   0.930   0.041  0.4960  0.0745  0.2404
  529MPD2    H5 7914   2.563   0.996  17.728  0.8948 -0.6230 -0.8363
  529MPD2    N1 7915   2.724   0.774   0.490 -0.7891  0.0285 -0.1294
  529MPD2    H7 7916   2.779   0.700   0.449 -0.7811 -0.8621  1.5185
  530TMC3    C1 7917   2.799   0.696   0.704  0.1929 -0.4853  0.0259
  530TMC3    C2 7918   2.832   0.727   0.836 -0.0647  0.6188 -0.2635
  530TMC3    C3 7919   2.862   0.624   0.925 -0.7948 -0.0127  0.8912
  530TMC3    C4 7920   2.765   0.563   0.666  0.2472  0.2667  0.4602
  530TMC3    C5 7921   2.781   0.468   0.767 -0.1490  0.1483 -0.1719
  530TMC3    C6 7922   2.832   0.496   0.890  0.4930  0.1000 -0.5412
  530TMC3     C 7923   2.736   0.804   0.626  0.0920 -0.6257  0.4081
  530TMC3     O 7924   2.696   0.904   0.685 -0.1618 -0.4672 -0.1347
  530TMC3     H 7925   2.836   0.833   0.858 -2.6125  0.2262  2.0765
  530TMC3    H1 7926   2.732   0.533   0.567 -0.3373 -0.2788  0.8241
  530TMC3    H2 7927   2.833   0.425   0.973  1.3369  0.0025 -0.6307
  530TMC3    C7 7928   2.710   0.343   0.753  0.4791  0.8079 -0.2591
  530TMC3    C8 7929   2.919   0.657   1.048 -0.1138  1.1892 -0.4696
  530TMC3    O1 7930   2.706   0.294   0.640 -0.0189 -0.3315  0.0683
  530TMC3    O2 7931   2.912   0.773   1.086 -0.7294 -0.1255  0.0060
  531MPD2     C 7932   1.244   3.063  13.179  0.2125 -0.7180  0.0545
  531MPD2    C1 7933   1.159   3.150  13.239 -0.2024 -0.0023  0.5193
  531MPD2    C2 7934   1.059   3.204  13.170  0.5052  0.1701 -0.7835
  531MPD2    C3 7935   1.045   3.182  13.034  0.6341  0.1808 -1.0710
  531MPD2    C4 7936   1.133   3.097  12.973 -0.4070  0.6338 -0.1413
  531MPD2    C5 7937   1.235   3.044  13.045  0.0381 -0.5644  0.4932
  531MPD2     H 7938   0.989   3.271  13.219  2.9327  1.2063  1.2201
  531MPD2    H1 7939   1.130   3.077  12.866 -0.1907  1.5425 -0.3166
  531MPD2    H2 7940   1.329   3.036  13.240  0.6892 -0.6526 -0.5859
  531MPD2    H3 7941   1.303   2.980  12.990  0.7032  1.3192 -0.8514
  531MPD2     N 7942   0.935   3.238  12.973 -0.0816 -0.4014 -0.2077
  531MPD2    H5 7943   0.868   3.286  13.032  1.4596  0.5752  0.7625
  531MPD2    N1 7944   1.176   3.187  13.375  0.1622  0.3764  0.1714
  531MPD2    H7 7945   1.257   3.153  13.424 -0.0381  0.6111  0.6630
  532TMC3    C1 7946   1.152   3.303  13.582 -0.1073  0.9918  0.0475
  532TMC3    C2 7947   1.061   3.389  13.639 -0.5656 -0.5610 -0.8774
  532TMC3    C3 7948   1.095   3.518  13.664  0.0407 -0.0859  0.0747
  532TMC3    C4 7949   1.285   3.336  13.574 -0.6828 -0.0471  0.1380
  532TMC3    C5 7950   1.319   3.457  13.628 -0.0634 -0.0094 -0.4190
  532TMC3    C6 7951   1.226   3.557  13.662  1.0677  0.2387 -0.2876
  532TMC3     C 7952   1.092   3.262  13.455  0.0522  0.4723  0.3944
  532TMC3     O 7953   0.980   3.305  13.433  0.3214  0.3989 -0.4271
  532TMC3     H 7954   0.960   3.354  13.656 -0.0944 -0.7745  1.4919
  532TMC3    H1 7955   1.351   3.261  13.532  0.1210  2.0341 -2.3346
  532TMC3    H2 7956   1.242   3.664  13.669  1.8137  0.3749 -3.9166
  532TMC3    C7 7957   1.458   3.506  13.619  0.0227 -0.6277 -0.1314
  532TMC3    C8 7958   0.992   3.617  13.626 -0.0349 -0.1105 -0.5901
  532TMC3    O1 7959   1.482   3.625  13.596  0.1193  0.1458 -0.3100
  532TMC3    O2 7960   1.001   3.730  13.673 -0.4003 -0.1630  0.0835
  533TMC3    C1 7961   2.237   0.546  14.410  0.1143  0.0909 -1.0521
  533TMC3    C2 7962   2.372   0.576  14.432  0.3244  0.2117 -0.4141
  533TMC3    C3 7963   2.396   0.703  14.474 -0.6551  0.0232  0.6949
  533TMC3    C4 7964   2.142   0.629  14.464  0.3959  0.0134 -0.0870
  533TMC3    C5 7965   2.170   0.750  14.520  0.1483  0.4744  0.4837
  533TMC3    C6 7966   2.304   0.788  14.522  0.4089  0.6843  0.0243
  533TMC3     C 7967   2.205   0.402  14.415 -0.6268  0.4277 -0.1411
  533TMC3     O 7968   2.285   0.326  14.469 -0.4621 -0.0826  0.0754
  533TMC3     H 7969   2.443   0.499  14.406  0.1975  0.0279 -0.2132
  533TMC3    H1 7970   2.039   0.595  14.473  0.7909 -1.4109 -1.0099
  533TMC3    H2 7971   2.329   0.892  14.540  1.6629  0.2974  0.5163
  533TMC3    C7 7972   2.109   0.772  14.652  0.5819  0.6834  0.4249
  533TMC3    C8 7973   2.527   0.760  14.457 -0.2455 -0.2922  0.8295
  533TMC3    O1 7974   2.004   0.719  14.673 -0.2367 -0.0492 -0.1184
  533TMC3    O2 7975   2.559   0.865  14.518 -0.2253  0.0687 -0.4165
  534MPD2     C 7976   0.242   1.216   1.500 -0.2526  0.0481 -0.2030
  534MPD2    C1 7977   0.263   1.254   1.370 -0.7182 -0.0575  0.3319
  534MPD2    C2 7978   0.148   1.279   1.290  0.0625 -0.7292 -0.1136
  534MPD2    C3 7979   0.023   1.280   1.343 -0.2459 -0.3727  0.1413
  534MPD2    C4 7980   0.007   1.248   1.473 -0.2973 -0.1962  0.1619
  534MPD2    C5 7981   0.111   1.214   1.547  0.5682  0.0164 -0.8244
  534MPD2     H 7982   0.166   1.291   1.184  1.4722 -1.1970  0.0779
  534MPD2    H1 7983   4.645   1.250   1.518 -0.9253 -2.1523 -1.1058
  534MPD2    H2 7984   0.322   1.181   1.565 -0.6152 -0.2422  0.0836
  534MPD2    H3 7985   0.082   1.198   1.650  2.0913  0.8816 -0.2536
  534MPD2     N 7986   4.648   1.305   1.264 -0.4351 -0.2913 -0.5407
  534MPD2    H5 7987   4.554   1.311   1.303  0.7808  1.6464  2.0643
  534MPD2    N1 7988   0.386   1.263   1.310 -0.0599 -0.6277 -0.5748
  534MPD2    H7 7989   0.385   1.302   1.216 -2.2340  2.2256  0.6171
  535TMC3    C1 7990   4.510   1.324   1.077  0.2506 -0.4288  0.2036
  535TMC3    C2 7991   4.407   1.263   1.148 -0.2453  0.0932 -0.3392
  535TMC3    C3 7992   4.286   1.265   1.083 -0.3514 -0.7894 -0.4115
  535TMC3    C4 7993   4.486   1.387   0.957  0.2930 -0.1507 -0.2600
  535TMC3    C5 7994   4.357   1.390   0.900 -0.4811  0.8506 -0.0880
  535TMC3    C6 7995   4.256   1.321   0.958 -0.2302  0.0128 -0.1545
  535TMC3     C 7996   4.644   1.332   1.126 -1.1054 -0.3847  0.0459
  535TMC3     O 7997   0.002   1.360   1.049 -0.2653  0.0874 -0.2615
  535TMC3     H 7998   4.424   1.205   1.237 -0.3726 -0.1356 -0.4628
  535TMC3    H1 7999   4.565   1.442   0.907  0.6778 -2.7096 -2.4652
  535TMC3    H2 8000   4.160   1.298   0.913 -0.3985  0.1188  0.1476
  535TMC3    C7 8001   4.344   1.449   0.770 -0.1175  0.5997 -0.0869
  535TMC3    C8 8002   4.172   1.190   1.148  0.3849 -0.3074  1.0386
  535TMC3    O1 8003   4.442   1.451   0.695  0.5265  0.3122 -0.2543
  535TMC3    O2 8004   4.095   1.138   1.069 -0.2492  0.1561  0.1362
  536MPD2     C 8005   3.628   4.305  15.793 -0.1299 -0.8089  0.0055
  536MPD2    C1 8006   3.518   4.222  15.827  0.1986  0.7030 -0.3755
  536MPD2    C2 8007   3.424   4.212  15.733 -0.1376 -0.3585 -0.0173
  536MPD2    C3 8008   3.426   4.289  15.620 -0.0221 -1.2222  0.4086
  536MPD2    C4 8009   3.529   4.380  15.596 -0.4338  0.4390  0.6297
  536MPD2    C5 8010   3.628   4.377  15.679 -0.3738  0.0641 -0.0622
  536MPD2     H 8011   3.334   4.153  15.752 -0.1337 -0.4733 -0.3447
  536MPD2    H1 8012   3.523   4.440  15.506  1.1581 -0.7545 -0.2843
  536MPD2    H2 8013   3.707   4.336  15.861  0.0400 -0.0422 -0.5434
  536MPD2    H3 8014   3.704   4.450  15.657  0.2026 -0.9727 -1.4907
  536MPD2     N 8015   3.330   4.286  15.512  0.0005 -0.6485 -0.0736
  536MPD2    H5 8016   3.360   4.342  15.433 -1.2044  0.0214 -0.0505
  536MPD2    N1 8017   3.517   4.170  15.955 -0.7988  0.0195 -0.6976
  536MPD2    H7 8018   3.610   4.166  15.997 -0.6308 -2.6691 -1.3283
  537TMC3    C1 8019   3.448   4.047  16.146 -0.2679 -0.2986 -0.2770
  537TMC3    C2 8020   3.507   4.134  16.230 -0.0169 -0.0222 -0.4041
  537TMC3    C3 8021   3.521   4.100  16.366  0.1212 -0.4905  1.0087
  537TMC3    C4 8022   3.383   3.934  16.193  0.1080  0.1117  0.0777
  537TMC3    C5 8023   3.405   3.896  16.323 -0.3372  0.0165  0.6815
  537TMC3    C6 8024   3.477   3.979  16.408 -0.1381 -0.6105  0.3441
  537TMC3     C 8025   3.417   4.099  16.013 -0.0126 -0.0103 -0.1075
  537TMC3     O 8026   3.308   4.072  15.965 -0.3572  0.0147 -0.0438
  537TMC3     H 8027   3.548   4.225  16.186 -0.5337  0.7417  0.6873
  537TMC3    H1 8028   3.310   3.885  16.130 -0.2812 -0.5798  1.0743
  537TMC3    H2 8029   3.501   3.954  16.511 -3.0571  3.0066  1.9454
  537TMC3    C7 8030   3.328   3.780  16.373  0.7103 -0.3252  0.8008
  537TMC3    C8 8031   3.603   4.186  16.451 -0.3605  0.1455 -0.3588
  537TMC3    O1 8032   3.266   3.712  16.299  0.4221  0.5025  0.0358
  537TMC3    O2 8033   3.649   4.138  16.556 -0.0652 -0.1006 -0.0943
  538TMC3    C1 8034   4.339   2.463  11.284  0.0388 -0.1183 -0.2387
  538TMC3    C2 8035   4.386   2.361  11.204  0.2063 -0.1104  0.0268
  538TMC3    C3 8036   4.353   2.364  11.071 -0.1357 -0.3972 -0.1651
  538TMC3    C4 8037   4.271   2.566  11.233 -0.2451 -1.1779  0.7120
  538TMC3    C5 8038   4.228   2.561  11.099  0.0433  0.7391 -0.7492
  538TMC3    C6 8039   4.273   2.461  11.012  0.2175  0.1880  0.1395
  538TMC3     C 8040   4.419   2.487  11.396  0.8099  0.1584 -0.2607
  538TMC3     O 8041   4.411   2.399  11.482 -0.0391 -0.1317 -0.0993
  538TMC3     H 8042   4.460   2.301  11.255  1.9641  2.6351  0.7013
  538TMC3    H1 8043   4.237   2.643  11.301  2.3099  0.4788  0.1247
  538TMC3    H2 8044   4.251   2.466  10.906 -0.2516  3.9231  0.4304
  538TMC3    C7 8045   4.153   2.670  11.037  0.2613  0.1138 -0.2220
  538TMC3    C8 8046   4.440   2.275  10.992  0.5281 -0.7257  0.3645
  538TMC3    O1 8047   4.100   2.663  10.928 -0.6253 -0.3495 -0.0727
  538TMC3    O2 8048   4.495   2.174  11.043 -0.4692  0.2940  0.2446
  539MPD2     C 8049   4.167   2.525  11.669  0.4107 -0.3059  0.6935
  539MPD2    C1 8050   4.083   2.470  11.574 -0.0894 -0.2212  0.0439
  539MPD2    C2 8051   4.023   2.549  11.484 -0.5059  0.1564 -0.2934
  539MPD2    C3 8052   4.032   2.688  11.490 -0.2395 -0.5181 -1.1658
  539MPD2    C4 8053   4.096   2.742  11.600 -0.3517  0.9098 -0.0780
  539MPD2    C5 8054   4.167   2.660  11.683 -0.5224 -0.2729  0.1815
  539MPD2     H 8055   3.966   2.507  11.403 -0.8787  1.5530 -0.7635
  539MPD2    H1 8056   4.098   2.848  11.620  0.6105  0.9383 -0.3024
  539MPD2    H2 8057   4.217   2.463  11.743  1.6325  2.0078  1.8033
  539MPD2    H3 8058   4.235   2.711  11.751 -2.0006 -1.1865  2.3569
  539MPD2     N 8059   3.971   2.781  11.398 -0.1033  0.9231 -0.1172
  539MPD2    H5 8060   3.997   2.878  11.411  3.3528 -0.0379  0.0879
  539MPD2    N1 8061   4.060   2.325  11.571  0.6998 -0.0945  0.4666
  539MPD2    H7 8062   4.013   2.291  11.488  0.1216  0.7996  0.4256
  540TMC3    C1 8063   3.818   2.851  11.245 -0.0029  0.6820 -0.2623
  540TMC3    C2 8064   3.746   2.824  11.131  0.2332 -0.4069 -0.0619
  540TMC3    C3 8065   3.641   2.898  11.097  0.0292 -0.5847 -0.5374
  540TMC3    C4 8066   3.781   2.949  11.334  0.0994  0.6676  0.4760
  540TMC3    C5 8067   3.663   3.018  11.303 -0.3115  0.2716  0.1611
  540TMC3    C6 8068   3.596   3.002  11.184 -0.2590 -0.0253 -0.4673
  540TMC3     C 8069   3.873   2.740  11.314 -0.3440 -0.0570  0.6859
  540TMC3     O 8070   3.816   2.631  11.302  0.1919  0.3959  0.0876
  540TMC3     H 8071   3.781   2.739  11.074 -1.2629  0.2156 -1.9288
  540TMC3    H1 8072   3.849   2.978  11.413  2.1348  1.3691 -1.5560
  540TMC3    H2 8073   3.492   3.028  11.171  0.0475  1.0335 -0.7352
  540TMC3    C7 8074   3.572   3.011  11.415  0.0526  0.3259 -0.3860
  540TMC3    C8 8075   3.547   2.852  10.995  0.1943 -0.3902  0.1568
  540TMC3    O1 8076   3.455   2.983  11.387  0.1181 -0.0713 -0.2646
  540TMC3    O2 8077   3.461   2.936  10.970  0.4906  0.0375 -0.8013
  541MPD2     C 8078   2.813   4.086  13.107  0.6560 -0.1041 -0.3040
  541MPD2    C1 8079   2.819   4.006  12.992 -0.8913 -0.0777 -0.2634
  541MPD2    C2 8080   2.832   4.077  12.872  0.7787  0.1560 -0.0911
  541MPD2    C3 8081   2.815   4.212  12.867  0.2162 -0.6830  0.1032
  541MPD2    C4 8082   2.817   4.288  12.981 -0.0985 -0.0539  0.2533
  541MPD2    C5 8083   2.818   4.226  13.098 -0.2208 -0.4087 -0.3272
  541MPD2     H 8084   2.834   4.023  12.778  1.5592  1.8708 -1.0535
  541MPD2    H1 8085   2.808   4.396  12.971 -0.9719 -0.1778 -0.2550
  541MPD2    H2 8086   2.799   4.042  13.205  2.4212 -0.5385 -0.2471
  541MPD2    H3 8087   2.812   4.276  13.194  0.0889 -3.1362  1.1174
  541MPD2     N 8088   2.808   4.279  12.741 -0.7627 -0.1059 -0.4923
  541MPD2    H5 8089   2.801   4.223  12.657  0.1162 -0.8900 -0.0388
  541MPD2    N1 8090   2.794   3.861  13.003 -0.4371 -0.5555 -0.4345
  541MPD2    H7 8091   2.772   3.812  13.089 -1.4635 -0.5256 -0.6869
  542TMC3    C1 8092   2.761   4.424  12.569  0.8625 -0.1837 -0.8176
  542TMC3    C2 8093   2.690   4.328  12.499  0.1468 -0.1386  0.5362
  542TMC3    C3 8094   2.646   4.370  12.376 -0.3117 -0.3216  0.3244
  542TMC3    C4 8095   2.778   4.548  12.519 -0.2706  0.5674 -0.2347
  542TMC3    C5 8096   2.736   4.576  12.399  0.5438  0.4034  0.3333
  542TMC3    C6 8097   2.670   4.492  12.323 -0.3071 -0.3844  0.5088
  542TMC3     C 8098   2.783   4.410  12.716 -0.2674  0.6543 -0.3556
  542TMC3     O 8099   2.804   4.515  12.778  0.5561 -0.8501  0.2470
  542TMC3     H 8100   2.671   4.227  12.533 -2.1501  0.1005 -0.0194
  542TMC3    H1 8101   2.827   4.624  12.578  0.6165  0.9262 -1.4458
  542TMC3    H2 8102   2.623   4.530  12.233  2.6352 -0.5207 -1.0529
  542TMC3    C7 8103   2.754   4.717  12.362 -0.1584 -0.5623 -0.3315
  542TMC3    C8 8104   2.592   4.274  12.282 -0.4837  0.2453 -0.0028
  542TMC3    O1 8105   2.858   0.030  12.399 -0.1540 -0.6478 -0.4515
  542TMC3    O2 8106   2.539   4.330  12.185  0.1872  0.0351  0.6120
  543TMC3    C1 8107   2.258   0.179  17.064 -0.1069 -0.2565  0.5042
  543TMC3    C2 8108   2.225   0.054  17.123  0.0050 -0.4222  0.9583
  543TMC3    C3 8109   2.160   0.067  17.244 -0.1103 -0.6742  0.3091
  543TMC3    C4 8110   2.240   0.311  17.118  0.7568  0.6718 -0.3121
  543TMC3    C5 8111   2.186   0.310  17.246  0.1305 -0.4169  0.4519
  543TMC3    C6 8112   2.144   0.191  17.305  1.0213  0.7292 -0.1235
  543TMC3     C 8113   2.319   0.171  16.937 -0.1266 -0.1327  0.2514
  543TMC3     O 8114   2.385   0.072  16.918  0.4350 -0.2594  0.1774
  543TMC3     H 8115   2.233   4.702  17.062  1.0794  0.5174 -0.2587
  543TMC3    H1 8116   2.279   0.404  17.078 -0.7285  1.1198 -0.7422
  543TMC3    H2 8117   2.083   0.196  17.394  1.0950  2.6270 -0.1886
  543TMC3    C7 8118   2.177   0.435  17.316  0.0840 -0.4719 -0.2478
  543TMC3    C8 8119   2.133   4.683  17.314  0.1193  0.6214 -1.1137
  543TMC3    O1 8120   2.172   0.418  17.435  0.3113 -0.1755  0.0659
  543TMC3    O2 8121   2.141   4.578  17.255 -0.3694 -0.3094  0.1332
  544MPD2     C 8122   2.030   4.418  17.744 -0.7915 -0.2022 -0.4746
  544MPD2    C1 8123   2.007   4.385  17.604 -0.1076 -0.6456 -0.1890
  544MPD2    C2 8124   2.043   4.479  17.511  0.7351 -0.1872 -0.1176
  544MPD2    C3 8125   2.088   4.607  17.546 -0.0127  0.7055  0.3663
  544MPD2    C4 8126   2.107   4.644  17.681 -0.3527 -0.0684 -0.1993
  544MPD2    C5 8127   2.087   4.541   0.027  0.6116 -0.1275  0.1019
  544MPD2     H 8128   2.033   4.461  17.404  0.8347 -0.2300 -0.1196
  544MPD2    H1 8129   2.146   0.004  17.706 -0.1329 -0.0542 -0.5941
  544MPD2    H2 8130   2.013   4.339   0.069  3.1560 -1.2186 -0.6112
  544MPD2    H3 8131   2.105   4.570   0.129  1.7038 -1.5536  0.3253
  544MPD2     N 8132   2.109   4.713  17.450 -0.1489  0.0434 -0.5176
  544MPD2    H5 8133   2.134   0.066  17.486  0.1503 -0.1032 -0.3555
  544MPD2    N1 8134   1.962   4.256  17.571  0.1595  0.8787  0.0504
  544MPD2    H7 8135   1.936   4.196  17.648 -0.9499  0.4529 -0.6580
  545TMC3    C1 8136   1.857   4.085  17.449 -0.4665  0.4728  0.5976
  545TMC3    C2 8137   1.739   4.072  17.385  0.4784  0.3648 -0.3504
  545TMC3    C3 8138   1.648   3.977  17.413  0.6459 -0.4270  0.0640
  545TMC3    C4 8139   1.882   4.001  17.550 -0.6673 -0.0192 -0.5592
  545TMC3    C5 8140   1.785   3.906  17.586  0.0302 -0.5650  0.0868
  545TMC3    C6 8141   1.665   3.895  17.515 -0.5141 -0.0269  0.2571
  545TMC3     C 8142   1.921   4.217  17.449 -0.0723 -0.1679  0.3341
  545TMC3     O 8143   1.915   4.276  17.346 -0.8991 -0.4774 -0.1392
  545TMC3     H 8144   1.724   4.148  17.308  0.6118 -0.2225 -0.9586
  545TMC3    H1 8145   1.977   4.020  17.599 -2.3068  0.3594  2.4854
  545TMC3    H2 8146   1.589   3.824  17.548  0.4985 -0.2563  2.1176
  545TMC3    C7 8147   1.805   3.814  17.694 -0.2180  0.0599 -0.4896
  545TMC3    C8 8148   1.512   3.983  17.362 -0.2114 -0.4449 -0.2383
  545TMC3    O1 8149   1.702   3.782   0.000  0.0314  0.7789 -0.2087
  545TMC3    O2 8150   1.433   3.919  17.425  0.1064  0.1666 -0.2362
  546MPD2     C 8151   3.778   4.598  17.418 -0.1462 -0.2474  0.5881
  546MPD2    C1 8152   3.777   4.621  17.280  0.4431  0.4116 -0.1925
  546MPD2    C2 8153   3.800   0.013  17.241 -0.4440 -0.3632  0.2437
  546MPD2    C3 8154   3.818   0.121  17.332  0.2729 -0.1597 -0.3385
  546MPD2    C4 8155   3.827   0.087  17.469  0.3391 -0.1960 -0.6550
  546MPD2    C5 8156   3.804   4.696  17.508  0.9290  0.5588  0.1268
  546MPD2     H 8157   3.786   0.032  17.135 -0.6777  1.8893  0.6769
  546MPD2    H1 8158   3.851   0.161  17.543 -1.3329  1.1523 -1.4540
  546MPD2    H2 8159   3.753   4.499  17.455 -0.1621 -1.2437 -2.1228
  546MPD2    H3 8160   3.810   4.679  17.615  0.2349 -1.9613 -0.2263
  546MPD2     N 8161   3.839   0.255  17.298 -0.0629 -0.0795  0.3413
  546MPD2    H5 8162   3.846   0.319  17.376 -0.1040  0.1536  0.1550
  546MPD2    N1 8163   3.740   4.519  17.194 -0.3363  0.0917  0.0854
  546MPD2    H7 8164   3.730   4.431  17.244  4.0433  0.8336  2.2474
  547TMC3    C1 8165   3.610   4.435  17.012  0.2934 -0.0982 -0.0144
  547TMC3    C2 8166   3.562   4.446  16.884 -0.1795  0.1547  0.0496
  547TMC3    C3 8167   3.458   4.365  16.849 -0.4373  0.1163  0.0617
  547TMC3    C4 8168   3.564   4.341  17.101  0.2510  0.4000 -0.4874
  547TMC3    C5 8169   3.468   4.250  17.055 -0.0816 -0.0335 -0.7604
  547TMC3    C6 8170   3.415   4.259  16.926  0.3789  0.0786  0.5055
  547TMC3     C 8171   3.697   4.539  17.064  0.4804 -0.0130  0.5148
  547TMC3     O 8172   3.722   4.625  16.980  0.1104  0.3958  1.0587
  547TMC3     H 8173   3.578   4.537  16.827  3.5325 -0.1725  0.5866
  547TMC3    H1 8174   3.602   4.325  17.201  1.0949 -2.7863 -1.2871
  547TMC3    H2 8175   3.334   4.197  16.891  1.2063 -1.3738  1.1930
  547TMC3    C7 8176   3.399   4.176  17.159  0.5253 -0.6857  0.1499
  547TMC3    C8 8177   3.395   4.397  16.727 -0.1720  0.8444 -0.2342
  547TMC3    O1 8178   3.424   4.203  17.276  0.2503  0.4298 -0.2809
  547TMC3    O2 8179   3.381   4.517  16.701  0.0201 -0.3261  0.0847
  548MPD2     C 8180   3.644   0.938  12.345 -0.2558 -0.6179 -0.0943
  548MPD2    C1 8181   3.564   0.825  12.329 -0.6285 -0.0150  0.8157
  548MPD2    C2 8182   3.606   0.719  12.253  0.1002 -0.3182 -0.5015
  548MPD2    C3 8183   3.727   0.728  12.186  1.2682  0.0695 -0.0941
  548MPD2    C4 8184   3.814   0.837  12.210  0.1284  0.1403  0.2620
  548MPD2    C5 8185   3.764   0.947  12.280  0.1941  0.4108 -0.0222
  548MPD2     H 8186   3.558   0.624  12.231  1.0177 -0.6635 -1.0263
  548MPD2    H1 8187   3.911   0.850  12.163  1.4819 -3.5681  2.0079
  548MPD2    H2 8188   3.615   1.020  12.410 -3.5561 -0.0974 -2.2518
  548MPD2    H3 8189   3.828   1.033  12.293  0.8223 -0.4236  2.6092
  548MPD2     N 8190   3.762   0.625  12.090 -0.7413 -0.1107  0.2392
  548MPD2    H5 8191   3.690   0.554  12.080 -0.9943  0.2684 -0.6126
  548MPD2    N1 8192   3.442   0.827  12.385 -0.2700 -0.0581  0.6446
  548MPD2    H7 8193   3.419   0.912  12.435 -1.5389  2.3197 -3.9308
  549TMC3    C1 8194   3.234   0.754  12.442  0.8535 -0.4583  0.3776
  549TMC3    C2 8195   3.185   0.880  12.437 -0.2274  0.4069 -0.9494
  549TMC3    C3 8196   3.055   0.895  12.473  0.3537  0.1829  0.0348
  549TMC3    C4 8197   3.161   0.651  12.488 -0.3105 -0.2517 -1.2620
  549TMC3    C5 8198   3.031   0.672  12.529  0.8040 -0.2151  0.2653
  549TMC3    C6 8199   2.972   0.793  12.520  0.0809  1.0029  0.2592
  549TMC3     C 8200   3.357   0.715  12.382  0.0834  0.0676 -0.4548
  549TMC3     O 8201   3.375   0.600  12.357 -0.2873  0.3900 -1.0821
  549TMC3     H 8202   3.230   0.961  12.382 -0.2589 -0.9397 -2.9720
  549TMC3    H1 8203   3.215   0.558  12.501 -3.2856 -1.9677 -1.2061
  549TMC3    H2 8204   2.874   0.817  12.559 -0.3624 -0.2296 -0.0714
  549TMC3    C7 8205   2.959   0.563  12.599  0.4045 -0.7689 -0.1903
  549TMC3    C8 8206   2.983   1.020  12.457 -0.2920  0.8516 -0.0795
  549TMC3    O1 8207   2.871   0.604  12.675 -0.3382 -0.0276  0.3910
  549TMC3    O2 8208   2.862   1.016  12.468 -0.3291  0.2037 -0.1755
  550TMC3    C1 8209   2.220   3.682  12.288 -0.6609 -0.0200 -0.2232
  550TMC3    C2 8210   2.235   3.697  12.423 -0.1567  0.0210  0.0859
  550TMC3    C3 8211   2.234   3.817  12.485 -0.4415  0.2163  0.3022
  550TMC3    C4 8212   2.208   3.794  12.212 -0.0812 -0.1927  0.1195
  550TMC3    C5 8213   2.213   3.916  12.271  0.4289  0.4204  0.2282
  550TMC3    C6 8214   2.233   3.929  12.408  0.4154  0.3850 -0.1738
  550TMC3     C 8215   2.281   3.567  12.235 -0.0271 -0.2634 -0.0122
  550TMC3     O 8216   2.340   3.499  12.319 -0.7703 -0.1881 -0.4262
  550TMC3     H 8217   2.270   3.612  12.481 -0.7115 -0.3676 -0.1430
  550TMC3    H1 8218   2.209   3.777  12.105  1.4619  0.3480  0.0448
  550TMC3    H2 8219   2.223   4.027  12.452 -1.8039 -1.2568  2.9323
  550TMC3    C7 8220   2.159   4.022  12.192  0.0814  0.1433 -0.0904
  550TMC3    C8 8221   2.155   3.828  12.606  0.3797  0.5822  0.5974
  550TMC3    O1 8222   2.184   4.140  12.210  0.1205 -0.2761 -0.1752
  550TMC3    O2 8223   2.117   3.938  12.637  0.3808 -0.4505 -0.9960
  551TMC3    C1 8224   0.078   1.770  13.300  0.8630  0.2078  0.1442
  551TMC3    C2 8225   0.187   1.830  13.239  0.5715 -0.1979  0.3261
  551TMC3    C3 8226   0.290   1.858  13.324  0.8197  1.0309  0.3821
  551TMC3    C4 8227   0.065   1.747  13.437 -0.3611  0.2420 -0.4601
  551TMC3    C5 8228   0.175   1.781  13.514 -0.5632  0.4249  0.6792
  551TMC3    C6 8229   0.285   1.835  13.460 -0.4092 -0.5542 -0.2144
  551TMC3     C 8230   4.697   1.751  13.219  0.3633 -0.7587 -0.8889
  551TMC3     O 8231   4.707   1.734  13.102 -0.3121 -0.4300 -0.3381
  551TMC3     H 8232   0.179   1.857  13.134 -2.3757 -0.8715  0.3648
  551TMC3    H1 8233   4.717   1.707  13.490 -1.2218  1.6016 -0.8252
  551TMC3    H2 8234   0.368   1.855  13.527 -1.5889 -0.6126  1.2349
  551TMC3    C7 8235   0.149   1.804  13.656  0.3366 -0.8367  0.2504
  551TMC3    C8 8236   0.405   1.932  13.280 -0.4496 -0.1028 -0.3717
  551TMC3    O1 8237   0.120   1.706  13.730 -0.1834  0.2247 -0.1891
  551TMC3    O2 8238   0.504   1.931  13.348  0.4526  0.3698  0.1058
  552MPD2     C 8239   1.560   3.475  14.283 -0.1238  0.3629  0.3073
  552MPD2    C1 8240   1.589   3.345  14.320 -0.1276 -0.1413  0.5078
  552MPD2    C2 8241   1.685   3.329  14.414  0.2797 -0.6955  0.6214
  552MPD2    C3 8242   1.752   3.434  14.483 -0.0576 -0.4262  0.6033
  552MPD2    C4 8243   1.723   3.561  14.446  0.0813  0.7640 -1.1597
  552MPD2    C5 8244   1.620   3.573  14.345  0.1386 -0.0386  0.0104
  552MPD2     H 8245   1.712   3.227  14.441  0.2520 -1.2791 -1.5691
  552MPD2    H1 8246   1.767   3.649  14.492  0.1882  0.4167 -0.6026
  552MPD2    H2 8247   1.478   3.496  14.215  0.7185  0.6702 -0.6054
  552MPD2    H3 8248   1.578   3.672  14.331 -1.1581 -0.4191  1.2973
  552MPD2     N 8249   1.865   3.418  14.573  0.6543 -0.1382 -0.3457
  552MPD2    H5 8250   1.911   3.501  14.608  1.0583 -1.0429  1.2502
  552MPD2    N1 8251   1.522   3.228  14.270  0.1024  0.2086  0.3511
  552MPD2    H7 8252   1.562   3.139  14.299 -1.5166 -1.0530 -1.3511
  553TMC3    C1 8253   1.410   3.101  14.099  0.1043 -0.3549 -0.3380
  553TMC3    C2 8254   1.358   3.102  13.972 -0.4846  0.0947 -0.2194
  553TMC3    C3 8255   1.397   3.004  13.886  0.5248 -0.3503  0.3380
  553TMC3    C4 8256   1.500   3.009  14.138  0.5255  0.0634 -0.0691
  553TMC3    C5 8257   1.557   2.938  14.037  0.3065 -0.1493 -0.3018
  553TMC3    C6 8258   1.503   2.918  13.915  0.4678  0.2594 -0.0793
  553TMC3     C 8259   1.440   3.232  14.154  0.0744 -0.5495 -0.3875
  553TMC3     O 8260   1.396   3.331  14.099 -0.4447 -0.0115 -0.1303
  553TMC3     H 8261   1.305   3.185  13.926  1.4433  0.8718 -1.0279
  553TMC3    H1 8262   1.556   3.003  14.231  1.8692  3.2321 -0.6717
  553TMC3    H2 8263   1.544   2.849  13.842 -2.1412  0.9365 -2.1575
  553TMC3    C7 8264   1.701   2.920  14.049 -0.5481 -0.2244  0.1584
  553TMC3    C8 8265   1.364   3.014  13.744  1.0998 -0.0522  1.0148
  553TMC3    O1 8266   1.758   3.001  14.119 -0.0489 -0.2944  0.0063
  553TMC3    O2 8267   1.426   3.095  13.683  0.4645  0.1550 -0.0309
  554TMC3    C1 8268   3.014   2.669  11.488 -0.4041 -0.8144  0.0991
  554TMC3    C2 8269   2.958   2.655  11.360  0.4941  0.9672 -0.1742
  554TMC3    C3 8270   2.918   2.768  11.297 -0.1985  0.9167 -0.2193
  554TMC3    C4 8271   3.020   2.793  11.546  0.1519 -0.5466  0.7697
  554TMC3    C5 8272   2.995   2.906  11.475  0.9303  0.1615 -0.1961
  554TMC3    C6 8273   2.940   2.895  11.346  0.1443 -0.0829  0.9987
  554TMC3     C 8274   3.018   2.555  11.572  0.5664  0.1068 -0.4108
  554TMC3     O 8275   2.937   2.461  11.562  0.0333 -0.1756  0.3802
  554TMC3     H 8276   2.956   2.554  11.321 -2.9016  1.0192 -0.1339
  554TMC3    H1 8277   3.046   2.813  11.650 -1.1364 -2.8803  1.5514
  554TMC3    H2 8278   2.889   2.982  11.305  2.1921  1.6712  2.1594
  554TMC3    C7 8279   3.079   3.024  11.496  0.2352  0.1912  0.6289
  554TMC3    C8 8280   2.864   2.746  11.163 -0.0331  0.3832 -0.1406
  554TMC3    O1 8281   3.119   3.051  11.609  0.0526  0.4749  0.2196
  554TMC3    O2 8282   2.842   2.852  11.103 -0.6320  0.2036  0.0376
  555TMC3    C1 8283   2.357   2.057  15.521 -0.1162  0.3297  0.5178
  555TMC3    C2 8284   2.349   2.091  15.652  0.0660 -0.2106 -0.6254
  555TMC3    C3 8285   2.406   2.026  15.750  0.4703 -0.3233  0.7993
  555TMC3    C4 8286   2.434   1.952  15.491 -0.1621  0.1440 -0.4916
  555TMC3    C5 8287   2.487   1.876  15.592 -0.5870  0.0915  0.2452
  555TMC3    C6 8288   2.468   1.906  15.727  1.2068 -0.2216  0.3213
  555TMC3     C 8289   2.335   2.164  15.430  0.0194  1.0801 -0.8030
  555TMC3     O 8290   2.322   2.273  15.480 -0.0304  0.1619 -0.0147
  555TMC3     H 8291   2.302   2.185  15.677  0.4451 -0.2661  0.2912
  555TMC3    H1 8292   2.448   1.919  15.388  0.6240 -0.4691 -0.1889
  555TMC3    H2 8293   2.509   1.848  15.809  0.4244 -0.9553  0.1863
  555TMC3    C7 8294   2.526   1.740  15.564  0.1530 -0.3777 -0.8733
  555TMC3    C8 8295   2.463   2.121  15.844  1.1963 -0.0450  0.1315
  555TMC3    O1 8296   2.489   1.643  15.632 -0.7437  0.0967 -0.2803
  555TMC3    O2 8297   2.420   2.235  15.852  0.4995  0.0858 -0.1923
  556MPD2     C 8298   0.366   3.215  10.364  0.2961 -0.1484 -0.3863
  556MPD2    C1 8299   0.341   3.129  10.471 -0.0287 -0.2343 -0.1108
  556MPD2    C2 8300   0.281   3.004  10.442 -0.1296  0.7611 -0.5729
  556MPD2    C3 8301   0.238   2.970  10.316  0.3445 -0.1341 -0.0873
  556MPD2    C4 8302   0.264   3.063  10.220  0.6923  0.1007 -0.3384
  556MPD2    C5 8303   0.320   3.185  10.239  0.0011  0.0031 -0.0950
  556MPD2     H 8304   0.268   2.935  10.524  1.0851  1.1877 -0.0146
  556MPD2    H1 8305   0.255   3.028  10.118  0.9616 -0.3014 -0.2197
  556MPD2    H2 8306   0.433   3.299  10.376 -3.4060  2.8310 -0.4803
  556MPD2    H3 8307   0.326   3.251  10.154 -0.3992  1.9124  1.3674
  556MPD2     N 8308   0.186   2.842  10.295 -0.3315  0.0939  0.0452
  556MPD2    H5 8309   0.177   2.787  10.380 -2.1359  2.2525  1.2761
  556MPD2    N1 8310   0.388   3.156  10.600  0.0565  0.0354  0.0591
  556MPD2    H7 8311   0.389   3.081  10.668  0.1326 -0.4186 -0.4465
  557TMC3    C1 8312   0.119   2.646  10.191  0.2121 -0.8067 -0.1590
  557TMC3    C2 8313   0.125   2.570  10.079 -0.3171 -0.3707  0.3360
  557TMC3    C3 8314   0.092   2.439  10.087 -0.4426  0.1297 -0.6212
  557TMC3    C4 8315   0.083   2.603  10.313 -0.6471  0.2489 -0.1439
  557TMC3    C5 8316   0.052   2.467  10.317 -0.2584  0.0067 -0.4302
  557TMC3    C6 8317   0.048   2.385  10.209 -0.4934 -0.0341 -0.4256
  557TMC3     C 8318   0.155   2.782  10.177 -0.5935 -0.1428 -1.1442
  557TMC3     O 8319   0.147   2.832  10.067  0.0982  0.0235  0.0633
  557TMC3     H 8320   0.170   2.619   9.994 -1.4830  1.3944  0.7513
  557TMC3    H1 8321   0.041   2.660  10.395 -0.7588  1.3653 -0.9697
  557TMC3    H2 8322   0.041   2.277  10.218 -0.5376  0.0415  0.4088
  557TMC3    C7 8323   0.008   2.412  10.452 -0.0320  0.1808  0.1907
  557TMC3    C8 8324   0.104   2.353   9.967 -0.3433 -0.1796  0.1612
  557TMC3    O1 8325   0.007   2.496  10.546 -0.0928 -0.1851 -0.2490
  557TMC3    O2 8326   0.116   2.422   9.866  0.2710 -0.0706 -0.4236
  558TMC3    C1 8327   2.371   1.373   9.865  0.4522  0.7669 -0.2482
  558TMC3    C2 8328   2.297   1.321   9.966 -0.5691  0.0119  0.4350
  558TMC3    C3 8329   2.160   1.338   9.968  0.2325 -0.6519  0.4640
  558TMC3    C4 8330   2.315   1.458   9.775  0.4502  0.6410 -0.2758
  558TMC3    C5 8331   2.178   1.476   9.780 -1.2975 -0.3040 -0.5430
  558TMC3    C6 8332   2.101   1.419   9.876 -0.6939  0.1082  0.0159
  558TMC3     C 8333   2.512   1.368   9.867  0.0570  0.0275  1.0489
  558TMC3     O 8334   2.560   1.362   9.976  0.1936  0.2669  0.2840
  558TMC3     H 8335   2.352   1.265  10.041 -1.4952  0.5080  1.4907
  558TMC3    H1 8336   2.381   1.512   9.709 -0.7092  0.8087 -1.2934
  558TMC3    H2 8337   1.995   1.440   9.880 -0.3942  1.7111 -0.4306
  558TMC3    C7 8338   2.131   1.585   9.694 -0.4055  0.0215  1.2262
  558TMC3    C8 8339   2.082   1.314  10.084 -0.9586 -0.1270 -0.6042
  558TMC3    O1 8340   2.218   1.631   9.624 -0.6274 -0.2298  0.3971
  558TMC3    O2 8341   1.977   1.374  10.102  0.4447  0.2634  0.2423
  559MPD2     C 8342   2.532   2.375  10.474 -0.2850  0.7682  0.1932
  559MPD2    C1 8343   2.485   2.247  10.488 -0.1757 -0.1245  0.4735
  559MPD2    C2 8344   2.553   2.162  10.581  0.1273  0.0640  0.2202
  559MPD2    C3 8345   2.664   2.203  10.656  0.0089 -0.3545  0.8383
  559MPD2    C4 8346   2.707   2.329  10.628 -0.7753 -0.2645 -0.0792
  559MPD2    C5 8347   2.639   2.417  10.545 -0.3005  0.1220  0.2767
  559MPD2     H 8348   2.509   2.064  10.597  0.4071 -0.2482 -0.8917
  559MPD2    H1 8349   2.797   2.370  10.674 -1.3339 -0.8803  1.5619
  559MPD2    H2 8350   2.478   2.429  10.398  0.8552 -1.2917 -2.1026
  559MPD2    H3 8351   2.678   2.516  10.524 -1.1763  0.1688 -1.1568
  559MPD2     N 8352   2.743   2.108  10.736 -0.2464 -0.3257  0.1390
  559MPD2    H5 8353   2.696   2.021  10.758 -0.8414 -0.0642 -0.0756
  559MPD2    N1 8354   2.363   2.218  10.419  0.2404 -0.1392  0.2498
  559MPD2    H7 8355   2.333   2.296  10.362  1.2398  1.1086  1.4396
  560TMC3    C1 8356   2.936   2.017  10.851  0.0858  0.4288  0.0791
  560TMC3    C2 8357   2.883   1.894  10.827  0.5819  0.0422  0.4808
  560TMC3    C3 8358   2.967   1.794  10.848  0.0583 -0.1199 -0.1800
  560TMC3    C4 8359   3.058   2.035  10.920 -0.8075 -0.3659 -0.7520
  560TMC3    C5 8360   3.128   1.929  10.968 -0.7543  0.0052  0.5480
  560TMC3    C6 8361   3.081   1.803  10.925  0.8369  0.4934 -0.4303
  560TMC3     C 8362   2.873   2.130  10.786  0.3743  0.0382 -1.0441
  560TMC3     O 8363   2.946   2.227  10.768  0.5598  0.3470 -0.5140
  560TMC3     H 8364   2.815   1.874  10.745  0.5781 -1.2422  0.8013
  560TMC3    H1 8365   3.080   2.136  10.951  0.5999 -0.6070 -0.9634
  560TMC3    H2 8366   3.130   1.709  10.951 -2.0603 -0.8816  0.1393
  560TMC3    C7 8367   3.202   1.930  11.088 -0.3159 -0.1487  0.0828
  560TMC3    C8 8368   2.940   1.660  10.802  0.0085 -0.5830 -0.1342
  560TMC3    O1 8369   3.198   1.830  11.158 -0.0642 -0.5768  0.0840
  560TMC3    O2 8370   2.833   1.610  10.833  0.0358 -0.0218 -0.2569
  561TMC3    C1 8371   0.777   1.081  11.366  0.1204  0.3464  0.2546
  561TMC3    C2 8372   0.690   1.021  11.456  0.4280 -0.0499 -0.2442
  561TMC3    C3 8373   0.628   1.097  11.550  0.1459 -0.5546  0.8366
  561TMC3    C4 8374   0.800   1.217  11.368  0.4322 -0.2842 -0.1663
  561TMC3    C5 8375   0.735   1.290  11.466 -0.9573  0.4370  0.1371
  561TMC3    C6 8376   0.654   1.231  11.562  0.7050  0.2830 -0.1562
  561TMC3     C 8377   0.846   0.987  11.275 -0.2029  0.4845 -0.2583
  561TMC3     O 8378   0.828   0.868  11.292  0.5805 -0.6123 -0.1048
  561TMC3     H 8379   0.661   0.917  11.446 -0.3975 -0.0213  1.8699
  561TMC3    H1 8380   0.871   1.263  11.300 -0.3944  1.0714 -0.1086
  561TMC3    H2 8381   0.618   1.296  11.642  2.7912 -0.1981  1.1554
  561TMC3    C7 8382   0.743   1.435  11.461 -0.8151  0.4877 -0.4945
  561TMC3    C8 8383   0.555   1.026  11.654  0.5230  0.8528  0.4143
  561TMC3    O1 8384   0.681   1.494  11.545  0.6477 -0.5127 -0.2494
  561TMC3    O2 8385   0.579   0.907  11.669  0.0195 -0.7765 -0.3606
  562TMC3    C1 8386   2.683   2.367  16.608 -0.1880 -0.1550 -0.1900
  562TMC3    C2 8387   2.612   2.484  16.590 -0.7745  0.8270 -0.7137
  562TMC3    C3 8388   2.510   2.503  16.497  0.4529 -0.1897  0.4240
  562TMC3    C4 8389   2.632   2.259  16.545  0.7464  0.1806  0.2256
  562TMC3    C5 8390   2.522   2.268  16.458 -0.4059 -0.0111  0.1594
  562TMC3    C6 8391   2.464   2.390  16.426  0.6644 -0.7911 -0.5270
  562TMC3     C 8392   2.805   2.365  16.684 -0.4125 -0.8313 -1.0976
  562TMC3     O 8393   2.886   2.290  16.637  0.4515 -0.1617  0.3881
  562TMC3     H 8394   2.634   2.571  16.651 -0.3992  0.5817 -0.4999
  562TMC3    H1 8395   2.676   2.165  16.576  0.7199  0.3580  0.7944
  562TMC3    H2 8396   2.374   2.395  16.366 -0.0754 -1.1449  0.5522
  562TMC3    C7 8397   2.503   2.172  16.350  0.1467  0.0645 -0.5048
  562TMC3    C8 8398   2.437   2.630  16.499  0.1291 -0.2174  0.3570
  562TMC3    O1 8399   2.402   2.185  16.280  0.0720 -0.4219 -0.1297
  562TMC3    O2 8400   2.453   2.707  16.591 -0.2899 -0.6526  0.3153
  563MPD2     C 8401   0.066   3.684  15.520 -0.1951  0.2299 -0.3054
  563MPD2    C1 8402   0.129   3.687  15.642 -0.3093 -0.0214 -0.3887
  563MPD2    C2 8403   0.229   3.596  15.660 -0.1874 -0.3820  0.0342
  563MPD2    C3 8404   0.270   3.512  15.556  0.1770 -0.0024  0.2495
  563MPD2    C4 8405   0.216   3.528  15.429  0.0958  0.8152  0.1591
  563MPD2    C5 8406   0.107   3.612  15.409 -0.0916 -0.2581  0.4863
  563MPD2     H 8407   0.269   3.563  15.755 -1.4968 -2.3776 -0.0956
  563MPD2    H1 8408   0.227   3.456  15.349  1.8605 -0.5565  1.6524
  563MPD2    H2 8409   4.728   3.760  15.500  0.0606  0.2582 -1.1807
  563MPD2    H3 8410   0.063   3.628  15.312  1.1607 -1.0441 -0.2009
  563MPD2     N 8411   0.363   3.411  15.593 -0.2912 -0.3803 -0.5902
  563MPD2    H5 8412   0.389   3.401  15.691 -0.3352  2.3973 -0.3009
  563MPD2    N1 8413   0.080   3.769  15.747  0.4840  0.0732  0.0842
  563MPD2    H7 8414   4.726   3.813  15.734  0.6836 -0.1817 -2.1649
  564TMC3    C1 8415   0.036   3.796  15.982  0.4579  0.4542  0.6333
  564TMC3    C2 8416   4.641   3.761  15.967 -0.1732  0.3100  0.6768
  564TMC3    C3 8417   4.570   3.696  16.070 -0.4937 -0.1672  0.4044
  564TMC3    C4 8418   0.089   3.759  16.105  0.2261 -0.3772  0.1204
  564TMC3    C5 8419   0.019   3.698  16.204  0.1061 -0.1893 -0.5832
  564TMC3    C6 8420   4.624   3.686  16.195  0.5637  0.2068 -0.1641
  564TMC3     C 8421   0.129   3.765  15.869  0.2989 -0.0806  0.1216
  564TMC3     O 8422   0.239   3.729  15.911 -0.1652 -0.3517 -0.4011
  564TMC3     H 8423   4.608   3.762  15.864  1.7059  0.6710  0.0826
  564TMC3    H1 8424   0.194   3.782  16.117 -0.1276  1.6413 -0.5599
  564TMC3    H2 8425   4.562   3.630  16.263  0.5862  1.6370  1.0314
  564TMC3    C7 8426   0.088   3.577  16.229 -0.4685 -0.2767  0.3990
  564TMC3    C8 8427   4.535   3.556  16.031 -0.0088 -0.0725 -0.2790
  564TMC3    O1 8428   0.071   3.521  16.337 -0.3952  0.6393 -0.0750
  564TMC3    O2 8429   4.518   3.477  16.124 -0.1476  0.3699  0.0811
  565TMC3    C1 8430   0.120   4.263   9.796  1.0978 -0.1914 -0.2086
  565TMC3    C2 8431   0.139   4.154   9.880  0.6045  0.0912  0.1137
  565TMC3    C3 8432   0.103   4.031   9.835  0.1764 -0.0818 -0.5889
  565TMC3    C4 8433   0.063   4.250   9.672  0.5248 -0.4353 -0.0197
  565TMC3    C5 8434   0.032   4.119   9.631  0.3385  1.0330  0.2374
  565TMC3    C6 8435   0.055   4.009   9.713  0.5842 -0.0102  0.3703
  565TMC3     C 8436   0.140   4.399   9.846  0.4739 -0.5443 -0.0710
  565TMC3     O 8437   0.117   4.489   9.766 -0.0336  0.3121  0.4708
  565TMC3     H 8438   0.182   4.152   9.980  0.5678  0.0027  0.1282
  565TMC3    H1 8439   0.051   4.335   9.607  1.7023  0.0317  0.3822
  565TMC3    H2 8440   0.018   3.913   9.679 -1.8436  1.4975 -1.2633
  565TMC3    C7 8441   0.015   4.109   9.487  0.4722 -0.1026 -0.8177
  565TMC3    C8 8442   0.121   3.913   9.922  1.0631  0.8920  0.4703
  565TMC3    O1 8443   0.006   4.208   9.418  0.4708  0.4208 -0.0266
  565TMC3    O2 8444   0.133   3.929  10.043  0.2617  0.6872  0.5437
  566MPD2     C 8445   1.825   1.849  14.332 -0.6622  0.1964  0.2603
  566MPD2    C1 8446   1.857   1.946  14.235 -0.2596 -0.0891  0.1833
  566MPD2    C2 8447   1.766   1.971  14.130 -0.8808  0.2399  0.1449
  566MPD2    C3 8448   1.651   1.897  14.117  0.2758 -0.4501 -0.8801
  566MPD2    C4 8449   1.625   1.792  14.209 -0.7185  0.2041 -0.1294
  566MPD2    C5 8450   1.713   1.772  14.311  0.1983  0.5374 -0.7211
  566MPD2     H 8451   1.801   2.018  14.039  0.0908  0.6531  0.7313
  566MPD2    H1 8452   1.537   1.729  14.201 -0.2265 -0.5838  0.6279
  566MPD2    H2 8453   1.893   1.817  14.410  2.6901  1.4303 -2.1337
  566MPD2    H3 8454   1.689   1.689  14.377  1.8340  0.1047 -0.6522
  566MPD2     N 8455   1.573   1.899  14.004  0.5674  0.4330  0.0907
  566MPD2    H5 8456   1.507   1.821  14.003  1.6566 -0.4726 -0.8488
  566MPD2    N1 8457   1.986   2.008  14.226  0.1141  0.1505  0.1420
  566MPD2    H7 8458   2.049   1.955  14.286  0.5992  2.2450  1.4921
  567TMC3    C1 8459   2.167   2.117  14.119  0.3245 -0.2645 -0.3911
  567TMC3    C2 8460   2.199   2.112  13.988 -0.0725 -0.4893  0.1219
  567TMC3    C3 8461   2.324   2.061  13.942 -0.3364  0.9445 -0.0779
  567TMC3    C4 8462   2.250   2.064  14.210  0.2799 -0.3167 -0.1018
  567TMC3    C5 8463   2.372   2.018  14.169 -0.0200  0.1429  0.2940
  567TMC3    C6 8464   2.413   2.023  14.039  0.1570 -0.4762  0.1690
  567TMC3     C 8465   2.021   2.107  14.137  0.0711  0.2121  0.2765
  567TMC3     O 8466   1.961   2.183  14.060  0.2809  0.2207  0.3009
  567TMC3     H 8467   2.126   2.161  13.925 -1.3492 -0.6075  1.5307
  567TMC3    H1 8468   2.228   2.077  14.316  1.4601 -0.4201  0.1552
  567TMC3    H2 8469   2.513   1.985  14.021 -0.6233 -1.7614 -1.4954
  567TMC3    C7 8470   2.474   1.987  14.263  0.4852 -0.3266  0.0273
  567TMC3    C8 8471   2.338   2.044  13.796  0.9365 -0.0109  0.7503
  567TMC3    O1 8472   2.591   2.009  14.232  0.3277  0.1978 -0.4356
  567TMC3    O2 8473   2.249   2.076  13.722  0.4562  0.0212 -0.3406
  568MPD2     C 8474   4.340   2.008  16.013 -0.3297 -0.4970  0.3884
  568MPD2    C1 8475   4.361   2.065  16.137  0.6466  0.2929 -0.1987
  568MPD2    C2 8476   4.416   2.191  16.134 -0.6303 -0.6077  0.0486
  568MPD2    C3 8477   4.451   2.264  16.021  0.4165  0.3393 -0.2278
  568MPD2    C4 8478   4.418   2.207  15.898 -0.0243 -0.2404  0.8672
  568MPD2    C5 8479   4.354   2.084  15.897  0.4952  0.9449  0.2829
  568MPD2     H 8480   4.442   2.239  16.228 -1.9779 -0.9359  0.5879
  568MPD2    H1 8481   4.441   2.254  15.803  2.6166 -0.7189  1.2535
  568MPD2    H2 8482   4.310   1.905  15.998  1.5186 -0.8497 -0.9920
  568MPD2    H3 8483   4.343   2.029  15.804  2.8933  0.2270  0.4287
  568MPD2     N 8484   4.494   2.395  16.039 -0.1651  0.2508  0.4424
  568MPD2    H5 8485   4.504   2.429  16.134  2.8829 -1.1062  0.5924
  568MPD2    N1 8486   4.321   1.989  16.255  0.6054 -0.3682 -0.4291
  568MPD2    H7 8487   4.290   1.898  16.221  0.2313 -0.8071  1.0788
  569TMC3    C1 8488   4.546   2.621  16.012  0.6205  0.1853 -0.0693
  569TMC3    C2 8489   4.507   2.639  16.138  0.6105 -0.8949 -0.6498
  569TMC3    C3 8490   4.529   2.767  16.186 -0.4511  0.3570 -0.8159
  569TMC3    C4 8491   4.615   2.714  15.937 -0.4973  0.0521 -0.8151
  569TMC3    C5 8492   4.634   2.837  15.989  0.3200 -0.2649  0.0560
  569TMC3    C6 8493   4.576   2.874  16.111 -0.1878  0.2032 -0.1893
  569TMC3     C 8494   4.523   2.491  15.948 -0.4218 -0.3829 -0.2984
  569TMC3     O 8495   4.549   2.477  15.830  0.1069 -0.3447  0.1433
  569TMC3     H 8496   4.453   2.572  16.203  1.5843 -2.0200 -1.0152
  569TMC3    H1 8497   4.641   2.699  15.833  0.7446 -0.1561 -0.4745
  569TMC3    H2 8498   4.603   2.970  16.152  0.0490 -0.1893  0.5614
  569TMC3    C7 8499   4.672   2.936  15.888  0.7175 -0.2385 -0.1664
  569TMC3    C8 8500   4.511   2.798  16.322  0.6607 -0.3037  0.2313
  569TMC3    O1 8501   4.728   2.895  15.787  0.1804  0.0868  0.3082
  569TMC3    O2 8502   4.430   2.728  16.381 -0.9985 -0.4829  0.8847
  570TMC3    C1 8503   3.716   0.758  15.981  0.0079  0.0177 -0.0714
  570TMC3    C2 8504   3.788   0.805  15.875  0.1430  0.7247 -0.1443
  570TMC3    C3 8505   3.826   0.936  15.887  0.1287 -0.2275 -0.1571
  570TMC3    C4 8506   3.663   0.830  16.088 -0.0961  0.4348 -0.1538
  570TMC3    C5 8507   3.705   0.960  16.094  0.6794 -0.3193  0.2856
  570TMC3    C6 8508   3.787   1.015  15.999 -0.1295 -0.5863 -0.6509
  570TMC3     C 8509   3.650   0.625  15.968  0.7962 -0.1066  0.8881
  570TMC3     O 8510   3.620   0.580  15.859 -0.2560 -0.1723  0.0710
  570TMC3     H 8511   3.817   0.742  15.792 -3.0882  0.9282 -1.4208
  570TMC3    H1 8512   3.589   0.781  16.150 -0.3313 -0.4426 -1.1241
  570TMC3    H2 8513   3.830   1.113  16.015  1.4795 -1.4750  0.5254
  570TMC3    C7 8514   3.682   1.036  16.216 -0.2335 -0.1278  0.1845
  570TMC3    C8 8515   3.919   0.997  15.789  0.3799 -0.2128 -0.2914
  570TMC3    O1 8516   3.737   1.146  16.227 -0.6474 -0.2573 -0.5580
  570TMC3    O2 8517   3.965   1.109  15.816  0.3523  0.1561 -0.4866
  571MPD2     C 8518   1.133   2.967   0.909 -0.0077  0.8039  0.2652
  571MPD2    C1 8519   1.110   3.095   0.862  0.9221 -0.0867 -0.0951
  571MPD2    C2 8520   1.213   3.174   0.817  0.1538  0.0397  0.0187
  571MPD2    C3 8521   1.345   3.133   0.843 -0.0717 -0.5038 -0.5667
  571MPD2    C4 8522   1.375   3.012   0.894 -0.1880  0.6461  0.5560
  571MPD2    C5 8523   1.265   2.929   0.925 -0.3665  0.2885  0.1525
  571MPD2     H 8524   1.196   3.276   0.786  0.0956  0.1614  0.4551
  571MPD2    H1 8525   1.478   2.984   0.911 -1.4831 -2.8004  2.5184
  571MPD2    H2 8526   1.058   2.890   0.924  2.0492 -1.2016  0.2125
  571MPD2    H3 8527   1.285   2.826   0.953  0.2301  0.0683 -1.0921
  571MPD2     N 8528   1.463   3.210   0.818 -0.6686 -0.2358 -0.0237
  571MPD2    H5 8529   1.546   3.154   0.835 -0.0578  1.7204  3.5532
  571MPD2    N1 8530   0.977   3.147   0.841  0.1627 -0.5011 -0.9478
  571MPD2    H7 8531   0.960   3.228   0.783 -0.6784  0.3403  0.4737
  572TMC3    C1 8532   1.602   3.366   0.702  0.5196 -0.3853  0.0055
  572TMC3    C2 8533   1.709   3.279   0.701  0.3517  0.0160 -0.6815
  572TMC3    C3 8534   1.818   3.324   0.635 -0.8295  0.0269  0.0908
  572TMC3    C4 8535   1.614   3.501   0.665 -0.4399 -0.2072  0.9647
  572TMC3    C5 8536   1.735   3.536   0.624  0.4711  0.0311  0.2587
  572TMC3    C6 8537   1.840   3.454   0.601  0.7261  0.5314  0.0182
  572TMC3     C 8538   1.465   3.331   0.748 -0.6871  0.3001 -0.3789
  572TMC3     O 8539   1.375   3.403   0.707 -0.3077  0.1603 -0.5359
  572TMC3     H 8540   1.676   3.179   0.677 -1.2896  0.1225  1.1293
  572TMC3    H1 8541   1.533   3.570   0.686 -0.2675  0.5268 -0.8064
  572TMC3    H2 8542   1.936   3.476   0.556  0.1789 -0.0942 -1.4319
  572TMC3    C7 8543   1.739   3.674   0.561 -0.1969 -0.1271  0.0465
  572TMC3    C8 8544   1.923   3.227   0.602 -0.6061  0.4448 -0.4434
  572TMC3    O1 8545   1.630   3.722   0.547 -0.0398 -0.3256 -0.1135
  572TMC3    O2 8546   2.014   3.257   0.530  0.3818 -0.0945  0.0328
  573MPD2     C 8547   3.250   3.708   0.771  0.0704  0.3056 -0.4278
  573MPD2    C1 8548   3.140   3.660   0.834 -0.6546  0.0245  0.2099
  573MPD2    C2 8549   3.026   3.621   0.757 -1.1951 -0.0019  0.5843
  573MPD2    C3 8550   3.032   3.630   0.623 -0.3298 -1.1976 -0.5972
  573MPD2    C4 8551   3.159   3.656   0.564  0.1609 -0.1583 -0.4102
  573MPD2    C5 8552   3.263   3.702   0.636  1.0761  0.4216  0.4937
  573MPD2     H 8553   2.939   3.574   0.801 -2.5680 -0.1477 -2.2603
  573MPD2    H1 8554   3.163   3.657   0.455 -1.2733 -0.9605 -0.4805
  573MPD2    H2 8555   3.325   3.754   0.835  0.3073 -0.7225  0.0243
  573MPD2    H3 8556   3.354   3.738   0.591  1.3947  0.2722  1.0118
  573MPD2     N 8557   2.927   3.604   0.531  0.0352 -0.2269  0.3439
  573MPD2    H5 8558   2.964   3.597   0.436  1.8241  1.6296  0.9026
  573MPD2    N1 8559   3.145   3.664   0.974 -0.5073 -0.0921  0.2610
  573MPD2    H7 8560   3.226   3.701   1.022  0.5074 -1.6721 -0.2624
  574TMC3    C1 8561   2.715   3.580   0.438 -0.2983 -0.4095  0.5977
  574TMC3    C2 8562   2.576   3.568   0.450 -0.6043  0.4409 -0.0127
  574TMC3    C3 8563   2.508   3.565   0.336  0.6263  0.5268 -0.2379
  574TMC3    C4 8564   2.773   3.594   0.313 -0.0376  0.5255 -0.2350
  574TMC3    C5 8565   2.698   3.579   0.205 -0.5794  0.7122  0.0194
  574TMC3    C6 8566   2.563   3.567   0.217  0.0021  0.2160 -0.7758
  574TMC3     C 8567   2.794   3.598   0.555 -0.4198 -0.4584  0.7193
  574TMC3     O 8568   2.738   3.593   0.666 -0.4450 -0.0364 -0.2416
  574TMC3     H 8569   2.530   3.561   0.548 -1.0363  2.0056 -0.1106
  574TMC3    H1 8570   2.881   3.605   0.307  0.3149 -2.4080  0.5352
  574TMC3    H2 8571   2.498   3.533   0.137 -2.3300  0.9043  0.8020
  574TMC3    C7 8572   2.771   3.517   0.098  0.1930 -0.4539  0.9312
  574TMC3    C8 8573   2.369   3.573   0.356 -0.1107 -0.1256 -0.5533
  574TMC3    O1 8574   2.894   3.511   0.100 -0.6688 -0.0020 -0.1197
  574TMC3    O2 8575   2.320   3.537   0.462 -0.2719 -0.0006  0.9816
  575TMC3    C1 8576   0.120   3.526  10.690 -0.5818 -0.2985  0.4356
  575TMC3    C2 8577   0.077   3.402  10.716 -0.4256 -0.3285  0.0115
  575TMC3    C3 8578   0.038   3.327  10.600  0.3681  0.3704  0.2025
  575TMC3    C4 8579   0.133   3.588  10.573  0.2461 -0.5659 -0.1922
  575TMC3    C5 8580   0.100   3.510  10.468 -0.0269 -0.7533  0.0983
  575TMC3    C6 8581   0.058   3.380  10.476 -0.0153  0.4354 -0.0621
  575TMC3     C 8582   0.148   3.602  10.809 -0.2626  0.3105 -0.0632
  575TMC3     O 8583   0.119   3.543  10.911 -0.3134 -0.3481  0.0259
  575TMC3     H 8584   0.062   3.357  10.813  1.5242 -0.7436  0.1208
  575TMC3    H1 8585   0.181   3.684  10.563 -1.6140  0.2475 -1.3434
  575TMC3    H2 8586   0.022   3.323  10.391  0.4306 -0.4307  0.3321
  575TMC3    C7 8587   0.114   3.577  10.334  0.3167  0.0566 -0.2940
  575TMC3    C8 8588   0.020   3.190  10.618  0.4639  0.1817  0.0017
  575TMC3    O1 8589   0.135   3.697  10.331  0.4017  0.3356  0.6854
  575TMC3    O2 8590   0.016   3.152  10.735 -0.4401  0.6690  0.6270
  576MPD2     C 8591   0.204   1.488  12.895 -0.5511  0.1489 -0.2282
  576MPD2    C1 8592   0.229   1.568  12.782  0.1358 -0.7073  0.1819
  576MPD2    C2 8593   0.327   1.657  12.787 -0.2725 -0.0546  0.2949
  576MPD2    C3 8594   0.412   1.660  12.892 -0.5114 -0.3598  0.0265
  576MPD2    C4 8595   0.384   1.587  13.011 -0.4994  0.3930 -0.2199
  576MPD2    C5 8596   0.278   1.502  13.010 -0.0108  0.1221 -0.2252
  576MPD2     H 8597   0.351   1.718  12.700  2.0748 -2.7387 -0.9231
  576MPD2    H1 8598   0.433   1.611  13.104  0.1863  1.1300 -0.7687
  576MPD2    H2 8599   0.117   1.424  12.901 -1.4293  1.0988 -2.7014
  576MPD2    H3 8600   0.251   1.444  13.098  1.7037 -0.6141 -0.1752
  576MPD2     N 8601   0.513   1.754  12.896  0.2264 -0.3222 -0.5025
  576MPD2    H5 8602   0.521   1.807  12.809 -0.7058  0.2046 -0.2642
  576MPD2    N1 8603   0.163   1.551  12.657  0.1638  0.8016 -0.4673
  576MPD2    H7 8604   0.171   1.629  12.593 -1.2833 -0.0806 -1.6957
  577TMC3    C1 8605   0.080   1.444  12.472 -0.8994 -0.2824 -0.2300
  577TMC3    C2 8606   0.065   1.324  12.410 -0.3668 -0.2305  0.0137
  577TMC3    C3 8607   0.064   1.321  12.275  0.0497 -0.3839 -0.3089
  577TMC3    C4 8608   0.088   1.566  12.412  0.4276 -0.1064 -0.5156
  577TMC3    C5 8609   0.073   1.557  12.278 -1.1081  0.2687 -0.6152
  577TMC3    C6 8610   0.075   1.434  12.205 -0.3326 -0.5588 -0.0053
  577TMC3     C 8611   0.103   1.438  12.615 -0.0745  0.3242 -0.4039
  577TMC3     O 8612   0.083   1.327  12.665 -0.2970  0.8352 -0.8847
  577TMC3     H 8613   0.052   1.232  12.465 -0.8779  0.2114  0.6379
  577TMC3    H1 8614   0.092   1.662  12.463 -2.7375 -0.4148  0.3003
  577TMC3    H2 8615   0.082   1.440  12.097 -0.1247 -0.6118  0.0058
  577TMC3    C7 8616   0.083   1.677  12.200 -0.5157  0.6959  0.1594
  577TMC3    C8 8617   0.118   1.200  12.221 -0.0940 -0.5304 -0.6908
  577TMC3    O1 8618   0.145   1.775  12.243 -0.4609 -0.0370 -0.0412
  577TMC3    O2 8619   0.071   1.094  12.261 -0.4716 -0.1087 -0.3732
  578MPD2     C 8620   2.939   1.083   0.748 -0.4891  0.0646  0.5075
  578MPD2    C1 8621   3.036   0.990   0.706 -0.4231  0.0789 -0.4628
  578MPD2    C2 8622   3.121   0.946   0.805 -0.1854  0.7476  0.1430
  578MPD2    C3 8623   3.120   0.996   0.940  0.2405  1.1017 -1.0319
  578MPD2    C4 8624   3.023   1.084   0.970  0.2188  0.2411 -0.1391
  578MPD2    C5 8625   2.931   1.124   0.876 -0.1132  0.5547  0.2403
  578MPD2     H 8626   3.200   0.881   0.769 -1.4971  1.4736 -3.9791
  578MPD2    H1 8627   3.017   1.121   1.072  1.1650  1.9365 -0.7035
  578MPD2    H2 8628   2.866   1.133   0.685  1.5571  1.2284 -0.9668
  578MPD2    H3 8629   2.848   1.189   0.901 -2.6260 -2.1916 -0.9446
  578MPD2     N 8630   3.205   0.939   1.032 -0.4981 -0.5027 -0.1250
  578MPD2    H5 8631   3.277   0.880   0.991 -0.3653 -0.6782  0.3669
  578MPD2    N1 8632   3.042   0.950   0.570  0.5613  0.3110  0.0991
  578MPD2    H7 8633   2.968   1.003   0.525  0.0210  1.5452  2.4120
  579TMC3    C1 8634   3.311   0.885   1.233  0.8709  0.0550 -0.0281
  579TMC3    C2 8635   3.388   0.955   1.322 -0.1874  0.1712  0.0234
  579TMC3    C3 8636   3.511   0.906   1.360 -0.3209 -0.0657  0.1397
  579TMC3    C4 8637   3.353   0.767   1.183  0.3577  0.3201 -0.5650
  579TMC3    C5 8638   3.472   0.723   1.225  0.6424 -0.5126 -0.0318
  579TMC3    C6 8639   3.554   0.791   1.311  0.6967 -0.9213  0.4658
  579TMC3     C 8640   3.210   0.958   1.163  0.0588 -0.0807 -0.1537
  579TMC3     O 8641   3.156   1.039   1.233 -1.0823 -0.2586 -0.2526
  579TMC3     H 8642   3.353   1.046   1.369 -1.5481  0.0528 -0.7531
  579TMC3    H1 8643   3.294   0.715   1.109 -1.4371  0.0946  1.0231
  579TMC3    H2 8644   3.653   0.758   1.340  0.2640 -2.4296  0.2190
  579TMC3    C7 8645   3.503   0.582   1.198  0.6053 -0.1918  0.2715
  579TMC3    C8 8646   3.603   0.996   1.427  0.1742 -0.7351 -0.0283
  579TMC3    O1 8647   3.605   0.533   1.247 -0.7455  0.1196 -0.4998
  579TMC3    O2 8648   3.562   1.071   1.517  0.4593 -0.7325 -0.3736
  580TMC3    C1 8649   2.781   0.213  11.825 -0.4655  0.0720  0.0915
  580TMC3    C2 8650   2.743   0.174  11.699  0.1333  0.5246  0.2457
  580TMC3    C3 8651   2.747   0.041  11.672 -0.0656 -0.2257  0.3735
  580TMC3    C4 8652   2.805   0.128  11.927  0.1036  0.3478 -0.1687
  580TMC3    C5 8653   2.790   4.736  11.898 -0.4851  0.3710 -0.3589
  580TMC3    C6 8654   2.761   4.684  11.772  0.6030  0.5696  0.2090
  580TMC3     C 8655   2.820   0.353  11.837 -0.4581 -0.1273  0.4519
  580TMC3     O 8656   2.789   0.427  11.745  0.3742  0.1604  0.0636
  580TMC3     H 8657   2.726   0.229  11.608  0.6238  2.6279  1.4179
  580TMC3    H1 8658   2.819   0.165  12.028  2.8643  1.3202 -0.9199
  580TMC3    H2 8659   2.735   4.579  11.758 -0.7250  1.2800 -2.6382
  580TMC3    C7 8660   2.842   4.647  12.001  0.4894 -0.1202 -0.2948
  580TMC3    C8 8661   2.748   4.731  11.537 -0.6456 -0.0354  0.2972
  580TMC3    O1 8662   2.935   4.700  12.061 -0.0909  0.7697  0.1239
  580TMC3    O2 8663   2.691   4.626  11.521 -0.0676 -0.2257  0.5186
  581MPD2     C 8664   0.370   4.715  14.322 -0.1137  0.0282  0.3838
  581MPD2    C1 8665   0.361   0.028  14.452  0.6579  0.1198 -0.0187
  581MPD2    C2 8666   0.257   0.114  14.482 -0.1001  0.0852  0.4715
  581MPD2    C3 8667   0.172   0.156  14.384 -0.0395 -0.2854 -0.1212
  581MPD2    C4 8668   0.190   0.117  14.253 -0.0565 -0.0240 -0.0346
  581MPD2    C5 8669   0.283   0.025  14.227  0.2329 -0.2152 -0.4938
  581MPD2     H 8670   0.239   0.159  14.579  0.4385 -0.6401  0.9050
  581MPD2    H1 8671   0.126   0.146  14.171  0.7392  0.6665 -0.4141
  581MPD2    H2 8672   0.442   4.643  14.286  0.6072  0.7396  0.4252
  581MPD2    H3 8673   0.293   4.726  14.125 -0.0166  0.5897 -0.8068
  581MPD2     N 8674   0.073   0.238  14.413  0.0701  0.8091  0.7554
  581MPD2    H5 8675   0.080   0.279  14.506 -1.1584  1.7633  0.4354
  581MPD2    N1 8676   0.453   4.717  14.547  0.2688 -0.5804 -0.4152
  581MPD2    H7 8677   0.515   4.644  14.514 -1.0002 -1.6611 -0.3846
  582TMC3    C1 8678   0.546   4.675  14.748  0.0919 -0.7062 -0.0372
  582TMC3    C2 8679   0.618   4.723  14.854 -0.2464 -0.2703 -0.0619
  582TMC3    C3 8680   0.692   4.630  14.920 -0.6204 -0.5503 -0.4689
  582TMC3    C4 8681   0.544   4.543  14.708 -0.7063 -1.1205 -0.1560
  582TMC3    C5 8682   0.615   4.455  14.784 -0.4950 -0.0035  0.4474
  582TMC3    C6 8683   0.699   4.496  14.888 -0.1457 -0.2618 -0.3307
  582TMC3     C 8684   0.454   0.016  14.681 -0.2868 -0.5280 -0.5022
  582TMC3     O 8685   0.391   0.097  14.742  0.3314 -0.5674 -0.0044
  582TMC3     H 8686   0.622   0.090  14.882  1.4109 -0.0599 -1.0577
  582TMC3    H1 8687   0.486   4.502  14.627 -0.2258  0.3844 -1.2781
  582TMC3    H2 8688   0.749   4.428  14.955 -0.4863 -0.8611 -0.6865
  582TMC3    C7 8689   0.605   4.311  14.747  0.5117 -0.7376  0.0422
  582TMC3    C8 8690   0.761   4.679  15.042 -0.1139  0.6168  0.3319
  582TMC3    O1 8691   0.611   4.286  14.628  0.1904 -0.4752  0.0748
  582TMC3    O2 8692   0.708   0.039  15.091 -0.1139 -0.3231 -0.0181
  583MPD2     C 8693   0.868   1.844  16.819  0.4847 -0.3553 -0.4941
  583MPD2    C1 8694   0.839   1.948  16.731  0.2753  0.4700 -0.5723
  583MPD2    C2 8695   0.773   2.059  16.782  0.0382  0.0225 -0.1924
  583MPD2    C3 8696   0.727   2.071  16.909  0.5988 -0.2176 -0.6880
  583MPD2    C4 8697   0.740   1.956  16.991 -0.4996 -0.2649  0.1275
  583MPD2    C5 8698   0.817   1.847  16.950  0.1065 -0.2450 -0.5551
  583MPD2     H 8699   0.745   2.135  16.710  1.3876  2.8696  2.2863
  583MPD2    H1 8700   0.709   1.951  17.095 -0.1880 -0.1370  0.2266
  583MPD2    H2 8701   0.938   1.764  16.799  0.7478 -0.4581  0.8115
  583MPD2    H3 8702   0.837   1.770  17.024  1.0772  0.4575 -0.0845
  583MPD2     N 8703   0.659   2.188  16.944  0.3651  0.6254  0.2607
  583MPD2    H5 8704   0.630   2.253  16.872  0.9327 -0.5018 -0.9847
  583MPD2    N1 8705   0.889   1.947  16.597 -1.0553  0.1573  1.0109
  583MPD2    H7 8706   0.890   2.032  16.541 -1.9982  0.2098  1.0857
  584TMC3    C1 8707   0.525   2.321  17.083 -0.0319 -0.6230 -0.7627
  584TMC3    C2 8708   0.569   2.435  17.026  0.6141 -0.1741  0.7314
  584TMC3    C3 8709   0.560   2.550  17.095 -0.2616  0.3626 -0.1031
  584TMC3    C4 8710   0.463   2.322  17.213  0.1526 -0.5853 -0.5514
  584TMC3    C5 8711   0.454   2.445  17.272  0.7491 -0.0752  0.6234
  584TMC3    C6 8712   0.508   2.561  17.221  0.3749  0.3680  0.6615
  584TMC3     C 8713   0.609   2.206  17.069 -0.4096 -0.4108  0.4553
  584TMC3     O 8714   0.620   2.135  17.168 -0.6070 -0.3727 -0.0563
  584TMC3     H 8715   0.635   2.428  16.940 -2.1863  0.2597 -1.4782
  584TMC3    H1 8716   0.413   2.230  17.243 -0.9257 -0.5120 -2.0730
  584TMC3    H2 8717   0.524   2.648  17.283 -0.0805 -0.8454  2.5032
  584TMC3    C7 8718   0.401   2.440  17.402  0.4894 -0.4559 -0.4953
  584TMC3    C8 8719   0.609   2.666  17.026 -0.3825  0.3664  0.7278
  584TMC3    O1 8720   0.381   2.330  17.450  0.1540 -0.4829 -0.2146
  584TMC3    O2 8721   0.616   2.655  16.903 -0.2462  0.4277 -0.0194
  585MPD2     C 8722   4.103   1.107   0.145 -0.4735  0.2484  0.2858
  585MPD2    C1 8723   4.187   1.155   0.048  0.4610 -0.4310  0.1703
  585MPD2    C2 8724   4.263   1.063  17.733 -0.7151  0.3634 -0.6290
  585MPD2    C3 8725   4.262   0.927   0.019 -1.5344 -0.1457  0.3227
  585MPD2    C4 8726   4.167   0.883   0.103 -0.1963  0.7788  0.1403
  585MPD2    C5 8727   4.092   0.971   0.178  0.4812  0.6625 -0.1682
  585MPD2     H 8728   4.320   1.099  17.648 -0.9555 -3.2447 -2.3080
  585MPD2    H1 8729   4.161   0.782   0.142 -0.3641 -0.1240 -2.2316
  585MPD2    H2 8730   4.047   1.174   0.208 -0.0918 -0.8626  1.8080
  585MPD2    H3 8731   4.026   0.930   0.254  0.4431 -0.7219 -0.9479
  585MPD2     N 8732   4.349   0.828  17.700 -0.1513  0.1795 -0.2434
  585MPD2    H5 8733   4.338   0.736  17.743  0.7666 -0.7384 -1.9891
  585MPD2    N1 8734   4.203   1.293   0.028 -0.2404  0.2983 -0.0132
  585MPD2    H7 8735   4.179   1.366   0.094 -0.4710 -0.1994  0.4454
  586TMC3    C1 8736   4.519   0.734  17.564  0.2391  0.4360 -0.8910
  586TMC3    C2 8737   4.653   0.743  17.567 -0.8562  0.2722 -0.1991
  586TMC3    C3 8738   4.731   0.632  17.567 -0.0371 -0.3879 -0.2951
  586TMC3    C4 8739   4.456   0.614  17.562  0.0907  0.8032  0.4909
  586TMC3    C5 8740   4.535   0.504  17.545 -0.8393 -0.3561  0.1228
  586TMC3    C6 8741   4.671   0.512  17.540  0.2865 -0.0866  0.2958
  586TMC3     C 8742   4.449   0.855  17.614 -0.3896 -0.2305  0.2678
  586TMC3     O 8743   4.484   0.968  17.576 -0.3874  0.0251  0.3981
  586TMC3     H 8744   4.687   0.846  17.558 -0.9411  0.1650 -1.8357
  586TMC3    H1 8745   4.348   0.610  17.551  0.2917 -1.3347 -0.6398
  586TMC3    H2 8746   4.728   0.427  17.505 -1.3976  0.4048 -3.6774
  586TMC3    C7 8747   4.474   0.410  17.454  0.1329  0.0528  0.4242
  586TMC3    C8 8748   0.128   0.632  17.505 -0.4683 -0.0958  0.0600
  586TMC3    O1 8749   4.367   0.359  17.481  0.3226  0.3338  0.3727
  586TMC3    O2 8750   0.200   0.534  17.529  0.2862  0.4777 -0.0434
  587TMC3    C1 8751   2.123   4.080  17.051  0.1543  0.2576  0.0648
  587TMC3    C2 8752   2.126   4.185  16.966 -0.2503 -0.7491  0.1120
  587TMC3    C3 8753   2.253   4.229  16.928  0.5321 -1.0791  0.5543
  587TMC3    C4 8754   2.228   4.009  17.087 -0.1654  0.2358 -0.7626
  587TMC3    C5 8755   2.353   4.045  17.044 -0.3408  0.5013 -0.1677
  587TMC3    C6 8756   2.361   4.157  16.962 -0.7724 -0.0866  0.2776
  587TMC3     C 8757   2.006   4.002  17.071 -0.0090 -0.5804  0.2321
  587TMC3     O 8758   1.999   3.939  17.179 -0.6800  0.5543  0.2822
  587TMC3     H 8759   2.044   4.251  16.938 -0.0873  0.8463  3.4193
  587TMC3    H1 8760   2.219   3.919  17.146  0.9194  0.3286 -0.4635
  587TMC3    H2 8761   2.456   4.201  16.936 -0.2977 -0.7341  0.9056
  587TMC3    C7 8762   2.458   3.950  17.052 -0.0256 -0.1617 -0.0343
  587TMC3    C8 8763   2.259   4.325  16.820 -0.2177  0.7592 -0.3431
  587TMC3    O1 8764   2.456   3.871  17.144  0.6080 -0.1222 -0.3936
  587TMC3    O2 8765   2.356   4.320  16.746 -0.7156  0.1217  0.2190
  588TMC3    C1 8766   4.039   1.916   9.487 -0.7944  0.9267 -0.4203
  588TMC3    C2 8767   3.949   1.812   9.486 -0.9185 -0.2604 -0.1084
  588TMC3    C3 8768   3.917   1.760   9.609  0.8587  0.2060  0.5682
  588TMC3    C4 8769   4.107   1.947   9.601 -0.3130 -0.2664 -1.4207
  588TMC3    C5 8770   4.077   1.883   9.714 -0.2175  0.2312 -0.5398
  588TMC3    C6 8771   3.979   1.793   9.727 -0.2297  0.1936  0.0575
  588TMC3     C 8772   4.018   2.015   9.386 -0.0967  0.4459 -0.3366
  588TMC3     O 8773   3.909   1.995   9.337  0.4648  0.0518 -0.0473
  588TMC3     H 8774   3.880   1.786   9.406 -0.8876 -2.5045  0.5945
  588TMC3    H1 8775   4.172   2.034   9.605 -1.3291  0.4269  0.0799
  588TMC3    H2 8776   3.966   1.747   9.824 -1.9399  0.1430 -0.1937
  588TMC3    C7 8777   4.106   1.948   9.835 -0.0752  0.3754 -0.0624
  588TMC3    C8 8778   3.867   1.625   9.598 -0.2445  0.9309  0.0706
  588TMC3    O1 8779   4.169   1.876   9.912 -0.1280 -0.2778 -0.2093
  588TMC3    O2 8780   3.796   1.589   9.507  0.7711  0.6919 -0.5743
  589TMC3    C1 8781   3.765   4.242   1.247  0.0176  0.1267 -0.5338
  589TMC3    C2 8782   3.812   4.346   1.327 -0.3331 -0.0217 -0.2029
  589TMC3    C3 8783   3.947   4.346   1.365  0.7324  0.2635 -0.0972
  589TMC3    C4 8784   3.853   4.150   1.200  0.0633 -0.1662 -0.0374
  589TMC3    C5 8785   3.984   4.152   1.249 -0.4419 -0.8669  0.8654
  589TMC3    C6 8786   4.030   4.250   1.327 -0.0318  0.2874  0.3670
  589TMC3     C 8787   3.637   4.241   1.185  0.2355  0.5912 -0.4805
  589TMC3     O 8788   3.624   4.176   1.080  0.0582 -0.1842 -0.0402
  589TMC3     H 8789   3.750   4.433   1.341 -0.6704 -0.1736 -0.7655
  589TMC3    H1 8790   3.810   4.073   1.139 -0.9207 -0.8441  1.5202
  589TMC3    H2 8791   4.133   4.254   1.361 -0.0944  1.3151  0.4288
  589TMC3    C7 8792   4.061   4.036   1.212  0.4253 -0.2718 -0.0133
  589TMC3    C8 8793   4.002   4.464   1.424  0.2328 -0.0176  0.2924
  589TMC3    O1 8794   3.997   3.941   1.169  0.1365  0.6566  0.0236
  589TMC3    O2 8795   3.920   4.532   1.480 -0.2233 -0.2459 -0.0840
  590MPD2     C 8796   3.466   2.875  16.487 -0.4397  0.2637 -0.5545
  590MPD2    C1 8797   3.445   2.839  16.360  0.5273 -0.4255  0.3894
  590MPD2    C2 8798   3.536   2.861  16.260  0.1251  0.0744 -0.1191
  590MPD2    C3 8799   3.644   2.941  16.290  0.5167 -0.2665  0.2036
  590MPD2    C4 8800   3.674   2.974  16.419 -0.0417  0.6415 -0.3251
  590MPD2    C5 8801   3.583   2.938  16.518  0.4441 -0.1021  0.5405
  590MPD2     H 8802   3.523   2.821  16.160  0.3064 -0.6293  0.1369
  590MPD2    H1 8803   3.758   3.034  16.452 -0.1292  0.2941  0.5294
  590MPD2    H2 8804   3.392   2.857  16.564  1.0067 -0.7681  0.5843
  590MPD2    H3 8805   3.598   2.962  16.622 -0.8460  0.4941  0.5942
  590MPD2     N 8806   3.729   2.981  16.185 -0.1918  0.8756  0.4763
  590MPD2    H5 8807   3.697   2.958  16.092  3.4093  0.4374 -0.6574
  590MPD2    N1 8808   3.321   2.775  16.327  0.4230  0.1274  0.2602
  590MPD2    H7 8809   3.270   2.748  16.411 -0.2347 -1.7410 -0.7365
  591TMC3    C1 8810   3.886   3.114  16.069  0.3102  0.4607 -0.0280
  591TMC3    C2 8811   3.906   3.008  15.984 -0.1602 -0.4571 -0.1396
  591TMC3    C3 8812   3.948   3.042  15.858  0.6406 -0.3212  0.1243
  591TMC3    C4 8813   3.907   3.248  16.038 -0.0983  0.6213  0.6528
  591TMC3    C5 8814   3.945   3.277  15.909  0.4263 -0.2177  0.3092
  591TMC3    C6 8815   3.972   3.177  15.823  0.4530 -0.3183  0.1043
  591TMC3     C 8816   3.820   3.088  16.193 -0.2324  0.0096 -0.1217
  591TMC3     O 8817   3.823   3.182  16.276 -0.0875  0.6890  0.0790
  591TMC3     H 8818   3.881   2.906  16.012 -0.0415 -0.5576 -0.4063
  591TMC3    H1 8819   3.885   3.325  16.112 -1.6077  0.6077  0.2003
  591TMC3    H2 8820   4.012   3.201  15.725 -1.2978  1.3665 -0.1810
  591TMC3    C7 8821   3.866   3.392  15.857 -0.3406 -0.3341 -0.0802
  591TMC3    C8 8822   3.971   2.938  15.754 -0.0147  0.9167  0.3858
  591TMC3    O1 8823   3.762   3.416  15.917 -0.9924  0.0142 -0.4145
  591TMC3    O2 8824   3.985   2.823  15.797 -0.4382 -0.1384  0.5903
  592MPD2     C 8825   3.417   4.432  11.269  0.9569 -0.1494  0.4273
  592MPD2    C1 8826   3.446   4.522  11.381  0.0259 -0.2483 -0.5117
  592MPD2    C2 8827   3.430   4.464  11.500 -0.3517  0.3082  0.3221
  592MPD2    C3 8828   3.382   4.337  11.532  0.0753 -0.0356 -0.3617
  592MPD2    C4 8829   3.374   4.253  11.426 -0.7158  0.0963 -0.6015
  592MPD2    C5 8830   3.394   4.301  11.301  0.0500  0.4392  0.3278
  592MPD2     H 8831   3.455   4.523  11.588  1.3901 -0.8658  0.6088
  592MPD2    H1 8832   3.336   4.152  11.438  0.1301 -0.0307  1.1001
  592MPD2    H2 8833   3.436   4.446  11.163  1.0630  0.7791  0.5732
  592MPD2    H3 8834   3.375   4.233  11.218 -1.4670  0.3546  0.7303
  592MPD2     N 8835   3.378   4.293  11.668  0.4669  1.0519 -0.1687
  592MPD2    H5 8836   3.390   4.366  11.737 -0.2800 -0.2325  1.3107
  592MPD2    N1 8837   3.515   4.646  11.363 -0.6027 -0.1514 -0.1589
  592MPD2    H7 8838   3.521   4.674  11.265  2.5687 -0.0416  0.0865
  593TMC3    C1 8839   3.570   0.122  11.414 -0.4178 -0.3881 -0.1910
  593TMC3    C2 8840   3.562   0.209  11.521 -0.0543  0.5132  0.0027
  593TMC3    C3 8841   3.596   0.336  11.505  0.2184  0.0825  0.4989
  593TMC3    C4 8842   3.626   0.156  11.300  0.1599 -0.6450  0.2912
  593TMC3    C5 8843   3.674   0.285  11.280  0.0482 -0.3369  0.4457
  593TMC3    C6 8844   3.646   0.376  11.378 -0.0635 -0.1448 -0.0475
  593TMC3     C 8845   3.581   4.721  11.455 -0.9317 -0.5577 -0.1242
  593TMC3     O 8846   3.615   4.698  11.567  0.5915  0.1951 -0.2027
  593TMC3     H 8847   3.521   0.175  11.616 -0.1016 -1.0355 -0.5804
  593TMC3    H1 8848   3.654   0.073  11.236 -0.0699 -0.3979 -0.1263
  593TMC3    H2 8849   3.668   0.481  11.361 -1.8628 -0.2583 -3.0330
  593TMC3    C7 8850   3.722   0.332  11.152  0.4272  0.0512 -0.9089
  593TMC3    C8 8851   3.572   0.427  11.614  0.4116 -0.0384  0.0948
  593TMC3    O1 8852   3.735   0.453  11.143 -0.2817  0.8224 -0.5577
  593TMC3    O2 8853   3.526   0.371  11.714  0.7126 -0.4393 -0.1805
  594MPD2     C 8854   2.559   3.171  14.332  0.3146 -0.3855  0.1539
  594MPD2    C1 8855   2.519   3.285  14.395 -0.5996  0.1059 -0.2457
  594MPD2    C2 8856   2.578   3.404  14.365 -0.2352  0.0318 -0.1334
  594MPD2    C3 8857   2.689   3.409  14.281 -0.6786  0.3437  0.0035
  594MPD2    C4 8858   2.735   3.292  14.219  0.1515 -0.0184 -0.2690
  594MPD2    C5 8859   2.664   3.170  14.243  0.3592  0.0448 -0.3836
  594MPD2     H 8860   2.546   3.498  14.410  1.0480  0.4287 -0.0351
  594MPD2    H1 8861   2.816   3.289  14.146  0.5725  0.4892  0.1813
  594MPD2    H2 8862   2.495   3.083  14.339 -1.7010  1.0792  0.1575
  594MPD2    H3 8863   2.698   3.087  14.182  2.6782  0.1066  0.8441
  594MPD2     N 8864   2.746   3.535  14.257 -1.1575  0.3403 -0.2761
  594MPD2    H5 8865   2.708   3.617  14.303  3.7678  1.7470  1.2732
  594MPD2    N1 8866   2.402   3.273  14.481  0.5315  0.5132  0.1670
  594MPD2    H7 8867   2.357   3.183  14.494  0.4845  0.7476  1.6283
  595TMC3    C1 8868   3.084   3.822  14.161  0.5355 -0.3955  0.6454
  595TMC3    C2 8869   3.034   3.696  14.165 -0.9874  0.3708 -0.0363
  595TMC3    C3 8870   2.900   3.687  14.179  0.5966 -0.4686 -0.0935
  595TMC3    C4 8871   3.009   3.934  14.176  0.1783 -0.0771  0.0240
  595TMC3    C5 8872   2.872   3.925  14.178 -0.7710  0.0555  0.2530
  595TMC3    C6 8873   2.818   3.794  14.179  0.5226  0.0084  0.1552
  595TMC3     C 8874   3.225   3.843  14.140  0.1765 -0.6074  0.2972
  595TMC3     O 8875   3.268   3.959  14.144  0.1846  0.4197  0.3582
  595TMC3     H 8876   3.091   3.609  14.194  1.0585  1.8174  0.2020
  595TMC3    H1 8877   3.060   4.030  14.179  0.8924 -0.4621  0.3309
  595TMC3    H2 8878   2.711   3.788  14.160  0.8241 -0.9637 -1.3048
  595TMC3    C7 8879   2.791   4.045  14.203  0.6854 -0.0941 -0.2074
  595TMC3    C8 8880   2.855   3.552  14.177  0.6508  0.2999 -0.3512
  595TMC3    O1 8881   2.677   4.026  14.235 -0.0193  0.0557  0.7268
  595TMC3    O2 8882   2.927   3.465  14.127 -0.0603 -0.5559 -0.6119
  596MPD2     C 8883   1.571   1.583  16.763 -0.3161  0.0526  0.1189
  596MPD2    C1 8884   1.642   1.683  16.699 -0.0227 -0.1607  0.1162
  596MPD2    C2 8885   1.716   1.660  16.588  0.3024 -0.5624  0.2152
  596MPD2    C3 8886   1.700   1.550  16.513  0.7756 -0.2212  0.0236
  596MPD2    C4 8887   1.619   1.454  16.567  0.6053 -0.2447 -0.0587
  596MPD2    C5 8888   1.564   1.475  16.688  0.3858 -0.2147 -0.2649
  596MPD2     H 8889   1.779   1.739  16.549 -0.7993  0.5377  0.6605
  596MPD2    H1 8890   1.609   1.355  16.524  0.8418  0.1755 -1.0937
  596MPD2    H2 8891   1.539   1.598  16.865 -2.0228  1.6293 -0.6435
  596MPD2    H3 8892   1.509   1.393  16.733 -0.5786  1.4941  1.6770
  596MPD2     N 8893   1.739   1.537  16.377 -0.3845  0.3212 -0.5599
  596MPD2    H5 8894   1.691   1.464  16.325 -0.3848 -0.1488  0.1018
  596MPD2    N1 8895   1.646   1.814  16.749  0.5623  0.3809  0.0840
  596MPD2    H7 8896   1.705   1.881  16.701 -0.1252  1.2988  0.5318
  597TMC3    C1 8897   1.594   2.012  16.879 -0.5507 -0.0236 -0.0437
  597TMC3    C2 8898   1.676   2.089  16.798 -0.0870  0.1348 -0.5766
  597TMC3    C3 8899   1.678   2.228  16.812  0.2260 -0.4600  0.2146
  597TMC3    C4 8900   1.517   2.073  16.977 -0.9750  0.0631 -0.5959
  597TMC3    C5 8901   1.514   2.216  16.977 -1.0887  0.4810 -0.2931
  597TMC3    C6 8902   1.586   2.292  16.891 -0.2018 -0.3902 -0.1503
  597TMC3     C 8903   1.582   1.865  16.859 -0.6838  0.0595 -0.7492
  597TMC3     O 8904   1.507   1.812  16.934  0.0270 -0.8495 -0.4934
  597TMC3     H 8905   1.739   2.038  16.727 -0.5954 -1.2983  0.0052
  597TMC3    H1 8906   1.439   2.015  17.024 -0.4014 -0.4698 -0.3131
  597TMC3    H2 8907   1.596   2.399  16.907  0.2726 -0.2237 -1.6005
  597TMC3    C7 8908   1.397   2.268  17.042  0.0356 -0.5661  0.5124
  597TMC3    C8 8909   1.755   2.313  16.725 -1.0273 -0.5158  0.2535
  597TMC3    O1 8910   1.351   2.192  17.127  0.3010  0.2573  0.4447
  597TMC3    O2 8911   1.719   2.431  16.731  0.0386  0.1503 -0.0716
  598TMC3    C1 8912   4.385   3.067  15.042  0.1057  0.4441 -0.0414
  598TMC3    C2 8913   4.314   2.961  14.992  0.0160 -0.3321  0.0788
  598TMC3    C3 8914   4.322   2.928  14.861 -0.4815 -0.3071 -0.4705
  598TMC3    C4 8915   4.484   3.125  14.973 -0.2180  0.1253  0.0488
  598TMC3    C5 8916   4.486   3.095  14.838 -0.7052  0.3950  0.3036
  598TMC3    C6 8917   4.406   2.997  14.780  0.6054  0.4135  0.1588
  598TMC3     C 8918   4.410   3.074  15.184  0.0695 -0.2492 -0.4639
  598TMC3     O 8919   4.461   3.178  15.230  0.8562  0.0406 -0.5556
  598TMC3     H 8920   4.235   2.916  15.051 -1.2748 -0.4060 -1.6749
  598TMC3    H1 8921   4.541   3.204  15.020  0.9826  0.6017 -2.2284
  598TMC3    H2 8922   4.414   2.971  14.675 -2.3897 -1.8026  0.4952
  598TMC3    C7 8923   4.557   3.177  14.741 -0.1921 -0.7777 -0.6883
  598TMC3    C8 8924   4.211   2.854  14.806  1.0730  0.5084  0.1676
  598TMC3    O1 8925   4.552   3.140  14.628 -0.0596  0.0770  1.1339
  598TMC3    O2 8926   4.111   2.840  14.879 -0.2059  0.2272  0.2232
  599MPD2     C 8927   0.002   0.613  15.684  0.1403 -0.6645 -0.1228
  599MPD2    C1 8928   4.719   0.472  15.675 -0.1608  0.2691  0.3665
  599MPD2    C2 8929   4.601   0.418  15.713  0.4438  0.5853 -0.2678
  599MPD2    C3 8930   4.503   0.501  15.752  0.9055 -0.1593  0.0028
  599MPD2    C4 8931   4.512   0.638  15.732  0.0832  0.2264  0.1825
  599MPD2    C5 8932   4.633   0.694  15.703  1.4591 -0.2936 -0.5157
  599MPD2     H 8933   4.599   0.311  15.729  0.5459  0.2433 -2.5211
  599MPD2    H1 8934   4.425   0.699  15.756 -0.0842  0.4022 -0.8847
  599MPD2    H2 8935   0.095   0.652  15.645 -1.1901 -0.1902 -2.8304
  599MPD2    H3 8936   4.643   0.802  15.705  0.3227 -0.2152  0.6425
  599MPD2     N 8937   4.379   0.461  15.811  0.1689  0.9407  0.2611
  599MPD2    H5 8938   4.319   0.541  15.830  0.5766  0.7255  2.5659
  599MPD2    N1 8939   0.097   0.395  15.659  0.2779  0.1910 -0.0272
  599MPD2    H7 8940   0.181   0.451  15.664 -0.2276  0.9567 -0.1212
  600TMC3    C1 8941   4.213   0.341  15.932  0.4484  0.0175  0.3399
  600TMC3    C2 8942   4.146   0.225  15.948 -0.4125  0.5445  0.0591
  600TMC3    C3 8943   4.025   0.237  16.008  0.0632 -0.3309 -0.5545
  600TMC3    C4 8944   4.163   0.454  15.976 -0.2902  0.0946 -0.0362
  600TMC3    C5 8945   4.047   0.462  16.050 -0.4180  0.4096  0.0986
  600TMC3    C6 8946   3.969   0.352  16.056 -0.2757  0.3170 -0.7211
  600TMC3     C 8947   4.343   0.338  15.859  1.0778 -0.6916 -0.3305
  600TMC3     O 8948   4.387   0.227  15.836  0.6147 -0.2392 -0.0576
  600TMC3     H 8949   4.178   0.125  15.922 -3.1231  0.1640 -1.8132
  600TMC3    H1 8950   4.237   0.533  15.985 -1.2153  1.0245 -0.6633
  600TMC3    H2 8951   3.879   0.364  16.116  0.2011  1.4657 -0.2496
  600TMC3    C7 8952   4.011   0.587  16.121 -0.6093  0.3193 -0.4807
  600TMC3    C8 8953   3.950   0.122  16.039 -0.3092  0.7706 -0.1528
  600TMC3    O1 8954   3.935   0.580  16.216 -0.2982 -0.6945 -0.4105
  600TMC3    O2 8955   4.012   0.029  16.088  0.1217  0.6126  0.4824
  601MPD2     C 8956   1.930   4.057   0.294  0.4203 -0.1691 -0.1408
  601MPD2    C1 8957   1.802   4.012   0.302  0.1241 -0.0748  0.1135
  601MPD2    C2 8958   1.769   3.901   0.382  0.1467  0.4579 -0.4465
  601MPD2    C3 8959   1.876   3.840   0.446 -0.1836 -0.2593  0.7251
  601MPD2    C4 8960   2.007   3.883   0.431  0.4449 -0.2837 -0.2036
  601MPD2    C5 8961   2.036   3.992   0.354  0.0264 -0.0407  0.5284
  601MPD2     H 8962   1.666   3.868   0.376  0.1020  0.6029 -0.4744
  601MPD2    H1 8963   2.096   3.824   0.452  0.9230  0.3926 -0.3381
  601MPD2    H2 8964   1.964   4.148   0.246  0.6857  0.7062  1.6676
  601MPD2    H3 8965   2.138   4.024   0.337 -0.5562  2.2934  1.4433
  601MPD2     N 8966   1.863   3.721   0.521 -0.5784  0.1831  0.4063
  601MPD2    H5 8967   1.942   3.666   0.553 -1.7126 -2.2491 -1.0035
  601MPD2    N1 8968   1.697   4.073   0.227 -0.2934 -0.4826  0.2220
  601MPD2    H7 8969   1.601   4.049   0.248 -0.3235  0.6536  1.4145
  602TMC3    C1 8970   1.582   4.192   0.063  0.0493  0.7578  0.0860
  602TMC3    C2 8971   1.589   4.258  17.693 -0.9505  0.3583  0.2915
  602TMC3    C3 8972   1.474   4.311  17.636  0.3420 -0.3869  0.4686
  602TMC3    C4 8973   1.460   4.168   0.131  0.9022  0.4786 -0.1259
  602TMC3    C5 8974   1.351   4.221   0.064  0.4048  0.3153  0.1557
  602TMC3    C6 8975   1.349   4.276  17.689  0.7245 -0.8372 -0.0237
  602TMC3     C 8976   1.710   4.155   0.113 -0.5473  0.5143  0.0440
  602TMC3     O 8977   1.803   4.195   0.045 -0.5088  0.4231  0.1204
  602TMC3     H 8978   1.682   4.286  17.644 -0.7536 -0.3153  0.2847
  602TMC3    H1 8979   1.441   4.119   0.226  1.0573 -0.4256 -0.5617
  602TMC3    H2 8980   1.254   4.289  17.639 -0.8080 -1.5380  2.6870
  602TMC3    C7 8981   1.220   4.201   0.123 -0.0042  0.4196 -0.1939
  602TMC3    C8 8982   1.487   4.354  17.501 -0.1791  0.1984  0.0613
  602TMC3    O1 8983   1.217   4.090   0.178  0.1804 -0.1473  0.5957
  602TMC3    O2 8984   1.590   4.346  17.441  0.6893 -0.2908 -0.1640
  603TMC3    C1 8985   4.554   3.829  10.830 -0.6479  0.7783  0.3899
  603TMC3    C2 8986   4.572   3.799  10.966  0.7771  0.5563  0.7503
  603TMC3    C3 8987   4.604   3.912  11.046  0.3719 -0.0812  0.2501
  603TMC3    C4 8988   4.551   3.958  10.783 -0.5122 -0.0281  0.6828
  603TMC3    C5 8989   4.565   4.063  10.874 -0.1504 -0.3406  0.2850
  603TMC3    C6 8990   4.602   4.044  11.004 -0.5107  0.2399 -0.0985
  603TMC3     C 8991   4.505   3.721  10.746 -0.1155 -0.1492  0.1928
  603TMC3     O 8992   4.453   3.626  10.802 -0.7672  0.1274 -0.0825
  603TMC3     H 8993   4.578   3.696  11.000 -0.9811 -0.1744 -1.2090
  603TMC3    H1 8994   4.552   3.978  10.676  0.9189  1.9671  1.0614
  603TMC3    H2 8995   4.574   4.127  11.069 -1.7710  0.1997 -0.5878
  603TMC3    C7 8996   4.544   4.202  10.826  0.1312  0.2429  0.0472
  603TMC3    C8 8997   4.656   3.882  11.177  0.6512  0.3112 -0.2156
  603TMC3    O1 8998   4.601   4.284  10.895  0.1162 -0.0110  0.1924
  603TMC3    O2 8999   4.658   3.764  11.214  0.4613  0.5605 -0.1700
  604MPD2     C 9000   0.972   2.916  16.388  0.1172  0.9025  0.5078
  604MPD2    C1 9001   0.873   2.859  16.312  0.3581  1.2512  0.4662
  604MPD2    C2 9002   0.902   2.835  16.176  0.2723 -0.0334  0.8675
  604MPD2    C3 9003   1.020   2.869  16.122 -0.0740  0.0386 -0.0603
  604MPD2    C4 9004   1.124   2.930  16.199  0.7437  0.1017  0.3925
  604MPD2    C5 9005   1.096   2.948  16.330 -0.5658 -0.1736 -0.3995
  604MPD2     H 9006   0.827   2.780  16.121  2.6181 -0.5687 -1.7648
  604MPD2    H1 9007   1.222   2.959  16.163 -0.8280  4.9887 -0.0328
  604MPD2    H2 9008   0.965   2.934  16.495  0.9035  3.0461  0.1937
  604MPD2    H3 9009   1.168   3.004  16.388 -1.1620 -2.3710  2.4408
  604MPD2     N 9010   1.032   2.841  15.984 -0.2456  0.1067 -0.1413
  604MPD2    H5 9011   0.956   2.789  15.941  0.4183  0.2670 -1.5087
  604MPD2    N1 9012   0.754   2.839  16.384  0.2865 -0.4539  0.2816
  604MPD2    H7 9013   0.755   2.870  16.480  2.9282  1.3129 -0.3297
  605TMC3    C1 9014   0.527   2.809  16.423  0.8070  1.1888 -0.2188
  605TMC3    C2 9015   0.556   2.819  16.555 -0.0253  0.0733 -0.2301
  605TMC3    C3 9016   0.510   2.915  16.638 -0.1671 -0.2248 -0.0322
  605TMC3    C4 9017   0.431   2.891  16.376  0.0653  0.1592  0.2306
  605TMC3    C5 9018   0.370   2.984  16.452 -0.0839  0.0875  0.0548
  605TMC3    C6 9019   0.404   2.990  16.590 -0.0244 -0.0989  0.5271
  605TMC3     C 9020   0.638   2.790  16.330  0.3493  0.1345 -0.1054
  605TMC3     O 9021   0.621   2.730  16.224 -0.0141  0.2037  0.5614
  605TMC3     H 9022   0.621   2.740  16.591 -0.9835 -1.0648 -0.9675
  605TMC3    H1 9023   0.426   2.898  16.268  0.2041  3.2386  0.4366
  605TMC3    H2 9024   0.357   3.057  16.660  0.6452  1.1741 -0.2513
  605TMC3    C7 9025   0.311   3.103  16.390 -0.3034  0.7611 -0.4543
  605TMC3    C8 9026   0.617   3.004  16.664 -0.4441 -0.2444 -0.1445
  605TMC3    O1 9027   0.294   3.200  16.461  0.4258  1.0926  0.3282
  605TMC3    O2 9028   0.730   2.959  16.633 -0.3228 -0.3963 -0.0911
  606TMC3    C1 9029   2.071   1.352  16.660  0.0999 -0.2737  0.3675
  606TMC3    C2 9030   2.127   1.354  16.780  0.3896  0.3356 -0.1268
  606TMC3    C3 9031   2.065   1.287  16.884 -0.3271  0.3418 -0.6111
  606TMC3    C4 9032   1.942   1.299  16.644 -0.0109  0.5530  0.0728
  606TMC3    C5 9033   1.884   1.242  16.749  0.2822  0.1891  0.0430
  606TMC3    C6 9034   1.942   1.236  16.873  0.3884  0.5142 -0.6443
  606TMC3     C 9035   2.118   1.438  16.554  0.1626  0.3268  0.2747
  606TMC3     O 9036   2.140   1.557  16.585 -0.4397 -0.1812  0.3343
  606TMC3     H 9037   2.231   1.386  16.788  0.9864 -1.5914  0.0342
  606TMC3    H1 9038   1.888   1.314  16.551  1.7744 -2.5411 -1.4703
  606TMC3    H2 9039   1.903   1.176  16.954  1.3053  0.2478 -0.3991
  606TMC3    C7 9040   1.760   1.176  16.728  0.4335  0.7412  0.2765
  606TMC3    C8 9041   2.132   1.297  17.009 -0.0043  0.3048  0.2437
  606TMC3    O1 9042   1.726   1.138  16.618  0.0592 -0.8930 -0.0779
  606TMC3    O2 9043   2.252   1.294  17.002  0.3182  0.0930  0.3592
  607MPD2     C 9044   3.767   4.183  11.481  0.1965 -0.2187 -0.0618
  607MPD2    C1 9045   3.767   4.256  11.594  1.2730 -0.6786  0.1611
  607MPD2    C2 9046   3.707   4.205  11.711  0.1875  0.1363 -0.3769
  607MPD2    C3 9047   3.669   4.069  11.715  0.0229  0.0868  0.9920
  607MPD2    C4 9048   3.673   3.995  11.596  0.1453 -0.3656  0.1077
  607MPD2    C5 9049   3.718   4.052  11.483  0.1578 -0.3659 -0.0858
  607MPD2     H 9050   3.690   4.272  11.794  0.8144  2.0748 -1.8312
  607MPD2    H1 9051   3.647   3.890  11.593 -0.0916 -0.3085  0.1671
  607MPD2    H2 9052   3.810   4.221  11.389  0.0676  0.2459  0.0680
  607MPD2    H3 9053   3.720   3.996  11.390  0.1948 -0.5094  0.0024
  607MPD2     N 9054   3.626   4.020  11.843  0.3383 -0.0602 -0.5359
  607MPD2    H5 9055   3.642   4.084  11.920  2.3620 -1.6501  0.3507
  607MPD2    N1 9056   3.822   4.386  11.595 -0.0500 -0.2177  0.0582
  607MPD2    H7 9057   3.809   4.446  11.676 -1.3570  0.1511 -0.4298
  608TMC3    C1 9058   3.960   4.553  11.545  0.1711 -0.5848 -0.2152
  608TMC3    C2 9059   3.993   4.560  11.675 -0.2366 -0.7758  1.2048
  608TMC3    C3 9060   4.044   4.674  11.726 -1.0665  0.5620  1.1892
  608TMC3    C4 9061   3.987   4.648  11.460 -0.5131 -0.0095 -0.2238
  608TMC3    C5 9062   4.054   0.025  11.512  0.1600 -0.1681  0.5500
  608TMC3    C6 9063   4.086   0.041  11.646 -0.5578 -0.6940  0.7303
  608TMC3     C 9064   3.889   4.442  11.496  0.2746 -0.1674 -0.4752
  608TMC3     O 9065   3.895   4.418  11.375  0.0661 -0.2129  0.0149
  608TMC3     H 9066   3.996   4.468  11.732  1.9291  0.1952  2.6696
  608TMC3    H1 9067   3.968   4.630  11.355 -0.9799 -2.0755  0.2167
  608TMC3    H2 9068   4.111   0.140  11.682 -0.1717 -0.9096  1.0493
  608TMC3    C7 9069   4.067   0.130  11.415 -0.0908 -0.4537 -1.3725
  608TMC3    C8 9070   4.067   4.687  11.869 -0.4922  0.0264  0.5475
  608TMC3    O1 9071   3.969   0.136  11.339 -0.0467  0.0116 -0.8128
  608TMC3    O2 9072   4.144   0.034  11.913 -0.3277 -0.0921  0.1858
  609TMC3    C1 9073   1.880   3.803   8.716 -0.1384 -0.1231  0.4969
  609TMC3    C2 9074   1.928   3.916   8.657 -0.1281  0.9010 -0.1294
  609TMC3    C3 9075   2.055   3.923   8.607  0.5033  0.1648  0.3293
  609TMC3    C4 9076   1.971   3.699   8.738  0.6584  0.3170  0.0487
  609TMC3    C5 9077   2.101   3.709   8.698  0.2103  0.8056 -1.1023
  609TMC3    C6 9078   2.150   3.827   8.643  0.3058  0.1145 -0.0156
  609TMC3     C 9079   1.757   3.800   8.787  0.7034  0.8752 -0.2762
  609TMC3     O 9080   1.733   3.708   8.863  0.0616 -0.1491 -0.1595
  609TMC3     H 9081   1.863   4.002   8.664 -1.5835 -0.0493 -2.3965
  609TMC3    H1 9082   1.933   3.606   8.780  1.5903  0.5274  1.3562
  609TMC3    H2 9083   2.253   3.836   8.611  0.2161 -0.4873 -0.4614
  609TMC3    C7 9084   2.209   3.617   8.746 -0.5641  0.8711 -0.2888
  609TMC3    C8 9085   2.112   4.048   8.596  0.1277  0.0047 -0.4750
  609TMC3    O1 9086   2.323   3.649   8.739  0.8180  0.4708 -0.0565
  609TMC3    O2 9087   2.234   4.058   8.614  0.0079 -0.6535 -0.1348
  610TMC3    C1 9088   4.425   4.481  12.389 -1.2315 -0.2392 -1.2820
  610TMC3    C2 9089   4.424   4.488  12.253  0.2071 -0.6850  0.7343
  610TMC3    C3 9090   4.408   4.381  12.177  0.0567 -0.1727 -0.3085
  610TMC3    C4 9091   4.382   4.369  12.450 -0.7546  0.0560 -0.1608
  610TMC3    C5 9092   4.367   4.256  12.373 -0.2704 -0.0244  0.7229
  610TMC3    C6 9093   4.383   4.260  12.235  0.0049  0.3414  0.0213
  610TMC3     C 9094   4.430   4.613  12.452 -0.0229 -0.6565  0.8150
  610TMC3     O 9095   4.508   4.696  12.409  0.2158  0.3132 -0.1267
  610TMC3     H 9096   4.440   4.583  12.204 -0.2965 -1.6547 -1.3362
  610TMC3    H1 9097   4.378   4.349  12.557  0.2910  4.3018  0.6499
  610TMC3    H2 9098   4.370   4.174  12.170 -0.7032  0.6866 -0.2842
  610TMC3    C7 9099   4.381   4.124  12.439 -0.6715 -0.1537 -0.4422
  610TMC3    C8 9100   4.386   4.412  12.036 -0.3459 -0.2863  0.1584
  610TMC3    O1 9101   4.423   4.135  12.556  0.1820  0.3688  0.2485
  610TMC3    O2 9102   4.431   4.517  11.988  0.4397  0.5570  0.5040
  611MPD2     C 9103   3.521   3.919  10.477  0.2755 -1.0281 -0.3123
  611MPD2    C1 9104   3.482   3.987  10.361 -0.2356  0.3978 -0.9894
  611MPD2    C2 9105   3.580   4.058  10.295  0.0105  0.9662 -0.0966
  611MPD2    C3 9106   3.703   4.086  10.342 -0.9845  0.7082 -0.4004
  611MPD2    C4 9107   3.740   4.013  10.453 -0.3567 -0.4734 -0.4976
  611MPD2    C5 9108   3.651   3.935  10.520 -1.1452 -0.4820  0.1054
  611MPD2     H 9109   3.547   4.121  10.212 -2.0679 -1.5246 -1.1751
  611MPD2    H1 9110   3.842   4.016  10.491 -0.6329  1.4136  0.0896
  611MPD2    H2 9111   3.459   3.847  10.529 -0.1270  0.2086  0.9201
  611MPD2    H3 9112   3.683   3.876  10.606  1.5653 -1.0657 -1.3090
  611MPD2     N 9113   3.802   4.172  10.284  0.0081  0.4217  0.1649
  611MPD2    H5 9114   3.891   4.177  10.333 -0.3921  2.1402  0.7054
  611MPD2    N1 9115   3.353   3.965  10.316  0.3012  0.1119 -0.2847
  611MPD2    H7 9116   3.300   3.900  10.374 -2.7630  2.3227 -0.6036
  612TMC3    C1 9117   3.875   4.365  10.159 -0.1305  0.4963 -0.7386
  612TMC3    C2 9118   3.967   4.395  10.260  0.1201 -0.2938 -0.1142
  612TMC3    C3 9119   4.035   4.512  10.228 -0.0347 -0.5421  0.0639
  612TMC3    C4 9120   3.854   4.438  10.048  0.2021  0.5391  0.8182
  612TMC3    C5 9121   3.921   4.552  10.035  0.2153  0.5528 -0.1086
  612TMC3    C6 9122   4.008   4.599  10.129 -0.1108 -0.4545  0.0392
  612TMC3     C 9123   3.784   4.249  10.169  0.4638 -0.1690  0.3020
  612TMC3     O 9124   3.683   4.244  10.102  0.1548 -0.1099  0.1692
  612TMC3     H 9125   3.980   4.334  10.348 -1.8667 -0.8136 -0.1652
  612TMC3    H1 9126   3.776   4.420   9.976  1.7045  2.1868 -1.2092
  612TMC3    H2 9127   4.063   4.692  10.118 -0.3718 -0.1575  1.2853
  612TMC3    C7 9128   3.886   4.631   9.920 -0.5511 -0.2937  0.1242
  612TMC3    C8 9129   4.131   4.567  10.327 -0.2965  0.3449 -0.4437
  612TMC3    O1 9130   3.836   4.584   9.818 -0.3645  0.3210  0.3341
  612TMC3    O2 9131   4.172   4.682  10.318  0.3292  0.3413  0.3811
  613MPD2     C 9132   3.749   1.697  16.207  0.9164  0.1528  0.1939
  613MPD2    C1 9133   3.644   1.767  16.255 -1.4861 -0.1685 -0.3167
  613MPD2    C2 9134   3.535   1.696  16.304 -0.2026 -0.0698  0.1301
  613MPD2    C3 9135   3.526   1.556  16.300  0.5171  0.3206  0.3260
  613MPD2    C4 9136   3.633   1.492  16.247 -0.0805 -0.8717  0.3725
  613MPD2    C5 9137   3.749   1.560  16.209 -0.2247  0.2477 -0.6803
  613MPD2     H 9138   3.458   1.757  16.352  1.6902  1.9590  0.6051
  613MPD2    H1 9139   3.640   1.384  16.239 -1.7361 -0.8787 -0.8393
  613MPD2    H2 9140   3.837   1.742  16.163  0.6098 -1.2937 -1.9080
  613MPD2    H3 9141   3.844   1.520  16.176  0.0184 -1.8959  2.5966
  613MPD2     N 9142   3.407   1.482  16.321 -0.3837  0.8521  0.2834
  613MPD2    H5 9143   3.412   1.383  16.301  1.8781  0.8617  0.7413
  613MPD2    N1 9144   3.655   1.912  16.242 -0.1186 -0.2510 -0.8558
  613MPD2    H7 9145   3.748   1.951  16.232 -0.0057  0.2538  2.2642
  614TMC3    C1 9146   3.416   1.956  16.191  0.3187 -0.3994 -0.1485
  614TMC3    C2 9147   3.401   1.855  16.097 -0.8458  0.3237 -0.2031
  614TMC3    C3 9148   3.277   1.799  16.079  0.0272 -0.3402  0.3007
  614TMC3    C4 9149   3.310   2.024  16.236  0.2070 -0.2235 -0.3789
  614TMC3    C5 9150   3.189   1.978  16.196  0.1771  0.1819 -0.2460
  614TMC3    C6 9151   3.169   1.856  16.137 -0.0776  0.0773  0.0081
  614TMC3     C 9152   3.547   2.000  16.244  0.2441  0.0145 -0.0839
  614TMC3     O 9153   3.543   2.120  16.271  0.0725  0.2406 -0.5723
  614TMC3     H 9154   3.489   1.819  16.044  0.5141  0.8031  1.7192
  614TMC3    H1 9155   3.319   2.113  16.298 -2.0806  0.0966 -0.5169
  614TMC3    H2 9156   3.070   1.814  16.121 -0.7526  0.3676  3.3800
  614TMC3    C7 9157   3.074   2.062  16.229 -0.6959 -0.2233  0.2855
  614TMC3    C8 9158   3.251   1.666  16.020 -0.0642 -0.7656  0.7030
  614TMC3    O1 9159   3.088   2.149  16.311  0.4196  0.1073  0.1145
  614TMC3    O2 9160   3.138   1.626  16.043 -0.1477 -0.1995 -0.2913
  615MPD2     C 9161   2.437   2.854  15.798  0.4814  0.7007 -1.0149
  615MPD2    C1 9162   2.429   2.986  15.844 -0.0554  0.0096 -0.6512
  615MPD2    C2 9163   2.377   3.074  15.759 -0.1331 -0.2764 -0.3801
  615MPD2    C3 9164   2.343   3.043  15.628 -0.2262 -0.4096  0.1849
  615MPD2    C4 9165   2.357   2.912  15.585 -0.7961  0.1055  0.0443
  615MPD2    C5 9166   2.401   2.816  15.676  0.1283  0.0647 -0.1428
  615MPD2     H 9167   2.368   3.177  15.794  0.2141 -0.3625 -0.0440
  615MPD2    H1 9168   2.345   2.885  15.481  0.8730  0.1910 -0.1635
  615MPD2    H2 9169   2.480   2.779  15.864  2.0733  2.2438 -0.2792
  615MPD2    H3 9170   2.413   2.712  15.648 -0.6460  0.2250 -1.0813
  615MPD2     N 9171   2.299   3.141  15.528 -0.2399  0.1886 -0.3246
  615MPD2    H5 9172   2.270   3.109  15.436  0.0183  1.6253 -0.8994
  615MPD2    N1 9173   2.485   3.038  15.968  0.4851  0.1718 -0.2899
  615MPD2    H7 9174   2.462   3.132  15.995  0.5916  0.8153 -2.3798
  616TMC3    C1 9175   2.586   3.035  16.174 -0.2504 -0.1664 -0.2620
  616TMC3    C2 9176   2.716   3.029  16.210 -0.6381 -0.1822  0.5441
  616TMC3    C3 9177   2.751   3.074  16.329  0.4862 -0.2128  0.3148
  616TMC3    C4 9178   2.488   3.102  16.244  0.1153  0.2184  0.0974
  616TMC3    C5 9179   2.524   3.164  16.363 -0.0006  0.0849  0.0317
  616TMC3    C6 9180   2.655   3.141  16.407  0.4547  0.0317 -0.3762
  616TMC3     C 9181   2.561   2.960  16.053 -0.0378 -0.4144  0.0909
  616TMC3     O 9182   2.628   2.863  16.021 -0.0480  0.4473  0.1132
  616TMC3     H 9183   2.784   2.968  16.151  0.7401  0.2052  1.7277
  616TMC3    H1 9184   2.389   3.096  16.200  1.1090 -0.3909 -2.0659
  616TMC3    H2 9185   2.685   3.198  16.494  1.7625 -0.5427 -0.4400
  616TMC3    C7 9186   2.435   3.230  16.453 -0.1335 -0.8138 -0.1528
  616TMC3    C8 9187   2.896   3.071  16.364  0.0524 -0.0385 -0.2385
  616TMC3    O1 9188   2.465   3.217  16.573  0.0717  0.5752 -0.2061
  616TMC3    O2 9189   2.982   3.049  16.279 -0.2301  0.8183  0.8046
  617MPD2     C 9190   0.560   1.384  13.637 -0.2739 -0.3275  0.1418
  617MPD2    C1 9191   0.547   1.310  13.756  0.4399  0.4661 -0.3451
  617MPD2    C2 9192   0.441   1.329  13.835  1.0234  0.9511  0.0031
  617MPD2    C3 9193   0.343   1.421  13.802 -0.7906 -0.1805  0.4365
  617MPD2    C4 9194   0.356   1.500  13.688  0.0866 -0.4965 -0.4423
  617MPD2    C5 9195   0.467   1.477  13.608  0.3116  0.0066 -0.8155
  617MPD2     H 9196   0.439   1.276  13.930  1.2088 -0.3877 -0.7306
  617MPD2    H1 9197   0.278   1.570  13.659 -0.2273 -0.8203 -0.3794
  617MPD2    H2 9198   0.637   1.367  13.562  1.2605 -0.2288  1.6998
  617MPD2    H3 9199   0.476   1.526  13.513  0.8378  2.2084  0.3758
  617MPD2     N 9200   0.220   1.440  13.866 -0.1890 -0.3245  0.0818
  617MPD2    H5 9201   0.172   1.521  13.830 -0.5990 -0.5784  0.0588
  617MPD2    N1 9202   0.644   1.216  13.785  0.1809  0.4669 -0.3809
  617MPD2    H7 9203   0.731   1.231  13.735 -0.0663 -0.5609 -1.1247
  618TMC3    C1 9204   0.771   1.056  13.888  0.3397  0.3659 -0.4997
  618TMC3    C2 9205   0.807   0.949  13.804  0.1550  0.7484  0.5983
  618TMC3    C3 9206   0.939   0.927  13.781 -0.4334 -0.6093 -0.5499
  618TMC3    C4 9207   0.862   1.140  13.939  0.0820  0.0884  0.2147
  618TMC3    C5 9208   0.991   1.119  13.911  0.1097 -0.7430  0.4426
  618TMC3    C6 9209   1.037   1.003  13.852  0.2334 -0.3539  0.1612
  618TMC3     C 9210   0.639   1.112  13.869 -0.2263  0.1483  0.0680
  618TMC3     O 9211   0.541   1.045  13.901  0.3242  0.3408 -0.1248
  618TMC3     H 9212   0.732   0.880  13.770 -1.1638  1.2671  2.4330
  618TMC3    H1 9213   0.830   1.214  14.010  2.3481 -0.9029  2.2723
  618TMC3    H2 9214   1.143   0.991  13.834  0.0510 -1.4518 -0.1822
  618TMC3    C7 9215   1.095   1.208  13.972  0.5552 -0.5093  0.0133
  618TMC3    C8 9216   0.979   0.873  13.655  0.6323  0.4683  0.0225
  618TMC3    O1 9217   1.088   1.226  14.096  0.0733 -0.3290  0.5406
  618TMC3    O2 9218   1.099   0.858  13.628 -0.0078  0.7167 -0.4698
  619MPD2     C 9219   1.953   2.412  13.573  0.7086  0.2613  0.7078
  619MPD2    C1 9220   1.853   2.504  13.570 -0.5345  0.0051  0.2131
  619MPD2    C2 9221   1.746   2.493  13.656  0.0459  0.2479  0.4338
  619MPD2    C3 9222   1.743   2.395  13.751  0.2077  0.0692  0.0630
  619MPD2    C4 9223   1.843   2.302  13.748 -0.2219 -0.1811  0.1498
  619MPD2    C5 9224   1.953   2.312  13.662 -0.5934 -0.5041 -0.1208
  619MPD2     H 9225   1.667   2.567  13.651  1.2535  1.5782  0.8944
  619MPD2    H1 9226   1.837   2.233  13.831 -1.0381  1.9265  1.8655
  619MPD2    H2 9227   2.042   2.418  13.512 -0.9434 -2.1521 -1.9224
  619MPD2    H3 9228   2.030   2.236  13.668 -1.9910 -1.7433  2.0659
  619MPD2     N 9229   1.651   2.395  13.855  0.1495 -0.1000  0.4332
  619MPD2    H5 9230   1.637   2.313  13.913  0.3919 -0.5345 -0.1285
  619MPD2    N1 9231   1.853   2.608  13.475 -0.2002 -0.2147 -0.0157
  619MPD2    H7 9232   1.760   2.647  13.466 -0.5494 -0.2538  3.4438
  620TMC3    C1 9233   1.911   2.758  13.312  0.1529 -0.1836  0.3511
  620TMC3    C2 9234   1.780   2.753  13.264  0.4971  0.0632  0.0040
  620TMC3    C3 9235   1.737   2.868  13.199  0.0431 -0.7492  0.7837
  620TMC3    C4 9236   1.987   2.868  13.302  0.3370 -0.7754 -0.4225
  620TMC3    C5 9237   1.956   2.978  13.234  0.0433  0.7923 -1.0318
  620TMC3    C6 9238   1.828   2.973  13.190  0.4264  0.6816 -0.6909
  620TMC3     C 9239   1.961   2.658  13.398  0.1421  0.2279 -0.2852
  620TMC3     O 9240   2.076   2.630  13.384 -0.5255 -0.0367  0.3908
  620TMC3     H 9241   1.714   2.669  13.280  0.5270 -0.6248 -3.5856
  620TMC3    H1 9242   2.079   2.863  13.360  0.0106 -0.0845  0.1534
  620TMC3    H2 9243   1.798   3.068  13.147  0.0289  0.7149 -0.3487
  620TMC3    C7 9244   1.979   3.097  13.318  0.0728 -0.8003  0.0255
  620TMC3    C8 9245   1.610   2.912  13.257  0.2702 -0.8690  1.0299
  620TMC3    O1 9246   2.088   3.152  13.311 -0.4776 -0.1653  0.3094
  620TMC3    O2 9247   1.610   3.022  13.319 -0.1467  0.1561 -0.2367
  621MPD2     C 9248   1.282   3.198   9.297  0.5339 -0.1737  0.0548
  621MPD2    C1 9249   1.410   3.176   9.339  0.2200 -0.0082  0.0422
  621MPD2    C2 9250   1.510   3.277   9.324  0.2102 -0.0086 -0.0895
  621MPD2    C3 9251   1.486   3.407   9.276  0.6120  0.1695 -0.5337
  621MPD2    C4 9252   1.352   3.430   9.244  0.0129  0.1035 -0.7267
  621MPD2    C5 9253   1.261   3.324   9.248 -0.5265 -0.9223 -0.6035
  621MPD2     H 9254   1.615   3.265   9.351  0.4310  2.2276 -0.0046
  621MPD2    H1 9255   1.313   3.525   9.207 -0.0115 -0.0432 -1.0788
  621MPD2    H2 9256   1.196   3.132   9.302 -0.1700  0.8220  1.1214
  621MPD2    H3 9257   1.158   3.353   9.230 -0.7396 -0.2101  1.7321
  621MPD2     N 9258   1.596   3.492   9.257  0.2444 -0.0238  0.5151
  621MPD2    H5 9259   1.681   3.461   9.304  1.6446 -0.2445 -2.1284
  621MPD2    N1 9260   1.450   3.048   9.386 -0.3923  0.0089  0.2520
  621MPD2    H7 9261   1.549   3.028   9.402  0.1851  1.6948 -1.2398
  622TMC3    C1 9262   1.435   2.834   9.445 -0.1077 -0.1916  0.3287
  622TMC3    C2 9263   1.407   2.794   9.575  0.0311 -0.1643 -0.9869
  622TMC3    C3 9264   1.471   2.681   9.620 -0.2118  0.6003  1.3598
  622TMC3    C4 9265   1.527   2.775   9.360 -0.0081  0.6162  0.3552
  622TMC3    C5 9266   1.578   2.655   9.415 -0.2528  0.0976  0.4006
  622TMC3    C6 9267   1.549   2.603   9.542  0.1902 -0.7405 -0.1469
  622TMC3     C 9268   1.362   2.948   9.405 -0.6275 -0.7921  0.7898
  622TMC3     O 9269   1.244   2.953   9.440  0.5269 -0.4906  0.2061
  622TMC3     H 9270   1.347   2.865   9.630  0.6243 -0.3708 -0.0608
  622TMC3    H1 9271   1.570   2.814   9.268 -0.9460  0.0055 -0.3428
  622TMC3    H2 9272   1.593   2.510   9.576  1.9307 -0.1114 -0.7259
  622TMC3    C7 9273   1.685   2.593   9.340 -0.2183 -0.0973 -0.9766
  622TMC3    C8 9274   1.441   2.651   9.756 -0.8356 -1.3469  0.1632
  622TMC3    O1 9275   1.781   2.659   9.302  0.2694 -0.2796  0.4508
  622TMC3    O2 9276   1.513   2.574   9.815  0.5135 -0.3695  0.2636
  623MPD2     C 9277   1.132   3.198  15.646 -0.9575 -0.5041  0.2331
  623MPD2    C1 9278   1.020   3.190  15.729 -0.0349 -0.5671  0.6946
  623MPD2    C2 9279   1.039   3.200  15.868  0.6172  0.1172 -0.5741
  623MPD2    C3 9280   1.167   3.229  15.918 -0.0994 -0.0837  0.3900
  623MPD2    C4 9281   1.276   3.220  15.837 -0.4031 -0.2626 -0.2141
  623MPD2    C5 9282   1.260   3.203  15.699 -0.3252  0.1286  1.2184
  623MPD2     H 9283   0.949   3.198  15.929 -0.1576 -3.9369 -1.8722
  623MPD2    H1 9284   1.379   3.227  15.869 -0.6367  0.5961  0.3671
  623MPD2    H2 9285   1.133   3.182  15.539 -1.3513 -1.3966  0.3606
  623MPD2    H3 9286   1.349   3.202  15.638  0.3132 -0.9231  2.1718
  623MPD2     N 9287   1.184   3.253  16.061 -0.0332  0.1714  0.4653
  623MPD2    H5 9288   1.099   3.243  16.115  0.9126 -0.0898  1.8835
  623MPD2    N1 9289   0.888   3.169  15.684  0.0212  0.5000 -0.0689
  623MPD2    H7 9290   0.823   3.158  15.761  0.6279 -0.6565  0.2816
  624TMC3    C1 9291   1.370   3.317  16.484  0.7203 -0.5954 -0.0894
  624TMC3    C2 9292   1.256   3.310  16.547 -0.1841  0.1549 -0.2027
  624TMC3    C3 9293   1.147   3.303  16.469  0.2099 -0.2983 -0.0663
  624TMC3    C4 9294   1.384   3.323  16.348 -0.2643 -0.4680 -0.3251
  624TMC3    C5 9295   1.276   3.301  16.269  0.3263 -0.4598  0.3048
  624TMC3    C6 9296   1.156   3.288  16.332  0.3502 -0.1651 -0.1107
  624TMC3     C 9297   1.489   3.271  16.553  0.1799 -0.2637 -0.1531
  624TMC3     O 9298   1.586   3.339  16.539  0.5524  0.0065  0.7127
  624TMC3     H 9299   1.251   3.314  16.655  0.0533  2.2637 -0.2719
  624TMC3    H1 9300   1.484   3.306  16.311 -1.2323 -2.3651 -2.1153
  624TMC3    H2 9301   1.061   3.290  16.279  1.7446  5.1554 -2.4538
  624TMC3    C7 9302   1.294   3.297  16.125  0.9410 -0.1294  0.3531
  624TMC3    C8 9303   1.015   3.298  16.524 -0.2871  0.3393 -0.5173
  624TMC3    O1 9304   1.400   3.332  16.080 -0.7912 -0.3106  0.3854
  624TMC3    O2 9305   0.932   3.241  16.458  0.4310  0.0342 -0.6896
  625MPD2     C 9306   1.285   0.111   0.688 -0.6562  0.4597 -0.1739
  625MPD2    C1 9307   1.379   0.219   0.670  0.5916 -0.4499  0.1081
  625MPD2    C2 9308   1.507   0.210   0.724  0.2427 -0.2249 -0.0867
  625MPD2    C3 9309   1.548   0.088   0.775 -0.8514 -0.4196  0.0255
  625MPD2    C4 9310   1.455   4.722   0.784 -0.6795 -0.5118  0.7360
  625MPD2    C5 9311   1.324   4.733   0.749 -0.3329  0.1065  0.2348
  625MPD2     H 9312   1.573   0.296   0.721 -4.1726  3.1990  1.1106
  625MPD2    H1 9313   1.490   4.632   0.832 -0.0734 -2.5964 -3.5762
  625MPD2    H2 9314   1.188   0.114   0.640 -0.5219 -1.9664 -0.6036
  625MPD2    H3 9315   1.256   4.649   0.758 -1.2129  0.8427  0.4985
  625MPD2     N 9316   1.681   0.080   0.817  0.1126  0.4024 -0.3647
  625MPD2    H5 9317   1.744   0.159   0.821  1.2698 -0.5272 -0.2131
  625MPD2    N1 9318   1.345   0.340   0.603 -0.2012  0.1292  0.4233
  625MPD2    H7 9319   1.401   0.424   0.614 -0.4695  0.4115 -0.3240
  626TMC3    C1 9320   1.203   0.480   0.481 -0.1570 -1.0021  0.0966
  626TMC3    C2 9321   1.129   0.490   0.362 -0.6832 -0.5622 -0.3925
  626TMC3    C3 9322   1.048   0.597   0.355  0.8391 -0.3733 -0.4987
  626TMC3    C4 9323   1.194   0.572   0.582  0.5292  0.6492  0.1770
  626TMC3    C5 9324   1.117   0.681   0.567  0.5817  0.6186 -0.3655
  626TMC3    C6 9325   1.035   0.685   0.456 -0.5826 -0.8555 -0.1977
  626TMC3     C 9326   1.244   0.345   0.509 -0.5586 -0.2082 -0.0899
  626TMC3     O 9327   1.177   0.254   0.454  0.0344 -0.5251  0.1361
  626TMC3     H 9328   1.149   0.424   0.278  1.3342 -0.4019 -0.0551
  626TMC3    H1 9329   1.249   0.560   0.675 -1.2084 -0.6859  1.0273
  626TMC3    H2 9330   0.995   0.784   0.437  0.1137 -0.5053  0.1570
  626TMC3    C7 9331   1.098   0.778   0.669 -0.4514  0.1467  0.3627
  626TMC3    C8 9332   0.978   0.615   0.232 -0.2198 -0.8299  0.1176
  626TMC3    O1 9333   1.201   0.823   0.715 -0.1269  0.1227  0.0788
  626TMC3    O2 9334   1.018   0.545   0.140 -0.5602  0.5145  0.8785
  627MPD2     C 9335   4.035   0.454  14.206  0.1340  0.3217 -0.1328
  627MPD2    C1 9336   4.121   0.346  14.222  0.2828  0.1674 -0.5349
  627MPD2    C2 9337   4.086   0.220  14.174 -0.3317  0.3285 -0.3383
  627MPD2    C3 9338   3.966   0.201  14.107  0.0753 -0.2149  0.4434
  627MPD2    C4 9339   3.881   0.307  14.094 -0.5037 -0.1251  0.2862
  627MPD2    C5 9340   3.917   0.427  14.142  0.2475  0.6264 -0.4271
  627MPD2     H 9341   4.146   0.136  14.206 -0.6798  0.7015  1.3391
  627MPD2    H1 9342   3.782   0.304  14.049  0.1057 -0.8155 -1.0109
  627MPD2    H2 9343   4.052   0.556  14.238  0.5789 -0.3239  1.6744
  627MPD2    H3 9344   3.850   0.507  14.112 -0.9231  0.1858  1.0038
  627MPD2     N 9345   3.921   0.082  14.046 -0.0432 -0.3192  0.6001
  627MPD2    H5 9346   3.837   0.083  13.989  0.9452  0.5558 -0.8353
  627MPD2    N1 9347   4.242   0.358  14.287 -0.1813  0.2131 -0.2055
  627MPD2    H7 9348   4.309   0.282  14.276  1.0530  1.2400  0.2296
  628TMC3    C1 9349   4.417   0.470  14.391 -0.1554  0.6153  0.2749
  628TMC3    C2 9350   4.503   0.388  14.324  0.0582  0.1454  0.8861
  628TMC3    C3 9351   4.624   0.373  14.382  0.2591 -0.1684  0.1785
  628TMC3    C4 9352   4.456   0.564  14.483  0.7914 -0.8890  0.2782
  628TMC3    C5 9353   4.589   0.555  14.520  0.8100  0.6483  0.2865
  628TMC3    C6 9354   4.671   0.464  14.472 -0.2619  0.4588 -0.0463
  628TMC3     C 9355   4.276   0.465  14.364 -0.0813  0.2671 -0.9429
  628TMC3     O 9356   4.208   0.553  14.421 -0.6450 -0.2644 -0.4528
  628TMC3     H 9357   4.478   0.334  14.234  1.6184 -0.8500  1.0681
  628TMC3    H1 9358   4.386   0.639  14.518  2.3355  0.7467 -0.1481
  628TMC3    H2 9359   0.041   0.472  14.480 -0.0037 -1.9531 -0.9213
  628TMC3    C7 9360   4.648   0.667  14.588 -0.6125 -0.0204  0.4544
  628TMC3    C8 9361   4.706   0.267  14.327  0.1972 -0.2781  0.9302
  628TMC3    O1 9362   0.025   0.644  14.626 -0.4608 -0.1659  0.1014
  628TMC3    O2 9363   4.666   0.211  14.225  0.0646  0.3102  0.1874
  629MPD2     C 9364   3.235   3.177  16.727 -0.3980 -0.0501  0.4218
  629MPD2    C1 9365   3.267   3.170  16.594  0.4047 -0.3686  0.0943
  629MPD2    C2 9366   3.157   3.140  16.510 -0.4184  0.7024 -0.2802
  629MPD2    C3 9367   3.022   3.128  16.561 -1.0741  0.2364 -0.0962
  629MPD2    C4 9368   3.007   3.143  16.696 -0.7974 -0.0175 -1.0678
  629MPD2    C5 9369   3.112   3.157  16.779 -0.4745 -0.1341 -0.4384
  629MPD2     H 9370   3.170   3.149  16.403 -0.7880  1.6778 -0.2448
  629MPD2    H1 9371   2.905   3.136  16.733  0.7174 -1.8283  2.7273
  629MPD2    H2 9372   3.312   3.196  16.801 -0.1184 -1.4162  0.4988
  629MPD2    H3 9373   3.089   3.164  16.885 -0.0634 -1.7681 -0.2449
  629MPD2     N 9374   2.905   3.109  16.491  0.2632  0.2450 -0.6083
  629MPD2    H5 9375   2.819   3.110  16.545  1.3903 -0.6073  1.2191
  629MPD2    N1 9376   3.404   3.208  16.549 -0.2451  0.7444  0.1885
  629MPD2    H7 9377   3.472   3.238  16.618  0.9159  0.9836 -1.0605
  630TMC3    C1 9378   3.555   3.299  16.403 -0.3960  1.0110  0.1179
  630TMC3    C2 9379   3.557   3.385  16.301  0.8571 -0.4605  0.3606
  630TMC3    C3 9380   3.635   3.500  16.321  0.0904 -0.2262  0.3425
  630TMC3    C4 9381   3.621   3.319  16.520 -0.2101 -0.5690  0.5123
  630TMC3    C5 9382   3.695   3.432  16.536  0.4611  0.5839  0.3680
  630TMC3    C6 9383   3.706   3.525  16.435 -0.1542 -0.0328 -0.8224
  630TMC3     C 9384   3.428   3.225  16.412  0.3066 -0.4772  1.1188
  630TMC3     O 9385   3.352   3.224  16.318  0.1015  0.0775  0.1191
  630TMC3     H 9386   3.512   3.362  16.205 -0.7996  1.8236  0.5950
  630TMC3    H1 9387   3.643   3.233  16.582 -0.6240 -1.3525 -0.4334
  630TMC3    H2 9388   3.776   3.607  16.429  1.2972 -1.3944 -2.3179
  630TMC3    C7 9389   3.728   3.472  16.676 -0.1344 -0.6055 -0.1687
  630TMC3    C8 9390   3.657   3.588  16.207 -0.1393 -0.1895 -0.0401
  630TMC3    O1 9391   3.671   3.405  16.757  0.7297  0.2685  0.2412
  630TMC3    O2 9392   3.767   3.639  16.194  0.0411 -0.0936  0.2297
  631MPD2     C 9393   1.463   3.620  15.728 -0.1685 -0.2492 -0.4647
  631MPD2    C1 9394   1.499   3.684  15.614 -0.7218  0.4958 -0.0046
  631MPD2    C2 9395   1.599   3.639  15.529 -0.0309  0.0000 -0.5547
  631MPD2    C3 9396   1.666   3.526  15.573  0.0050  0.3290 -0.1918
  631MPD2    C4 9397   1.629   3.455  15.680 -0.0751  0.3773 -0.1922
  631MPD2    C5 9398   1.522   3.499  15.755  0.0695  1.2112 -0.3014
  631MPD2     H 9399   1.641   3.703  15.452 -0.7724 -0.4533 -1.3444
  631MPD2    H1 9400   1.680   3.368  15.719 -1.7885 -0.2509  0.6506
  631MPD2    H2 9401   1.385   3.644  15.800  0.1771  0.1769 -0.2319
  631MPD2    H3 9402   1.490   3.436  15.837 -0.2011 -1.5359 -2.4966
  631MPD2     N 9403   1.773   3.494  15.486  0.3556  0.0336 -0.1240
  631MPD2    H5 9404   1.784   3.569  15.417 -0.1207 -0.5496 -0.8271
  631MPD2    N1 9405   1.435   3.812  15.583  0.3628 -0.2642 -0.1494
  631MPD2    H7 9406   1.372   3.846  15.655 -0.3790 -0.9369 -0.4804
  632TMC3    C1 9407   1.413   4.019  15.478 -0.3610 -0.4777  0.6034
  632TMC3    C2 9408   1.359   4.070  15.592  0.0429 -0.0611 -0.2650
  632TMC3    C3 9409   1.309   4.197  15.584 -0.0282  0.2616 -0.0141
  632TMC3    C4 9410   1.419   4.085  15.357 -0.1378 -0.2976  0.2242
  632TMC3    C5 9411   1.371   4.212  15.357 -0.5408  0.4771 -0.2767
  632TMC3    C6 9412   1.314   4.274  15.465 -0.3544 -0.2064  0.2340
  632TMC3     C 9413   1.453   3.879  15.471 -0.0088  0.8219  0.4870
  632TMC3     O 9414   1.515   3.849  15.369 -0.0721 -0.2632 -0.3159
  632TMC3     H 9415   1.342   4.019  15.686 -2.3077  1.2356  0.0055
  632TMC3    H1 9416   1.470   4.044  15.270 -0.2772 -0.5256  0.2489
  632TMC3    H2 9417   1.277   4.376  15.475 -2.2293 -0.8211 -0.4670
  632TMC3    C7 9418   1.424   4.308  15.265 -0.0036  0.4485 -0.1666
  632TMC3    C8 9419   1.210   4.232  15.680 -0.2592 -0.6372  0.0811
  632TMC3    O1 9420   1.478   4.412  15.302  0.6695  0.1769 -0.2300
  632TMC3    O2 9421   1.225   4.207  15.799  0.0306  0.1027  0.2546
  633MPD2     C 9422   1.071   1.825  17.462  0.2036  0.7520  0.5833
  633MPD2    C1 9423   1.137   1.755  17.364 -0.6506 -0.2070  0.2557
  633MPD2    C2 9424   1.193   1.630  17.396 -0.2889 -0.5700  0.8366
  633MPD2    C3 9425   1.158   1.576  17.519  0.5609  0.4555 -0.2486
  633MPD2    C4 9426   1.074   1.644  17.605  0.4196  0.2956  0.3805
  633MPD2    C5 9427   1.036   1.772  17.577 -0.1230  0.4424  0.4558
  633MPD2     H 9428   1.255   1.580  17.323 -0.4120 -0.7476  0.8549
  633MPD2    H1 9429   1.034   1.596  17.693  1.5907  0.6834  1.1174
  633MPD2    H2 9430   1.028   1.922  17.440 -2.0239 -1.0755 -3.2766
  633MPD2    H3 9431   0.980   1.826  17.653 -0.4181  2.6060 -1.3019
  633MPD2     N 9432   1.185   1.441  17.549  0.5620  0.1141  0.0071
  633MPD2    H5 9433   1.120   1.418  17.624  0.1449 -2.4498 -1.1193
  633MPD2    N1 9434   1.167   1.809  17.242  0.4460  0.0159  0.4210
  633MPD2    H7 9435   1.233   1.753  17.189 -1.5692 -0.4657 -1.5528
  634TMC3    C1 9436   1.131   1.914  17.035 -0.1469  0.3477 -0.0615
  634TMC3    C2 9437   1.174   1.798  16.970 -0.1991 -0.6158  0.4701
  634TMC3    C3 9438   1.206   1.818  16.832 -0.0636  1.1846 -0.8043
  634TMC3    C4 9439   1.112   2.031  16.969 -0.1302 -0.4939 -0.2078
  634TMC3    C5 9440   1.150   2.050  16.841  0.1021 -0.3318 -0.8658
  634TMC3    C6 9441   1.189   1.938  16.770 -0.2211 -0.4722  0.1268
  634TMC3     C 9442   1.118   1.918  17.176 -0.6018  0.0983 -0.6268
  634TMC3     O 9443   1.068   2.023  17.218 -0.0823  0.0392 -0.5031
  634TMC3     H 9444   1.198   1.709  17.027 -0.5306 -0.0554  1.5053
  634TMC3    H1 9445   1.082   2.125  17.015  0.2924 -0.5004  0.0762
  634TMC3    H2 9446   1.209   1.943  16.663  2.1384 -0.0384  0.5819
  634TMC3    C7 9447   1.132   2.168  16.762 -0.4734  0.0525 -0.3648
  634TMC3    C8 9448   1.242   1.704  16.752 -0.4931  0.1065 -0.4102
  634TMC3    O1 9449   1.189   2.171  16.655 -0.8395  0.3961  0.2969
  634TMC3    O2 9450   1.235   1.593  16.810  0.6025 -0.3741  0.2367
  635TMC3    C1 9451   0.748   3.123   0.813 -0.4245  0.0068 -0.0384
  635TMC3    C2 9452   0.759   3.188   0.695 -0.5344  0.0746 -0.3653
  635TMC3    C3 9453   0.638   3.234   0.635 -0.2565  0.0430  0.5173
  635TMC3    C4 9454   0.630   3.090   0.885 -0.1185  0.1868  0.0303
  635TMC3    C5 9455   0.517   3.139   0.821 -0.7414  0.1017 -0.2382
  635TMC3    C6 9456   0.510   3.207   0.698 -0.7262  0.6268  0.0671
  635TMC3     C 9457   0.862   3.078   0.881 -0.5811  0.1702 -0.0082
  635TMC3     O 9458   0.855   2.979   0.953 -0.4684  0.4314 -0.2423
  635TMC3     H 9459   0.849   3.180   0.637 -0.0142  1.2533  0.2710
  635TMC3    H1 9460   0.632   3.054   0.987 -2.2558  1.8388  0.6653
  635TMC3    H2 9461   0.427   3.259   0.650 -2.3374 -2.6442 -0.6936
  635TMC3    C7 9462   0.398   3.125   0.903 -0.2079 -0.9564  0.0804
  635TMC3    C8 9463   0.645   3.275   0.495  0.6512 -0.3202  0.2814
  635TMC3    O1 9464   0.410   3.122   1.021 -0.1046 -0.0721 -0.1137
  635TMC3    O2 9465   0.757   3.284   0.449  0.3019 -0.1628 -0.0014
  636MPD2     C 9466   2.502   1.918  16.192  0.5832  0.3016  0.3572
  636MPD2    C1 9467   2.599   1.943  16.288 -0.2353 -0.1610 -0.4612
  636MPD2    C2 9468   2.701   1.850  16.307  0.3348 -0.5023  0.0891
  636MPD2    C3 9469   2.703   1.727  16.244 -0.0174 -0.0379  0.6344
  636MPD2    C4 9470   2.597   1.699  16.162 -0.7465  0.5908  0.2803
  636MPD2    C5 9471   2.515   1.799  16.123  0.5703 -0.7181 -0.7700
  636MPD2     H 9472   2.775   1.870  16.384 -0.6765  0.3858  0.8199
  636MPD2    H1 9473   2.591   1.606  16.106 -1.6755  1.0201 -0.3278
  636MPD2    H2 9474   2.431   1.993  16.160 -0.0633 -1.1144 -1.4978
  636MPD2    H3 9475   2.446   1.774  16.043 -1.6848  2.1142  0.2650
  636MPD2     N 9476   2.811   1.636  16.270  0.2729  0.4781 -0.1142
  636MPD2    H5 9477   2.881   1.671  16.335 -0.3937 -0.2781  1.0088
  636MPD2    N1 9478   2.598   2.068  16.363  0.2433  0.1802 -0.8850
  636MPD2    H7 9479   2.680   2.084  16.420  0.2928  0.1513 -0.9497
  637TMC3    C1 9480   2.948   1.440  16.259  0.1088 -0.3019 -0.4700
  637TMC3    C2 9481   3.045   1.510  16.330  0.3697  0.6454  0.2504
  637TMC3    C3 9482   3.164   1.449  16.346  0.5671 -0.5256 -0.2621
  637TMC3    C4 9483   2.972   1.318  16.207  0.7735 -0.0128 -0.4498
  637TMC3    C5 9484   3.096   1.262  16.220 -0.3047  0.6647 -0.4176
  637TMC3    C6 9485   3.192   1.318  16.300 -0.6872 -0.0347 -0.1319
  637TMC3     C 9486   2.834   1.516  16.214 -0.1049 -0.3859  0.2101
  637TMC3     O 9487   2.770   1.458  16.129 -0.2357  0.6237 -0.3258
  637TMC3     H 9488   3.037   1.607  16.378  0.8053  1.2724 -0.9339
  637TMC3    H1 9489   2.895   1.267  16.150 -1.4751  0.5313  2.1165
  637TMC3    H2 9490   3.293   1.279  16.311 -0.4832  0.9021  1.2849
  637TMC3    C7 9491   3.124   1.145  16.146 -0.1766  0.2679  0.8872
  637TMC3    C8 9492   3.282   1.538  16.354 -0.2198  0.3020 -0.5491
  637TMC3    O1 9493   3.044   1.053  16.164 -0.3251  0.0635  0.1044
  637TMC3    O2 9494   3.261   1.652  16.391  0.0813  0.3147  0.1679
  638MPD2     C 9495   2.264   0.774  14.982  0.2074  0.6259  0.8110
  638MPD2    C1 9496   2.207   0.718  14.870 -0.5177 -0.4805  0.1933
  638MPD2    C2 9497   2.147   0.591  14.884  0.6095  0.4344 -0.1504
  638MPD2    C3 9498   2.149   0.524  15.003  0.3155  0.0544 -0.3915
  638MPD2    C4 9499   2.214   0.581  15.111 -0.5117 -0.5804 -0.0574
  638MPD2    C5 9500   2.259   0.710  15.098 -0.5562 -0.2569 -0.4986
  638MPD2     H 9501   2.092   0.535  14.810  2.4376  0.9970 -1.9345
  638MPD2    H1 9502   2.198   0.534  15.208  2.1485  0.8398  1.0663
  638MPD2    H2 9503   2.311   0.872  14.987  0.9201  0.2476  1.5400
  638MPD2    H3 9504   2.307   0.770  15.175  1.3387 -1.6527 -0.6115
  638MPD2     N 9505   2.101   0.392  15.005  0.4468 -0.5633 -0.0879
  638MPD2    H5 9506   2.069   0.352  14.917 -1.7244 -1.7020  1.2005
  638MPD2    N1 9507   2.205   0.796  14.750  0.5860 -0.2835 -0.1187
  638MPD2    H7 9508   2.287   0.855  14.736  0.1424  0.0078 -1.4221
  639TMC3    C1 9509   2.066   0.163  15.046 -0.2822 -0.1630  0.1476
  639TMC3    C2 9510   1.970   0.146  14.944 -0.0369  0.5092  0.1514
  639TMC3    C3 9511   1.977   0.026  14.878 -0.3937 -0.0466  0.1955
  639TMC3    C4 9512   2.149   0.060  15.094  0.7015 -0.1691 -0.1735
  639TMC3    C5 9513   2.148   4.686  15.016 -0.2244 -0.2125  0.1392
  639TMC3    C6 9514   2.064   4.668  14.913 -0.0001  0.3498 -0.4598
  639TMC3     C 9515   2.093   0.297  15.100 -0.1276  0.2511 -0.2872
  639TMC3     O 9516   2.133   0.292  15.215 -0.2613 -0.4541 -0.0277
  639TMC3     H 9517   1.900   0.219  14.904  0.6594 -0.6638 -3.1857
  639TMC3    H1 9518   2.232   0.075  15.161  1.3207 -1.5304 -0.6232
  639TMC3    H2 9519   2.063   4.568  14.870  2.8064  0.7756 -1.5185
  639TMC3    C7 9520   2.269   4.610  15.018 -0.2076 -0.0392  0.2222
  639TMC3    C8 9521   1.903   4.733  14.752 -0.7066  0.3938  0.3572
  639TMC3    O1 9522   2.333   4.612  15.126 -0.0690 -0.1590 -0.4182
  639TMC3    O2 9523   1.964   4.666  14.675  0.1468  0.0642 -0.1763
  640MPD2     C 9524   2.189   4.363   8.936  0.2847 -0.1480  0.4969
  640MPD2    C1 9525   2.209   4.444   9.045 -0.1210  0.7610  0.5326
  640MPD2    C2 9526   2.108   4.471   9.133  0.2668 -0.0319 -0.2003
  640MPD2    C3 9527   1.985   4.413   9.122 -0.3521 -0.1225  0.3232
  640MPD2    C4 9528   1.962   4.338   9.007  0.0665  0.0918  0.0380
  640MPD2    C5 9529   2.060   4.315   8.911  0.5794 -0.4166 -0.4350
  640MPD2     H 9530   2.135   4.532   9.218  1.3130  0.4329 -0.8552
  640MPD2    H1 9531   1.866   4.295   8.980  0.3790  1.3343 -3.0261
  640MPD2    H2 9532   2.278   4.335   8.880 -0.3928 -2.4813  0.5972
  640MPD2    H3 9533   2.033   4.257   8.824  0.9919  1.7549 -2.0212
  640MPD2     N 9534   1.882   4.431   9.213 -0.7626 -0.2774  0.5876
  640MPD2    H5 9535   1.788   4.400   9.190 -1.2127 -0.7163  3.0025
  640MPD2    N1 9536   2.345   4.487   9.059 -0.0316 -0.0804 -1.0932
  640MPD2    H7 9537   2.405   4.447   8.988  0.4262 -2.4516  0.6119
  641TMC3    C1 9538   2.539   4.567   9.162  0.1004 -0.5293  0.1104
  641TMC3    C2 9539   2.598   4.443   9.146  0.2562 -0.2450  0.5966
  641TMC3    C3 9540   2.719   4.424   9.199 -0.5110 -0.5922 -0.5367
  641TMC3    C4 9541   2.598   4.661   9.239 -0.1929  0.0498 -0.1231
  641TMC3    C5 9542   2.709   4.630   9.307  0.2822 -1.1404 -0.0969
  641TMC3    C6 9543   2.776   4.506   9.298  0.3687 -0.2785 -0.2640
  641TMC3     C 9544   2.396   4.575   9.150 -0.1954 -0.1635 -0.9509
  641TMC3     O 9545   2.332   4.655   9.217 -0.6711 -1.1158  0.1821
  641TMC3     H 9546   2.561   4.379   9.067  1.5552 -0.1536 -0.0832
  641TMC3    H1 9547   2.546   0.016   9.260 -0.4052 -0.6144  2.3846
  641TMC3    H2 9548   2.872   4.499   9.346 -1.0588 -2.3453  2.2726
  641TMC3    C7 9549   2.755   4.727   9.400  0.6542 -0.2249  0.9529
  641TMC3    C8 9550   2.769   4.288   9.204  0.1764 -0.2498  0.0655
  641TMC3    O1 9551   2.741   0.104   9.365 -0.5068 -0.2569  0.5626
  641TMC3    O2 9552   2.738   4.213   9.114  0.0975  0.3898  0.2967
  642TMC3    C1 9553   3.900   0.480  11.969  0.0240  0.2142  0.2103
  642TMC3    C2 9554   3.957   0.492  11.853 -0.7877 -0.5087  1.2079
  642TMC3    C3 9555   3.954   0.387  11.770 -0.2089 -0.1933  0.0084
  642TMC3    C4 9556   3.832   0.369  12.010  1.1720  0.2440 -0.4334
  642TMC3    C5 9557   3.825   0.259  11.921  0.3381  0.4206 -0.4716
  642TMC3    C6 9558   3.877   0.276  11.795 -0.1605  0.3786  0.3507
  642TMC3     C 9559   3.886   0.605  12.035  0.7237  0.9914 -0.2605
  642TMC3     O 9560   3.995   0.657  12.058  0.7877  0.1854  0.3977
  642TMC3     H 9561   3.989   0.593  11.830  0.7387 -1.1583  0.4573
  642TMC3    H1 9562   3.795   0.363  12.112  0.1842 -1.0805 -0.8722
  642TMC3    H2 9563   3.855   0.200  11.721  0.7168  0.6375 -0.1839
  642TMC3    C7 9564   3.751   0.144  11.953 -0.0308 -0.0887  0.4949
  642TMC3    C8 9565   3.965   0.424  11.633 -0.0814  0.5891 -0.5419
  642TMC3    O1 9566   3.702   0.076  11.864 -0.6870 -0.0393 -0.2391
  642TMC3    O2 9567   3.883   0.381  11.548  0.4234  0.2533 -0.2360
  643TMC3    C1 9568   2.914   4.168   0.134 -0.0590  0.3453 -0.2867
  643TMC3    C2 9569   2.784   4.125   0.109  0.3000 -0.5320 -0.3600
  643TMC3    C3 9570   2.755   4.033   0.009 -0.2458  0.7196  0.4129
  643TMC3    C4 9571   3.016   4.135   0.055  0.3768  0.4011 -0.5479
  643TMC3    C5 9572   2.982   4.045  17.698 -0.1548 -0.4042 -0.1042
  643TMC3    C6 9573   2.860   3.983  17.679  0.3551 -0.0818  0.3898
  643TMC3     C 9574   2.942   4.238   0.256 -0.0799  1.3057  0.0534
  643TMC3     O 9575   2.846   4.272   0.325 -0.4422  0.3891  0.7117
  643TMC3     H 9576   2.703   4.175   0.160  0.9783  1.0575 -0.8226
  643TMC3    H1 9577   3.110   4.187   0.042  1.8478 -1.4088  2.7307
  643TMC3    H2 9578   2.827   3.936  17.587  3.1252 -1.7470  0.2425
  643TMC3    C7 9579   3.056   4.061  17.569  0.1767 -0.2432  0.5768
  643TMC3    C8 9580   2.669   4.075  17.648 -0.5721 -0.8811  0.6180
  643TMC3    O1 9581   3.132   4.154  17.558 -0.2799  0.5855  0.3650
  643TMC3    O2 9582   2.609   3.979  17.602  0.1390 -0.1801  0.2568
  644MPD2     C 9583   2.976   4.418   8.972 -0.2903  0.3491  0.0605
  644MPD2    C1 9584   3.084   4.419   9.057  0.6304  0.4429 -0.7483
  644MPD2    C2 9585   3.113   4.535   9.126 -0.4102 -0.5329 -0.1949
  644MPD2    C3 9586   3.036   4.651   9.115  0.3623  0.1925  0.2369
  644MPD2    C4 9587   2.928   4.651   9.024  0.0030 -1.0820 -0.2366
  644MPD2    C5 9588   2.906   4.537   8.952 -0.0487  0.0363  0.4697
  644MPD2     H 9589   3.197   4.539   9.193  0.1963 -0.2944 -0.9703
  644MPD2    H1 9590   2.872   0.004   9.003 -0.6632 -0.6399  3.3293
  644MPD2    H2 9591   2.943   4.326   8.924  0.5402 -0.5039  1.1195
  644MPD2    H3 9592   2.828   4.545   8.877  0.5200 -0.0588 -0.1354
  644MPD2     N 9593   3.063   0.020   9.202  0.4133  0.3042 -0.1208
  644MPD2    H5 9594   3.132   0.003   9.274 -1.8117 -2.1970  1.4225
  644MPD2    N1 9595   3.144   4.294   9.072  0.3240 -0.3195  0.2434
  644MPD2    H7 9596   3.103   4.222   9.013  1.7316  0.3361 -1.5404
  645TMC3    C1 9597   3.097   0.229   9.275  0.1271 -0.0537  0.3094
  645TMC3    C2 9598   3.233   0.224   9.262 -0.4721  0.0145  0.3207
  645TMC3    C3 9599   3.305   0.318   9.337  0.4302 -0.0830 -0.5341
  645TMC3    C4 9600   3.030   0.329   9.346  0.4451  0.1725 -1.0030
  645TMC3    C5 9601   3.108   0.423   9.402 -0.5906 -0.1163  0.3427
  645TMC3    C6 9602   3.244   0.423   9.396  0.1176 -0.0991  0.8531
  645TMC3     C 9603   3.020   0.146   9.189 -0.0612  0.2152 -0.4078
  645TMC3     O 9604   2.931   0.191   9.119 -0.1645  0.0041 -1.0755
  645TMC3     H 9605   3.285   0.157   9.194  2.4456  2.8093 -0.2220
  645TMC3    H1 9606   2.922   0.324   9.360  0.5335  0.5874 -0.1896
  645TMC3    H2 9607   3.306   0.486   9.459  2.2930  0.0467 -1.4561
  645TMC3    C7 9608   3.041   0.522   9.491  0.9543  0.0184  0.0023
  645TMC3    C8 9609   3.449   0.329   9.315  0.2615 -0.2103  0.0138
  645TMC3    O1 9610   2.925   0.499   9.529  0.2041  0.1212 -0.4015
  645TMC3    O2 9611   3.518   0.229   9.289 -0.1908 -0.2270 -0.0114
  646MPD2     C 9612   2.388   4.204  14.116 -0.2075 -0.5012  0.2696
  646MPD2    C1 9613   2.295   4.146  14.207  0.4471 -0.2270 -0.4206
  646MPD2    C2 9614   2.165   4.187  14.198  0.4627  0.3830 -0.2203
  646MPD2    C3 9615   2.123   4.270  14.097  0.9408  0.0883  0.2426
  646MPD2    C4 9616   2.216   4.330  14.013  0.1920  0.6183 -0.2423
  646MPD2    C5 9617   2.346   4.297  14.021 -0.2291  0.2652  1.1473
  646MPD2     H 9618   2.091   4.142  14.264  0.4466 -0.3994 -0.7777
  646MPD2    H1 9619   2.180   4.407  13.946  2.0458  1.1260 -0.6713
  646MPD2    H2 9620   2.495   4.186  14.119  0.0190  0.6920 -0.5638
  646MPD2    H3 9621   2.423   4.347  13.963 -0.2686 -0.4434  0.4959
  646MPD2     N 9622   1.993   4.318  14.097 -0.1395 -0.1479 -0.4785
  646MPD2    H5 9623   1.934   4.315  14.180 -0.5896 -0.2931 -0.8093
  646MPD2    N1 9624   2.354   4.068  14.308  0.1999  0.6079  0.2090
  646MPD2    H7 9625   2.454   4.056  14.306 -0.0856 -1.5959 -1.6452
  647TMC3    C1 9626   2.365   3.978  14.533  0.4205  1.3145  0.1935
  647TMC3    C2 9627   2.296   3.897  14.618 -0.7231 -0.2353  0.2335
  647TMC3    C3 9628   2.350   3.803  14.687 -0.1996  0.0439  0.8260
  647TMC3    C4 9629   2.500   3.952  14.517  0.6511 -0.1474 -0.4534
  647TMC3    C5 9630   2.550   3.844  14.582 -0.0316  0.4321  1.1202
  647TMC3    C6 9631   2.483   3.771  14.675  0.5437  0.0437  0.2214
  647TMC3     C 9632   2.286   4.033  14.426  0.3359  0.2727 -1.1873
  647TMC3     O 9633   2.170   4.050  14.442  0.1256  0.2344  0.3638
  647TMC3     H 9634   2.188   3.891  14.606 -0.6236 -0.2770 -0.7078
  647TMC3    H1 9635   2.571   3.999  14.449 -0.2816  2.8311  0.6133
  647TMC3    H2 9636   2.532   3.685  14.719 -1.7041 -0.8815  0.9184
  647TMC3    C7 9637   2.668   3.787  14.530 -0.1191 -0.6609  1.0262
  647TMC3    C8 9638   2.271   3.729  14.785 -0.2213 -0.5455  0.0328
  647TMC3    O1 9639   2.668   3.667  14.501 -0.1805 -0.7393  0.1411
  647TMC3    O2 9640   2.145   3.733  14.775  0.2567 -0.0467 -0.4493
  648TMC3    C1 9641   1.787   1.612  16.155  0.0945  0.4803 -0.6558
  648TMC3    C2 9642   1.839   1.503  16.100  0.0275  0.8797  0.0255
  648TMC3    C3 9643   1.857   1.493  15.969 -0.4658 -0.8905 -0.0391
  648TMC3    C4 9644   1.754   1.718  16.080  0.3625 -0.2681 -0.2270
  648TMC3    C5 9645   1.776   1.707  15.945  0.0702  0.0216 -0.3385
  648TMC3    C6 9646   1.828   1.596  15.887 -0.8072 -0.4066  0.5238
  648TMC3     C 9647   1.807   1.630  16.303 -0.2191  0.0067  0.1885
  648TMC3     O 9648   1.840   1.744  16.340 -0.1632  0.0270 -0.7237
  648TMC3     H 9649   1.873   1.424  16.165 -1.4016 -0.9995 -1.5140
  648TMC3    H1 9650   1.693   1.796  16.124 -1.7216 -1.2554 -1.3495
  648TMC3    H2 9651   1.849   1.580  15.782 -0.1630  2.3854  0.2467
  648TMC3    C7 9652   1.749   1.818  15.859 -0.2846 -0.2297 -0.6162
  648TMC3    C8 9653   1.909   1.373  15.909  0.0397 -0.5305 -0.2464
  648TMC3    O1 9654   1.791   1.804  15.745  0.1639  0.6690  0.1489
  648TMC3    O2 9655   1.943   1.376  15.790 -0.4936  0.0337 -0.3183
  649TMC3    C1 9656   0.878   2.884  12.780 -0.3916 -0.3660 -0.4304
  649TMC3    C2 9657   1.000   2.870  12.719 -0.0744 -0.3416 -0.1086
  649TMC3    C3 9658   1.103   2.814  12.790 -0.1131  0.2890 -0.0912
  649TMC3    C4 9659   0.853   2.847  12.911 -0.7425  0.2031  0.0313
  649TMC3    C5 9660   0.950   2.765  12.964 -0.7506 -0.1827 -0.0681
  649TMC3    C6 9661   1.085   2.760  12.917 -0.1115  0.3016 -0.4943
  649TMC3     C 9662   0.760   2.939  12.708  0.5708 -0.3054  0.6045
  649TMC3     O 9663   0.655   2.950  12.770  0.1900  0.2476 -0.1829
  649TMC3     H 9664   1.013   2.886  12.612 -0.0426  1.8536  0.2173
  649TMC3    H1 9665   0.757   2.869  12.958 -0.6451 -0.9000  0.7426
  649TMC3    H2 9666   1.163   2.710  12.974 -0.4742 -0.3635 -0.5812
  649TMC3    C7 9667   0.905   2.708  13.093 -0.6207  1.1094  0.3792
  649TMC3    C8 9668   1.238   2.812  12.734  0.2276  0.7122  0.0296
  649TMC3    O1 9669   0.817   2.773  13.148 -0.2000  0.1561 -0.1170
  649TMC3    O2 9670   1.326   2.770  12.803  0.6043 -0.4870  0.4003
  650TMC3    C1 9671   3.428   4.416  12.589 -0.2713 -0.2548  0.4718
  650TMC3    C2 9672   3.392   4.541  12.633 -0.1594 -0.1145  0.1159
  650TMC3    C3 9673   3.260   4.564  12.652 -0.0856  0.4463  0.2820
  650TMC3    C4 9674   3.332   4.319  12.557 -0.3278  0.9048 -0.5451
  650TMC3    C5 9675   3.206   4.348  12.581 -0.7463 -0.4273  0.1078
  650TMC3    C6 9676   3.164   4.466  12.634  0.4367  0.0233 -0.5657
  650TMC3     C 9677   3.565   4.367  12.611  0.1600 -0.1058  0.1994
  650TMC3     O 9678   3.651   4.444  12.655  0.4928 -0.2241  0.2124
  650TMC3     H 9679   3.469   4.613  12.658  1.9285 -1.7674 -1.4976
  650TMC3    H1 9680   3.360   4.228  12.507 -1.1153  0.5215 -0.2990
  650TMC3    H2 9681   3.057   4.484  12.630  0.3329 -0.0062  1.9692
  650TMC3    C7 9682   3.125   4.290  12.475  0.5590 -0.0510  0.4832
  650TMC3    C8 9683   3.222   4.703  12.678 -0.2062  0.2394  0.6123
  650TMC3    O1 9684   3.107   4.172  12.492 -0.3235  0.7537 -0.1499
  650TMC3    O2 9685   3.315   0.051  12.658  0.0349 -0.1721 -0.1283
  651MPD2     C 9686   1.547   1.571  10.465 -0.4492  0.4897 -0.6522
  651MPD2    C1 9687   1.514   1.702  10.457  0.0361 -0.2060  0.1560
  651MPD2    C2 9688   1.601   1.800  10.394 -0.1066  0.5964 -0.7267
  651MPD2    C3 9689   1.724   1.759  10.355  0.0412  0.0680 -0.2199
  651MPD2    C4 9690   1.764   1.624  10.365  1.0439 -0.4091 -0.0005
  651MPD2    C5 9691   1.668   1.534  10.418  0.0133  0.4086 -0.8031
  651MPD2     H 9692   1.561   1.897  10.367  0.0854  0.3033 -2.0270
  651MPD2    H1 9693   1.858   1.585  10.328 -0.0642 -2.8807 -0.2089
  651MPD2    H2 9694   1.499   1.501  10.533  1.0792  0.4494  0.3917
  651MPD2    H3 9695   1.695   1.430  10.406 -1.3601  0.1655 -1.8252
  651MPD2     N 9696   1.810   1.858  10.304 -0.1373 -0.7908  0.6820
  651MPD2    H5 9697   1.770   1.952  10.303  0.2616 -0.6274  0.2574
  651MPD2    N1 9698   1.387   1.752  10.505  0.1059 -0.9429 -0.5605
  651MPD2    H7 9699   1.377   1.852  10.497 -2.2797 -0.9007  3.1069
  652TMC3    C1 9700   2.204   2.087  10.305 -0.4124 -0.0994 -0.9950
  652TMC3    C2 9701   2.143   1.972  10.300 -0.5161  0.1306  1.1336
  652TMC3    C3 9702   2.012   1.970  10.277  0.0276 -0.1243 -0.4137
  652TMC3    C4 9703   2.140   2.201  10.259  0.5069  0.1381 -0.1611
  652TMC3    C5 9704   2.018   2.189  10.199  0.7011 -0.1411  0.3804
  652TMC3    C6 9705   1.947   2.075  10.215  0.0614  0.3707  0.2696
  652TMC3     C 9706   2.315   2.090  10.404  0.2214  0.1730  0.2917
  652TMC3     O 9707   2.356   1.985  10.451 -0.2584 -0.3512 -0.4885
  652TMC3     H 9708   2.182   1.887  10.355 -0.7042  0.1865  1.3579
  652TMC3    H1 9709   2.194   2.296  10.259  0.7384  0.0133 -1.6288
  652TMC3    H2 9710   1.840   2.065  10.199  0.2681 -0.6112 -0.5642
  652TMC3    C7 9711   1.932   2.304  10.201 -0.3029 -0.2114 -0.2044
  652TMC3    C8 9712   1.941   1.840  10.284 -0.7142 -0.3094 -0.3074
  652TMC3    O1 9713   1.812   2.282  10.196 -0.1100  0.4059  0.2327
  652TMC3    O2 9714   2.007   1.743  10.304  0.1133 -0.1233  0.0532
  653MPD2     C 9715   0.689   1.797  17.524 -0.5475 -0.5021 -0.0397
  653MPD2    C1 9716   0.646   1.879  17.423  0.0847 -0.4406  0.1928
  653MPD2    C2 9717   0.606   1.829  17.305  0.2979  0.2445  0.7841
  653MPD2    C3 9718   0.608   1.695  17.285 -1.0699  0.5626  0.8497
  653MPD2    C4 9719   0.662   1.610  17.381 -1.0343 -0.2467 -0.4543
  653MPD2    C5 9720   0.700   1.663  17.504  0.9051 -0.6399 -0.3279
  653MPD2     H 9721   0.551   1.899  17.242  0.9580 -1.2289 -1.4052
  653MPD2    H1 9722   0.683   1.505  17.362  0.1649 -0.3903  1.6985
  653MPD2    H2 9723   0.729   1.830  17.619 -0.3437  0.7444 -0.5440
  653MPD2    H3 9724   0.734   1.591  17.577 -0.6141 -0.3848  0.6173
  653MPD2     N 9725   0.562   1.654  17.157  0.1063  0.0649 -0.4573
  653MPD2    H5 9726   0.539   1.728  17.092 -1.4339  1.9766  2.2619
  653MPD2    N1 9727   0.652   2.023  17.435 -0.0391 -0.0443  0.2123
  653MPD2    H7 9728   0.639   2.073  17.348  0.2123 -2.1923 -1.0741
  654TMC3    C1 9729   0.570   1.508  16.963 -0.1613 -0.2661  0.9442
  654TMC3    C2 9730   0.479   1.593  16.897 -0.7046 -1.3006  0.4994
  654TMC3    C3 9731   0.456   1.554  16.765  0.0775 -0.3949 -0.1464
  654TMC3    C4 9732   0.637   1.400  16.907 -0.5087  0.2823  0.9332
  654TMC3    C5 9733   0.610   1.373  16.778  0.1460 -0.1723  0.9777
  654TMC3    C6 9734   0.520   1.455  16.706 -0.7730 -0.4757 -0.6678
  654TMC3     C 9735   0.577   1.523  17.112  0.0990 -0.8638 -0.1901
  654TMC3     O 9736   0.582   1.417  17.171  0.2672  0.2713  0.3855
  654TMC3     H 9737   0.418   1.668  16.947 -1.4654 -1.4724 -0.1714
  654TMC3    H1 9738   0.695   1.333  16.969 -2.8538 -2.4688  0.1193
  654TMC3    H2 9739   0.513   1.451  16.598  1.4837  1.7182 -0.9020
  654TMC3    C7 9740   0.633   1.244  16.720  0.4901  0.1147  0.8130
  654TMC3    C8 9741   0.310   1.557  16.740 -0.1593 -0.8659  0.0272
  654TMC3    O1 9742   0.616   1.241  16.599 -0.2904  0.1727  0.2544
  654TMC3    O2 9743   0.243   1.634  16.809  0.3135 -0.4190 -0.1847
  655MPD2     C 9744   2.165   1.690  15.789  0.9715 -0.2196  0.0580
  655MPD2    C1 9745   2.132   1.809  15.719  0.4705  0.1476 -0.0209
  655MPD2    C2 9746   2.137   1.807  15.575 -0.8556 -0.7300  0.2526
  655MPD2    C3 9747   2.156   1.685  15.510 -0.0491 -0.0243 -0.0142
  655MPD2    C4 9748   2.169   1.572  15.580  0.5000 -0.1827 -1.7276
  655MPD2    C5 9749   2.175   1.572  15.719 -0.2530  0.0935  0.5079
  655MPD2     H 9750   2.117   1.894  15.514  2.1833 -0.1659  0.0743
  655MPD2    H1 9751   2.176   1.478  15.525  1.4404  0.6329 -3.0056
  655MPD2    H2 9752   2.181   1.681  15.895 -0.6057 -1.7535  0.1689
  655MPD2    H3 9753   2.193   1.480  15.774  1.6102 -0.5521 -1.1738
  655MPD2     N 9754   2.151   1.658  15.371 -0.1435  0.1256  0.6763
  655MPD2    H5 9755   2.153   1.564  15.332 -0.8388 -0.0505  1.0796
  655MPD2    N1 9756   2.099   1.935  15.787  0.0968 -0.4104 -0.1962
  655MPD2    H7 9757   2.062   2.009  15.728  0.4740 -2.0513 -2.5072
  656TMC3    C1 9758   2.038   2.083  15.949 -0.9613  0.1047 -0.4350
  656TMC3    C2 9759   1.960   2.103  16.062  0.0297  0.1927 -0.2538
  656TMC3    C3 9760   1.893   2.217  16.078 -0.0161  0.5128 -0.1824
  656TMC3    C4 9761   2.051   2.187  15.857  0.5228  0.1592  0.6478
  656TMC3    C5 9762   1.985   2.300  15.881 -0.5348  0.3871  0.2352
  656TMC3    C6 9763   1.899   2.314  15.983  0.1795 -0.1327 -0.2152
  656TMC3     C 9764   2.093   1.953  15.921  0.3204  0.3689 -0.0057
  656TMC3     O 9765   2.117   1.876  16.014  0.2262 -0.3195 -0.4443
  656TMC3     H 9766   1.954   2.020  16.133 -1.2367 -1.4480 -2.2961
  656TMC3    H1 9767   2.107   2.175  15.765  0.3132  1.1193  0.3874
  656TMC3    H2 9768   1.831   2.399  15.989  1.9609  1.3855 -1.6789
  656TMC3    C7 9769   1.974   2.390  15.767  0.0906 -0.3926  0.4623
  656TMC3    C8 9770   1.767   2.194  16.156  0.2992  0.8626  0.1638
  656TMC3    O1 9771   2.065   2.391  15.686 -0.3181  0.4882 -0.0326
  656TMC3    O2 9772   1.740   2.079  16.191 -0.1791 -0.5904  0.6388
  657TMC3    C1 9773   1.032   1.042  15.217 -0.0787 -0.3997 -0.1081
  657TMC3    C2 9774   1.130   1.129  15.269 -0.0951 -0.2392 -0.2319
  657TMC3    C3 9775   1.086   1.232  15.343  0.5179 -0.4948 -0.0737
  657TMC3    C4 9776   0.903   1.077  15.223 -0.4238 -0.2759  0.1828
  657TMC3    C5 9777   0.867   1.184  15.302 -0.3666 -0.0975  0.6052
  657TMC3    C6 9778   0.956   1.269  15.352 -0.3153 -0.3781 -0.4380
  657TMC3     C 9779   1.067   0.906  15.179  0.6314  0.1692  1.1093
  657TMC3     O 9780   0.966   0.839  15.164 -0.1527  0.1284 -0.4001
  657TMC3     H 9781   1.237   1.108  15.272  0.0089  0.5246  1.4570
  657TMC3    H1 9782   0.821   1.010  15.199  1.6466 -3.3896  1.8210
  657TMC3    H2 9783   0.932   1.369  15.386 -0.2108 -0.7548  0.7235
  657TMC3    C7 9784   0.731   1.213  15.311  0.4768 -0.2153 -0.6458
  657TMC3    C8 9785   1.181   1.312  15.429  0.3102  0.4952  0.3425
  657TMC3    O1 9786   0.662   1.117  15.324 -0.1985 -0.0305 -0.3391
  657TMC3    O2 9787   1.133   1.416  15.466  0.4131  0.0078 -0.4655
  658MPD2     C 9788   2.595   1.847  14.747 -0.2434 -0.2697 -0.0892
  658MPD2    C1 9789   2.459   1.837  14.723 -0.2569 -0.0199 -0.6962
  658MPD2    C2 9790   2.407   1.879  14.609  0.0928  0.1224  0.0800
  658MPD2    C3 9791   2.488   1.918  14.503 -0.1309 -0.1663  0.0487
  658MPD2    C4 9792   2.623   1.950  14.529 -0.4735 -0.1316  0.3011
  658MPD2    C5 9793   2.672   1.908  14.649 -0.2869  0.2604  0.5499
  658MPD2     H 9794   2.303   1.872  14.578  0.9119  0.9111 -2.9032
  658MPD2    H1 9795   2.697   1.983  14.457 -1.4643  1.6748  0.0894
  658MPD2    H2 9796   2.648   1.805  14.831 -0.2268  3.3331  1.7178
  658MPD2    H3 9797   2.777   1.922  14.673 -0.3562 -1.0266  1.5983
  658MPD2     N 9798   2.419   1.951  14.383  0.1878 -0.2744 -0.3408
  658MPD2    H5 9799   2.318   1.940  14.373  0.3024 -2.3170  0.7934
  658MPD2    N1 9800   2.384   1.779  14.822 -0.3092 -0.1773  0.5226
  658MPD2    H7 9801   2.428   1.745  14.907 -1.3127 -2.1767  0.2350
  659TMC3    C1 9802   2.182   1.673  14.910 -0.3362 -0.2713  0.4726
  659TMC3    C2 9803   2.227   1.711  15.035  0.2210  0.4214 -0.6997
  659TMC3    C3 9804   2.156   1.675  15.142 -0.1369  0.3712  0.8953
  659TMC3    C4 9805   2.052   1.619  14.893 -0.2162  0.4714 -0.5824
  659TMC3    C5 9806   1.981   1.597  15.009 -0.4870  0.4759  0.5832
  659TMC3    C6 9807   2.031   1.616  15.136 -0.2680  0.0126  0.2529
  659TMC3     C 9808   2.257   1.722  14.796  0.2176 -0.4885 -0.3785
  659TMC3     O 9809   2.196   1.716  14.691 -0.2928 -0.3693  0.0952
  659TMC3     H 9810   2.316   1.773  15.045  0.7997 -0.6896  0.9906
  659TMC3    H1 9811   2.000   1.616  14.798  0.0765  0.6542 -0.7509
  659TMC3    H2 9812   1.969   1.601  15.224 -0.4881 -1.7803 -0.1960
  659TMC3    C7 9813   1.837   1.577  15.007  0.1056  0.5225  0.2280
  659TMC3    C8 9814   2.169   1.750  15.270 -0.5840 -0.3345 -0.1843
  659TMC3    O1 9815   1.771   1.616  15.103  0.4795  0.8316 -0.2222
  659TMC3    O2 9816   2.191   1.870  15.272  0.0379 -0.1025  0.0370
  660MPD2     C 9817   4.416   1.361  12.333  0.3299  0.1041 -0.1459
  660MPD2    C1 9818   4.336   1.247  12.326  0.3395  0.0011  0.1276
  660MPD2    C2 9819   4.328   1.152  12.431  1.0000 -0.7951 -0.3586
  660MPD2    C3 9820   4.402   1.177  12.547 -0.7654 -0.2104 -0.4137
  660MPD2    C4 9821   4.480   1.293  12.560  0.0884  0.0473 -0.4134
  660MPD2    C5 9822   4.490   1.383  12.451 -0.0153 -0.1178  0.8822
  660MPD2     H 9823   4.254   1.073  12.429  0.1590 -0.0431  0.9019
  660MPD2    H1 9824   4.530   1.307  12.655  1.5203  0.7140 -1.2704
  660MPD2    H2 9825   4.415   1.430  12.249  2.2070 -0.7513 -0.8500
  660MPD2    H3 9826   4.545   1.476  12.452 -0.4979  0.1698 -1.3366
  660MPD2     N 9827   4.391   1.101  12.667 -0.4009 -0.0162 -0.1827
  660MPD2    H5 9828   4.432   1.145  12.749 -0.5555 -3.5451  1.7539
  660MPD2    N1 9829   4.262   1.243  12.211 -0.5851  0.2044 -0.2432
  660MPD2    H7 9830   4.273   1.309  12.134 -1.9916  1.2219  0.4228
  661TMC3    C1 9831   4.129   1.154  12.043 -0.1318  0.0792  0.2629
  661TMC3    C2 9832   4.189   1.230  11.946  0.5747 -1.0948  0.4856
  661TMC3    C3 9833   4.144   1.214  11.821  0.6810  1.2377 -0.1374
  661TMC3    C4 9834   4.019   1.080  12.014  0.3312  0.2022 -0.0337
  661TMC3    C5 9835   3.976   1.076  11.888 -0.0661 -0.0808  0.5155
  661TMC3    C6 9836   4.033   1.138  11.784 -0.1768  0.0942 -0.5102
  661TMC3     C 9837   4.193   1.137  12.171 -0.4826 -0.2441  0.2948
  661TMC3     O 9838   4.165   1.038  12.239 -0.4072 -0.6380  0.6738
  661TMC3     H 9839   4.281   1.286  11.953 -0.3637  0.5818 -0.4367
  661TMC3    H1 9840   3.973   1.022  12.093 -2.9282 -0.4733 -2.4262
  661TMC3    H2 9841   4.008   1.135  11.679 -2.2935 -0.1146  0.0020
  661TMC3    C7 9842   3.840   1.045  11.886 -0.3867 -0.0131 -0.3813
  661TMC3    C8 9843   4.225   1.278  11.716  0.1226 -0.6068  0.1694
  661TMC3    O1 9844   3.776   1.090  11.975  0.4832  0.1155  0.1455
  661TMC3    O2 9845   4.342   1.295  11.739  0.0324 -0.1622 -0.2176
  662MPD2     C 9846   0.255   0.629  17.026 -0.7810 -0.6325  0.2719
  662MPD2    C1 9847   0.238   0.529  17.114 -0.5064 -0.3039  0.5727
  662MPD2    C2 9848   0.216   0.556  17.248 -0.2567 -0.0351  0.6134
  662MPD2    C3 9849   0.206   0.689  17.285  0.8824  0.2531  0.1846
  662MPD2    C4 9850   0.235   0.790  17.197  0.1924  0.1282  0.0021
  662MPD2    C5 9851   0.251   0.760  17.065  0.0656 -0.0660 -0.1511
  662MPD2     H 9852   0.192   0.471  17.311 -1.0064  0.1535  0.5827
  662MPD2    H1 9853   0.235   0.893  17.229  2.3289  0.2146 -0.2617
  662MPD2    H2 9854   0.276   0.623  16.920  1.4052  4.2034  0.4084
  662MPD2    H3 9855   0.242   0.844  16.998  0.8736  0.7348  0.7393
  662MPD2     N 9856   0.137   0.717  17.402  0.0685  0.5115  0.1085
  662MPD2    H5 9857   0.113   0.813  17.421  0.1919  0.6561 -0.4757
  662MPD2    N1 9858   0.215   0.393  17.089  0.4832  0.2345 -0.0302
  662MPD2    H7 9859   0.217   0.338  17.175 -0.8264 -0.5081 -0.4816
  663TMC3    C1 9860   0.179   0.187  17.002 -0.1382 -0.0070 -0.1651
  663TMC3    C2 9861   0.139   0.147  17.122  0.4069 -0.2594  0.1873
  663TMC3    C3 9862   0.126   0.011  17.152  0.7896 -0.3502 -0.6081
  663TMC3    C4 9863   0.165   0.104  16.894 -0.0498  0.9570 -1.0593
  663TMC3    C5 9864   0.123   4.712  16.918 -0.4935  0.6039  0.4241
  663TMC3    C6 9865   0.106   4.666  17.047 -0.2511 -0.3887  0.2300
  663TMC3     C 9866   0.200   0.329  16.971  0.3558 -0.3070 -0.2738
  663TMC3     O 9867   0.220   0.366  16.857  0.5296 -0.4338 -0.3288
  663TMC3     H 9868   0.109   0.220  17.196 -0.5544  0.5799 -1.0367
  663TMC3    H1 9869   0.186   0.156  16.801 -0.6692  0.2580 -1.5935
  663TMC3    H2 9870   0.106   4.561  17.076  3.1675  0.2710  2.5396
  663TMC3    C7 9871   0.149   4.613  16.815  0.1297 -0.1487 -0.0993
  663TMC3    C8 9872   0.024   4.717  17.247 -0.4696 -0.0380 -0.0751
  663TMC3    O1 9873   0.217   4.643  16.718 -0.1732  0.0060 -0.0779
  663TMC3    O2 9874   4.665   4.649  17.216  0.1314  0.0509  0.4755
  664MPD2     C 9875   3.244   3.121  17.549 -0.4000  0.2088  0.7507
  664MPD2    C1 9876   3.297   3.241  17.599  0.3497 -0.0787  0.2192
  664MPD2    C2 9877   3.304   3.253  17.738 -0.5124  0.8942  0.5162
  664MPD2    C3 9878   3.246   3.151   0.072 -0.2021  0.4018 -0.2912
  664MPD2    C4 9879   3.190   3.042   0.018 -0.6082 -0.3037 -0.0133
  664MPD2    C5 9880   3.199   3.025  17.633 -0.1502 -0.6719 -0.0130
  664MPD2     H 9881   3.377   3.323   0.028  2.1554 -0.6328 -1.7367
  664MPD2    H1 9882   3.129   2.979   0.082 -2.6541  0.7082 -0.9753
  664MPD2    H2 9883   3.248   3.100  17.442 -2.5062  1.2472  0.4659
  664MPD2    H3 9884   3.160   2.930  17.598 -1.2830 -1.3071  2.9398
  664MPD2     N 9885   3.231   3.178   0.208 -0.3299  0.0758 -0.5511
  664MPD2    H5 9886   3.279   3.265   0.229 -0.9766 -0.0182  1.3154
  664MPD2    N1 9887   3.349   3.344  17.515  0.3436 -0.6661 -0.2830
  664MPD2    H7 9888   3.405   3.417  17.557  1.7234 -2.7592  1.5488
  665TMC3    C1 9889   3.174   3.168   0.436  0.1285  0.4310 -0.1970
  665TMC3    C2 9890   3.062   3.148   0.509  0.1109 -0.4067 -0.1463
  665TMC3    C3 9891   3.062   3.224   0.630  0.5428 -0.0631 -0.0166
  665TMC3    C4 9892   3.285   3.248   0.469 -0.2485 -0.5278 -0.0952
  665TMC3    C5 9893   3.279   3.301   0.595  0.2594 -0.2046 -0.4718
  665TMC3    C6 9894   3.171   3.287   0.679 -0.2577 -0.0553 -0.2390
  665TMC3     C 9895   3.172   3.103   0.308  0.1176  0.5136 -0.6983
  665TMC3     O 9896   3.125   2.990   0.303  0.0349  0.7168  0.2290
  665TMC3     H 9897   2.984   3.077   0.486  0.0039 -0.4098  0.2267
  665TMC3    H1 9898   3.380   3.232   0.419  0.6932  0.7149  1.2586
  665TMC3    H2 9899   3.172   3.324   0.781  1.5593  1.2997 -0.7407
  665TMC3    C7 9900   3.410   3.323   0.664  0.3253 -0.0017  0.7900
  665TMC3    C8 9901   2.938   3.246   0.702 -0.2487  1.1003  0.3888
  665TMC3    O1 9902   3.506   3.271   0.613 -1.0379  0.0947 -0.0066
  665TMC3    O2 9903   2.950   3.284   0.816 -0.2263  0.3213 -0.0963
  666TMC3    C1 9904   1.718   3.697   9.225 -0.2884  0.2146  0.0720
  666TMC3    C2 9905   1.813   3.645   9.303 -0.1721 -0.3056 -0.3935
  666TMC3    C3 9906   1.885   3.730   9.382 -0.7238 -0.5618  0.2301
  666TMC3    C4 9907   1.687   3.825   9.234  0.0382 -0.4403 -0.8046
  666TMC3    C5 9908   1.763   3.915   9.304 -0.3000  0.2096  1.2061
  666TMC3    C6 9909   1.865   3.868   9.385  0.4456  0.8009  0.2999
  666TMC3     C 9910   1.598   3.611   9.201 -0.2673 -0.2872  0.2317
  666TMC3     O 9911   1.500   3.665   9.156 -0.0771  0.6121  0.0919
  666TMC3     H 9912   1.826   3.538   9.310  1.3931 -0.1462 -0.8613
  666TMC3    H1 9913   1.594   3.857   9.187 -0.6930 -0.7402  0.4221
  666TMC3    H2 9914   1.922   3.931   9.452  0.6568 -0.8263  1.6379
  666TMC3    C7 9915   1.685   4.024   9.363 -0.5250 -0.2739  0.0500
  666TMC3    C8 9916   1.979   3.681   9.478 -0.0147 -0.1482 -0.2460
  666TMC3    O1 9917   1.710   4.045   9.482  0.0211  0.3383  0.2621
  666TMC3    O2 9918   1.958   3.566   9.509 -0.0099  0.1062  0.0810
  667MPD2     C 9919   4.028   2.973  14.056  0.6001  0.4433 -0.2912
  667MPD2    C1 9920   3.959   3.000  14.175 -0.5121  0.0244 -0.7947
  667MPD2    C2 9921   3.833   2.942  14.189  0.3944 -0.1316  0.4362
  667MPD2    C3 9922   3.772   2.872  14.080 -0.0460 -0.0128 -0.0874
  667MPD2    C4 9923   3.842   2.854  13.968  0.5279 -0.3277  0.3772
  667MPD2    C5 9924   3.970   2.901  13.957 -0.3213  0.2312 -0.1268
  667MPD2     H 9925   3.778   2.939  14.282  0.7131 -0.5974  0.6110
  667MPD2    H1 9926   3.811   2.785  13.891 -1.6004 -0.1807  1.0897
  667MPD2    H2 9927   4.131   3.006  14.044  0.5623 -0.1972 -2.2769
  667MPD2    H3 9928   4.038   2.871  13.878 -2.4468  0.5730 -2.0806
  667MPD2     N 9929   3.636   2.831  14.075 -0.3047 -0.0338 -0.6771
  667MPD2    H5 9930   3.604   2.772  14.000  0.5326  1.7121 -2.4126
  667MPD2    N1 9931   4.006   3.072  14.289  0.3510 -0.0966 -0.2508
  667MPD2    H7 9932   3.944   3.097  14.365 -1.8838 -1.8508 -1.5143
  668TMC3    C1 9933   4.159   3.169  14.445  0.2298 -0.8547  0.0769
  668TMC3    C2 9934   4.268   3.258  14.459 -0.4762  0.3587  0.1387
  668TMC3    C3 9935   4.284   3.311  14.580  0.0814 -0.2657 -0.0717
  668TMC3    C4 9936   4.079   3.125  14.548 -0.5471 -0.2779  0.6595
  668TMC3    C5 9937   4.102   3.179  14.667  0.1089 -0.0363 -0.4029
  668TMC3    C6 9938   4.207   3.266  14.689 -0.0341 -0.2221  0.1017
  668TMC3     C 9939   4.143   3.101  14.314 -0.1979  0.3968  0.0551
  668TMC3     O 9940   4.242   3.084  14.242 -0.4325  0.2215 -0.3150
  668TMC3     H 9941   4.317   3.284  14.365  0.3977 -0.5135  0.3472
  668TMC3    H1 9942   4.008   3.044  14.534  2.0752 -2.2006 -1.5918
  668TMC3    H2 9943   4.221   3.315  14.784  0.5492  2.1362 -1.1910
  668TMC3    C7 9944   4.016   3.147  14.782 -0.7189 -0.2802 -0.2101
  668TMC3    C8 9945   4.315   3.456  14.589  0.5351  0.3461 -0.0760
  668TMC3    O1 9946   4.046   3.201  14.886  0.0373 -0.7282 -0.2361
  668TMC3    O2 9947   4.268   3.515  14.685  0.3455 -0.4356 -0.1180
  669TMC3    C1 9948   2.156   3.154  14.793 -0.4393  0.3326 -0.0947
  669TMC3    C2 9949   2.034   3.209  14.793 -0.5037 -0.1832 -0.0530
  669TMC3    C3 9950   2.013   3.318  14.717  0.3483 -0.4213 -0.1710
  669TMC3    C4 9951   2.268   3.207  14.731  0.1642 -0.0448  0.2209
  669TMC3    C5 9952   2.241   3.306  14.646 -0.0371 -0.2694 -0.4157
  669TMC3    C6 9953   2.121   3.367  14.641 -0.4605 -0.1216 -0.0404
  669TMC3     C 9954   2.191   3.039  14.873 -0.1545  0.5498  0.4421
  669TMC3     O 9955   2.286   2.972  14.829 -0.0221  0.0263  0.3966
  669TMC3     H 9956   1.945   3.163  14.835  1.0657 -1.1596  2.2626
  669TMC3    H1 9957   2.368   3.165  14.737  0.4947  0.6390 -0.5065
  669TMC3    H2 9958   2.103   3.446  14.570  0.5176 -0.6389 -0.8656
  669TMC3    C7 9959   2.337   3.369  14.557  0.1361 -0.2386  0.3487
  669TMC3    C8 9960   1.896   3.305  14.634 -0.0887  0.2889  0.4800
  669TMC3    O1 9961   2.342   3.490  14.544  0.3311  0.2539  0.0734
  669TMC3    O2 9962   1.868   3.188  14.608  0.7841 -0.0093  0.3605
  670MPD2     C 9963   0.196   1.235  13.493  0.1023 -0.0951 -0.1915
  670MPD2    C1 9964   0.301   1.170  13.552 -0.4604 -1.0582 -0.8414
  670MPD2    C2 9965   0.286   1.120  13.679 -0.2776 -0.4405 -0.4453
  670MPD2    C3 9966   0.163   1.108  13.730  0.0957 -0.1387 -0.2895
  670MPD2    C4 9967   0.056   1.168  13.660  0.8103 -1.5969  0.6631
  670MPD2    C5 9968   0.070   1.229  13.544 -0.8014 -0.2075 -0.6304
  670MPD2     H 9969   0.373   1.075  13.727 -1.0234 -1.8745 -0.4560
  670MPD2    H1 9970   4.693   1.164  13.702  0.8258 -0.0931  0.8315
  670MPD2    H2 9971   0.216   1.293  13.403 -0.9655 -0.1781 -0.4924
  670MPD2    H3 9972   4.727   1.278  13.489 -0.8358  0.3858 -0.0598
  670MPD2     N 9973   0.151   1.039  13.850 -0.1798 -0.3473 -0.3841
  670MPD2    H5 9974   0.232   0.997  13.894 -0.8609  0.9987  2.1276
  670MPD2    N1 9975   0.430   1.155  13.487  0.5720  0.0976 -0.1445
  670MPD2    H7 9976   0.503   1.117  13.546  0.8022  1.1854  0.2791
  671TMC3    C1 9977   0.043   0.890  14.003 -0.3327 -0.4220 -0.3212
  671TMC3    C2 9978   0.165   0.873  14.065  0.0358  0.1704 -0.1818
  671TMC3    C3 9979   0.180   0.756  14.135 -0.2473 -0.2013  0.3540
  671TMC3    C4 9980   4.670   0.813  14.036  0.2451  0.3459 -0.5733
  671TMC3    C5 9981   4.683   0.701  14.110  1.0826  0.4751  0.0079
  671TMC3    C6 9982   0.075   0.664  14.152  0.0809 -0.6760 -0.2248
  671TMC3     C 9983   0.030   0.997  13.907 -0.2835 -0.4872  0.2201
  671TMC3     O 9984   4.656   1.020  13.854 -0.7319 -0.2470 -0.0639
  671TMC3     H 9985   0.252   0.934  14.040 -0.5775  0.4756 -1.6167
  671TMC3    H1 9986   4.575   0.831  13.987 -0.3096 -1.8195 -0.2795
  671TMC3    H2 9987   0.107   0.565  14.181 -0.8483 -0.4658  1.5363
  671TMC3    C7 9988   4.631   0.596  14.031 -0.3496 -0.4685  0.8658
  671TMC3    C8 9989   0.308   0.688  14.123  0.3487 -0.2440 -0.7740
  671TMC3    O1 9990   4.714   0.538  13.968 -0.2412  0.0989  0.3913
  671TMC3    O2 9991   0.389   0.750  14.052 -0.3577 -0.0212 -0.2623
  672MPD2     C 9992   0.697   1.519   0.836 -0.4736 -0.0856  0.3712
  672MPD2    C1 9993   0.806   1.467   0.774  0.1103 -0.2536 -0.0305
  672MPD2    C2 9994   0.922   1.542   0.791  0.7369 -0.4554 -0.3545
  672MPD2    C3 9995   0.923   1.665   0.846 -0.2833  0.0612  0.0926
  672MPD2    C4 9996   0.802   1.729   0.884  0.2082 -0.3039 -0.2177
  672MPD2    C5 9997   0.683   1.651   0.880 -0.0164 -1.0033  0.3110
  672MPD2     H 9998   1.017   1.504   0.753  1.0604  0.2878 -0.2808
  672MPD2    H1 9999   0.802   1.824   0.935  0.4108 -0.1405 -0.5217
  672MPD2    H210000   0.598   1.480   0.813 -0.7895  0.8592  0.1183
  672MPD2    H310001   0.585   1.684   0.913 -0.4414 -0.5762 -1.4092
  672MPD2     N10002   1.036   1.747   0.861 -0.1787  0.4501 -0.0201
  672MPD2    H510003   1.023   1.842   0.896  0.8803  1.3450 -1.9975
  672MPD2    N110004   0.801   1.350   0.689  0.3267  0.0442 -0.2163
  672MPD2    H710005   0.887   1.327   0.641  0.0750  0.7963 -1.0183
  673TMC3    C110006   0.700   1.220   0.527 -0.1664  0.0140 -0.2441
  673TMC3    C210007   0.822   1.166   0.483  0.0303  0.0309  0.5990
  673TMC3    C310008   0.820   1.108   0.360 -0.0537 -0.5801  0.4990
  673TMC3    C410009   0.588   1.207   0.457  0.8849 -0.2363  0.1526
  673TMC3    C510010   0.594   1.146   0.334  0.7872  0.2252 -0.1372
  673TMC3    C610011   0.709   1.094   0.276 -0.5947 -0.0816 -0.1104
  673TMC3     C10012   0.686   1.289   0.652  0.4079 -0.9538 -0.1838
  673TMC3     O10013   0.570   1.321   0.679  0.0402 -0.2615 -0.5233
  673TMC3     H10014   0.907   1.152   0.549  0.2846  1.5656  0.5823
  673TMC3    H110015   0.495   1.252   0.488  0.1403 -1.8039  0.2201
  673TMC3    H210016   0.709   1.054   0.175  1.8356  0.5376 -0.3685
  673TMC3    C710017   0.501   1.191   0.237  0.0054 -1.0379  0.3022
  673TMC3    C810018   0.942   1.038   0.317  0.7828 -0.1188  0.0953
  673TMC3    O110019   0.462   1.106   0.157  0.0204  0.2173  0.2975
  673TMC3    O210020   0.933   0.967   0.216  0.6781 -0.4073  0.3469
  674MPD2     C10021   0.293   1.703  17.487  0.0708  0.2794  0.0667
  674MPD2    C110022   0.219   1.586  17.461  0.5601 -0.4991  0.0165
  674MPD2    C210023   0.085   1.577  17.479  0.8036 -0.0748  0.4207
  674MPD2    C310024   0.010   1.685  17.531 -0.5338 -0.0977 -0.2815
  674MPD2    C410025   0.085   1.801  17.553 -0.1975 -0.0780 -0.0659
  674MPD2    C510026   0.223   1.807  17.540 -0.3116  0.0641  0.6506
  674MPD2     H10027   0.027   1.487  17.462  0.4844 -0.4112  3.1808
  674MPD2    H110028   0.036   1.887  17.598  1.4818  0.9759 -0.2684
  674MPD2    H210029   0.401   1.705  17.490 -0.0426  1.3826  3.2802
  674MPD2    H310030   0.293   1.889  17.554 -1.5729  1.4030 -0.8867
  674MPD2     N10031   4.610   1.665  17.556 -0.0847  0.2940 -0.2714
  674MPD2    H510032   4.569   1.578  17.524 -0.3598 -0.1458  1.2741
  674MPD2    N110033   0.302   1.472  17.446  0.3141 -0.2233  0.3080
  674MPD2    H710034   0.395   1.477  17.485  1.0590 -3.4224 -1.0413
  675TMC3    C110035   0.373   1.246  17.422 -0.0215 -0.7085  0.2561
  675TMC3    C210036   0.312   1.125  17.431  0.0581  0.2335  0.0451
  675TMC3    C310037   0.343   1.040  17.532 -0.0961  0.0193  0.0544
  675TMC3    C410038   0.490   1.276  17.494 -0.2796 -0.3052  0.4683
  675TMC3    C510039   0.529   1.179  17.586 -0.2005 -1.0832  0.9594
  675TMC3    C610040   0.455   1.066  17.608 -0.3015 -0.2234  0.3617
  675TMC3     C10041   0.268   1.348  17.394 -0.1384  0.3260 -0.6939
  675TMC3     O10042   0.181   1.312  17.318  0.3003 -0.0577 -0.0297
  675TMC3     H10043   0.219   1.110  17.376 -0.3491  0.2761  0.7220
  675TMC3    H110044   0.553   1.363  17.477 -0.5486 -0.2293 -0.1023
  675TMC3    H210045   0.502   0.990  17.670 -2.4481 -1.7400  0.1424
  675TMC3    C710046   0.667   1.193  17.644 -0.0580 -0.0843 -0.2571
  675TMC3    C810047   0.229   0.995  17.609 -0.0042  0.3406  0.5113
  675TMC3    O110048   0.736   1.098  17.670  0.4615 -0.1892  0.2447
  675TMC3    O210049   0.129   0.974  17.540 -0.4112 -0.0906  0.6687
  676MPD2     C10050   2.981   4.273  10.998 -0.5837 -0.1079  0.2404
  676MPD2    C110051   3.004   4.194  11.113 -0.7482 -0.4132 -0.5456
  676MPD2    C210052   2.974   4.062  11.119 -1.1705 -0.2845  0.0851
  676MPD2    C310053   2.907   4.009  11.013  0.3477 -0.1179  0.2305
  676MPD2    C410054   2.880   4.089  10.900  0.5538 -0.0862  0.9034
  676MPD2    C510055   2.916   4.219  10.894 -0.4104  0.3445  0.1857
  676MPD2     H10056   2.979   4.006  11.212 -1.4344  0.3659  0.4945
  676MPD2    H110057   2.831   4.053  10.810  0.1310  1.5271  0.4928
  676MPD2    H210058   2.999   4.379  11.008  0.5395 -0.4406  1.7811
  676MPD2    H310059   2.898   4.263  10.796  0.0188  2.5397  1.0865
  676MPD2     N10060   2.861   3.872  11.013 -0.0578 -0.3603 -0.7919
  676MPD2    H510061   2.797   3.837  10.942  0.3887  1.3478 -2.0402
  676MPD2    N110062   3.051   4.249  11.234 -0.8081  0.1157 -0.2727
  676MPD2    H710063   3.052   4.189  11.316  1.7709  0.7090  0.1086
  677TMC3    C110064   3.065   4.423  11.396 -0.4735  0.0820  0.1138
  677TMC3    C210065   3.018   4.331  11.487  0.5005  0.7813  0.2353
  677TMC3    C310066   3.005   4.379  11.620  0.1363  0.1349  0.0055
  677TMC3    C410067   3.090   4.553  11.427 -0.2550  0.3360  0.4719
  677TMC3    C510068   3.074   4.590  11.554 -0.1075 -0.3504  0.1100
  677TMC3    C610069   3.035   4.505  11.657  0.2255  0.1241 -0.6347
  677TMC3     C10070   3.082   4.384  11.252  0.0912  0.0154 -0.2179
  677TMC3     O10071   3.107   4.466  11.167 -0.1552 -0.1468  0.0248
  677TMC3     H10072   2.987   4.230  11.462  3.3467  0.3125 -1.3452
  677TMC3    H110073   3.104   4.622  11.345 -0.6789  0.8106  0.8036
  677TMC3    H210074   3.031   4.540  11.759 -0.3345 -1.9799  0.0483
  677TMC3    C710075   3.124   4.722  11.597 -0.1233  0.4491 -0.4303
  677TMC3    C810076   2.971   4.290  11.723  0.5195  0.2816  0.0609
  677TMC3    O110077   3.095   0.017  11.710  0.0629  0.0352 -0.0370
  677TMC3    O210078   3.018   4.319  11.833 -0.5118  0.0074 -0.0779
  678MPD2     C10079   4.350   0.097   1.446  0.5657 -0.0382  0.4794
  678MPD2    C110080   4.391   0.001   1.353 -0.4823 -0.8286  0.6884
  678MPD2    C210081   4.319   4.622   1.331  0.8115  0.1931  0.0779
  678MPD2    C310082   4.198   4.600   1.400  0.0139  0.5650 -0.2017
  678MPD2    C410083   4.167   4.692   1.501 -0.1071  0.1424  0.0110
  678MPD2    C510084   4.243   0.068   1.518 -0.0557 -0.0036  0.0849
  678MPD2     H10085   4.356   4.553   1.256 -0.2602  1.2203 -1.3947
  678MPD2    H110086   4.089   4.663   1.571 -0.6785  1.2464 -0.1790
  678MPD2    H210087   4.400   0.189   1.474  1.8330 -0.7220  0.4506
  678MPD2    H310088   4.230   0.135   1.603  0.4225 -0.3552  0.4333
  678MPD2     N10089   4.124   4.487   1.373  0.1153 -0.1236 -0.1289
  678MPD2    H510090   4.168   4.423   1.308 -0.5463  2.3289 -3.0225
  678MPD2    N110091   4.508   0.002   1.277  0.1420  0.2133 -0.3266
  678MPD2    H710092   4.535   4.663   1.216  2.1548 -0.0719  0.9263
  679TMC3    C110093   0.134   4.639   1.152 -0.4926 -0.4475  0.0332
  679TMC3    C210094   0.024   4.677   1.230 -0.0882 -0.2438 -0.9029
  679TMC3    C310095   4.718   0.067   1.217 -0.1918 -0.0987 -0.1492
  679TMC3    C410096   0.197   4.725   1.066  0.3440 -0.0153 -0.0931
  679TMC3    C510097   0.148   0.116   1.058  0.1356 -0.2617 -0.1537
  679TMC3    C610098   0.043   0.159   1.138 -0.0112  0.0209 -0.2012
  679TMC3     C10099   0.156   4.499   1.120 -0.0881  0.4314 -0.5956
  679TMC3     O10100   0.232   4.479   1.024 -0.0366  0.5700  0.2506
  679TMC3     H10101   4.716   4.603   1.294  0.1768 -0.1286 -0.5848
  679TMC3    H110102   0.281   4.689   1.008  1.0445  1.0717  0.2476
  679TMC3    H210103   0.012   0.263   1.136  0.7476  0.2556  0.2334
  679TMC3    C710104   0.165   0.188   0.936  0.4240 -0.6724  0.0935
  679TMC3    C810105   4.602   0.103   1.291 -0.2812  0.2999  0.5023
  679TMC3    O110106   0.084   0.276   0.901  0.1555 -0.6743 -0.7285
  679TMC3    O210107   4.601   0.199   1.361 -0.0998 -0.1638  0.0169
  680MPD2     C10108   0.059   2.890  13.279 -0.2001  0.2757  0.2321
  680MPD2    C110109   0.149   2.861  13.376  0.8072  0.7439 -0.2370
  680MPD2    C210110   0.206   2.960  13.454  0.0423 -0.3795 -0.6298
  680MPD2    C310111   0.165   3.089  13.437 -0.6850 -0.5595  0.1579
  680MPD2    C410112   0.077   3.120  13.337 -0.0456  0.0117  0.5228
  680MPD2    C510113   0.020   3.022  13.259 -0.6061  0.0488 -0.2629
  680MPD2     H10114   0.280   2.929  13.526 -0.0299  3.2858  1.0254
  680MPD2    H110115   0.042   3.221  13.319 -1.7934 -0.4421  1.3563
  680MPD2    H210116   0.006   2.811  13.226  1.5121 -0.9201  0.2784
  680MPD2    H310117   4.685   3.038  13.180 -0.2434  2.1489 -0.1698
  680MPD2     N10118   0.207   3.193  13.525  0.5835  0.2657  0.2452
  680MPD2    H510119   0.187   3.285  13.486 -0.6487  0.4973  1.4239
  680MPD2    N110120   0.194   2.731  13.398 -0.9921 -0.1113  0.3664
  680MPD2    H710121   0.264   2.718  13.471  0.9529  2.3363 -1.0764
  681TMC3    C110122   0.207   2.502  13.393 -0.7163 -0.8008  0.1053
  681TMC3    C210123   0.129   2.470  13.500  0.6735 -0.2893 -0.4369
  681TMC3    C310124   0.186   2.419  13.614  0.2977 -0.9417 -0.0425
  681TMC3    C410125   0.339   2.485  13.400  0.2294 -0.3600  0.5070
  681TMC3    C510126   0.397   2.434  13.515  0.4092 -0.5876  0.0737
  681TMC3    C610127   0.322   2.388  13.617 -0.1721 -0.1780  0.0757
  681TMC3     C10128   0.149   2.618  13.329 -0.4021 -0.8764  0.5048
  681TMC3     O10129   0.062   2.599  13.249  0.0453  0.5000  0.2553
  681TMC3     H10130   0.023   2.488  13.494  1.5388  4.7261 -0.5003
  681TMC3    H110131   0.387   2.511  13.307 -1.2965 -3.6510 -1.2274
  681TMC3    H210132   0.362   2.361  13.714 -0.2819 -1.2988 -0.1990
  681TMC3    C710133   0.537   2.399  13.515 -0.0051 -0.3967 -0.1588
  681TMC3    C810134   0.145   2.497  13.733  0.0790 -0.2209 -0.8713
  681TMC3    O110135   0.574   2.301  13.576  0.0963  0.2940  0.1389
  681TMC3    O210136   0.211   2.489  13.837  0.0850  0.5714 -0.7779
  682MPD2     C10137   1.286   4.639  10.388  0.3967 -0.0786  0.4043
  682MPD2    C110138   1.305   4.503  10.393 -0.6672 -0.2809  0.5701
  682MPD2    C210139   1.320   4.438  10.515  0.4782  0.7377  0.3183
  682MPD2    C310140   1.325   4.505  10.641 -0.0698  0.0560  0.0832
  682MPD2    C410141   1.298   4.644  10.633 -0.2148 -0.3838  0.3190
  682MPD2    C510142   1.278   4.703  10.509  0.3544  1.4034  0.5547
  682MPD2     H10143   1.317   4.330  10.517 -0.9007  0.7606 -0.8446
  682MPD2    H110144   1.299   4.703  10.725  0.9470 -0.4752  0.3696
  682MPD2    H210145   1.258   4.691  10.297  1.6646  0.4972  0.3395
  682MPD2    H310146   1.271   0.073  10.500 -1.8067  1.0430 -2.3480
  682MPD2     N10147   1.340   4.436  10.764  0.3574 -1.0637  0.3835
  682MPD2    H510148   1.335   4.491  10.849 -2.3095 -2.3388  1.0637
  682MPD2    N110149   1.305   4.421  10.277  0.3272  1.1551  0.1612
  682MPD2    H710150   1.322   4.321  10.289 -0.3761  0.9795 -0.3643
  683TMC3    C110151   1.584   4.228  11.033 -0.3149  0.0702  0.1334
  683TMC3    C210152   1.570   4.090  11.041  0.6789 -0.1941  0.4321
  683TMC3    C310153   1.463   4.038  10.978  0.1727  0.8502  0.5980
  683TMC3    C410154   1.502   4.304  10.956  0.8818 -0.7063 -0.5416
  683TMC3    C510155   1.385   4.254  10.904  0.0602 -0.5984  0.4030
  683TMC3    C610156   1.370   4.115  10.915  0.7725  0.8692 -0.6346
  683TMC3     C10157   1.683   4.296  11.114  0.6831 -0.7950 -0.0911
  683TMC3     O10158   1.704   4.414  11.096  1.0328  0.5659  0.3490
  683TMC3     H10159   1.651   4.028  11.079  2.2277  1.5747  0.0288
  683TMC3    H110160   1.506   4.412  10.957 -0.5458 -0.6706  2.3113
  683TMC3    H210161   1.278   4.071  10.877 -0.4217  0.9678  2.1778
  683TMC3    C710162   1.360   4.296  10.767  0.3492 -0.8022 -0.5044
  683TMC3    C810163   1.476   3.901  10.925 -0.6088 -0.4867  0.4227
  683TMC3    O110164   1.346   4.211  10.680 -0.9132  0.6125 -0.0756
  683TMC3    O210165   1.417   3.869  10.821  0.0639  0.5570  0.0903
  684MPD2     C10166   0.624   3.142  16.195  0.6415 -0.4593 -0.7991
  684MPD2    C110167   0.556   3.219  16.099 -0.2791 -0.5596  0.5097
  684MPD2    C210168   0.519   3.347  16.129  0.5979 -0.1963  0.1319
  684MPD2    C310169   0.557   3.405  16.251  0.8631  0.7916  0.8390
  684MPD2    C410170   0.616   3.318  16.344  0.7789  0.1042 -0.6070
  684MPD2    C510171   0.649   3.186  16.326 -0.2759 -0.2030  0.4221
  684MPD2     H10172   0.457   3.393  16.053 -0.3661 -1.9685 -0.1502
  684MPD2    H110173   0.647   3.362  16.438  2.9046  0.0295 -1.2663
  684MPD2    H210174   0.657   3.041  16.173 -2.9120 -1.9003  0.4534
  684MPD2    H310175   0.698   3.125  16.401  2.2330  0.4559 -0.6658
  684MPD2     N10176   0.557   3.539  16.269 -0.3069 -1.2378 -0.5433
  684MPD2    H510177   0.568   3.568  16.365  0.3499  0.7724 -1.2203
  684MPD2    N110178   0.523   3.178  15.969  0.4461  0.2962 -0.0334
  684MPD2    H710179   0.469   3.251  15.924  0.0657  0.8472  1.3241
  685TMC3    C110180   0.559   3.090  15.757  0.1782 -0.1635  0.1269
  685TMC3    C210181   0.486   3.196  15.704  0.5018 -0.1710  0.0004
  685TMC3    C310182   0.526   3.238  15.575  0.3728 -0.3810 -0.7441
  685TMC3    C410183   0.669   3.045  15.686  0.6769 -0.0166  0.2027
  685TMC3    C510184   0.709   3.104  15.567  0.7957  0.0635  0.5250
  685TMC3    C610185   0.628   3.193  15.502 -0.0725  0.2807 -0.2981
  685TMC3     C10186   0.569   3.068  15.899 -0.4110  0.5307  0.1480
  685TMC3     O10187   0.636   2.975  15.938  0.2107  0.2640  0.3343
  685TMC3     H10188   0.382   3.205  15.733 -0.2265  0.0673 -2.6407
  685TMC3    H110189   0.727   2.966  15.732 -0.3362  0.2332  1.9200
  685TMC3    H210190   0.658   3.253  15.416 -0.7201  0.8332 -0.1344
  685TMC3    C710191   0.847   3.144  15.562 -0.1684 -0.4996  0.0931
  685TMC3    C810192   0.430   3.324  15.506 -0.3786 -0.1699 -0.5883
  685TMC3    O110193   0.909   3.156  15.460  0.1516  0.1823  0.3017
  685TMC3    O210194   0.438   3.336  15.381  0.0162  0.5735  0.4158
  686MPD2     C10195   1.798   3.937  15.538 -0.1364 -0.7451 -0.3629
  686MPD2    C110196   1.880   3.846  15.595  0.0315  0.5629 -0.0519
  686MPD2    C210197   1.988   3.806  15.515 -0.0595  0.6959  0.2521
  686MPD2    C310198   2.003   3.838  15.377  0.2581  0.5565  0.2448
  686MPD2    C410199   1.905   3.918  15.323  0.5900 -0.4703 -0.7161
  686MPD2    C510200   1.800   3.961  15.406  0.7621 -0.5818  0.0839
  686MPD2     H10201   2.059   3.749  15.574 -2.2200 -0.5769  1.6521
  686MPD2    H110202   1.919   3.952  15.221  3.2786  0.4939 -0.0156
  686MPD2    H210203   1.708   3.975  15.583  0.5372  0.0134  0.3407
  686MPD2    H310204   1.730   4.029  15.359 -1.6338 -2.1558  1.4079
  686MPD2     N10205   2.109   3.786  15.302  0.2220 -0.4081  0.4676
  686MPD2    H510206   2.108   3.828  15.210  0.1486 -1.3860  0.0150
  686MPD2    N110207   1.848   3.801  15.721  0.0366 -0.4548  0.3008
  686MPD2    H710208   1.767   3.842  15.767 -0.4749 -1.8942  0.6877
  687TMC3    C110209   2.149   3.572  15.404  0.1953  0.4814  1.5503
  687TMC3    C210210   2.014   3.530  15.383 -0.4025  0.3893 -0.3030
  687TMC3    C310211   1.979   3.403  15.418  0.1634  0.3489  0.2551
  687TMC3    C410212   2.241   3.483  15.447  0.8091  0.4843  0.5056
  687TMC3    C510213   2.204   3.351  15.471  0.4259 -0.5912 -0.2372
  687TMC3    C610214   2.073   3.314  15.471  0.0410 -0.0371 -0.0949
  687TMC3     C10215   2.198   3.691  15.336 -0.1825  0.2012 -0.0023
  687TMC3     O10216   2.312   3.684  15.288 -0.2653  0.1222  0.0141
  687TMC3     H10217   1.939   3.598  15.344 -0.7136  0.2110 -0.0134
  687TMC3    H110218   2.347   3.507  15.441  1.1714 -0.9981  0.8718
  687TMC3    H210219   2.044   3.219  15.515  0.8502 -0.7359 -1.0654
  687TMC3    C710220   2.290   3.276  15.552  0.5670 -0.4722  0.2428
  687TMC3    C810221   1.854   3.385  15.494 -1.0171 -0.2852  0.5640
  687TMC3    O110222   2.331   3.344  15.643 -0.5343 -0.5195  0.1202
  687TMC3    O210223   1.845   3.295  15.572 -0.0159  0.3568 -0.4227
  688MPD2     C10224   1.020   2.583  17.109 -1.0659 -0.1120 -0.0826
  688MPD2    C110225   1.036   2.466  17.177 -0.1737  1.1570  0.4360
  688MPD2    C210226   1.152   2.401  17.142  0.5912  0.7239  0.0218
  688MPD2    C310227   1.232   2.454  17.043 -0.3091 -0.3130 -0.2792
  688MPD2    C410228   1.210   2.567  16.969 -0.0969 -1.1537 -0.3314
  688MPD2    C510229   1.102   2.636  17.019 -0.5137  0.3091 -0.8902
  688MPD2     H10230   1.177   2.314  17.201  2.1083  1.1453  0.0180
  688MPD2    H110231   1.273   2.600  16.887  1.5004 -1.9443  0.5971
  688MPD2    H210232   0.934   2.647  17.126 -0.4077  0.5084  0.8738
  688MPD2    H310233   1.068   2.724  16.965 -3.0613  0.8487  1.6079
  688MPD2     N10234   1.352   2.389  17.006  0.5159 -0.0465  0.1357
  688MPD2    H510235   1.395   2.428  16.923  0.8093 -0.7042 -0.0231
  688MPD2    N110236   0.951   2.412  17.271  0.3140 -0.1432 -0.0499
  688MPD2    H710237   0.967   2.315  17.298 -0.4568  0.5520  2.9032
  689TMC3    C110238   0.774   2.417  17.434 -0.9573 -0.5830  0.4330
  689TMC3    C210239   0.722   2.508  17.531 -0.1066  0.2959 -0.1971
  689TMC3    C310240   0.654   2.448  17.632  0.0970  0.2703 -0.2185
  689TMC3    C410241   0.759   2.278  17.434 -0.5576  0.2048 -0.3231
  689TMC3    C510242   0.696   2.230  17.543 -0.3314 -0.1897  0.0631
  689TMC3    C610243   0.645   2.313  17.642  0.9702  0.1790  0.2890
  689TMC3     C10244   0.848   2.480  17.333 -0.6426  0.4027  0.7338
  689TMC3     O10245   0.813   2.595  17.321 -0.1832 -0.0986  0.1580
  689TMC3     H10246   0.746   2.613  17.540  0.0317  0.0425  2.2967
  689TMC3    H110247   0.798   2.221  17.350  1.5586 -1.2675  1.6779
  689TMC3    H210248   0.589   2.273  17.725 -0.8864 -0.1495 -1.1307
  689TMC3    C710249   0.681   2.088  17.555 -0.3755 -0.5579 -0.0572
  689TMC3    C810250   0.644   2.518   0.007  1.2064  0.8321 -0.3155
  689TMC3    O110251   0.659   2.050  17.670 -0.1771 -0.1647 -0.3541
  689TMC3    O210252   0.659   2.458   0.110  0.0713 -0.2128  0.0955
  690MPD2     C10253   3.567   4.225  15.048  0.8971  0.5081  0.1580
  690MPD2    C110254   3.528   4.175  14.925 -0.2442 -0.4223 -0.3879
  690MPD2    C210255   3.611   4.190  14.818  0.1723 -0.0554 -0.6422
  690MPD2    C310256   3.725   4.268  14.828 -0.2786  0.3122 -0.0404
  690MPD2    C410257   3.763   4.318  14.948 -0.6965  0.1788 -0.4273
  690MPD2    C510258   3.686   4.295  15.057  0.4924  0.7311 -0.2659
  690MPD2     H10259   3.581   4.146  14.723  0.8873 -2.2945  0.1777
  690MPD2    H110260   3.837   4.394  14.969 -0.0750 -0.6799  0.5244
  690MPD2    H210261   3.510   4.226  15.140  0.7699 -0.0023  0.0860
  690MPD2    H310262   3.715   4.331  15.155 -3.3711 -1.6609  1.7464
  690MPD2     N10263   3.791   4.303  14.711  0.1068 -0.6214 -0.3692
  690MPD2    H510264   3.737   4.290  14.627 -0.4447 -1.7720  0.1613
  690MPD2    N110265   3.407   4.098  14.911 -0.2599  0.9611  0.1962
  690MPD2    H710266   3.380   4.051  14.824  0.6820 -1.2976  1.1163
  691TMC3    C110267   3.215   3.979  14.970 -0.4819  0.2085  0.2812
  691TMC3    C210268   3.087   4.008  15.013 -0.1749 -0.6577  0.6999
  691TMC3    C310269   2.994   3.912  14.987 -0.2314 -0.4568  0.0301
  691TMC3    C410270   3.252   3.870  14.894  1.1085 -0.0566 -0.5600
  691TMC3    C510271   3.158   3.776  14.867  0.9633 -0.1882 -0.1006
  691TMC3    C610272   3.034   3.799  14.921  0.4773  0.7145 -0.2436
  691TMC3     C10273   3.311   4.081  15.010  0.6947 -0.3186 -0.2263
  691TMC3     O10274   3.302   4.133  15.122 -0.3294  0.1484  0.3243
  691TMC3     H10275   3.067   4.104  15.060 -1.8748 -0.8778  0.4189
  691TMC3    H110276   3.355   3.858  14.861  1.1313  0.4463 -0.6717
  691TMC3    H210277   2.951   3.732  14.908 -0.2931  1.4880  0.7429
  691TMC3    C710278   3.208   3.648  14.857  0.7228  0.1782  0.4850
  691TMC3    C810279   2.897   3.893  15.086  0.4509 -0.2321  0.5623
  691TMC3    O110280   3.323   3.629  14.811 -0.8108  0.3443 -0.4301
  691TMC3    O210281   2.878   3.776  15.125  0.4266 -0.4343 -0.2077
  692TMC3    C110282   0.212   0.186  15.642 -0.2036 -0.9304  0.4009
  692TMC3    C210283   0.315   0.233  15.717  0.4813 -0.4457  0.2301
  692TMC3    C310284   0.415   0.144  15.759 -0.3251  0.0820  0.3547
  692TMC3    C410285   0.198   0.054  15.609 -0.0489 -0.2524  0.2806
  692TMC3    C510286   0.291   4.709  15.663 -0.2485  0.0371  0.0295
  692TMC3    C610287   0.401   0.011  15.732  0.0581 -0.1489 -0.4814
  692TMC3     C10288   0.085   0.263  15.625 -0.0575  1.0669  0.2862
  692TMC3     O10289   4.736   0.207  15.558 -0.2739 -0.0212 -0.4653
  692TMC3     H10290   0.311   0.338  15.744  0.3565 -0.1963 -0.7408
  692TMC3    H110291   0.100   0.016  15.581  0.4674 -1.7169  0.5035
  692TMC3    H210292   0.490   4.688  15.733  0.1633 -0.0287 -2.7271
  692TMC3    C710293   0.266   4.573  15.636  0.8910 -0.1338 -0.1825
  692TMC3    C810294   0.454   0.176  15.898  0.0545 -0.0056 -0.2806
  692TMC3    O110295   0.205   4.553  15.538 -0.4729 -0.0976  0.0606
  692TMC3    O210296   0.472   0.082  15.976  0.1178 -0.0538  0.4058
  693MPD2     C10297   4.076   3.185  11.046 -0.9509  0.2576 -0.2242
  693MPD2    C110298   4.002   3.091  10.980  0.2915 -0.6277 -0.3725
  693MPD2    C210299   4.037   2.954  11.001  0.6917  0.1325 -0.3932
  693MPD2    C310300   4.134   2.915  11.091  0.4605  0.4896 -0.7148
  693MPD2    C410301   4.194   3.010  11.162 -0.4850  0.2640 -0.2703
  693MPD2    C510302   4.157   3.144  11.150  0.0861  0.6076  1.0214
  693MPD2     H10303   3.987   2.889  10.930 -2.0633  1.6669  0.1540
  693MPD2    H110304   4.258   2.973  11.242 -0.2968 -2.2954 -1.6263
  693MPD2    H210305   4.040   3.287  11.059 -0.6239  0.0916  2.0532
  693MPD2    H310306   4.211   3.219  11.207  1.4674  0.6837 -0.3901
  693MPD2     N10307   4.175   2.783  11.113  0.2986 -0.6528  1.1460
  693MPD2    H510308   4.240   2.775  11.190  1.4766  0.0896  0.2333
  693MPD2    N110309   3.889   3.136  10.900  0.3532  0.0384  0.4432
  693MPD2    H710310   3.876   3.237  10.895  2.6542  0.2431 -1.1395
  694TMC3    C110311   3.672   3.137  10.808 -0.4953  0.0877 -0.0479
  694TMC3    C210312   3.588   3.087  10.714  0.1032  0.5726 -0.0740
  694TMC3    C310313   3.456   3.129  10.718 -0.4100 -0.0737 -0.1356
  694TMC3    C410314   3.632   3.230  10.894  0.1384 -0.0119 -0.2867
  694TMC3    C510315   3.501   3.272  10.891 -0.5504 -0.2726 -0.2016
  694TMC3    C610316   3.410   3.215  10.811  0.4988 -0.4867  0.1532
  694TMC3     C10317   3.795   3.062  10.836 -0.5766  0.0882  0.5404
  694TMC3     O10318   3.793   2.945  10.811  0.3866 -0.1780 -0.2079
  694TMC3     H10319   3.631   3.003  10.661 -1.7890 -1.9894  2.4619
  694TMC3    H110320   3.696   3.254  10.978 -0.9027  3.0739 -0.3782
  694TMC3    H210321   3.307   3.249  10.819  0.8717  0.3485  1.4269
  694TMC3    C710322   3.475   3.361  11.005 -0.3293 -1.2044  0.5070
  694TMC3    C810323   3.358   3.045  10.650  0.0397 -0.5082 -0.6017
  694TMC3    O110324   3.571   3.424  11.049 -0.1866 -0.0608  0.4141
  694TMC3    O210325   3.244   3.056  10.697  0.3078 -0.2975 -0.8528
  695MPD2     C10326   0.551   0.433  13.108 -0.3651 -0.5974  0.8345
  695MPD2    C110327   0.521   0.442  13.243  0.4773  0.9583  0.5032
  695MPD2    C210328   0.395   0.487  13.288 -0.2774  0.5619  0.9042
  695MPD2    C310329   0.303   0.523  13.189  0.1018  0.3960 -0.5239
  695MPD2    C410330   0.328   0.509  13.059 -0.2317  0.3250 -0.0562
  695MPD2    C510331   0.453   0.470  13.021 -0.0286  0.2417 -0.8759
  695MPD2     H10332   0.369   0.488  13.393 -2.1425  1.1167  0.4228
  695MPD2    H110333   0.258   0.547  12.986 -0.8463  0.6762  0.7048
  695MPD2    H210334   0.654   0.416  13.078 -0.3302 -1.4758  1.4273
  695MPD2    H310335   0.480   0.482  12.916 -0.8623  2.2822 -0.8557
  695MPD2     N10336   0.182   0.575  13.233 -0.6457 -0.3671  0.2158
  695MPD2    H510337   0.155   0.565  13.330 -0.3209  0.4957  0.3960
  695MPD2    N110338   0.612   0.424  13.355 -0.0529  0.0304 -0.5341
  695MPD2    H710339   0.563   0.441  13.442  0.7170  0.3064 -0.1616
  696TMC3    C110340   4.706   0.673  13.221 -0.1086 -0.1492 -0.7661
  696TMC3    C210341   4.669   0.583  13.314  0.1383  0.4599 -0.2541
  696TMC3    C310342   4.550   0.602  13.383  0.5133 -0.9419 -0.3955
  696TMC3    C410343   4.635   0.785  13.199  0.0049  0.7604 -0.0739
  696TMC3    C510344   4.531   0.810  13.287  0.4277  0.2602  0.1900
  696TMC3    C610345   4.476   0.722  13.371 -0.4803 -0.4605 -0.1057
  696TMC3     C10346   0.095   0.652  13.149 -0.4488  0.6395  0.1927
  696TMC3     O10347   0.127   0.726  13.059  0.3878  0.0002  0.1243
  696TMC3     H10348   4.705   0.481  13.312 -0.2090  0.2902  2.2056
  696TMC3    H110349   4.660   0.862  13.127  1.1908  0.3427 -0.1089
  696TMC3    H210350   4.401   0.749  13.444 -1.6773  2.0787 -2.2328
  696TMC3    C710351   4.478   0.950  13.281  0.1202  0.6133 -0.1650
  696TMC3    C810352   4.549   0.542  13.514  0.6434  0.6027 -0.1736
  696TMC3    O110353   4.487   1.002  13.172 -0.3845  0.6091  0.1095
  696TMC3    O210354   4.655   0.515  13.566 -0.2301 -0.1871 -0.2366
  697MPD2     C10355   4.559   2.005  15.582 -0.0993  0.3442  0.7041
  697MPD2    C110356   4.544   1.974  15.444 -0.9291 -0.3316  0.0274
  697MPD2    C210357   4.592   2.049  15.348 -0.3313 -0.0581  0.2225
  697MPD2    C310358   4.677   2.159  15.379 -0.1791 -0.6213  0.0401
  697MPD2    C410359   4.688   2.199  15.508  0.1373 -0.2764  1.6255
  697MPD2    C510360   4.629   2.127  15.608 -0.1983  0.0285 -0.0432
  697MPD2     H10361   4.582   2.021  15.243  0.0612 -2.8247  0.9075
  697MPD2    H110362   4.732   2.294  15.538 -0.0084  0.7816 -1.4973
  697MPD2    H210363   4.521   1.947  15.665  2.4731 -1.9096  0.3202
  697MPD2    H310364   4.631   2.156  15.713  1.8152 -0.1598 -0.0294
  697MPD2     N10365   0.013   2.221  15.269  0.2998  0.0306  0.2564
  697MPD2    H510366   4.728   2.190  15.175 -0.3265  0.3823  0.2908
  697MPD2    N110367   4.486   1.847  15.408  0.4489  0.2579 -0.3358
  697MPD2    H710368   4.488   1.840  15.307  0.2769  0.6362 -0.3679
  698TMC3    C110369   0.177   2.337  15.171 -0.0189 -0.6234  0.6771
  698TMC3    C210370   0.311   2.345  15.173  0.8444  0.3884  0.3425
  698TMC3    C310371   0.370   2.402  15.068 -0.7435 -0.1689 -0.6956
  698TMC3    C410372   0.099   2.393  15.076 -0.3035 -0.1772  0.4311
  698TMC3    C510373   0.162   2.450  14.967 -0.3452 -0.5008 -0.4815
  698TMC3    C610374   0.301   2.464  14.963 -0.0109  0.2136  0.1358
  698TMC3     C10375   0.115   2.300  15.290 -0.7030  0.3436 -0.6336
  698TMC3     O10376   0.184   2.313  15.393  0.2495  0.7227  0.1669
  698TMC3     H10377   0.370   2.296  15.251  1.4277  1.3570  0.5110
  698TMC3    H110378   4.729   2.389  15.079 -0.3169 -0.5656 -0.6785
  698TMC3    H210379   0.351   2.518  14.885  0.2631 -0.6422 -0.2816
  698TMC3    C710380   0.102   2.460  14.838 -0.3123 -0.1488 -0.2157
  698TMC3    C810381   0.512   2.421  15.087 -0.0139  0.5231 -0.0996
  698TMC3    O110382   0.174   2.482  14.737  0.4003  0.4888  0.3689
  698TMC3    O210383   0.572   2.339  15.153 -0.0305  0.8252  0.3217
  699TMC3    C110384   4.299   0.940  12.813 -0.5924 -0.2292  0.0666
  699TMC3    C210385   4.308   0.808  12.845  0.4995  0.2908 -0.5558
  699TMC3    C310386   4.260   0.765  12.960  0.0019  0.5312  0.5155
  699TMC3    C410387   4.228   1.032  12.891 -0.7057  0.4102 -0.3434
  699TMC3    C510388   4.179   0.977  13.009  0.1643 -0.2938 -0.1018
  699TMC3    C610389   4.197   0.848  13.049  0.1019 -0.2975  0.6768
  699TMC3     C10390   4.327   0.974  12.675  0.1482 -0.2914 -0.0931
  699TMC3     O10391   4.292   0.903  12.583 -0.0373 -0.4351 -0.2059
  699TMC3     H10392   4.352   0.733  12.780  0.2076  0.0104 -0.4324
  699TMC3    H110393   4.216   1.132  12.850  1.9352  0.8780  0.0197
  699TMC3    H210394   4.148   0.810  13.138  0.9446  0.2723  1.3802
  699TMC3    C710395   4.074   1.047  13.074  0.4447 -0.3970  0.0132
  699TMC3    C810396   4.295   0.630  12.993  0.1286 -0.1201  0.2405
  699TMC3    O110397   4.065   1.025  13.196 -0.2445  0.5141 -0.0642
  699TMC3    O210398   4.230   0.574  13.083 -0.5906 -0.2144  0.1266
  700TMC3    C110399   3.608   2.515  16.655 -1.0700  0.1977 -1.1554
  700TMC3    C210400   3.629   2.395  16.710  0.5956  0.1123  0.3642
  700TMC3    C310401   3.659   2.372  16.842  0.2157 -0.3618 -0.3716
  700TMC3    C410402   3.639   2.626  16.724  0.1989  0.2345  0.4758
  700TMC3    C510403   3.653   2.606  16.862 -0.4479 -0.4088  0.1252
  700TMC3    C610404   3.671   2.485  16.919 -0.6006 -0.1969 -0.1206
  700TMC3     C10405   3.624   2.517  16.511 -0.2504  0.1677 -0.0164
  700TMC3     O10406   3.589   2.418  16.449 -0.4320 -0.2190  0.1594
  700TMC3     H10407   3.621   2.317  16.635  0.7614  0.8966 -0.4685
  700TMC3    H110408   3.636   2.722  16.673  0.8459  0.7145  1.3370
  700TMC3    H210409   3.697   2.482  17.025 -1.2659 -0.2040  0.0431
  700TMC3    C710410   3.677   2.728  16.941  0.0136  0.2537  0.0193
  700TMC3    C810411   3.730   2.249  16.868  0.4328 -0.2027 -0.0487
  700TMC3    O110412   3.764   2.720  17.028  0.3845 -0.8154  0.8956
  700TMC3    O210413   3.737   2.167  16.778  0.3553  0.0972  0.5724
  701TMC3    C110414   3.722   1.188  15.551 -1.1999 -0.0996  0.0849
  701TMC3    C210415   3.725   1.134  15.424 -1.1789 -0.9996 -0.0851
  701TMC3    C310416   3.825   1.178  15.335  0.3095 -0.2830  0.4258
  701TMC3    C410417   3.803   1.297  15.578 -0.4538 -0.5024 -0.4380
  701TMC3    C510418   3.895   1.338  15.490 -0.1869  0.0092 -0.1058
  701TMC3    C610419   3.913   1.278  15.369  0.4664 -0.5815 -0.5214
  701TMC3     C10420   3.591   1.205  15.600 -0.1748  0.3131  1.1283
  701TMC3     O10421   3.555   1.320  15.623  0.3020  0.4314  0.0127
  701TMC3     H10422   3.649   1.059  15.404  2.2705 -3.8074 -2.6512
  701TMC3    H110423   3.774   1.363  15.659 -1.4309 -0.2266 -1.0133
  701TMC3    H210424   4.003   1.295  15.310  2.0545 -0.6884  1.8783
  701TMC3    C710425   3.949   1.473  15.503  0.3969  0.1646 -0.6817
  701TMC3    C810426   3.852   1.107  15.212 -0.1106 -0.7509 -0.0306
  701TMC3    O110427   3.994   1.526  15.406  0.2636  0.0836  0.4424
  701TMC3    O210428   3.959   1.101  15.158  0.3153  0.0763 -0.6524
  702MPD2     C10429   3.066   3.309  10.595  0.0621  0.4790 -0.5538
  702MPD2    C110430   2.995   3.420  10.626  0.5000 -1.1227 -0.0999
  702MPD2    C210431   2.966   3.508  10.529 -0.4597 -0.3241 -0.2718
  702MPD2    C310432   3.019   3.493  10.399 -0.9084 -0.3438  0.2181
  702MPD2    C410433   3.089   3.376  10.372  0.1779 -0.0328  0.4309
  702MPD2    C510434   3.109   3.283  10.465  0.2011 -0.0071 -0.1773
  702MPD2     H10435   2.906   3.592  10.561 -0.4647 -1.0615  1.6138
  702MPD2    H110436   3.122   3.352  10.271 -1.9137 -0.1280 -0.2378
  702MPD2    H210437   3.101   3.233  10.664 -0.6733  0.0141 -0.6849
  702MPD2    H310438   3.169   3.198  10.435  0.8521 -0.3290  1.9798
  702MPD2     N10439   3.032   3.613  10.315 -0.0689  0.1801 -0.4574
  702MPD2    H510440   3.086   3.609  10.229 -0.1106  2.1922 -0.5728
  702MPD2    N110441   2.944   3.455  10.758  0.4338  0.4883  0.2703
  702MPD2    H710442   2.900   3.547  10.761  1.0373  0.7630  0.7618
  703TMC3    C110443   2.981   3.825  10.230  1.2971 -0.2651 -0.1195
  703TMC3    C210444   2.893   3.924  10.201 -0.0923 -0.4277 -0.1499
  703TMC3    C310445   2.939   4.051  10.179 -0.4403 -0.3880  0.3570
  703TMC3    C410446   3.112   3.852  10.240  0.1882  0.0147 -0.8077
  703TMC3    C510447   3.154   3.978  10.199  0.6989 -0.2717 -0.5696
  703TMC3    C610448   3.071   4.080  10.156  0.2423 -0.1153 -0.2823
  703TMC3     C10449   2.943   3.719  10.318 -0.5647 -0.0200  0.2143
  703TMC3     O10450   2.838   3.735  10.386  0.2388 -0.2511  0.0613
  703TMC3     H10451   2.787   3.902  10.206  0.0180 -0.9122  0.0071
  703TMC3    H110452   3.194   3.788  10.272 -0.1329 -0.3644 -0.7501
  703TMC3    H210453   3.108   4.178  10.128  0.9423 -0.6756 -1.3427
  703TMC3    C710454   3.292   4.019  10.209  0.0664 -0.1321 -0.2280
  703TMC3    C810455   2.852   4.159  10.224 -0.2246  0.5204 -0.0386
  703TMC3    O110456   3.338   4.103  10.133 -0.3922 -0.2649  0.2341
  703TMC3    O210457   2.775   4.121  10.307  0.5176 -0.1505 -0.5820
  704TMC3    C110458   1.851   1.800  12.733  0.0198 -0.0596 -0.2738
  704TMC3    C210459   1.951   1.760  12.644 -0.0319 -0.1707  0.6212
  704TMC3    C310460   1.983   1.621  12.634 -0.4754 -0.1695  0.0969
  704TMC3    C410461   1.815   1.717  12.832 -0.0652 -0.1139  0.4244
  704TMC3    C510462   1.840   1.583  12.820 -0.2940  0.5502 -0.0652
  704TMC3    C610463   1.923   1.533  12.724 -0.1240 -0.3504  0.0164
  704TMC3     C10464   1.736   1.862  12.668 -0.0924 -0.6570  0.3626
  704TMC3     O10465   1.650   1.902  12.741 -0.1593  0.4491 -0.0770
  704TMC3     H10466   1.994   1.834  12.577  2.1275 -0.5491  1.6105
  704TMC3    H110467   1.744   1.746  12.909 -0.9596 -1.3093  0.0531
  704TMC3    H210468   1.954   1.430  12.728  2.1558  0.3487  0.2923
  704TMC3    C710469   1.723   1.501  12.846 -0.8757 -0.4389  1.1159
  704TMC3    C810470   1.981   1.576  12.494 -0.0439  0.0384 -0.0129
  704TMC3    O110471   1.706   1.401  12.778  0.0544 -0.3149 -0.4895
  704TMC3    O210472   1.969   1.676  12.425 -0.2158  0.4750 -0.3984
  705MPD2     C10473   0.558   4.466  16.305 -0.2339 -0.6725 -0.3377
  705MPD2    C110474   0.554   4.603  16.276  0.3092  0.2705  0.4696
  705MPD2    C210475   0.443   4.677  16.314 -0.4137  0.3043 -0.1763
  705MPD2    C310476   0.330   4.623  16.373 -0.1580  1.0051 -0.5910
  705MPD2    C410477   0.332   4.487  16.395  0.2938  0.0113 -0.2176
  705MPD2    C510478   0.449   4.407  16.370  0.2667 -0.6493 -0.3771
  705MPD2     H10479   0.425   0.043  16.287 -1.5725  0.2438  0.3500
  705MPD2    H110480   0.245   4.439  16.438  0.2109 -0.3263 -0.7517
  705MPD2    H210481   0.633   4.397  16.266 -0.2661 -0.3299 -1.0057
  705MPD2    H310482   0.438   4.299  16.374 -1.0065 -0.5425 -1.0141
  705MPD2     N10483   0.214   4.690  16.411  0.0049  0.2290  0.9420
  705MPD2    H510484   0.137   4.646  16.459 -0.0744 -1.3617 -0.6543
  705MPD2    N110485   0.648   4.668  16.186 -0.2808  0.1704  0.0134
  705MPD2    H710486   0.627   0.026  16.162 -3.1130 -0.3615  0.3474
  706TMC3    C110487   0.854   4.712  15.797  0.2206 -0.4332  0.3879
  706TMC3    C210488   0.829   0.110  15.803  0.6038  0.1192 -0.2537
  706TMC3    C310489   0.815   0.172  15.927 -0.0056  0.5496 -0.4234
  706TMC3    C410490   0.858   4.642  15.916  0.1181  0.3122  0.9913
  706TMC3    C510491   0.824   4.692  16.035 -0.0095  0.1573 -0.7125
  706TMC3    C610492   0.806   0.092  16.038  0.7096 -1.3464 -0.2335
  706TMC3     C10493   0.932   4.653  15.684  0.2998  0.3922  0.4787
  706TMC3     O10494   1.001   4.554  15.713 -0.0723 -0.1367  0.0277
  706TMC3     H10495   0.838   0.174  15.716  1.6725  0.5525  0.1836
  706TMC3    H110496   0.871   4.535  15.901  0.6454  0.4561  0.4538
  706TMC3    H210497   0.770   0.141  16.128  0.3005  0.3248 -1.3083
  706TMC3    C710498   0.755   4.607  16.131 -0.2644  0.2233 -0.6105
  706TMC3    C810499   0.787   0.315  15.937 -0.1377  0.1692 -0.6339
  706TMC3    O110500   0.793   4.493  16.136 -0.0877  0.0758 -0.3113
  706TMC3    O210501   0.736   0.366  15.837  0.1631 -0.8729  0.5525
  707TMC3    C110502   2.344   4.167   1.642 -0.4376  0.6976  0.1136
  707TMC3    C210503   2.267   4.064   1.602 -0.5001 -0.6383 -0.8109
  707TMC3    C310504   2.130   4.068   1.624 -0.2171 -1.1197 -0.1422
  707TMC3    C410505   2.287   4.282   1.694 -1.2528  0.8576  0.0291
  707TMC3    C510506   2.148   4.280   1.713 -0.3039 -0.2505 -0.0809
  707TMC3    C610507   2.069   4.173   1.681 -0.3022  0.2793 -0.1135
  707TMC3     C10508   2.485   4.162   1.609 -0.5787 -0.2939 -0.4493
  707TMC3     O10509   2.513   4.147   1.493  0.2869 -0.3416 -0.0166
  707TMC3     H10510   2.318   3.983   1.551  0.4934 -0.2189 -0.4651
  707TMC3    H110511   2.348   4.368   1.717 -1.4282  0.5983  1.4712
  707TMC3    H210512   1.961   4.178   1.688 -0.3007 -2.0607  1.3890
  707TMC3    C710513   2.075   4.408   1.733  0.8123  0.3120  0.4888
  707TMC3    C810514   2.035   3.973   1.553 -0.4365 -0.2275 -0.2889
  707TMC3    O110515   1.964   4.391   1.785 -0.3320 -0.3487 -0.3894
  707TMC3    O210516   1.915   3.986   1.566  0.1864  0.1350 -0.1800
  708MPD2     C10517   3.725   3.784  13.578 -0.6689  0.7032  0.4287
  708MPD2    C110518   3.644   3.687  13.519 -0.1818 -0.2104 -0.8881
  708MPD2    C210519   3.683   3.553  13.537 -0.4221  0.4378  0.3397
  708MPD2    C310520   3.795   3.521  13.607  0.6952  0.8222 -0.1577
  708MPD2    C410521   3.881   3.621  13.655 -0.4445 -0.6093 -0.2415
  708MPD2    C510522   3.841   3.746  13.643  0.2746 -0.0058 -0.0793
  708MPD2     H10523   3.609   3.478  13.513  0.1918  0.2712 -1.0431
  708MPD2    H110524   3.971   3.593  13.708 -0.1775  2.7198  1.0936
  708MPD2    H210525   3.699   3.889  13.579  0.3941  0.9630  1.0766
  708MPD2    H310526   3.903   3.825  13.685  1.4041 -0.8733 -0.1061
  708MPD2     N10527   3.827   3.388  13.639  0.1388 -0.0478 -0.3925
  708MPD2    H510528   3.920   3.374  13.678 -0.9393 -2.4018  1.3717
  708MPD2    N110529   3.528   3.725  13.447  0.2897  0.8572 -0.8454
  708MPD2    H710530   3.508   3.824  13.447  2.2970  1.2620 -0.5345
  709TMC3    C110531   3.347   3.711  13.299 -0.1081 -0.2588  0.6190
  709TMC3    C210532   3.329   3.647  13.176  0.4131 -0.0132  0.4604
  709TMC3    C310533   3.202   3.591  13.152  0.6077 -0.2280 -0.7824
  709TMC3    C410534   3.241   3.720  13.387  0.3833  0.0132  0.6835
  709TMC3    C510535   3.118   3.667  13.355 -0.2323 -0.2946 -0.1388
  709TMC3    C610536   3.099   3.605  13.235  0.4078  0.2027 -0.7429
  709TMC3     C10537   3.452   3.642  13.367 -0.2314  1.0631 -0.4673
  709TMC3     O10538   3.460   3.523  13.351  0.1288 -0.3260 -0.3346
  709TMC3     H10539   3.417   3.613  13.123  1.3544 -0.0275  2.0316
  709TMC3    H110540   3.258   3.757  13.487 -1.9420 -1.1858  1.5241
  709TMC3    H210541   3.008   3.546  13.233  0.1695  0.5149  0.8546
  709TMC3    C710542   3.066   3.595  13.466 -0.1716  0.4154  0.2605
  709TMC3    C810543   3.181   3.484  13.052  0.2076 -0.0608  0.0822
  709TMC3    O110544   2.950   3.598  13.496 -0.0935 -0.2617 -0.0637
  709TMC3    O210545   3.087   3.410  13.058  0.4202  0.5644 -0.0700
  710TMC3    C110546   4.617   0.579   0.272 -0.0668 -0.1720 -0.7565
  710TMC3    C210547   4.648   0.515   0.151 -0.5986  0.5528 -0.8605
  710TMC3    C310548   0.030   0.445   0.141  0.7560  0.8072  0.1231
  710TMC3    C410549   4.705   0.588   0.372  0.7032 -0.7684 -0.8806
  710TMC3    C510550   0.081   0.515   0.363  0.4317  0.2895 -0.2736
  710TMC3    C610551   0.115   0.443   0.246 -1.4690 -0.5342  0.3260
  710TMC3     C10552   4.487   0.643   0.283  0.3144 -0.3203 -0.0834
  710TMC3     O10553   4.415   0.675   0.188 -0.0942  0.0712  0.4041
  710TMC3     H10554   4.580   0.518   0.068 -0.9885  0.1593 -0.5539
  710TMC3    H110555   4.686   0.664   0.447  0.9950 -1.4330 -0.1333
  710TMC3    H210556   0.205   0.384   0.235 -2.2249 -1.7355  0.5718
  710TMC3    C710557   0.133   0.463   0.490  0.0147 -0.5562 -0.0807
  710TMC3    C810558   0.043   0.335   0.052 -0.9155  0.4582 -0.3359
  710TMC3    O110559   0.051   0.448   0.582 -0.7427  0.2428 -0.3770
  710TMC3    O210560   0.154   0.290   0.025 -0.6408  0.3115  0.3893
  711TMC3    C110561   4.416   0.823  14.935 -0.2463 -0.3978  0.1126
  711TMC3    C210562   4.436   0.914  15.036 -0.6652 -0.6753  0.6391
  711TMC3    C310563   4.524   0.874  15.138 -0.1912 -0.4707 -0.2255
  711TMC3    C410564   4.489   0.706  14.917 -0.0132  0.4166  0.7597
  711TMC3    C510565   4.580   0.678  15.013  0.7785 -0.1993  0.2114
  711TMC3    C610566   4.601   0.753  15.126  0.3546  0.7276  0.2451
  711TMC3     C10567   4.329   0.863  14.825  0.4008  0.4273  0.3005
  711TMC3     O10568   4.334   0.802  14.719 -0.2169 -0.3031 -0.4501
  711TMC3     H10569   4.383   1.009  15.039 -0.5921 -0.5892 -0.7132
  711TMC3    H110570   4.488   0.652  14.823 -1.5628  2.1875 -0.2342
  711TMC3    H210571   4.670   0.735  15.208  1.4210  0.1397 -0.7815
  711TMC3    C710572   4.645   0.553  15.017  0.2905 -0.4980  0.2741
  711TMC3    C810573   4.540   0.970  15.248 -0.4378  0.1492  0.5824
  711TMC3    O110574   4.723   0.548  15.109 -0.5902  0.1823 -0.4947
  711TMC3    O210575   4.449   1.051  15.254 -0.8605 -0.4129 -0.1230
  712MPD2     C10576   1.256   1.710  14.024 -0.0754 -0.2951 -0.3573
  712MPD2    C110577   1.206   1.790  13.918 -0.1931  0.4686 -0.7672
  712MPD2    C210578   1.190   1.927  13.933  0.5983  0.2714 -0.2508
  712MPD2    C310579   1.248   1.985  14.045 -0.4265  0.2961  0.3978
  712MPD2    C410580   1.296   1.904  14.150  0.0528 -0.1279  0.3224
  712MPD2    C510581   1.293   1.765  14.148  0.8891  0.1458 -0.5299
  712MPD2     H10582   1.147   1.985  13.852 -1.8396 -2.1415 -0.6669
  712MPD2    H110583   1.319   1.949  14.246 -0.4365 -0.5033  0.6144
  712MPD2    H210584   1.254   1.602  14.026 -1.0084 -0.2943 -0.9008
  712MPD2    H310585   1.323   1.710  14.236 -2.9482 -0.3604  0.4194
  712MPD2     N10586   1.281   2.121  14.049 -0.4920  0.0058  0.6054
  712MPD2    H510587   1.337   2.164  14.121  2.9301  1.9207 -3.1874
  712MPD2    N110588   1.155   1.731  13.800  0.2573 -0.5966 -0.4038
  712MPD2    H710589   1.098   1.785  13.737  0.4602  2.6871  2.2249
  713TMC3    C110590   1.280   2.343  13.982  0.0352 -0.2686  0.7497
  713TMC3    C210591   1.415   2.349  13.986  0.2251  0.1997 -0.0706
  713TMC3    C310592   1.479   2.474  13.999 -0.2754 -0.4006  0.3613
  713TMC3    C410593   1.194   2.459  13.986  0.4445 -0.2586 -0.0705
  713TMC3    C510594   1.264   2.579  14.000  0.0441 -0.1043 -0.7680
  713TMC3    C610595   1.400   2.584  14.008 -0.1026  0.6203 -0.1997
  713TMC3     C10596   1.220   2.217  13.965 -0.1339 -0.1532  0.0323
  713TMC3     O10597   1.120   2.206  13.899 -0.0280  1.0977  0.3539
  713TMC3     H10598   1.467   2.259  13.955  0.0230 -0.1182  0.5113
  713TMC3    H110599   1.086   2.456  13.981  0.3325  0.5752  2.0214
  713TMC3    H210600   1.453   2.674  14.039  0.2481  0.0767  0.7877
  713TMC3    C710601   1.194   2.700  14.017 -0.8696  0.5866  0.7398
  713TMC3    C810602   1.571   2.501  13.889  0.8305 -0.6610 -0.3930
  713TMC3    O110603   1.236   2.783  14.100  0.0815  0.2481 -0.4334
  713TMC3    O210604   1.575   2.615  13.847 -0.2059  0.1042  0.6885
  714MPD2     C10605   3.204   0.524   1.462  0.1744 -0.1093  0.2145
  714MPD2    C110606   3.213   0.421   1.371  0.0922 -0.2381  0.0011
  714MPD2    C210607   3.140   0.434   1.251  0.0980 -0.0166  0.3584
  714MPD2    C310608   3.061   0.550   1.220  0.7904 -0.1249  0.1730
  714MPD2    C410609   3.063   0.650   1.309  0.3759  0.1503  0.0834
  714MPD2    C510610   3.123   0.633   1.431  0.0883 -0.1011  0.3944
  714MPD2     H10611   3.147   0.360   1.172  0.4590  0.1736  0.2112
  714MPD2    H110612   3.004   0.740   1.294 -0.0641  0.1156  1.5296
  714MPD2    H210613   3.269   0.523   1.548  0.0015  1.6386  0.3639
  714MPD2    H310614   3.121   0.719   1.497 -5.3867  1.1448 -1.4099
  714MPD2     N10615   2.990   0.550   1.100  0.0905 -0.2765 -0.5342
  714MPD2    H510616   2.993   0.465   1.044  1.5420  0.3328 -1.3663
  714MPD2    N110617   3.313   0.324   1.400 -0.2164 -0.2195 -0.0201
  714MPD2    H710618   3.362   0.336   1.488 -1.1798 -0.4428  0.5540
  715TMC3    C110619   3.464   0.143   1.342  0.3574  0.0654  1.2443
  715TMC3    C210620   3.506   0.049   1.254 -0.3256  0.3835  0.2364
  715TMC3    C310621   3.629   4.733   1.265 -0.3116 -0.2010 -0.1176
  715TMC3    C410622   3.538   0.165   1.460 -0.2316  0.4981 -0.1549
  715TMC3    C510623   3.657   0.100   1.473  0.4753  0.0360 -0.7827
  715TMC3    C610624   3.709   0.016   1.375 -0.2457  0.4546  0.6839
  715TMC3     C10625   3.349   0.221   1.310  0.4462 -0.2628  0.1512
  715TMC3     O10626   3.285   0.188   1.214  0.0910 -0.2093 -0.6326
  715TMC3     H10627   3.440   0.022   1.172  1.0150  3.7100 -1.9487
  715TMC3    H110628   3.501   0.237   1.532 -0.3030  0.1803  0.1239
  715TMC3    H210629   3.807   4.707   1.385 -0.1382  1.1483  2.9320
  715TMC3    C710630   3.730   0.108   1.604 -0.0496  0.0737 -0.2599
  715TMC3    C810631   3.678   4.653   1.158 -0.0815  0.2067 -0.5166
  715TMC3    O110632   3.708   0.206   1.672  0.0795 -0.0473 -0.1175
  715TMC3    O210633   3.593   4.600   1.087  0.1477  0.2332  0.0824
  716MPD2     C10634   3.026   4.156   9.444 -0.1505  0.2751 -0.1749
  716MPD2    C110635   2.933   4.148   9.341 -0.0558 -0.2745 -0.2586
  716MPD2    C210636   2.906   4.021   9.286  0.0810  0.3899  0.8787
  716MPD2    C310637   2.948   3.906   9.351  0.6601 -0.5529 -0.7480
  716MPD2    C410638   3.041   3.921   9.452 -0.1547 -0.2278 -0.2055
  716MPD2    C510639   3.080   4.040   9.494  0.0649 -0.5217  0.3319
  716MPD2     H10640   2.841   4.018   9.200  0.8827 -0.9808  0.3202
  716MPD2    H110641   3.073   3.838   9.513 -0.2832 -0.1053  0.0269
  716MPD2    H210642   3.066   4.251   9.478  1.6558 -0.6119  0.1961
  716MPD2    H310643   3.149   4.048   9.577  1.9439 -2.0271 -1.0874
  716MPD2     N10644   2.928   3.777   9.288  0.3524  0.0664 -0.6705
  716MPD2    H510645   2.867   3.778   9.207 -0.2625  1.6717 -0.1797
  716MPD2    N110646   2.863   4.261   9.306  0.3678 -0.2292 -0.3920
  716MPD2    H710647   2.879   4.337   9.372 -2.0855 -0.3362  0.3380
  717TMC3    C110648   2.919   3.540   9.273 -0.5180 -0.0721 -0.3059
  717TMC3    C210649   2.790   3.559   9.218 -0.0514 -0.3478  0.5758
  717TMC3    C310650   2.726   3.448   9.163 -0.3592  0.0313  0.2300
  717TMC3    C410651   2.981   3.417   9.267 -0.0749  0.3268 -0.2702
  717TMC3    C510652   2.908   3.308   9.220 -0.0647 -0.6285  0.7222
  717TMC3    C610653   2.780   3.318   9.166  0.7381  0.4131  0.2853
  717TMC3     C10654   2.987   3.661   9.319  0.1472 -0.2205  0.3736
  717TMC3     O10655   3.095   3.639   9.376  0.5405  0.6474 -0.3820
  717TMC3     H10656   2.750   3.659   9.212 -1.8632 -1.0464  1.1634
  717TMC3    H110657   3.075   3.418   9.321 -1.0070 -0.9273  1.3866
  717TMC3    H210658   2.727   3.228   9.135  2.0331 -0.2422 -0.0001
  717TMC3    C710659   2.978   3.184   9.207 -0.1120 -0.2042 -0.5502
  717TMC3    C810660   2.600   3.462   9.087  0.2897 -0.1049  0.2158
  717TMC3    O110661   2.899   3.097   9.184  0.0599  0.3053 -0.1266
  717TMC3    O210662   2.579   3.566   9.030 -0.0568 -0.2095  0.1888
  718MPD2     C10663   2.853   2.725  12.808 -0.1688  0.5934 -0.7388
  718MPD2    C110664   2.723   2.687  12.784 -0.2085  0.2077  0.2115
  718MPD2    C210665   2.685   2.561  12.748 -0.1621  0.1521 -0.2503
  718MPD2    C310666   2.787   2.473  12.719  0.1650 -0.0574  0.6110
  718MPD2    C410667   2.915   2.513  12.723  0.5989  0.6042 -0.8340
  718MPD2    C510668   2.946   2.636  12.777 -0.3854 -0.4386 -0.3387
  718MPD2     H10669   2.580   2.533  12.743  0.1385 -1.2787  1.5858
  718MPD2    H110670   3.000   2.454  12.691  0.5039  0.1524 -0.2724
  718MPD2    H210671   2.878   2.824  12.844 -0.2352  0.2289  0.3180
  718MPD2    H310672   3.051   2.661  12.788 -0.7328  2.1317 -2.7537
  718MPD2     N10673   2.738   2.354  12.662 -0.0682  0.2219 -0.3535
  718MPD2    H510674   2.637   2.343  12.654 -0.0175 -0.5964  0.0311
  718MPD2    N110675   2.614   2.777  12.809 -0.1896  0.2149  0.1717
  718MPD2    H710676   2.521   2.745  12.783  0.3193  0.5471 -2.1326
  719TMC3    C110677   2.489   2.985  12.832  0.0530 -0.2793 -1.0069
  719TMC3    C210678   2.379   2.907  12.812  0.5648 -0.1646  0.7377
  719TMC3    C310679   2.320   2.909  12.691  0.2745  0.3812 -0.1551
  719TMC3    C410680   2.502   3.089  12.748  0.4673 -0.2327 -0.3440
  719TMC3    C510681   2.422   3.108  12.639  0.3127 -0.2403  0.0507
  719TMC3    C610682   2.332   3.011  12.605  0.2010 -0.2289 -0.0300
  719TMC3     C10683   2.619   2.913  12.838  0.3592 -0.6253  0.2961
  719TMC3     O10684   2.717   2.986  12.843  0.4826 -0.5240 -0.5999
  719TMC3     H10685   2.372   2.810  12.860 -0.6781 -1.2124 -1.5609
  719TMC3    H110686   2.583   3.156  12.771 -1.0012  0.7582  1.9947
  719TMC3    H210687   2.283   3.029  12.510  2.2467  0.6189 -0.9209
  719TMC3    C710688   2.492   3.160  12.524 -0.4431 -0.0705  0.5364
  719TMC3    C810689   2.339   2.780  12.613 -0.2013 -0.4933  0.7799
  719TMC3    O110690   2.513   3.069  12.444 -0.6131  0.0774  0.7908
  719TMC3    O210691   2.393   2.692  12.675  0.6380  0.1832 -0.0304
  720MPD2     C10692   0.791   4.122  13.926 -0.1090 -0.6588 -0.1348
  720MPD2    C110693   0.903   4.119  13.854 -0.1674  0.1884  0.2631
  720MPD2    C210694   1.019   4.098  13.920  0.2314 -0.5973  0.1607
  720MPD2    C310695   1.027   4.069  14.053  0.1186 -0.3433 -0.2527
  720MPD2    C410696   0.913   4.067  14.122  0.4396 -0.2393  0.0062
  720MPD2    C510697   0.796   4.096  14.063  0.0592  1.2572 -0.3488
  720MPD2     H10698   1.114   4.118  13.873 -0.2647 -0.1744 -0.6614
  720MPD2    H110699   0.913   4.058  14.230  0.3380  0.4519  0.0606
  720MPD2    H210700   0.692   4.123  13.882 -0.4773 -0.8065  0.6879
  720MPD2    H310701   0.702   4.095  14.118 -1.3472  0.3942 -2.7666
  720MPD2     N10702   1.157   4.079  14.112  0.2685 -0.3755 -0.8803
  720MPD2    H510703   1.231   4.084  14.043 -0.2092 -2.4424 -1.5401
  720MPD2    N110704   0.901   4.143  13.712  0.4463  0.1784  0.1633
  720MPD2    H710705   0.978   4.118  13.651  0.4510 -2.1303  1.1378
  721TMC3    C110706   1.320   4.083  14.291 -0.1302 -0.5750 -0.3665
  721TMC3    C210707   1.362   4.149  14.405 -0.3006 -0.6510  0.3127
  721TMC3    C310708   1.492   4.136  14.443  0.3267 -0.6761 -0.1045
  721TMC3    C410709   1.403   4.016  14.212 -0.1048 -0.1502 -0.4029
  721TMC3    C510710   1.531   4.007  14.256  0.5054 -0.2018 -0.8169
  721TMC3    C610711   1.585   4.068  14.365 -0.2043  0.4780  0.2878
  721TMC3     C10712   1.179   4.078  14.251  0.3620  0.4681  0.0345
  721TMC3     O10713   1.101   4.094  14.346 -0.0819  0.2719 -0.4651
  721TMC3     H10714   1.296   4.217  14.458 -2.4645 -1.3438 -1.5040
  721TMC3    H110715   1.366   3.952  14.133 -1.1209 -0.5968  0.4319
  721TMC3    H210716   1.679   4.038  14.411 -1.3292 -1.9109  1.0456
  721TMC3    C710717   1.616   3.905  14.191  0.6009  0.8491  0.1361
  721TMC3    C810718   1.551   4.228  14.536  0.2075  0.1657 -0.1010
  721TMC3    O110719   1.560   3.805  14.145 -0.3461 -0.0361  0.5954
  721TMC3    O210720   1.670   4.256  14.532  0.4624  0.0559  0.7139
  722MPD2     C10721   0.415   2.629  13.079  0.4533  0.0353 -0.2016
  722MPD2    C110722   0.373   2.760  13.093  0.1396 -0.6910  0.0763
  722MPD2    C210723   0.256   2.799  13.032  0.6088  0.4209 -0.0750
  722MPD2    C310724   0.168   2.706  12.982 -0.9036  0.3935  0.1891
  722MPD2    C410725   0.209   2.569  12.978  0.5102  0.1439  0.0088
  722MPD2    C510726   0.333   2.539  13.018  0.4679 -0.3459 -0.6165
  722MPD2     H10727   0.228   2.904  13.032  1.2615  0.5898 -1.9549
  722MPD2    H110728   0.147   2.494  12.930  0.8832 -0.4619  0.4756
  722MPD2    H210729   0.505   2.589  13.125  2.5263  1.5606 -2.9278
  722MPD2    H310730   0.366   2.436  13.007 -0.7729 -0.8545  0.4313
  722MPD2     N10731   0.035   2.736  12.946 -0.2304  0.1363 -0.4707
  722MPD2    H510732   4.709   2.658  12.936 -2.6121  1.9905  0.3689
  722MPD2    N110733   0.439   2.856  13.168 -0.1338 -0.5976  0.2674
  722MPD2    H710734   0.414   2.951  13.144  1.7853 -0.7035 -2.1421
  723TMC3    C110735   4.579   2.862  12.930  0.1630 -0.3226  0.2398
  723TMC3    C210736   4.522   2.758  12.999  0.7665 -0.4279 -0.2713
  723TMC3    C310737   4.392   2.785  13.038 -0.8835 -0.3813 -0.5612
  723TMC3    C410738   4.520   2.976  12.887  0.0517  0.1711 -0.1191
  723TMC3    C510739   4.395   3.000  12.932 -0.7290  0.4341  1.0778
  723TMC3    C610740   4.338   2.905  13.017  0.1319 -0.4543 -0.4748
  723TMC3     C10741   4.726   2.861  12.925 -0.5641  0.6446  0.0569
  723TMC3     O10742   0.051   2.963  12.897 -0.1767  0.2924  0.0419
  723TMC3     H10743   4.569   2.670  13.043  1.9389  0.7881  0.8936
  723TMC3    H110744   4.581   3.042  12.826  3.7995 -1.2121  2.1500
  723TMC3    H210745   4.235   2.931  13.040 -0.9874 -1.4785 -4.2612
  723TMC3    C710746   4.320   3.114  12.890 -0.0706 -0.0054  0.0242
  723TMC3    C810747   4.317   2.679  13.100  0.3224  0.4256 -0.5512
  723TMC3    O110748   4.271   3.166  12.993 -0.0244 -0.0707 -0.1462
  723TMC3    O210749   4.264   2.705  13.209  0.0708 -0.5844  0.3738
  724TMC3    C110750   4.510   4.623  10.196 -0.0961  0.9446  0.1499
  724TMC3    C210751   4.501   4.675  10.071 -0.7841 -0.0671 -0.9949
  724TMC3    C310752   4.505   0.073  10.063  0.6278  0.4881 -0.4582
  724TMC3    C410753   4.537   4.696  10.301  0.2917 -0.7744 -0.1853
  724TMC3    C510754   4.532   0.095  10.299  0.0946 -0.0076  0.0221
  724TMC3    C610755   4.518   0.153  10.175 -0.2857 -0.6354 -0.4617
  724TMC3     C10756   4.475   4.480  10.210  1.0728  0.1329 -0.0499
  724TMC3     O10757   4.523   4.410  10.296  0.0567  0.0906  0.2972
  724TMC3     H10758   4.505   4.611   9.984 -1.1708 -0.0148 -1.0483
  724TMC3    H110759   4.537   4.640  10.393 -0.7038 -1.6836 -0.7321
  724TMC3    H210760   4.526   0.261  10.173 -1.1626 -0.5627  0.0591
  724TMC3    C710761   4.520   0.186  10.411 -0.0436  0.1757  0.1657
  724TMC3    C810762   4.532   0.127   9.929  0.2298  0.7283 -0.2307
  724TMC3    O110763   4.450   0.284  10.396 -0.5068 -0.2315 -0.3254
  724TMC3    O210764   4.557   0.036   9.850  0.4668  0.4369 -0.6368
  725TMC3    C110765   1.587   4.336  12.564  0.0614 -0.0170  0.3391
  725TMC3    C210766   1.544   4.305  12.437  0.6825 -0.3376 -0.4299
  725TMC3    C310767   1.504   4.177  12.408  0.7595  1.1241  0.4510
  725TMC3    C410768   1.599   4.230  12.649  0.0043  0.2522  0.2963
  725TMC3    C510769   1.563   4.099  12.618 -0.0004  1.0173  0.0911
  725TMC3    C610770   1.526   4.072  12.489  0.4554  0.0117  0.7872
  725TMC3     C10771   1.709   4.412  12.560  0.1641  0.0150  0.2205
  725TMC3     O10772   1.702   4.507  12.483  0.0584 -0.3064  0.0831
  725TMC3     H10773   1.533   4.385  12.364 -0.3066  0.5541  0.6923
  725TMC3    H110774   1.646   4.245  12.746  3.4155  0.9752 -1.4575
  725TMC3    H210775   1.514   3.971  12.451  0.1039  0.2145  0.3666
  725TMC3    C710776   1.672   4.010  12.637 -0.2534 -0.2996 -0.1004
  725TMC3    C810777   1.430   4.155  12.284  0.4368 -0.0544 -0.3120
  725TMC3    O110778   1.778   4.065  12.631 -0.3612 -0.1366 -0.2024
  725TMC3    O210779   1.360   4.057  12.268 -0.4221  0.5740  0.2692
  726MPD2     C10780   3.540   1.161   9.395 -0.2422  0.5535  0.3114
  726MPD2    C110781   3.479   1.193   9.518  0.3884  0.0312 -0.1867
  726MPD2    C210782   3.464   1.094   9.615  0.4899  0.3423 -0.6307
  726MPD2    C310783   3.510   0.966   9.590 -0.0506 -0.0201  0.2836
  726MPD2    C410784   3.578   0.940   9.473 -0.3307 -0.1479  0.4211
  726MPD2    C510785   3.583   1.032   9.378 -1.0841  0.2782  0.2608
  726MPD2     H10786   3.416   1.116   9.709  1.2449  2.4103 -0.7352
  726MPD2    H110787   3.620   0.842   9.454 -0.5482 -0.2872  0.6642
  726MPD2    H210788   3.544   1.218   9.303  0.7057 -0.4625 -0.2725
  726MPD2    H310789   3.625   1.003   9.283  1.7367  2.2626  0.8929
  726MPD2     N10790   3.490   0.856   9.679  0.1800  0.1581  0.0718
  726MPD2    H510791   3.513   0.763   9.645 -0.4378  0.3697 -0.9189
  726MPD2    N110792   3.429   1.324   9.543  0.4943 -0.9540  0.5661
  726MPD2    H710793   3.406   1.337   9.641 -2.5701  0.4201 -0.3257
  727TMC3    C110794   3.377   1.545   9.510  0.4365  0.0634  0.3638
  727TMC3    C210795   3.392   1.564   9.646  0.3728  0.2992  0.8962
  727TMC3    C310796   3.307   1.644   9.717  0.1074 -0.0904  0.8900
  727TMC3    C410797   3.276   1.612   9.445  0.8221 -0.4327 -0.2301
  727TMC3    C510798   3.198   1.693   9.525 -0.0336  0.8392  0.8053
  727TMC3    C610799   3.208   1.711   9.660 -0.2735  0.0035  0.6523
  727TMC3     C10800   3.423   1.426   9.452 -0.9640  0.1286 -0.0294
  727TMC3     O10801   3.431   1.423   9.331 -0.3240 -0.1790  0.4232
  727TMC3     H10802   3.490   1.534   9.682 -0.3502 -1.3289  1.4706
  727TMC3    H110803   3.266   1.607   9.337 -0.4294 -1.2971 -0.0841
  727TMC3    H210804   3.129   1.757   9.720 -0.0056 -0.5070  1.3888
  727TMC3    C710805   3.094   1.772   9.466  0.2735 -0.1051  0.1151
  727TMC3    C810806   3.333   1.671   9.851 -0.3415  0.2454 -0.2979
  727TMC3    O110807   3.033   1.845   9.542  0.5095  0.2466  0.1368
  727TMC3    O210808   3.421   1.598   9.897 -0.6339 -0.9883  0.1680
  728TMC3    C110809   3.941   4.415  14.576  0.1934 -0.1123  0.1768
  728TMC3    C210810   4.065   4.472  14.577 -0.5993  0.2491 -0.7931
  728TMC3    C310811   4.095   4.564  14.478 -0.2505 -0.0360  0.7178
  728TMC3    C410812   3.847   4.457  14.487 -0.4413  0.5078 -0.1621
  728TMC3    C510813   3.874   4.570  14.418 -0.2002  0.7508 -0.5161
  728TMC3    C610814   4.001   4.613  14.397 -0.4337 -0.3071  0.2021
  728TMC3     C10815   3.906   4.376  14.707 -0.3270  0.1191  0.1767
  728TMC3     O10816   3.983   4.376  14.802 -0.4214  0.5267 -0.1300
  728TMC3     H10817   4.143   4.429  14.639 -0.3243 -0.3211 -1.5463
  728TMC3    H110818   3.747   4.414  14.489 -0.1098 -0.1773  1.4547
  728TMC3    H210819   4.012   4.695  14.327  0.3582  2.0981  3.1365
  728TMC3    C710820   3.759   4.638  14.357  0.9553  0.4652 -0.0938
  728TMC3    C810821   4.228   4.599  14.444 -0.3202 -0.4251  0.6166
  728TMC3    O110822   3.688   4.564  14.287  0.6738 -0.1585  0.2334
  728TMC3    O210823   4.246   4.670  14.345  0.0603 -0.4333  0.0028
  729MPD2     C10824   0.977   1.321  16.875 -0.3260  0.0095  0.0044
  729MPD2    C110825   0.949   1.184  16.878 -0.3403  0.8350 -0.4191
  729MPD2    C210826   0.910   1.129  17.000  0.4707  0.0299  0.5528
  729MPD2    C310827   0.897   1.206  17.119  0.2853  0.2479  0.0526
  729MPD2    C410828   0.921   1.342  17.108  0.2494  0.6260  0.2587
  729MPD2    C510829   0.948   1.399  16.989 -0.1735 -0.0383 -0.7023
  729MPD2     H10830   0.885   1.024  17.013  2.6962 -0.5537  0.0327
  729MPD2    H110831   0.915   1.408  17.194 -0.1541 -0.0189  0.7236
  729MPD2    H210832   1.008   1.376  16.787  1.2973  2.0670  1.8769
  729MPD2    H310833   0.970   1.505  16.992  3.0149 -0.7056 -1.0728
  729MPD2     N10834   0.870   1.139  17.242  0.9553  0.4873  0.3384
  729MPD2    H510835   0.866   1.038  17.227  2.0766  0.2032  1.9475
  729MPD2    N110836   0.965   1.119  16.757 -0.1004 -0.1645 -0.0601
  729MPD2    H710837   0.995   1.177  16.680  2.7119  1.4436  2.2298
  730TMC3    C110838   0.997   1.120  17.444  0.0277 -0.6939  0.2023
  730TMC3    C210839   1.061   1.036  17.365 -0.4811 -0.7701 -0.4853
  730TMC3    C310840   1.192   1.036  17.346 -0.5092  0.1159 -0.3781
  730TMC3    C410841   1.067   1.211  17.516  0.3342  0.0638 -0.0777
  730TMC3    C510842   1.203   1.221  17.497  0.5070  0.9465  0.0150
  730TMC3    C610843   1.266   1.141  17.404  0.1052  1.1585 -0.0661
  730TMC3     C10844   0.889   1.192  17.368 -0.1449 -0.2628 -0.2444
  730TMC3     O10845   0.861   1.304  17.404  0.2458 -0.2849 -0.5938
  730TMC3     H10846   1.000   0.958  17.322  1.6201 -2.0605 -1.1187
  730TMC3    H110847   1.013   1.284  17.576  0.5106  1.0034 -1.0563
  730TMC3    H210848   1.374   1.149  17.391  0.4666 -0.9831  1.6313
  730TMC3    C710849   1.253   1.354  17.477 -0.3144 -0.0899 -0.0842
  730TMC3    C810850   1.230   0.989  17.218  0.3889 -0.0277  0.4459
  730TMC3    O110851   1.343   1.378  17.397  0.1590  0.0444 -0.2604
  730TMC3    O210852   1.148   0.917  17.165  0.6819 -0.5650 -0.0291
  731MPD2     C10853   1.116   3.963  12.443 -0.2920 -0.1801 -0.3970
  731MPD2    C110854   1.102   3.855  12.367 -0.1099  0.1847  0.3771
  731MPD2    C210855   1.028   3.749  12.420 -0.0572 -0.3276 -1.5563
  731MPD2    C310856   0.982   3.750  12.552 -0.3545 -0.4650  0.2491
  731MPD2    C410857   1.001   3.866  12.622 -0.2950 -0.1804 -1.2870
  731MPD2    C510858   1.078   3.968  12.574  0.7053  0.1310  0.5681
  731MPD2     H10859   1.014   3.661  12.357 -1.1220 -0.6089 -0.9324
  731MPD2    H110860   0.963   3.885  12.722  0.6757  0.4215 -1.0342
  731MPD2    H210861   1.154   4.057  12.404  0.2838 -0.2188  0.0716
  731MPD2    H310862   1.107   4.060  12.624  1.8816 -0.2615  0.6261
  731MPD2     N10863   0.905   3.648  12.603 -0.2976 -0.0119 -0.0110
  731MPD2    H510864   0.910   3.565  12.544  2.0636  0.1948 -0.1128
  731MPD2    N110865   1.164   3.857  12.235 -0.0502  0.0952 -0.3539
  731MPD2    H710866   1.224   3.936  12.212 -1.0568  0.7484 -0.7486
  732TMC3    C110867   1.219   3.796  12.014 -0.2551 -0.3618 -0.2673
  732TMC3    C210868   1.145   3.772  11.902 -0.0320  0.2883 -0.1741
  732TMC3    C310869   1.197   3.815  11.780 -0.0761  1.2641 -0.8784
  732TMC3    C410870   1.337   3.865  12.016 -0.0862  0.4741 -0.5265
  732TMC3    C510871   1.378   3.909  11.894  0.2432  0.1561  0.3843
  732TMC3    C610872   1.314   3.879  11.775 -0.1426  0.1883 -0.4780
  732TMC3     C10873   1.139   3.767  12.136 -0.1020 -0.1506 -0.0038
  732TMC3     O10874   1.069   3.669  12.141 -0.0329  0.6447  0.1160
  732TMC3     H10875   1.041   3.753  11.927  0.6059 -2.2149  0.5200
  732TMC3    H110876   1.389   3.893  12.107  0.6232  0.1333 -0.8235
  732TMC3    H210877   1.357   3.900  11.678 -1.3373  2.6848 -0.4850
  732TMC3    C710878   1.491   3.998  11.881  0.3025  0.1159 -0.0948
  732TMC3    C810879   1.145   3.754  11.664 -0.3562 -0.0531  0.2989
  732TMC3    O110880   1.508   4.043  11.768  0.9395 -0.2875  0.5938
  732TMC3    O210881   1.175   3.807  11.558  0.0429  0.1743 -0.8470
  733TMC3    C110882   2.545   2.003  12.604  0.2599  0.8931 -0.2755
  733TMC3    C210883   2.652   2.077  12.657  0.3718  0.1094 -0.2682
  733TMC3    C310884   2.723   2.154  12.565 -0.0464  0.1864  0.1428
  733TMC3    C410885   2.499   2.025  12.477 -0.1887 -0.5012  0.5317
  733TMC3    C510886   2.555   2.120  12.396  0.1218  0.1328  0.0076
  733TMC3    C610887   2.675   2.182  12.438  0.1450  0.2701 -0.3035
  733TMC3     C10888   2.440   1.963  12.697  0.9118  0.6077 -0.2398
  733TMC3     O10889   2.320   1.941  12.659  0.5050 -0.4199  0.1487
  733TMC3     H10890   2.686   2.073  12.760 -0.9667  1.2554  0.2261
  733TMC3    H110891   2.401   1.987  12.450 -0.3188 -0.2573  0.6597
  733TMC3    H210892   2.720   2.255  12.372  0.1709 -0.6910 -1.3695
  733TMC3    C710893   2.476   2.205  12.320  0.7291 -0.0592  0.9944
  733TMC3    C810894   2.812   2.252  12.613 -0.4069 -0.0885  0.6299
  733TMC3    O110895   2.405   2.157  12.229  0.4201  0.8914  0.1548
  733TMC3    O210896   2.934   2.235  12.617 -0.0170  0.2111  0.5748
  734MPD2     C10897   4.002   4.392  12.296  0.2200 -0.0396 -0.0453
  734MPD2    C110898   3.913   4.350  12.206  0.4356  0.0993 -0.2410
  734MPD2    C210899   3.897   4.434  12.094  0.5012 -0.3280  0.7340
  734MPD2    C310900   3.984   4.542  12.065 -0.5640 -0.1717 -0.1356
  734MPD2    C410901   4.072   4.583  12.163  0.1861  0.6702 -0.1062
  734MPD2    C510902   4.063   4.511  12.281  0.1570 -0.2559  0.2406
  734MPD2     H10903   3.832   4.409  12.010  3.5521 -0.1344 -1.6859
  734MPD2    H110904   4.144   4.663  12.152  0.1798  0.3014 -2.9358
  734MPD2    H210905   4.026   4.331  12.382 -3.7720 -2.2977 -0.5574
  734MPD2    H310906   4.133   4.543  12.357  1.8638 -2.9687 -0.1842
  734MPD2     N10907   3.975   4.600  11.936  0.3695  0.1838  0.5189
  734MPD2    H510908   3.906   4.555  11.877  1.7670 -0.6707 -0.4532
  734MPD2    N110909   3.841   4.229  12.229 -0.1041 -0.3521 -0.3794
  734MPD2    H710910   3.867   4.171  12.308 -0.4721  0.1898  0.1376
  735TMC3    C110911   3.703   4.036  12.170  0.1676  0.0788 -0.1047
  735TMC3    C210912   3.603   3.997  12.084 -0.3989 -0.2161 -0.0627
  735TMC3    C310913   3.608   3.870  12.026  0.1878 -0.6250 -0.5560
  735TMC3    C410914   3.804   3.948  12.198 -0.1168  0.0892  0.2176
  735TMC3    C510915   3.806   3.827  12.131 -0.6080  0.8234  0.0223
  735TMC3    C610916   3.700   3.775  12.059 -0.1039 -0.4205 -0.1657
  735TMC3     C10917   3.744   4.172  12.147 -0.2470  0.0759 -0.2008
  735TMC3     O10918   3.700   4.219  12.043 -0.6999 -0.6699 -0.3427
  735TMC3     H10919   3.522   4.061  12.051  0.0737  0.3082 -0.2137
  735TMC3    H110920   3.891   3.989  12.249 -0.2553  0.2004  0.3641
  735TMC3    H210921   3.706   3.679  12.010  0.3269 -1.6372  2.2538
  735TMC3    C710922   3.921   3.741  12.153  0.2172 -0.3409  0.4713
  735TMC3    C810923   3.616   3.891  11.881  0.1977 -0.2323 -0.6941
  735TMC3    O110924   4.021   3.794  12.202  0.4949 -0.0777  0.0641
  735TMC3    O210925   3.640   3.793  11.814  0.2853  0.5120  0.2220
  736MPD2     C10926   3.957   3.374  12.166 -0.1821  0.3202  0.1336
  736MPD2    C110927   3.994   3.503  12.131 -0.1790 -0.0135  0.2217
  736MPD2    C210928   4.123   3.524  12.094  0.1227  0.2472  0.0138
  736MPD2    C310929   4.209   3.422  12.083  0.4150 -0.1158 -0.5914
  736MPD2    C410930   4.170   3.293  12.111  0.2013  0.9416  0.1132
  736MPD2    C510931   4.047   3.268  12.144  0.1497 -0.6041 -0.0116
  736MPD2     H10932   4.147   3.627  12.066  1.1721 -0.6679 -2.5103
  736MPD2    H110933   4.227   3.202  12.094  0.8723  0.8911  2.6643
  736MPD2    H210934   3.855   3.343  12.186 -0.2064  1.7478  2.2707
  736MPD2    H310935   4.029   3.161  12.150  2.1708 -0.9159  0.3299
  736MPD2     N10936   4.342   3.439  12.042 -0.1250  0.4611  0.0557
  736MPD2    H510937   4.394   3.353  12.034 -0.5291  0.0900  1.5046
  736MPD2    N110938   3.892   3.607  12.144 -0.5919  0.4200  0.2299
  736MPD2    H710939   3.794   3.581  12.145 -0.5928  0.4000 -0.4557
  737TMC3    C110940   4.520   3.556  11.928  0.0809 -0.0781 -0.8294
  737TMC3    C210941   4.600   3.666  11.940  0.4610  0.5709  0.4646
  737TMC3    C310942   4.700   3.671  11.848 -0.3071  0.6681 -0.5732
  737TMC3    C410943   4.543   3.447  11.850  0.5139 -0.1057 -0.3058
  737TMC3    C510944   4.646   3.459  11.765  0.1783 -0.0714 -0.3236
  737TMC3    C610945   4.726   3.567  11.761  0.3390  0.1135  0.2551
  737TMC3     C10946   4.395   3.566  12.000 -0.3437 -0.7421 -0.1889
  737TMC3     O10947   4.357   3.679  12.025  0.3695 -0.5620  0.7108
  737TMC3     H10948   4.568   3.746  12.007  1.6852  0.0036  1.7129
  737TMC3    H110949   4.472   3.365  11.848  1.1405 -0.5931 -1.9803
  737TMC3    H210950   0.082   3.572  11.707  0.5962  0.0686  0.6903
  737TMC3    C710951   4.680   3.343  11.695 -0.1864  0.6227 -1.1760
  737TMC3    C810952   0.020   3.800  11.809  0.1831 -0.2105 -0.3874
  737TMC3    O110953   4.639   3.238  11.736  0.7261  0.1213 -0.0545
  737TMC3    O210954   0.075   3.878  11.890  0.2569 -0.2958 -0.7097
  738MPD2     C10955   0.784   2.546  15.131 -0.6527  0.0934  1.0171
  738MPD2    C110956   0.695   2.588  15.033 -0.2866 -0.5758  0.2423
  738MPD2    C210957   0.721   2.691  14.950  0.2173 -1.2951  0.3767
  738MPD2    C310958   0.840   2.765  14.967 -0.8336  0.3707  0.1389
  738MPD2    C410959   0.926   2.722  15.069 -0.6946  0.0446  0.2463
  738MPD2    C510960   0.894   2.629  15.157 -0.0569  0.0433 -0.3368
  738MPD2     H10961   0.644   2.719  14.879  0.2402 -0.5720  0.6286
  738MPD2    H110962   1.009   2.785  15.099 -1.1638  1.1138 -0.7170
  738MPD2    H210963   0.762   2.462  15.195 -1.5732 -1.3043 -1.1299
  738MPD2    H310964   0.969   2.603  15.231 -0.2452 -0.1647 -0.2192
  738MPD2     N10965   0.866   2.880  14.887 -0.4332  0.1953 -0.5555
  738MPD2    H510966   0.958   2.921  14.900 -1.0223  0.4608  2.8975
  738MPD2    N110967   0.563   2.534  15.031  0.1420 -0.0077 -0.4289
  738MPD2    H710968   0.505   2.585  14.965 -1.1078 -0.4969  0.2724
  739TMC3    C110969   0.848   3.064  14.753  0.1638  0.5878 -0.1864
  739TMC3    C210970   0.797   3.116  14.637  0.1224  0.0828  0.5920
  739TMC3    C310971   0.838   3.240  14.600  1.3181  0.4710 -0.0873
  739TMC3    C410972   0.922   3.142  14.833 -0.2290  0.5041  0.4034
  739TMC3    C510973   0.971   3.263  14.789 -0.0842  0.9151 -0.6054
  739TMC3    C610974   0.930   3.310  14.671  0.3095 -0.4242 -0.3407
  739TMC3     C10975   0.784   2.945  14.800 -0.1504  0.4238  0.1078
  739TMC3     O10976   0.673   2.917  14.748  0.7047  0.7634  0.3635
  739TMC3     H10977   0.720   3.063  14.583  1.1091 -0.2197 -0.5248
  739TMC3    H110978   0.937   3.117  14.937 -2.3792 -0.3894  0.5025
  739TMC3    H210979   0.947   3.408  14.629 -0.8362 -0.1514 -0.1646
  739TMC3    C710980   1.056   3.351  14.864 -0.7296 -0.5368 -0.5685
  739TMC3    C810981   0.815   3.263  14.454 -0.1606 -0.0453 -0.0848
  739TMC3    O110982   1.043   3.470  14.828  0.1358  0.0233 -0.1248
  739TMC3    O210983   0.717   3.193  14.413  0.8540  0.5337  0.3030
  740TMC3    C110984   0.828   4.443  14.088  0.5492 -0.2832 -0.2934
  740TMC3    C210985   0.880   4.443  14.215  0.6430 -1.2362  0.0698
  740TMC3    C310986   1.019   4.456  14.234 -0.6345 -0.4878  0.8350
  740TMC3    C410987   0.905   4.442  13.980  0.2441  0.0908 -0.2799
  740TMC3    C510988   1.041   4.459  13.993 -0.1417 -0.3630 -0.7653
  740TMC3    C610989   1.099   4.465  14.117 -0.1220 -0.6699  0.8328
  740TMC3     C10990   0.686   4.443  14.060 -0.2758  0.9332  0.0635
  740TMC3     O10991   0.661   4.478  13.946  0.2728  0.1063  0.3166
  740TMC3     H10992   0.824   4.447  14.308 -0.5856  2.4652 -0.8176
  740TMC3    H110993   0.860   4.411  13.886  0.8086 -1.0525 -0.1749
  740TMC3    H210994   1.205   4.466  14.139  0.1733  0.2251 -0.6396
  740TMC3    C710995   1.127   4.438  13.877  0.0733  0.0770  0.1890
  740TMC3    C810996   1.072   4.462  14.367 -0.5165 -0.2265 -0.2154
  740TMC3    O110997   1.233   4.396  13.915 -0.2101  0.4085 -0.3487
  740TMC3    O210998   1.170   4.527  14.396 -0.0532  0.2798  0.1643
  741TMC3    C110999   0.674   3.617  14.490  0.3342 -0.0890 -0.1365
  741TMC3    C211000   0.599   3.594  14.380  0.8210 -1.1517  0.6777
  741TMC3    C311001   0.487   3.519  14.392 -0.4396  0.0549 -0.0425
  741TMC3    C411002   0.645   3.562  14.611 -0.2389 -0.0629  0.9945
  741TMC3    C511003   0.532   3.486  14.624 -0.1929  0.4163  0.2830
  741TMC3    C611004   0.448   3.463  14.514  0.0101  0.8608  0.7579
  741TMC3     C11005   0.808   3.669  14.486  0.0481 -0.4096  0.0101
  741TMC3     O11006   0.870   3.675  14.589 -0.5801 -0.3348 -0.0609
  741TMC3     H11007   0.622   3.625  14.278 -0.5173 -3.3106 -0.2800
  741TMC3    H111008   0.705   3.592  14.696 -0.8358 -0.0221  1.4025
  741TMC3    H211009   0.363   3.396  14.516 -1.2087  2.3418 -1.5828
  741TMC3    C711010   0.528   3.377  14.717 -1.2809 -0.0068  0.0612
  741TMC3    C811011   0.394   3.510  14.281 -0.0234  0.2819 -0.0122
  741TMC3    O111012   0.472   3.270  14.697 -0.3478 -0.3098  0.5622
  741TMC3    O211013   0.387   3.609  14.213 -0.9226  0.1427  0.4807
  742TMC3    C111014   0.514   2.076  15.627  0.3096  1.0134  0.9022
  742TMC3    C211015   0.448   2.064  15.505  0.5367  0.1368  0.0412
  742TMC3    C311016   0.522   2.067  15.392 -1.1989 -1.0050  0.0876
  742TMC3    C411017   0.650   2.060  15.643 -1.2002 -0.1946  0.2598
  742TMC3    C511018   0.720   2.077  15.522 -0.0588  0.2597 -0.2761
  742TMC3    C611019   0.659   2.090  15.398  0.1414 -0.0663 -0.6182
  742TMC3     C11020   0.444   2.098  15.753  0.2789 -0.0596 -0.4294
  742TMC3     O11021   0.507   2.132  15.854  0.2207  0.6430  0.1661
  742TMC3     H11022   0.344   2.094  15.501  1.0634  1.4950 -3.2141
  742TMC3    H111023   0.695   2.049  15.740  0.7434 -3.7707 -1.0394
  742TMC3    H211024   0.722   2.109  15.312 -0.1566  0.6847 -0.6720
  742TMC3    C711025   0.851   2.019  15.510  0.3700 -0.7215 -0.1969
  742TMC3    C811026   0.468   2.026  15.262  1.0350 -0.2763 -0.0428
  742TMC3    O111027   0.881   1.982  15.399 -0.7256 -0.1126  0.4407
  742TMC3    O211028   0.544   2.047  15.169 -0.2747  0.4905 -0.0576
  743MPD2     C11029   2.797   2.779   1.589 -0.7528  0.2159  0.0003
  743MPD2    C111030   2.782   2.912   1.615 -0.5092 -0.0107 -0.4542
  743MPD2    C211031   2.854   2.972   1.715  0.0446  0.5295  0.5121
  743MPD2    C311032   2.953   2.906   1.789  0.0392 -0.2807  0.5900
  743MPD2    C411033   2.975   2.773   1.758  1.1220  0.4602 -0.0104
  743MPD2    C511034   2.891   2.711   1.669 -0.3310 -0.3767  0.4841
  743MPD2     H11035   2.837   3.076   1.736 -0.9783  0.9593 -2.3657
  743MPD2    H111036   3.043   2.705   1.806  0.7485  0.7813  0.9674
  743MPD2    H211037   2.733   2.739   1.511 -2.5535  0.7262  1.2216
  743MPD2    H311038   2.916   2.610   1.639 -1.4144 -0.4624 -0.1306
  743MPD2     N11039   3.029   2.977   1.884 -0.7465 -0.0076 -0.4014
  743MPD2    H511040   3.019   3.078   1.884  0.1996  0.1034 -2.9058
  743MPD2    N111041   2.692   2.987   1.530 -0.7755 -0.2139  0.2879
  743MPD2    H711042   2.635   2.930   1.468  0.4728  0.3798 -1.3719
  744TMC3    C111043   2.567   3.158   1.433 -0.4045  0.1266  0.4687
  744TMC3    C211044   2.485   3.266   1.459 -0.3538  0.2878 -0.8044
  744TMC3    C311045   2.388   3.291   1.364  1.0979  0.2951  0.6135
  744TMC3    C411046   2.582   3.110   1.306  0.3309  0.0375  0.5770
  744TMC3    C511047   2.499   3.149   1.205 -0.3080  0.1866 -0.5473
  744TMC3    C611048   2.401   3.245   1.239 -0.3617  0.0919  0.1068
  744TMC3     C11049   2.654   3.119   1.542  0.2847 -0.6636  0.1015
  744TMC3     O11050   2.670   3.194   1.637  0.2847  0.3297  0.7981
  744TMC3     H11051   2.485   3.308   1.559 -1.4425  1.8646 -1.4639
  744TMC3    H111052   2.665   3.043   1.284  0.0632  0.6568 -2.3007
  744TMC3    H211053   2.327   3.275   1.166  0.5230  1.9573 -0.0226
  744TMC3    C711054   2.555   3.151   1.077  1.4859  0.8848  0.5817
  744TMC3    C811055   2.322   3.416   1.392 -0.1178  0.3721  0.4850
  744TMC3    O111056   2.662   3.097   1.067  0.2048  0.0066  0.0738
  744TMC3    O211057   2.361   3.478   1.488 -0.5312  0.4135 -0.3763
  745TMC3    C111058   1.090   1.566  13.663 -0.6754  0.5699  0.0510
  745TMC3    C211059   0.966   1.607  13.688  0.7722 -1.2559  0.3659
  745TMC3    C311060   0.871   1.594  13.585  0.1155  0.4188 -0.0880
  745TMC3    C411061   1.127   1.521  13.542  0.4148  0.0923  0.3340
  745TMC3    C511062   1.028   1.512  13.450  0.3551 -0.4793 -0.3325
  745TMC3    C611063   0.895   1.544  13.466  0.3369  0.4973  0.3784
  745TMC3     C11064   1.184   1.606  13.767 -0.1148 -1.0230  0.3863
  745TMC3     O11065   1.286   1.540  13.782 -0.1073 -0.6933 -0.3941
  745TMC3     H11066   0.930   1.609  13.790  2.2956 -0.4042  0.8821
  745TMC3    H111067   1.231   1.497  13.522  1.0090  1.0623  2.2530
  745TMC3    H211068   0.824   1.544  13.384 -0.1271  0.4648  0.7819
  745TMC3    C711069   1.063   1.517  13.309  0.4771  0.0349 -0.3480
  745TMC3    C811070   0.756   1.687  13.595 -0.3113  0.0700  0.1015
  745TMC3    O111071   0.977   1.491  13.225  0.1971 -0.2406  0.6944
  745TMC3    O211072   0.694   1.710  13.496 -0.0528 -0.2465 -0.5796
  746TMC3    C111073   2.875   3.645  11.065 -0.6899  0.4226 -0.0996
  746TMC3    C211074   2.956   3.557  11.012  0.9494  0.5951  0.4965
  746TMC3    C311075   2.900   3.439  10.979  0.1511  0.0518 -0.4751
  746TMC3    C411076   2.732   3.643  11.066 -0.1255  0.0824 -0.4218
  746TMC3    C511077   2.682   3.529  11.015  1.2405  0.1497  0.0191
  746TMC3    C611078   2.767   3.428  10.966 -0.2519 -1.1251 -0.5957
  746TMC3     C11079   2.932   3.778  11.077  0.2826 -0.4293  0.3353
  746TMC3     O11080   3.045   3.792  11.127 -0.3772 -0.3559 -0.3820
  746TMC3     H11081   3.060   3.585  11.002  1.2118  0.7136  3.4912
  746TMC3    H111082   2.677   3.723  11.113  0.5710 -1.9080  3.8146
  746TMC3    H211083   2.716   3.341  10.925 -2.8943  0.6177 -1.0193
  746TMC3    C711084   2.551   3.520  10.957 -0.4100 -0.6810  0.2539
  746TMC3    C811085   2.959   3.375  10.860 -0.6980  0.1010  0.6020
  746TMC3    O111086   2.524   3.451  10.861  0.0052  0.6165 -0.0122
  746TMC3    O211087   2.997   3.261  10.878  0.5166  0.2847 -0.9650
  747TMC3    C111088   0.452   3.307  10.776  0.1737  0.3017  0.1872
  747TMC3    C211089   0.380   3.231  10.871 -0.7159  0.0694  0.3526
  747TMC3    C311090   0.385   3.271  11.003  0.0208 -0.1441 -0.7785
  747TMC3    C411091   0.537   3.409  10.807  0.3159 -0.6441  0.6337
  747TMC3    C511092   0.550   3.427  10.944  0.1824  0.1274 -0.3537
  747TMC3    C611093   0.474   3.359  11.044 -0.2850  0.4090 -0.6105
  747TMC3     C11094   0.421   3.288  10.638  0.3501  0.0553  0.1078
  747TMC3     O11095   0.413   3.394  10.580  0.0072  0.5937 -0.4356
  747TMC3     H11096   0.311   3.153  10.839  0.4387 -1.3423  1.3127
  747TMC3    H111097   0.586   3.472  10.733  0.8743  2.8057  3.9487
  747TMC3    H211098   0.493   3.376  11.150 -2.4602 -1.2791  0.0548
  747TMC3    C711099   0.650   3.518  10.996  0.2790 -1.5062 -0.3044
  747TMC3    C811100   0.310   3.190  11.090 -0.3990  0.1909 -0.6874
  747TMC3    O111101   0.644   3.546  11.114  0.0787 -0.3492 -0.0794
  747TMC3    O211102   0.275   3.080  11.057  0.3557  0.0304 -0.2473
  748MPD2     C11103   1.965   4.152   1.258 -0.3823 -0.7476  1.3113
  748MPD2    C111104   2.079   4.095   1.201 -0.7779 -0.2125  0.3522
  748MPD2    C211105   2.205   4.155   1.221 -0.4687  0.0764 -1.0097
  748MPD2    C311106   2.212   4.264   1.303 -0.0631 -0.3245  0.9288
  748MPD2    C411107   2.101   4.315   1.363 -0.2990 -0.5901 -1.0469
  748MPD2    C511108   1.976   4.265   1.332 -1.0818  0.5939  0.0956
  748MPD2     H11109   2.294   4.118   1.170 -0.2870  1.0042 -1.3563
  748MPD2    H111110   2.099   4.400   1.430  0.7103 -0.9323 -0.5859
  748MPD2    H211111   1.863   4.119   1.241 -0.3735 -0.7260  1.2141
  748MPD2    H311112   1.887   4.317   1.365 -1.4490  0.4774 -0.7186
  748MPD2     N11113   2.336   4.323   1.304  0.0609  0.0759  0.1396
  748MPD2    H511114   2.414   4.284   1.252 -0.8985 -2.4977  0.6408
  748MPD2    N111115   2.051   3.985   1.123 -0.3317 -0.3470 -0.2687
  748MPD2    H711116   1.958   3.943   1.121  0.3401 -1.7907 -0.9876
  749TMC3    C111117   2.513   4.472   1.345 -0.4928  0.1143 -0.9443
  749TMC3    C211118   2.583   4.473   1.460 -0.0853 -0.1131 -0.5415
  749TMC3    C311119   2.721   4.471   1.451 -0.5128 -0.4600 -0.0089
  749TMC3    C411120   2.574   4.453   1.221  0.2341  0.7073 -0.5289
  749TMC3    C511121   2.710   4.470   1.214 -0.1054  0.4366 -0.4589
  749TMC3    C611122   2.786   4.471   1.330  0.3287 -0.4017  0.2732
  749TMC3     C11123   2.372   4.438   1.371 -0.4682  0.0521 -0.0361
  749TMC3     O11124   2.306   4.495   1.455 -0.3158  0.3534  0.0087
  749TMC3     H11125   2.543   4.485   1.560  1.5993 -0.8396  0.2164
  749TMC3    H111126   2.510   4.450   1.133  0.4044  1.0597 -0.6630
  749TMC3    H211127   2.891   4.500   1.324 -0.6764  3.3369  1.3958
  749TMC3    C711128   2.773   4.506   1.090  0.1898 -0.7068  0.0003
  749TMC3    C811129   2.801   4.454   1.575 -0.1307 -0.0334 -0.8026
  749TMC3    O111130   2.873   4.577   1.086 -0.0242  0.1257 -0.1481
  749TMC3    O211131   2.772   4.518   1.675 -0.3524  0.7369  0.6483
  750MPD2     C11132   3.277   0.963  10.969 -0.2760 -0.4779  0.0241
  750MPD2    C111133   3.172   0.943  11.060  0.2569 -0.2667 -0.0185
  750MPD2    C211134   3.061   0.870  11.013  0.0595  0.3084  0.0764
  750MPD2    C311135   3.072   0.803  10.896 -0.5695  0.1579  0.3496
  750MPD2    C411136   3.184   0.808  10.816 -1.0065  0.2104  0.5581
  750MPD2    C511137   3.287   0.886  10.855 -0.9266 -0.1575 -0.2737
  750MPD2     H11138   2.970   0.867  11.071  0.3229 -1.5476  0.3947
  750MPD2    H111139   3.192   0.768  10.715  0.5765 -2.3046  1.7027
  750MPD2    H211140   3.364   1.021  10.999  0.1057 -0.6061 -0.8467
  750MPD2    H311141   3.377   0.897  10.795 -1.3395 -2.1035 -1.2516
  750MPD2     N11142   2.971   0.715  10.853 -0.1367  0.2903  0.2709
  750MPD2    H511143   2.995   0.657  10.774  0.5736 -0.5070  1.0725
  750MPD2    N111144   3.175   0.994  11.194  0.2924  0.1725 -0.3185
  750MPD2    H711145   3.258   1.039  11.231 -0.1444 -0.1002  1.0008
  751TMC3    C111146   2.772   0.573  10.872 -0.4281  0.3063 -0.9052
  751TMC3    C211147   2.636   0.590  10.890  0.0701  0.0860 -0.0777
  751TMC3    C311148   2.557   0.502  10.826  0.7832 -0.0642 -0.4800
  751TMC3    C411149   2.825   0.472  10.793  0.6864  0.3599  0.1418
  751TMC3    C511150   2.736   0.388  10.736  1.3127  0.1403  0.0339
  751TMC3    C611151   2.603   0.395  10.757 -0.4149  0.4250 -0.4518
  751TMC3     C11152   2.853   0.685  10.920 -0.2235 -0.1056  0.5425
  751TMC3     O11153   2.790   0.756  10.998 -0.0169  0.3730 -0.5670
  751TMC3     H11154   2.587   0.667  10.949  1.4730 -0.3989  1.6956
  751TMC3    H111155   2.932   0.471  10.774  0.6417 -1.0767 -0.0361
  751TMC3    H211156   2.528   0.332  10.711  0.0468  0.5361 -1.3458
  751TMC3    C711157   2.791   0.256  10.705  0.2340 -0.4034  0.4689
  751TMC3    C811158   2.419   0.474  10.875  0.0138  0.4056 -0.5152
  751TMC3    O111159   2.903   0.252  10.650  0.6891 -0.1699 -0.1735
  751TMC3    O211160   2.336   0.437  10.794 -0.3212  0.1490  0.2654
  752TMC3    C111161   1.741   0.689  17.190 -0.3991  0.1073  0.0100
  752TMC3    C211162   1.771   0.590  17.280  0.3733 -1.0273  0.4922
  752TMC3    C311163   1.736   0.622  17.409 -0.8561 -0.2886  0.5902
  752TMC3    C411164   1.687   0.809  17.227 -0.1183 -0.1550  0.1309
  752TMC3    C511165   1.649   0.831  17.353 -0.2386  0.7223 -0.3019
  752TMC3    C611166   1.674   0.739  17.450  0.3451  0.1791 -0.3260
  752TMC3     C11167   1.752   0.670  17.045 -0.3403  0.1113  0.0382
  752TMC3     O11168   1.854   0.609  17.022 -0.3602  0.1837  0.0094
  752TMC3     H11169   1.821   0.497  17.254  0.2828 -0.8723 -0.2528
  752TMC3    H111170   1.670   0.883  17.149  3.2829  1.8988  1.3858
  752TMC3    H211171   1.668   0.771  17.553 -0.4128  2.2838 -1.0099
  752TMC3    C711172   1.628   0.971  17.389  0.2227  0.1180  0.0285
  752TMC3    C811173   1.785   0.533  17.518  0.6383 -0.8156  0.3447
  752TMC3    O111174   1.650   1.061  17.310  0.6310 -0.2946 -0.7727
  752TMC3    O211175   1.834   0.582  17.619 -0.3282  0.0688  0.0457
  753TMC3    C111176   4.009   1.702  13.595 -0.1203 -0.4230  0.2584
  753TMC3    C211177   4.103   1.739  13.690 -0.2325 -0.0841  0.7753
  753TMC3    C311178   4.189   1.635  13.723 -0.6948 -0.4527 -0.6177
  753TMC3    C411179   3.996   1.567  13.551  0.4917 -0.4124 -0.0757
  753TMC3    C511180   4.079   1.468  13.603  0.3372 -0.6807 -0.0351
  753TMC3    C611181   4.183   1.501  13.687  0.1192  0.3296  0.2580
  753TMC3     C11182   3.919   1.795  13.540  0.1827 -0.3121  0.0780
  753TMC3     O11183   3.930   1.911  13.572 -0.8571  0.3604 -0.0148
  753TMC3     H11184   4.101   1.842  13.723 -0.7155  0.1255  0.0881
  753TMC3    H111185   3.924   1.533  13.477  1.1622  1.6111 -1.6419
  753TMC3    H211186   4.250   1.420  13.713 -0.7240 -1.1960 -2.4259
  753TMC3    C711187   4.060   1.332  13.560 -0.8404 -0.3131  0.0894
  753TMC3    C811188   4.287   1.666  13.821  0.3075 -0.0908 -0.4844
  753TMC3    O111189   4.000   1.326  13.453  0.0927  0.3800  0.0486
  753TMC3    O211190   4.312   1.566  13.889  0.1548  0.0042 -0.0598
  754MPD2     C11191   2.476   0.608  13.024 -0.9284  0.0339  0.4617
  754MPD2    C111192   2.426   0.475  13.025  0.4630  0.1949  0.3030
  754MPD2    C211193   2.436   0.392  12.906 -0.0888 -0.3656 -0.0566
  754MPD2    C311194   2.494   0.447  12.789 -0.5773 -0.0462  0.4238
  754MPD2    C411195   2.557   0.567  12.797 -0.5867 -0.5171 -0.3078
  754MPD2    C511196   2.536   0.651  12.907 -0.1014 -0.3905  0.4344
  754MPD2     H11197   2.393   0.293  12.903 -2.3575  0.6707 -2.1336
  754MPD2    H111198   2.608   0.613  12.713  0.2320 -1.3187 -0.2440
  754MPD2    H211199   2.471   0.667  13.115 -2.6251 -2.2453  1.8650
  754MPD2    H311200   2.571   0.753  12.899  1.2160 -0.7084  2.0958
  754MPD2     N11201   2.489   0.386  12.660 -0.3603 -0.2923 -0.4312
  754MPD2    H511202   2.512   0.439  12.576 -4.3306  2.1780  0.0930
  754MPD2    N111203   2.362   0.427  13.143 -0.0132 -0.7103 -0.0088
  754MPD2    H711204   2.357   0.499  13.215 -1.5032 -0.7164 -0.1092
  755MPD2     C11205   1.956   0.682  12.938  0.1624 -0.0549 -0.3973
  755MPD2    C111206   1.871   0.619  12.849  0.1956 -0.4657 -0.3379
  755MPD2    C211207   1.929   0.550  12.742  0.0765  0.2289 -0.7187
  755MPD2    C311208   2.074   0.553  12.721 -0.4672  0.0634  0.1051
  755MPD2    C411209   2.154   0.594  12.821  0.3936 -0.5168 -0.0069
  755MPD2    C511210   2.094   0.653  12.927  0.8920  0.0931 -0.6036
  755MPD2     H11211   1.865   0.494  12.675  0.5110 -0.2726 -0.7159
  755MPD2    H111212   2.262   0.593  12.816  0.4604 -0.3494  1.2883
  755MPD2    H211213   1.925   0.741  13.023  0.8860  1.8628 -1.4696
  755MPD2    H311214   2.154   0.708  12.999  2.0112  0.5628 -1.9069
  755MPD2     N11215   2.136   0.510  12.607  0.1739  1.0497 -0.0895
  755MPD2    H511216   2.237   0.507  12.612  0.0769  0.0035  1.1832
  755MPD2    N111217   1.729   0.630  12.855 -0.5637 -0.3996  0.1401
  755MPD2    H711218   1.672   0.598  12.778  0.2894  1.6634 -1.3559
  756MPD2     C11219   1.963   1.775   9.534 -0.3866 -0.1732  0.5405
  756MPD2    C111220   1.913   1.684   9.626 -0.0729  0.0348 -0.2327
  756MPD2    C211221   1.773   1.694   9.657 -0.7068 -0.7837 -0.2075
  756MPD2    C311222   1.695   1.800   9.612 -0.1783 -0.6202  0.7349
  756MPD2    C411223   1.755   1.891   9.531  0.3489 -0.3685 -0.4701
  756MPD2    C511224   1.886   1.878   9.495  0.0493 -0.0888 -0.0158
  756MPD2     H11225   1.719   1.620   9.714 -1.9723 -0.1988 -0.6446
  756MPD2    H111226   1.715   1.979   9.482  0.0607  0.5417  1.3663
  756MPD2    H211227   2.067   1.773   9.505 -0.8672  1.8337 -1.2848
  756MPD2    H311228   1.931   1.957   9.435 -1.3781  0.5170 -0.2977
  756MPD2     N11229   1.560   1.799   9.647 -0.0532 -0.4236  0.6413
  756MPD2    H511230   1.527   1.731   9.716  2.7323 -1.6128  0.8069
  756MPD2    N111231   1.992   1.588   9.690 -0.5315 -0.5153  0.2274
  756MPD2    H711232   1.946   1.537   9.765 -0.2069 -0.8643  0.1829
  757MPD2     C11233   1.104   1.159   9.991  0.4702 -0.3500  0.7724
  757MPD2    C111234   1.237   1.191   9.977  0.6657 -0.9981 -0.2639
  757MPD2    C211235   1.273   1.314   9.927  0.4611  0.0797 -0.0826
  757MPD2    C311236   1.173   1.411   9.909  0.3965 -0.9918  0.0762
  757MPD2    C411237   1.043   1.382   9.926 -0.0926 -0.1897  0.3356
  757MPD2    C511238   1.006   1.255   9.964  0.2183  0.3942 -0.3669
  757MPD2     H11239   1.378   1.338   9.919  1.1241 -1.7423  3.0384
  757MPD2    H111240   0.971   1.461   9.907 -2.0737 -2.3676 -1.1771
  757MPD2    H211241   1.069   1.059  10.015 -0.4880  0.5351  2.9826
  757MPD2    H311242   0.902   1.238   9.989  0.1012 -0.4674 -1.4426
  757MPD2     N11243   1.209   1.544   9.871 -0.4975 -0.9837 -0.3096
  757MPD2    H511244   1.310   1.560   9.865 -0.7124  1.5037  2.7788
  757MPD2    N111245   1.329   1.096  10.020 -0.0239 -0.0778  0.8227
  757MPD2    H711246   1.280   1.016  10.058  0.3610  0.2060  1.9231
  758MPD2     C11247   2.750   0.088  15.523  0.2237  0.1803  0.5730
  758MPD2    C111248   2.798   4.711  15.576 -0.2720 -0.9601  0.1005
  758MPD2    C211249   2.806   4.707  15.720 -0.0315 -0.6267  0.2389
  758MPD2    C311250   2.768   0.085  15.790 -0.4680  0.2138  0.4133
  758MPD2    C411251   2.727   0.201  15.725  0.1684 -0.4365 -0.0279
  758MPD2    C511252   2.712   0.194  15.598 -0.1657 -0.7748 -0.7298
  758MPD2     H11253   2.848   4.623  15.774 -0.8205 -1.5233 -0.5327
  758MPD2    H111254   2.713   0.286  15.791 -0.1526  2.3949 -3.8039
  758MPD2    H211255   2.752   0.103  15.416 -1.1776 -0.7456  0.4250
  758MPD2    H311256   2.666   0.278  15.547  1.8666  1.0727  0.4672
  758MPD2     N11257   2.779   0.098  15.930  0.3192 -0.0630 -0.3175
  758MPD2    H511258   2.748   0.185  15.971 -1.1826  0.0935 -1.7524
  758MPD2    N111259   2.821   4.598  15.484 -0.1394  0.0585 -0.7575
  758MPD2    H711260   2.810   4.610  15.384  2.0812 -0.4147 -1.0678
  759MPD2     C11261   0.558   3.379   9.686 -0.0041  0.0751  0.3886
  759MPD2    C111262   0.684   3.327   9.712 -0.1469  0.1480 -0.0491
  759MPD2    C211263   0.794   3.392   9.670 -0.3559 -0.6492 -0.5654
  759MPD2    C311264   0.781   3.495   9.578 -0.0847 -0.2459  0.0721
  759MPD2    C411265   0.657   3.537   9.535  0.5579  0.3411  0.0188
  759MPD2    C511266   0.551   3.479   9.596  0.1417  0.0687 -0.0149
  759MPD2     H11267   0.892   3.362   9.705 -0.1791  1.6928  0.9647
  759MPD2    H111268   0.649   3.622   9.467  0.5591  1.6694  1.6846
  759MPD2    H211269   0.471   3.334   9.733 -0.0975  0.2446  0.3784
  759MPD2    H311270   0.455   3.523   9.570 -0.7651  0.1481  3.3919
  759MPD2     N11271   0.900   3.555   9.527  0.1026 -0.1664  0.2176
  759MPD2    H511272   0.985   3.527   9.573  0.0688 -1.0652 -0.2633
  759MPD2    N111273   0.701   3.222   9.810 -0.7426  0.0914  0.2552
  759MPD2    H711274   0.798   3.200   9.829 -0.7972 -1.1920 -0.9476
  760MPD2     C11275   1.163   0.736  12.014 -0.2517 -1.0178 -0.1213
  760MPD2    C111276   1.268   0.741  11.920 -0.6514 -0.0178  0.1176
  760MPD2    C211277   1.315   0.625  11.866  0.1016  0.2639  0.2853
  760MPD2    C311278   1.265   0.498  11.907 -0.3943  0.4572 -0.0360
  760MPD2    C411279   1.175   0.498  12.008 -0.1528 -0.3096  0.1807
  760MPD2    C511280   1.120   0.612  12.057 -0.0675  0.5883  0.2632
  760MPD2     H11281   1.394   0.635  11.793  0.5132  2.2493  0.9957
  760MPD2    H111282   1.135   0.403  12.040  2.1633 -1.4617 -0.3530
  760MPD2    H211283   1.120   0.824  12.062  0.4949  0.1227 -1.5540
  760MPD2    H311284   1.047   0.608  12.138  0.2736  0.9895  0.5911
  760MPD2     N11285   1.302   0.373  11.851  0.9449 -0.6719 -0.8166
  760MPD2    H511286   1.258   0.289  11.887  0.2333 -0.5114 -1.3074
  760MPD2    N111287   1.323   0.863  11.867  0.5396 -0.0230  0.4314
  760MPD2    H711288   1.402   0.857  11.803 -0.3845 -0.0397 -0.7072
  761MPD2     C11289   2.405   0.037  11.134  0.7228 -0.3856 -0.7506
  761MPD2    C111290   2.369   0.073  11.005  0.7227 -0.6622  0.3281
  761MPD2    C211291   2.366   0.204  10.965  0.3799 -0.0586 -0.2341
  761MPD2    C311292   2.420   0.303  11.049 -0.0650 -0.0681 -0.0183
  761MPD2    C411293   2.462   0.273  11.179  0.9688  0.0728 -0.1082
  761MPD2    C511294   2.451   0.139  11.218 -0.3974  0.0034 -0.5200
  761MPD2     H11295   2.317   0.224  10.870 -3.3931  0.0232  1.7025
  761MPD2    H111296   2.507   0.350  11.242 -0.2676  0.9278 -0.2775
  761MPD2    H211297   2.391   4.674  11.173  1.1766  0.1901  0.9186
  761MPD2    H311298   2.470   0.097  11.316  0.6845  0.2881 -0.6090
  761MPD2     N11299   2.442   0.440  11.005 -0.2216  0.1775  0.2423
  761MPD2    H511300   2.509   0.492  11.061  0.1713 -1.2186  1.0851
  761MPD2    N111301   2.340   4.702  10.916  0.4889  0.0690  0.3208
  761MPD2    H711302   2.333   4.607  10.951  0.6391 -0.0378  0.0617
  762MPD2     C11303   2.616   4.607  10.192 -0.3436  0.1841  0.1322
  762MPD2    C111304   2.585   4.498  10.271  0.7172  0.4296 -0.1081
  762MPD2    C211305   2.672   4.391  10.267  0.6286 -0.5414  0.1748
  762MPD2    C311306   2.776   4.386  10.180 -0.1578  0.0906  0.3726
  762MPD2    C411307   2.787   4.481  10.080  0.5376 -0.1889  0.6174
  762MPD2    C511308   2.716   4.596  10.103  0.8562  0.3201  0.2360
  762MPD2     H11309   2.646   4.312  10.336 -0.4504  0.1186  0.5302
  762MPD2    H111310   2.861   4.480  10.001 -0.0412  2.0921  0.0505
  762MPD2    H211311   2.572   4.706  10.189 -1.4315 -0.3578 -1.6967
  762MPD2    H311312   2.747   4.679  10.040 -0.1269 -0.2206 -0.9604
  762MPD2     N11313   2.860   4.279  10.158 -0.2265  0.0683 -0.2547
  762MPD2    H511314   2.940   4.292  10.098  1.2286 -0.7408  1.5183
  762MPD2    N111315   2.475   4.511  10.349 -0.6984 -0.3646  0.7595
  762MPD2    H711316   2.435   4.604  10.356  0.0035  0.1199 -1.5509
  763MPD2     C11317   0.102   0.113  16.010  0.1466 -0.2572  0.7532
  763MPD2    C111318   4.718   0.169  15.976 -0.5285 -0.2971 -1.2158
  763MPD2    C211319   4.684   0.293  16.022 -0.0883 -0.0244  1.0086
  763MPD2    C311320   0.039   0.366  16.094  0.6402  0.1543  0.4129
  763MPD2    C411321   0.155   0.307  16.132 -0.0740 -0.2077  0.8620
  763MPD2    C511322   0.182   0.176  16.107 -0.1944  0.0746 -0.3923
  763MPD2     H11323   4.587   0.336  15.998 -0.2438  0.7280  3.0329
  763MPD2    H111324   0.225   0.366  16.190 -1.3372  0.7545  1.4233
  763MPD2    H211325   0.134   0.015  15.978 -1.3862 -0.5839  0.2580
  763MPD2    H311326   0.284   0.139  16.112 -0.6016 -0.9645  0.2208
  763MPD2     N11327   0.025   0.504  16.119 -0.1184  0.0657  0.2263
  763MPD2    H511328   0.112   0.536  16.161 -0.4526  1.4093 -0.1091
  763MPD2    N111329   4.621   0.105  15.889  0.0609  0.1550 -0.4913
  763MPD2    H711330   4.535   0.148  15.857 -0.9964 -1.2000  0.5353
  764MPD2     C11331   3.114   1.446  17.346  0.8765 -0.1191  0.1379
  764MPD2    C111332   3.030   1.425  17.239  0.4575  0.1017 -0.3079
  764MPD2    C211333   2.961   1.303  17.223  0.0433  0.0527 -0.0825
  764MPD2    C311334   2.994   1.196  17.304 -0.3553  0.4536  0.4471
  764MPD2    C411335   3.086   1.219  17.407  0.5048 -0.1019  0.0624
  764MPD2    C511336   3.137   1.343  17.431  0.0097 -0.3112 -0.2019
  764MPD2     H11337   2.880   1.300  17.151 -1.0370 -1.2143  1.1964
  764MPD2    H111338   3.109   1.145  17.483  2.1319  1.1119  0.7575
  764MPD2    H211339   3.161   1.543  17.363  0.4973  0.3628 -1.5077
  764MPD2    H311340   3.181   1.365  17.528 -0.4967  0.3118 -0.1129
  764MPD2     N11341   2.918   1.081  17.295 -0.0427  0.4104  0.6121
  764MPD2    H511342   2.836   1.096  17.236  1.2601  2.9460 -0.5191
  764MPD2    N111343   3.006   1.528  17.143 -0.0737 -0.2208 -0.0648
  764MPD2    H711344   2.943   1.504  17.068 -0.8795  0.9041  0.2441
  765MPD2     C11345   2.619   4.068  15.485  0.3384 -0.1057 -0.0064
  765MPD2    C111346   2.633   4.169  15.392 -0.2484 -0.6727  0.2028
  765MPD2    C211347   2.711   4.144  15.271  0.0123 -0.0882 -0.4772
  765MPD2    C311348   2.758   4.019  15.244  0.2336 -0.1587  0.5886
  765MPD2    C411349   2.751   3.923  15.343  0.7240 -0.0940  0.1374
  765MPD2    C511350   2.678   3.945  15.459  0.1873 -0.7890  0.4320
  765MPD2     H11351   2.722   4.228  15.204 -0.6946 -0.1706 -0.7051
  765MPD2    H111352   2.794   3.824  15.333 -0.6553 -0.5085 -1.6027
  765MPD2    H211353   2.543   4.074  15.562  1.8023 -1.1092  1.5082
  765MPD2    H311354   2.656   3.863  15.527  0.7173  0.3328  1.9575
  765MPD2     N11355   2.841   4.005  15.140  0.5920 -0.9064 -0.5731
  765MPD2    H511356   2.863   4.092  15.092  1.8088 -0.9870 -0.1651
  765MPD2    N111357   2.551   4.276  15.423 -0.2205 -0.3759 -0.2429
  765MPD2    H711358   2.487   4.272  15.503 -1.1867 -1.1936 -1.0620
  766MPD2     C11359   1.887   4.293  15.237  0.0742  0.9169  0.2570
  766MPD2    C111360   2.021   4.327  15.203  0.3260 -0.2101  0.0082
  766MPD2    C211361   2.069   4.313  15.077 -0.0872 -0.3505  0.7191
  766MPD2    C311362   1.979   4.272  14.974 -0.4421  0.3696 -0.0672
  766MPD2    C411363   1.846   4.244  15.002 -0.2676 -0.8685  0.5838
  766MPD2    C511364   1.806   4.244  15.138 -0.4037 -0.1537 -0.2413
  766MPD2     H11365   2.168   4.352  15.061  0.5647 -3.3588 -2.4086
  766MPD2    H111366   1.778   4.206  14.927 -1.2342  2.2560 -0.1472
  766MPD2    H211367   1.845   4.289  15.336 -0.1428 -2.0616  0.0492
  766MPD2    H311368   1.704   4.221  15.166 -0.3813 -0.3922 -0.3598
  766MPD2     N11369   2.022   4.272  14.843  0.2079  0.0720 -0.3247
  766MPD2    H511370   1.945   4.256  14.779 -0.6193  0.2617  0.6292
  766MPD2    N111371   2.114   4.379  15.296 -0.6268 -0.4796 -0.3316
  766MPD2    H711372   2.205   4.394  15.255  0.2903 -0.1924  1.8178
  767MPD2     C11373   1.550   4.706  14.721 -0.2690 -0.2446  0.3697
  767MPD2    C111374   1.679   4.701  14.679 -0.3219  0.6604 -0.1146
  767MPD2    C211375   1.703   4.652  14.551  0.2588 -0.5659  0.4299
  767MPD2    C311376   1.601   4.606  14.469 -0.0257 -0.1251 -0.5141
  767MPD2    C411377   1.472   4.630  14.520  0.3171 -1.1156  0.1689
  767MPD2    C511378   1.444   4.673  14.646 -0.6000  0.0361  0.0056
  767MPD2     H11379   1.806   4.642  14.520  0.1917 -1.1390  0.4078
  767MPD2    H111380   1.383   4.601  14.466  0.9177  0.8410 -1.8845
  767MPD2    H211381   1.527   0.001  14.822 -0.6869 -1.6648  0.7344
  767MPD2    H311382   1.344   4.690  14.683 -0.6405 -0.7122  0.2460
  767MPD2     N11383   1.638   4.555  14.344 -0.2193  0.2980  0.1081
  767MPD2    H511384   1.736   4.531  14.336 -0.3318 -0.1553  0.0579
  767MPD2    N111385   1.769   0.002  14.774  0.2942 -0.5118 -0.3672
  767MPD2    H711386   1.731   0.028  14.865  0.8452 -0.9142 -0.0253
  768MPD2     C11387   2.011   2.936  10.496  0.0992 -0.1985 -0.4536
  768MPD2    C111388   2.037   3.049  10.570  0.3277 -0.1180 -0.1854
  768MPD2    C211389   2.132   3.046  10.674 -0.8054  0.1023 -0.0229
  768MPD2    C311390   2.205   2.930  10.704  0.5324 -0.0445 -0.8233
  768MPD2    C411391   2.177   2.816  10.626  0.2763  0.2312  0.5763
  768MPD2    C511392   2.083   2.825  10.526 -0.0414  0.0172 -0.1151
  768MPD2     H11393   2.142   3.131  10.740 -1.1054 -0.1328  0.3199
  768MPD2    H111394   2.228   2.726  10.661 -0.6380 -0.4723  0.0995
  768MPD2    H211395   1.933   2.927  10.421 -0.5899 -0.6607  0.3127
  768MPD2    H311396   2.062   2.736  10.468 -0.7423  1.0609 -1.4690
  768MPD2     N11397   2.301   2.925  10.802  0.7402  0.2431 -0.4716
  768MPD2    H511398   2.321   2.838  10.850 -0.9680 -0.5508 -1.1974
  768MPD2    N111399   1.981   3.173  10.539 -0.1457 -0.5809 -0.2230
  768MPD2    H711400   2.021   3.255  10.584  0.7831 -0.6261 -0.9673
  769MPD2     C11401   3.644   0.810  14.824  0.0070 -0.7876 -0.1765
  769MPD2    C111402   3.544   0.865  14.908 -0.2532 -0.7570 -0.5157
  769MPD2    C211403   3.577   0.952  15.014 -0.0615  0.1405 -0.4517
  769MPD2    C311404   3.705   0.972  15.050  0.2865  0.2101 -0.0905
  769MPD2    C411405   3.806   0.919  14.976 -0.1711  1.1811  0.4918
  769MPD2    C511406   3.775   0.833  14.867  0.3159 -0.7259  0.9815
  769MPD2     H11407   3.495   0.988  15.074  1.6747  2.7230  0.3457
  769MPD2    H111408   3.913   0.930  14.988 -0.1661 -0.4924  2.0631
  769MPD2    H211409   3.621   0.769  14.726 -2.5542  2.9605 -1.1524
  769MPD2    H311410   3.858   0.801  14.806 -0.4165 -3.3494  1.3600
  769MPD2     N11411   3.732   1.049  15.166 -0.3332 -0.3605  0.0824
  769MPD2    H511412   3.652   1.083  15.219 -1.5050 -2.2730 -0.4319
  769MPD2    N111413   3.409   0.867  14.883 -0.6579  0.5931 -0.4590
  769MPD2    H711414   3.350   0.917  14.948  1.2152  0.1235  1.6274
  770MPD2     C11415   2.654   0.420  14.687 -1.0419 -0.5814  0.2182
  770MPD2    C111416   2.784   0.416  14.634 -0.3996 -0.0461 -0.3748
  770MPD2    C211417   2.875   0.514  14.674 -0.2793  0.6073 -0.6395
  770MPD2    C311418   2.836   0.608  14.765 -0.1606 -0.8747  0.3117
  770MPD2    C411419   2.712   0.608  14.819  0.6933 -0.0936 -0.3084
  770MPD2    C511420   2.619   0.517  14.773  0.0139 -0.1947  0.6336
  770MPD2     H11421   2.977   0.517  14.636  0.0363 -0.3114  0.1039
  770MPD2    H111422   2.679   0.676  14.896  2.4285  0.7105 -0.2796
  770MPD2    H211423   2.582   0.341  14.667 -0.6763 -1.2658  1.6181
  770MPD2    H311424   2.519   0.510  14.814 -0.8336 -0.4335 -1.4523
  770MPD2     N11425   2.931   0.710  14.798 -0.5360  0.6374 -0.1356
  770MPD2    H511426   3.024   0.693  14.763 -0.5706 -2.7688  1.4394
  770MPD2    N111427   2.825   0.299  14.561  0.2413  0.0687 -0.0702
  770MPD2    H711428   2.756   0.226  14.548 -0.5726  0.6223  1.1494
  771MPD2     C11429   4.489   4.196  13.517 -0.0611 -0.3562  0.1481
  771MPD2    C111430   4.384   4.268  13.462 -0.1240 -0.6543 -0.0524
  771MPD2    C211431   4.293   4.206  13.378  0.4081 -0.4036 -0.1606
  771MPD2    C311432   4.321   4.082  13.321 -0.5362  0.4058 -0.2490
  771MPD2    C411433   4.434   4.015  13.367 -0.0232 -0.2659  0.3926
  771MPD2    C511434   4.510   4.069  13.469  0.6873 -0.3321  0.3664
  771MPD2     H11435   4.203   4.263  13.355  2.5117  2.1550 -1.9836
  771MPD2    H111436   4.452   3.917  13.323 -1.3605 -0.2371 -0.1991
  771MPD2    H211437   4.561   4.231  13.589 -0.6574  1.2208 -0.0285
  771MPD2    H311438   4.595   4.019  13.515  1.0679  0.8304  0.9323
  771MPD2     N11439   4.227   4.031  13.226  0.2245  0.1600 -1.0976
  771MPD2    H511440   4.159   4.101  13.197 -0.8915 -0.1934  0.6732
  771MPD2    N111441   4.359   4.397  13.516  0.1704 -0.4449  0.1088
  771MPD2    H711442   4.283   4.455  13.481  0.6816 -0.2075 -0.6072
  772MPD2     C11443   3.838   0.129  13.614 -0.7700 -0.0161  0.4124
  772MPD2    C111444   3.899   0.009  13.587  0.3969 -0.0091 -0.2057
  772MPD2    C211445   3.828   4.630  13.559  0.6375  0.5380  0.2122
  772MPD2    C311446   3.689   4.641  13.565  0.6165  0.0011  0.0059
  772MPD2    C411447   3.627   0.025  13.591  0.2182  0.1628  0.7228
  772MPD2    C511448   3.700   0.141  13.610  0.0046  1.0144 -0.0134
  772MPD2     H11449   3.885   4.542  13.530 -0.7134 -0.0516 -0.6511
  772MPD2    H111450   3.520   0.038  13.605 -0.2364 -0.4713 -2.2506
  772MPD2    H211451   3.886   0.217  13.655 -0.1128  0.2806 -0.9835
  772MPD2    H311452   3.662   0.234  13.651 -1.9929  1.0346 -1.9136
  772MPD2     N11453   3.608   4.533  13.530 -0.5488  0.1112  0.6994
  772MPD2    H511454   3.511   4.560  13.518 -0.0398  0.4904 -2.3532
  772MPD2    N111455   4.032   0.007  13.554 -0.5361  0.3875 -0.3278
  772MPD2    H711456   4.067   4.659  13.511  1.9920  1.0655  0.4182
  773MPD2     C11457   3.338   0.212  17.565 -0.2201  0.0383 -0.3738
  773MPD2    C111458   3.257   0.098  17.554  0.4604  0.4747  0.7804
  773MPD2    C211459   3.291   4.718  17.615 -0.4248  0.2166  0.4751
  773MPD2    C311460   3.398   4.717  17.706 -0.5994 -0.0537 -0.4800
  773MPD2    C411461   3.474   0.087  17.722  0.7395  0.5249  0.0847
  773MPD2    C511462   3.447   0.203  17.649 -0.0069 -0.8023 -0.1408
  773MPD2     H11463   3.236   4.626  17.599  0.0354 -0.4818  2.8456
  773MPD2    H111464   3.556   0.091   0.045  0.1907  1.7247  0.6597
  773MPD2    H211465   3.328   0.301  17.504  3.5552  0.5199 -0.2615
  773MPD2    H311466   3.517   0.285  17.648 -0.5400 -0.3492 -0.4437
  773MPD2     N11467   3.428   4.596   0.027  0.9249 -0.1023 -0.7926
  773MPD2    H511468   3.361   4.523   0.005  1.7292 -1.2902  0.6517
  773MPD2    N111469   3.152   0.089  17.457  0.7381 -0.1450  0.2005
  773MPD2    H711470   3.103   0.000  17.461  1.2544 -0.4990 -1.3480
  774MPD2     C11471   2.055   4.248  13.460 -0.4047 -0.1572  0.4041
  774MPD2    C111472   2.145   4.299  13.550  0.2795 -0.2691 -0.1067
  774MPD2    C211473   2.163   4.436  13.549  0.7051  0.3680  0.1950
  774MPD2    C311474   2.087   4.517  13.462 -0.1033 -0.3232 -0.1611
  774MPD2    C411475   1.995   4.465  13.373  0.4230  0.0850 -0.0752
  774MPD2    C511476   1.978   4.324  13.375 -0.1169 -1.2152  0.5460
  774MPD2     H11477   2.239   4.476  13.614  1.6920 -0.8045 -0.2354
  774MPD2    H111478   1.937   4.520  13.300  2.2966  1.0359 -0.8654
  774MPD2    H211479   2.034   4.142  13.461  0.4654 -0.3134  2.3030
  774MPD2    H311480   1.900   4.286  13.309 -1.6485  0.6523  1.2877
  774MPD2     N11481   2.112   4.654  13.467 -0.1436 -0.3198  0.1194
  774MPD2    H511482   2.183   4.686  13.532 -1.4243 -1.7980  2.2760
  774MPD2    N111483   2.226   4.220  13.631  0.2178 -0.1627  0.1123
  774MPD2    H711484   2.206   4.120  13.626 -1.4814  0.1268  1.0530
  775MPD2     C11485   4.008   0.841  15.473  0.8982  0.3035  0.0048
  775MPD2    C111486   4.020   0.939  15.570 -0.0837  0.2408  0.4203
  775MPD2    C211487   4.102   1.043  15.555  0.0087 -0.5070 -0.2002
  775MPD2    C311488   4.176   1.067  15.441 -0.3674 -0.4641 -0.5662
  775MPD2    C411489   4.170   0.965  15.348  0.4459  0.3791  0.1691
  775MPD2    C511490   4.084   0.853  15.361 -0.0375  0.1314 -0.2853
  775MPD2     H11491   4.108   1.113  15.638  0.1284 -0.8757  0.1013
  775MPD2    H111492   4.213   0.993  15.252  1.1626 -0.8419  0.1418
  775MPD2    H211493   3.953   0.748  15.486  1.4453  0.1733  1.4726
  775MPD2    H311494   4.070   0.776  15.286  0.4476  1.5754 -1.8583
  775MPD2     N11495   4.265   1.180  15.426  0.3970 -0.5042 -0.1034
  775MPD2    H511496   4.329   1.169  15.349 -3.1436 -2.3322 -2.7842
  775MPD2    N111497   3.942   0.916  15.687 -0.0345 -0.1986  0.7764
  775MPD2    H711498   3.885   0.832  15.679  1.3922 -1.0832 -0.2130
  776MPD2     C11499   3.424   1.519  11.768  0.1379 -0.1236  0.4331
  776MPD2    C111500   3.344   1.507  11.658  0.1466  0.3985  0.2156
  776MPD2    C211501   3.287   1.618  11.599  0.4912  0.7964  0.1634
  776MPD2    C311502   3.325   1.744  11.641  0.7082 -0.6753  0.9668
  776MPD2    C411503   3.415   1.752  11.747  0.0107 -0.1217 -0.2829
  776MPD2    C511504   3.468   1.642  11.812 -0.2850  0.1489  0.4223
  776MPD2     H11505   3.225   1.604  11.511  1.4041  1.6701 -0.6254
  776MPD2    H111506   3.434   1.845  11.800 -0.9139 -0.2446  0.2726
  776MPD2    H211507   3.463   1.428  11.812  0.5189 -0.2550 -0.1833
  776MPD2    H311508   3.535   1.635  11.897  3.3148  0.8206 -2.3443
  776MPD2     N11509   3.265   1.862  11.589  0.0871  0.1708  0.8078
  776MPD2    H511510   3.301   1.954  11.612  2.0679 -0.3907 -0.0149
  776MPD2    N111511   3.302   1.369  11.631 -0.2944 -0.0864 -0.0534
  776MPD2    H711512   3.348   1.289  11.672  0.3272 -0.4360 -1.4401
  777MPD2     C11513   3.737   3.524   1.010 -0.2924 -0.6967  0.4231
  777MPD2    C111514   3.604   3.580   1.020 -0.0242  0.1209 -0.3674
  777MPD2    C211515   3.499   3.538   0.943 -0.4970  0.3223  0.1366
  777MPD2    C311516   3.526   3.441   0.851 -0.1355  0.1557 -0.6434
  777MPD2    C411517   3.654   3.390   0.833  0.2223  0.0345 -0.4253
  777MPD2    C511518   3.759   3.435   0.907  0.2415 -0.4620 -0.1846
  777MPD2     H11519   3.397   3.575   0.955 -1.3939 -1.8651 -0.7736
  777MPD2    H111520   3.676   3.315   0.758 -1.1075 -1.3842  0.6119
  777MPD2    H211521   3.819   3.555   1.074 -0.3730 -4.1224  2.2220
  777MPD2    H311522   3.857   3.402   0.874  0.3138  0.2967 -0.7526
  777MPD2     N11523   3.411   3.408   0.776  0.4125  0.4306  0.7429
  777MPD2    H511524   3.326   3.457   0.802 -0.4067 -0.2355 -0.6633
  777MPD2    N111525   3.591   3.672   1.124 -0.6738 -0.0735  0.6126
  777MPD2    H711526   3.672   3.672   1.185  0.9422  2.6408 -1.5434
  778MPD2     C11527   4.398   3.725  14.518  0.7144 -0.5996  0.2968
  778MPD2    C111528   4.456   3.615  14.461  0.0499  0.1981  0.6715
  778MPD2    C211529   4.559   3.626  14.362 -0.3680 -0.7928 -0.2697
  778MPD2    C311530   4.599   3.752  14.315  0.2969 -0.5309 -0.4304
  778MPD2    C411531   4.535   3.859  14.367 -0.0513  0.1188 -0.0725
  778MPD2    C511532   4.445   3.848  14.470  0.0349 -0.2353 -0.1318
  778MPD2     H11533   4.617   3.546  14.315  2.5397  0.7118  0.7345
  778MPD2    H111534   4.560   3.961  14.341  0.4762  0.3239  1.2284
  778MPD2    H211535   4.328   3.724  14.600  1.5827  0.7252  1.0407
  778MPD2    H311536   4.399   3.933  14.517  0.2115  1.1100 -2.3776
  778MPD2     N11537   4.713   3.765  14.220  0.1909 -0.0114  0.0497
  778MPD2    H511538   0.021   3.682  14.183  0.8102  0.7120 -0.8088
  778MPD2    N111539   4.408   3.482  14.495  0.1817  0.2543  0.7554
  778MPD2    H711540   4.469   3.407  14.464  1.1081  1.9141 -1.4545
  779MPD2     C11541   4.228   2.870  13.701 -0.1871  0.1094 -0.3623
  779MPD2    C111542   4.304   2.896  13.810  0.2919 -0.2392  0.0425
  779MPD2    C211543   4.327   3.023  13.845  0.2983 -0.2796 -0.1610
  779MPD2    C311544   4.275   3.127  13.778 -0.0647  0.8795 -0.0922
  779MPD2    C411545   4.186   3.105  13.678 -0.5215  0.3006 -0.6999
  779MPD2    C511546   4.161   2.972  13.642  0.0999  0.0042 -0.5741
  779MPD2     H11547   4.387   3.032  13.935  0.6902  1.0388 -0.5528
  779MPD2    H111548   4.137   3.183  13.620 -0.8704  0.1429 -0.6130
  779MPD2    H211549   4.204   2.770  13.666 -0.3941 -0.5977  1.8004
  779MPD2    H311550   4.088   2.952  13.564 -2.1827  0.5693  1.4350
  779MPD2     N11551   4.310   3.257  13.819  0.0141  0.1279 -0.3702
  779MPD2    H511552   4.372   3.271  13.897 -0.3168 -0.4199 -0.0048
  779MPD2    N111553   4.366   2.796  13.885  0.1672  0.3005  0.1060
  779MPD2    H711554   4.407   2.811  13.976 -0.5858 -1.8166  0.7923
  780MPD2     C11555   2.846   2.425   0.429  0.2735  0.3330  0.0569
  780MPD2    C111556   2.869   2.333   0.330 -0.0017  0.8525  0.0587
  780MPD2    C211557   2.970   2.354   0.240 -0.4626  0.3819 -0.2544
  780MPD2    C311558   3.043   2.470   0.249  0.3369  0.6686 -0.9674
  780MPD2    C411559   3.024   2.561   0.351  0.3477  0.9753 -0.0471
  780MPD2    C511560   2.921   2.539   0.434 -0.4039 -0.2649 -0.2189
  780MPD2     H11561   2.984   2.285   0.157  1.7650  1.3117 -0.6383
  780MPD2    H111562   3.075   2.657   0.348 -0.6282  1.5393  1.6583
  780MPD2    H211563   2.762   2.421   0.497  0.1569 -0.5525 -0.1368
  780MPD2    H311564   2.894   2.607   0.513  0.1738  0.1086 -0.3421
  780MPD2     N11565   3.157   2.483   0.164  0.6755  0.4617  0.2301
  780MPD2    H511566   3.178   2.402   0.107 -2.4013  0.5592 -1.0653
  780MPD2    N111567   2.801   2.215   0.343 -0.3242  0.1529  0.2210
  780MPD2    H711568   2.763   2.205   0.436  2.3305 -1.0782  1.1824
  781MPD2     C11569   0.455   4.238  11.670  0.6009 -0.1990 -0.2082
  781MPD2    C111570   0.564   4.197  11.749 -0.2483  0.1964  0.2614
  781MPD2    C211571   0.695   4.177  11.700 -0.5878  0.3155  0.1479
  781MPD2    C311572   0.723   4.197  11.568 -0.5262 -0.1048 -0.3731
  781MPD2    C411573   0.617   4.222  11.483 -0.3914 -0.6498  0.2491
  781MPD2    C511574   0.490   4.236  11.536 -0.0611 -0.0051  0.1630
  781MPD2     H11575   0.768   4.137  11.769 -0.3657  1.9068  0.8271
  781MPD2    H111576   0.630   4.229  11.376 -1.6496 -1.8767  0.0147
  781MPD2    H211577   0.355   4.269  11.697  0.7553  0.3249 -0.2281
  781MPD2    H311578   0.410   4.264  11.468 -0.0402 -0.1690  0.0713
  781MPD2     N11579   0.847   4.158  11.518 -0.4896 -0.5597 -0.3485
  781MPD2    H511580   0.863   4.148  11.419  2.0794  0.4081 -0.0313
  781MPD2    N111581   0.540   4.180  11.883  0.2628 -0.1680  0.3183
  781MPD2    H711582   0.617   4.163  11.946  0.2903  1.7386  0.7930
  782MPD2     C11583   3.441   4.616   9.778  0.3218 -0.3949  0.4834
  782MPD2    C111584   3.366   4.656   9.888  0.3725 -0.1733 -0.7260
  782MPD2    C211585   3.321   0.046   9.881 -0.5790  0.7458 -0.4980
  782MPD2    C311586   3.349   0.138   9.787 -0.5865 -0.3841  0.1509
  782MPD2    C411587   3.430   0.104   9.680  0.2058  0.6653 -0.3503
  782MPD2    C511588   3.462   4.704   9.679  0.2409  0.3889 -0.0849
  782MPD2     H11589   3.258   0.080   9.963 -0.5156 -0.5149  0.0719
  782MPD2    H111590   3.452   0.149   9.584  2.6030  1.9858  0.8166
  782MPD2    H211591   3.470   4.512   9.770 -0.9708 -0.5390 -2.0798
  782MPD2    H311592   3.509   4.666   9.589  0.6472  1.3809 -0.2936
  782MPD2     N11593   3.310   0.272   9.810  0.6541  0.2049  0.4572
  782MPD2    H511594   3.243   0.288   9.885 -0.2416  0.8800 -0.4894
  782MPD2    N111595   3.327   4.558   9.984  0.1434  0.0193  0.3860
  782MPD2    H711596   3.356   4.461   9.973 -0.7961 -0.2110 -0.0477
  783MPD2     C11597   2.665   4.656  10.771  0.1282  0.5752  0.4232
  783MPD2    C111598   2.732   0.017  10.699  0.0958  0.2461 -0.0826
  783MPD2    C211599   2.818   4.721  10.595  0.4174 -0.1013  0.2733
  783MPD2    C311600   2.856   4.588  10.574  0.5149 -0.1691  0.7925
  783MPD2    C411601   2.786   4.492  10.650 -0.8385 -0.8035  0.1208
  783MPD2    C511602   2.691   4.527  10.748 -0.1041 -0.5761 -0.5718
  783MPD2     H11603   2.859   0.056  10.525 -1.0144 -0.1111 -0.5823
  783MPD2    H111604   2.798   4.384  10.644  1.9834 -0.4330 -0.7569
  783MPD2    H211605   2.602   4.684  10.855 -0.2058 -1.1086  0.7316
  783MPD2    H311606   2.636   4.452  10.803 -0.3556 -0.6023 -0.8601
  783MPD2     N11607   2.941   4.549  10.471  0.7523 -0.7305  0.2929
  783MPD2    H511608   2.962   4.624  10.406  2.4780 -0.0241  1.6744
  783MPD2    N111609   2.708   0.152  10.733  0.7747 -0.4644 -0.3204
  783MPD2    H711610   2.621   0.164  10.785  0.9247 -0.3613 -0.0926
  784MPD2     C11611   1.423   0.847   0.347  0.5543  0.1276  0.1664
  784MPD2    C111612   1.403   0.935   0.455  0.7038 -0.0870 -0.7820
  784MPD2    C211613   1.284   1.004   0.465 -0.4841  0.4154  0.0737
  784MPD2    C311614   1.183   0.991   0.375 -0.4919  0.3879  0.2115
  784MPD2    C411615   1.204   0.903   0.268 -0.0104 -0.1398 -1.0481
  784MPD2    C511616   1.324   0.830   0.248 -0.2532  0.4954 -0.6459
  784MPD2     H11617   1.272   1.086   0.535  1.5297 -1.4163  2.5342
  784MPD2    H111618   1.134   0.882   0.188  0.3176 -1.7934 -0.9145
  784MPD2    H211619   1.514   0.789   0.339  0.7334  0.3181  0.8772
  784MPD2    H311620   1.342   0.766   0.163  0.0892  0.6620 -0.7007
  784MPD2     N11621   1.057   1.056   0.392 -0.2028  0.3856  0.3675
  784MPD2    H511622   1.051   1.129   0.462  0.8804  0.5756  0.2682
  784MPD2    N111623   1.504   0.969   0.545  0.2908 -0.1054  0.4370
  784MPD2    H711624   1.482   1.039   0.615  1.2828  0.9055 -0.2700
  785MPD2     C11625   1.124   3.728  10.358 -0.1713 -0.4247  0.0373
  785MPD2    C111626   0.999   3.764  10.412  1.0172 -0.2836  0.3132
  785MPD2    C211627   0.885   3.725  10.340  0.7010 -0.0372  0.3041
  785MPD2    C311628   0.894   3.649  10.223 -0.0419 -0.1194 -1.0970
  785MPD2    C411629   1.017   3.611  10.175  0.3084 -0.0309  0.5152
  785MPD2    C511630   1.127   3.648  10.246  0.7057 -0.1152  0.0946
  785MPD2     H11631   0.789   3.763  10.375 -0.0200 -0.1452 -1.5778
  785MPD2    H111632   1.031   3.549  10.087  1.7439  1.3033 -0.1880
  785MPD2    H211633   1.220   3.756  10.398 -1.1308 -0.3765  2.2821
  785MPD2    H311634   1.224   3.618  10.209  0.4360  1.1935 -1.6601
  785MPD2     N11635   0.765   3.621  10.164 -0.4610 -0.1156 -0.5738
  785MPD2    H511636   0.682   3.637  10.221 -0.4028  0.2860 -0.6061
  785MPD2    N111637   0.999   3.831  10.538  0.2233  0.2185 -0.0030
  785MPD2    H711638   1.089   3.856  10.578  0.3054  0.8255 -0.5536
  786MPD2     C11639   0.106   1.832  14.961 -0.3375  0.2386  0.1773
  786MPD2    C111640   0.235   1.865  14.921  0.5117 -0.4691  0.3274
  786MPD2    C211641   0.318   1.910  15.025  0.4046 -0.0319  0.5776
  786MPD2    C311642   0.268   1.928  15.154 -0.1385 -0.4879  0.1987
  786MPD2    C411643   0.148   1.874  15.183 -0.2014 -0.7230  0.1056
  786MPD2    C511644   0.070   1.818  15.086 -0.4066  0.1169  0.7634
  786MPD2     H11645   0.424   1.925  15.003  0.3774  0.3482  0.6982
  786MPD2    H111646   0.118   1.877  15.287 -0.4143 -0.7049  0.0425
  786MPD2    H211647   0.034   1.782  14.898 -0.9439  1.4816 -0.1254
  786MPD2    H311648   4.709   1.778  15.109 -0.6591  0.8408  0.9621
  786MPD2     N11649   0.337   1.981  15.268  0.2972 -0.4167  0.1609
  786MPD2    H511650   0.292   1.983  15.359 -1.0806 -0.1087 -0.5403
  786MPD2    N111651   0.283   1.839  14.790 -0.3614  0.6253 -0.3595
  786MPD2    H711652   0.379   1.807  14.782 -0.5891 -0.4793  1.2255
  787MPD2     C11653   0.469   1.246  14.844 -0.0698 -0.4520  0.3218
  787MPD2    C111654   0.449   1.257  14.705  1.1075  0.0435 -0.0047
  787MPD2    C211655   0.446   1.138  14.633  0.3454 -0.6681 -0.1286
  787MPD2    C311656   0.477   1.016  14.694 -0.1291  0.3798 -0.0774
  787MPD2    C411657   0.497   1.008  14.828 -0.3055 -0.0624 -0.1046
  787MPD2    C511658   0.487   1.122  14.907 -0.6399  0.3567 -0.3511
  787MPD2     H11659   0.427   1.153  14.527 -0.7212 -0.9140  0.0294
  787MPD2    H111660   0.510   0.916  14.883 -1.1501 -0.8692 -1.2655
  787MPD2    H211661   0.471   1.330  14.912  0.5239 -0.8883  0.8323
  787MPD2    H311662   0.507   1.115  15.013  2.8299  1.0906 -0.9457
  787MPD2     N11663   0.482   0.904  14.603  0.0620 -0.1106 -0.4991
  787MPD2    H511664   0.453   0.918  14.507 -1.7208  0.8262  0.1680
  787MPD2    N111665   0.424   1.381  14.640  0.0031 -0.1315  0.4041
  787MPD2    H711666   0.451   1.466  14.688  2.8023  1.1083 -3.3003
  788MPD2     C11667   2.326   0.472   0.843 -0.4661  0.1997 -0.2436
  788MPD2    C111668   2.295   0.390   0.734  0.2822 -0.0412 -0.0180
  788MPD2    C211669   2.346   0.423   0.614 -0.5104 -0.2739  0.1266
  788MPD2    C311670   2.422   0.539   0.589  0.0503 -0.0340 -0.0119
  788MPD2    C411671   2.426   0.630   0.694  0.0391 -0.4375  0.0939
  788MPD2    C511672   2.383   0.596   0.819 -0.4421  0.3422  0.4040
  788MPD2     H11673   2.316   0.354   0.536  0.0848  0.0583 -0.3934
  788MPD2    H111674   2.467   0.729   0.680 -1.7550  0.5428  1.6413
  788MPD2    H211675   2.298   0.433   0.940 -0.4144  0.7266 -0.0135
  788MPD2    H311676   2.401   0.676   0.889  0.5370  0.3002  0.2066
  788MPD2     N11677   2.432   0.585   0.453 -0.6826  0.6635  1.0151
  788MPD2    H511678   2.439   0.685   0.435 -0.3147  0.4420 -0.0418
  788MPD2    N111679   2.232   0.262   0.746 -0.0334 -0.1385  0.1678
  788MPD2    H711680   2.231   0.196   0.668  1.0456 -2.2194  1.9096
  789MPD2     C11681   2.201   4.540  16.623  0.0820  0.3275 -0.1738
  789MPD2    C111682   2.155   4.535  16.751  0.2382 -0.6894  0.8564
  789MPD2    C211683   2.072   4.634  16.795  0.0901  0.4694  0.2269
  789MPD2    C311684   2.048   0.009  16.723 -0.1938  0.3761  0.8899
  789MPD2    C411685   2.106   0.016  16.600  0.7193  0.0923 -0.3186
  789MPD2    C511686   2.179   4.650  16.550 -0.0202 -0.2132  1.0161
  789MPD2     H11687   2.032   4.623  16.895  0.9251  0.3378  0.5506
  789MPD2    H111688   2.089   0.099  16.533  1.5668  0.5992  0.0972
  789MPD2    H211689   2.271   4.468  16.581 -0.8876 -0.2367 -0.8185
  789MPD2    H311690   2.223   4.649  16.451 -0.4000  0.6074  0.8327
  789MPD2     N11691   1.977   0.123  16.775 -0.5117 -0.4083 -0.1275
  789MPD2    H511692   1.963   0.208  16.721 -1.4525 -1.3165 -1.3161
  789MPD2    N111693   2.162   4.422  16.828 -0.1917  0.1817 -0.3154
  789MPD2    H711694   2.104   4.431  16.911 -1.4376 -0.7407 -1.0705
  790MPD2     C11695   3.219   2.151  13.293 -0.5700  0.1271 -0.6966
  790MPD2    C111696   3.287   2.044  13.355  0.1435  0.3727  0.2208
  790MPD2    C211697   3.266   1.916  13.297  0.3139 -0.0433 -0.0790
  790MPD2    C311698   3.177   1.899  13.192  0.2071 -0.2634  0.7604
  790MPD2    C411699   3.124   2.007  13.129 -0.3548 -0.2545  0.6499
  790MPD2    C511700   3.145   2.130  13.175  0.4482  0.3666 -0.2291
  790MPD2     H11701   3.319   1.826  13.324 -0.3972 -0.6989 -0.8821
  790MPD2    H111702   3.071   2.007  13.035  0.1290 -0.3315  0.3775
  790MPD2    H211703   3.244   2.251  13.326 -3.4591  0.2331  1.1063
  790MPD2    H311704   3.091   2.215  13.133  1.8182  1.1611 -0.3856
  790MPD2     N11705   3.156   1.776  13.129 -0.0845  0.0408  0.6035
  790MPD2    H511706   3.227   1.705  13.145 -1.6717 -1.7497 -0.3508
  790MPD2    N111707   3.379   2.072  13.450 -0.3113  0.3980  0.4662
  790MPD2    H711708   3.403   2.168  13.472  1.2262  0.6967 -2.5695
  791MPD2     C11709   2.489   1.578  12.777 -0.3509 -0.4920 -0.1218
  791MPD2    C111710   2.558   1.460  12.787  0.0925  0.0193  0.0810
  791MPD2    C211711   2.500   1.334  12.766 -0.1096 -0.2194 -0.7150
  791MPD2    C311712   2.370   1.329  12.724 -0.4952  0.6621  0.2791
  791MPD2    C411713   2.297   1.450  12.722 -0.0802 -0.0625 -0.2931
  791MPD2    C511714   2.354   1.575  12.750 -0.2491 -0.6623  0.6064
  791MPD2     H11715   2.560   1.244  12.777  1.2297  0.8461  0.6838
  791MPD2    H111716   2.193   1.449  12.691 -0.0084  0.7632 -0.5536
  791MPD2    H211717   2.536   1.675  12.792  0.7309 -1.4602  2.7052
  791MPD2    H311718   2.305   1.671  12.747 -1.1606 -1.1079  1.3706
  791MPD2     N11719   2.311   1.203  12.692 -0.3200  0.2422 -0.1282
  791MPD2    H511720   2.369   1.121  12.706  0.2644  0.6847  0.0794
  791MPD2    N111721   2.694   1.491  12.815  0.0842  0.1058  0.1451
  791MPD2    H711722   2.714   1.589  12.832 -2.6175  0.6633 -0.0065
  792MPD2     C11723   3.191   1.449  10.637  0.0448  0.0778 -0.8977
  792MPD2    C111724   3.077   1.473  10.708  0.4504 -0.0265 -0.7449
  792MPD2    C211725   2.992   1.368  10.729  0.6168 -0.9118 -0.1079
  792MPD2    C311726   3.016   1.238  10.685 -0.4917 -0.1946 -0.3720
  792MPD2    C411727   3.131   1.221  10.617 -0.5220 -0.2071  0.1613
  792MPD2    C511728   3.218   1.322  10.604  0.0154  0.1961  0.4112
  792MPD2     H11729   2.905   1.385  10.792  1.7730  0.4594  1.1331
  792MPD2    H111730   3.162   1.123  10.584 -1.2122 -1.0178  1.8947
  792MPD2    H211731   3.266   1.525  10.622 -1.5237  1.6696 -0.7175
  792MPD2    H311732   3.310   1.300  10.551  0.0239  1.5148 -0.1340
  792MPD2     N11733   2.938   1.123  10.696 -0.2328  0.4336 -0.7793
  792MPD2    H511734   2.952   1.049  10.628  0.6786 -1.1931  1.1613
  792MPD2    N111735   3.052   1.609  10.741  0.2911  0.1021 -0.5628
  792MPD2    H711736   3.126   1.672  10.712  1.5707 -0.8071  0.6980
  793MPD2     C11737   2.035   1.252  10.375  0.4287  0.0824 -0.5661
  793MPD2    C111738   2.137   1.203  10.302  0.2444 -0.1132 -0.7256
  793MPD2    C211739   2.241   1.137  10.367  0.5760  0.5040  0.1436
  793MPD2    C311740   2.242   1.129  10.503  0.3960 -0.1118 -0.1044
  793MPD2    C411741   2.135   1.177  10.579  0.0457  0.6643  1.0296
  793MPD2    C511742   2.037   1.240  10.511 -0.5940  0.5483  0.3304
  793MPD2     H11743   2.329   1.098  10.317  1.7447  1.3102  1.5724
  793MPD2    H111744   2.127   1.161  10.686 -0.1015  2.6461  1.3270
  793MPD2    H211745   1.955   1.309  10.330  0.0697 -0.1074 -0.1710
  793MPD2    H311746   1.955   1.277  10.573  0.0233  0.3225  1.2810
  793MPD2     N11747   2.354   1.074  10.560  0.2703 -0.4669  0.2795
  793MPD2    H511748   2.414   1.036  10.487  0.5620  0.3164  0.1110
  793MPD2    N111749   2.150   1.221  10.165  0.1304  0.0037 -0.1181
  793MPD2    H711750   2.234   1.179  10.126 -0.8212 -0.2103 -1.9669
  794MPD2     C11751   3.061   0.180  16.663 -0.2888 -0.7487  0.2378
  794MPD2    C111752   2.978   0.258  16.735  0.4951  0.5324  0.1341
  794MPD2    C211753   2.924   0.369  16.679 -0.2350 -0.3309 -0.1140
  794MPD2    C311754   2.957   0.410  16.548  0.5217 -0.8150 -0.5824
  794MPD2    C411755   3.030   0.318  16.473  0.8874 -0.7598  0.0797
  794MPD2    C511756   3.084   0.207  16.534 -0.2342  0.3155 -0.1746
  794MPD2     H11757   2.847   0.415  16.739 -1.0355 -0.4293 -1.0775
  794MPD2    H111758   3.052   0.323  16.366 -0.1311 -1.8357 -0.1796
  794MPD2    H211759   3.118   0.100  16.710  0.6862  0.9021  1.8589
  794MPD2    H311760   3.164   0.152  16.485 -1.2373  0.2842 -1.7587
  794MPD2     N11761   2.904   0.516  16.481 -0.4081  0.4312  0.2171
  794MPD2    H511762   2.905   0.515  16.380 -0.4975 -0.0738  0.2212
  794MPD2    N111763   2.957   0.207  16.867  0.5577  0.6810 -0.2563
  794MPD2    H711764   2.985   0.112  16.885 -1.6145  0.7572  3.5567
  795MPD2     C11765   0.882   3.072  13.861  0.1075 -0.2223 -0.1309
  795MPD2    C111766   0.852   2.966  13.791  0.0961 -0.4099  0.2181
  795MPD2    C211767   0.926   2.850  13.804 -0.0405 -0.0541  0.0378
  795MPD2    C311768   1.024   2.838  13.906  0.1011 -0.0578 -0.1363
  795MPD2    C411769   1.038   2.953  13.989 -0.5350  0.4595 -0.1041
  795MPD2    C511770   0.974   3.066  13.960  0.2227  0.2326  0.4210
  795MPD2     H11771   0.908   2.773  13.730  0.8019 -1.5187  1.3657
  795MPD2    H111772   1.107   2.963  14.072 -0.4242  0.7947 -0.2351
  795MPD2    H211773   0.825   3.164  13.859  0.1686 -0.1703  0.4710
  795MPD2    H311774   1.005   3.158  14.008  1.9240  0.3779 -0.9314
  795MPD2     N11775   1.104   2.723  13.915 -0.0285  0.1363 -0.3202
  795MPD2    H511776   1.089   2.647  13.850 -0.4894 -0.5270  0.5494
  795MPD2    N111777   0.754   2.985  13.689  0.4258  0.0237 -0.0113
  795MPD2    H711778   0.754   2.914  13.616  0.9758  1.7426 -1.6777
  796MPD2     C11779   0.294   4.067  15.733 -0.5986  0.6694 -0.0828
  796MPD2    C111780   0.354   4.130  15.835  0.1659  0.7371  0.3252
  796MPD2    C211781   0.356   4.268  15.832 -0.6024  0.4655  0.4226
  796MPD2    C311782   0.301   4.345  15.727  0.4507  0.3133  0.2888
  796MPD2    C411783   0.239   4.277  15.630  0.4764 -0.0286  0.3117
  796MPD2    C511784   0.233   4.142  15.631 -0.4457  0.8628 -0.3260
  796MPD2     H11785   0.388   4.321  15.921 -1.0201 -0.5565  1.1736
  796MPD2    H111786   0.189   4.327  15.548  0.5376  0.0846  0.3434
  796MPD2    H211787   0.288   3.959  15.720  0.5446  0.5423  0.4534
  796MPD2    H311788   0.165   4.096  15.561  2.0708 -0.7632 -1.6995
  796MPD2     N11789   0.323   4.487  15.729  0.1477 -0.4042  0.3523
  796MPD2    H511790   0.370   4.530  15.809 -0.5411  0.6280  0.1896
  796MPD2    N111791   0.414   4.048  15.931 -0.0964  1.0592 -0.1572
  796MPD2    H711792   0.423   3.951  15.900  0.9031  1.3079 -0.6357
  797MPD2     C11793   0.925   4.172   0.118 -0.2852 -0.3314 -0.0008
  797MPD2    C111794   0.988   4.277   0.051 -0.0091  0.5281 -0.6097
  797MPD2    C211795   0.918   4.339  17.698 -0.8196  0.6410  0.5626
  797MPD2    C311796   0.785   4.306  17.669  0.0569  0.5819  0.3982
  797MPD2    C411797   0.724   4.211   0.002  0.1156  0.6705  0.0226
  797MPD2    C511798   0.799   4.139   0.092  0.0057  0.0886  0.5555
  797MPD2     H11799   0.964   4.419  17.639  0.2602  0.7339  1.5325
  797MPD2    H111800   0.622   4.179  17.733 -0.2599  1.9982 -0.2873
  797MPD2    H211801   0.975   4.114   0.194 -0.0083 -1.2887 -0.9072
  797MPD2    H311802   0.752   4.066   0.156  1.2080  0.8041  2.2341
  797MPD2     N11803   0.716   4.354  17.551  0.3857 -0.1936  0.1204
  797MPD2    H511804   0.620   4.322  17.542  0.2084  0.9229 -1.8678
  797MPD2    N111805   1.125   4.298   0.075 -0.7698 -0.0321 -0.2731
  797MPD2    H711806   1.172   4.379   0.035 -0.4414 -0.2426 -0.3226
  798MPD2     C11807   1.216   4.421  17.070 -0.3050 -0.0029 -0.1158
  798MPD2    C111808   1.133   4.444  17.181  0.4934  0.0313  0.2338
  798MPD2    C211809   1.191   4.440  17.302  0.2046 -0.7750 -0.4591
  798MPD2    C311810   1.322   4.409  17.318  1.1025 -0.2643  0.3216
  798MPD2    C411811   1.404   4.382  17.212 -0.3314  0.1722  0.6080
  798MPD2    C511812   1.350   4.400  17.085 -0.5920 -0.1513 -0.6960
  798MPD2     H11813   1.125   4.463  17.385  1.9811 -2.4227  1.4046
  798MPD2    H111814   1.504   4.340  17.225 -0.2614  1.0931  2.9977
  798MPD2    H211815   1.188   4.384  16.971  1.2314 -2.8999  0.5261
  798MPD2    H311816   1.410   4.395  16.995  1.1239 -1.5649  0.5259
  798MPD2     N11817   1.364   4.394  17.458  0.1294 -0.1691 -0.3563
  798MPD2    H511818   1.289   4.413  17.523  0.4961  0.7894 -0.2133
  798MPD2    N111819   0.996   4.469  17.183 -0.3934  0.5165  0.3998
  798MPD2    H711820   0.944   4.476  17.270 -1.0435  0.8524 -0.0094
  799MPD2     C11821   0.029   0.930  14.624  0.2279  0.5646  0.6377
  799MPD2    C111822   4.670   0.906  14.528  0.4463  0.0497 -0.3792
  799MPD2    C211823   4.631   1.004  14.442  0.7373  0.4034  0.4892
  799MPD2    C311824   4.705   1.123  14.440  0.1733 -0.1861  0.3163
  799MPD2    C411825   0.067   1.147  14.529  0.0790  0.1723 -0.7392
  799MPD2    C511826   0.094   1.054  14.619 -0.1839  0.3975  0.2000
  799MPD2     H11827   4.553   0.988  14.369  0.9874  0.5031  0.2006
  799MPD2    H111828   0.129   1.235  14.519  1.1464 -0.3501  1.2122
  799MPD2    H211829   0.054   0.861  14.704  1.9092  2.2218  1.5228
  799MPD2    H311830   0.172   1.077  14.692 -1.3608  2.7805  0.6935
  799MPD2     N11831   4.675   1.240  14.366  0.5615  0.2989  0.4366
  799MPD2    H511832   0.001   1.317  14.387  2.3831 -1.5670  1.7953
  799MPD2    N111833   4.603   0.783  14.528  0.4343 -0.1998 -0.6485
  799MPD2    H711834   4.514   0.783  14.479  1.4414  1.8301 -2.4756
  800MPD2     C11835   0.580   2.095  13.854  0.0965  0.2206 -0.3922
  800MPD2    C111836   0.667   2.028  13.933  0.0765  0.9134  0.3188
  800MPD2    C211837   0.716   1.910  13.884 -0.9109  0.0177 -0.0633
  800MPD2    C311838   0.684   1.859  13.761  0.5030  0.2650 -0.0951
  800MPD2    C411839   0.605   1.938  13.675 -0.2291 -0.0090  0.5157
  800MPD2    C511840   0.542   2.051  13.724  0.0407 -0.3460 -0.3180
  800MPD2     H11841   0.792   1.856  13.940  2.3288  5.3724  0.7323
  800MPD2    H111842   0.580   1.911  13.573 -0.4715 -0.5209  0.7100
  800MPD2    H211843   0.535   2.186  13.893  1.3232  1.4476 -1.8697
  800MPD2    H311844   0.480   2.114  13.661  1.5858 -0.7223 -2.2147
  800MPD2     N11845   0.752   1.747  13.720 -0.2803  0.6503  0.1995
  800MPD2    H511846   0.827   1.721  13.784 -1.1635 -0.5739  0.7369
  800MPD2    N111847   0.694   2.086  14.064  0.2741  0.0189 -0.2049
  800MPD2    H711848   0.645   2.170  14.092  0.7118  0.2091 -0.0118
  801MPD2     C11849   0.850   2.764  14.253 -0.1346 -0.8386 -0.3045
  801MPD2    C111850   0.764   2.661  14.297 -0.4914 -0.2202 -0.1519
  801MPD2    C211851   0.641   2.698  14.336  0.1380 -0.2002 -0.3291
  801MPD2    C311852   0.588   2.826  14.337 -0.0114 -0.4507 -0.1741
  801MPD2    C411853   0.681   2.926  14.292 -0.6094 -0.1182 -0.0052
  801MPD2    C511854   0.814   2.893  14.250 -0.5248 -0.0791 -0.4489
  801MPD2     H11855   0.571   2.621  14.365 -1.8922  1.5650 -0.5760
  801MPD2    H111856   0.646   3.028  14.281 -1.7004 -0.5234 -0.2740
  801MPD2    H211857   0.947   2.739  14.212  0.5992  1.7246 -0.1088
  801MPD2    H311858   0.882   2.972  14.219  0.5172 -1.1518 -0.8615
  801MPD2     N11859   0.457   2.856  14.374  0.1190  0.0633 -0.6828
  801MPD2    H511860   0.421   2.950  14.360 -1.5151 -0.5022 -0.2297
  801MPD2    N111861   0.796   2.526  14.302  0.1407  0.1358 -0.2112
  801MPD2    H711862   0.722   2.461  14.327  0.6426 -1.3174 -2.5593
  802MPD2     C11863   4.066   3.881   0.065  0.4685  0.3263 -0.4525
  802MPD2    C111864   4.123   3.780   0.139  0.2764  0.2657  0.3405
  802MPD2    C211865   4.266   3.787   0.147  0.1019 -0.2535  0.4473
  802MPD2    C311866   4.341   3.867   0.062  0.5192  0.2199  0.4955
  802MPD2    C411867   4.280   3.955  17.730 -0.6452  0.0971 -0.2612
  802MPD2    C511868   4.143   3.966  17.737 -0.0044 -0.2171 -1.0421
  802MPD2     H11869   4.320   3.721   0.213  1.3479 -0.4701 -0.7866
  802MPD2    H111870   4.338   4.010  17.656 -1.7530  2.4610  0.6470
  802MPD2    H211871   3.958   3.889   0.062  0.6658  2.7793 -1.1007
  802MPD2    H311872   4.093   4.035  17.671 -1.8105  0.5059  1.0801
  802MPD2     N11873   4.479   3.843   0.065 -0.2027 -0.2874  0.5250
  802MPD2    H511874   4.501   3.779   0.140  1.1637  0.5659  0.8400
  802MPD2    N111875   4.051   3.691   0.215  0.4630  0.3772  0.4535
  802MPD2    H711876   4.109   3.632   0.273 -1.6947 -0.4454  1.8035
  803MPD2     C11877   0.992   1.760  12.290 -0.3577 -0.2992  0.1247
  803MPD2    C111878   1.083   1.657  12.276  0.4832 -0.3274  0.2392
  803MPD2    C211879   1.081   1.543  12.354 -0.0327 -0.0342  1.0953
  803MPD2    C311880   0.981   1.528  12.446 -0.0791 -0.3117 -0.2002
  803MPD2    C411881   0.898   1.636  12.462 -0.4474 -0.5214  0.3601
  803MPD2    C511882   0.895   1.751  12.378 -0.0302 -0.6957  0.0578
  803MPD2     H11883   1.150   1.467  12.320 -0.6883  0.1529 -0.6391
  803MPD2    H111884   0.808   1.627  12.522 -3.0565 -0.2461 -3.5658
  803MPD2    H211885   0.988   1.851  12.231  0.1179 -1.9550 -2.4417
  803MPD2    H311886   0.821   1.829  12.395  0.8766 -0.6100  3.6314
  803MPD2     N11887   0.959   1.413  12.526  0.4374 -0.3888  0.2258
  803MPD2    H511888   0.887   1.420  12.597  2.3730 -0.3215  2.1650
  803MPD2    N111889   1.177   1.655  12.172  0.4880  0.3054 -0.2503
  803MPD2    H711890   1.248   1.583  12.182  0.9337  0.7712 -0.0123
  804MPD2     C11891   0.783   2.908  16.949 -0.0254 -0.1841 -0.4238
  804MPD2    C111892   0.760   2.862  17.080 -0.3047  0.0405 -0.2440
  804MPD2    C211893   0.827   2.922  17.190  0.3191  0.1068  0.2370
  804MPD2    C311894   0.917   3.023  17.165 -0.6818  0.9678 -0.1694
  804MPD2    C411895   0.940   3.065  17.032 -0.4853 -0.1795  0.1689
  804MPD2    C511896   0.876   3.008  16.927 -0.9455  0.0440  0.1155
  804MPD2     H11897   0.824   2.893  17.294 -1.7696 -2.0418 -0.4242
  804MPD2    H111898   1.017   3.128  16.988  0.0478 -1.1374 -0.2687
  804MPD2    H211899   0.741   2.855  16.864  0.7677 -1.7263  0.1454
  804MPD2    H311900   0.904   3.030  16.825  2.7442 -1.5074  0.8022
  804MPD2     N11901   1.006   3.060  17.274 -0.0452  0.7575 -0.7590
  804MPD2    H511902   0.994   3.015  17.364  1.6807  0.2355 -0.7999
  804MPD2    N111903   0.681   2.747  17.112 -0.3676  0.2800 -0.1008
  804MPD2    H711904   0.693   2.718  17.208  1.0967  0.8907 -0.0920
  805MPD2     C11905   4.550   1.020  15.525 -0.1289 -0.3701 -0.1975
  805MPD2    C111906   4.664   0.974  15.463 -0.1438  0.2302  0.5017
  805MPD2    C211907   0.054   0.980  15.522  0.0030 -1.0344  0.1622
  805MPD2    C311908   0.056   1.042  15.653 -0.8756 -0.1088 -0.7282
  805MPD2    C411909   4.677   1.083  15.708 -0.6001 -0.2155 -1.1140
  805MPD2    C511910   4.552   1.080  15.644 -0.1518  0.3300 -0.3016
  805MPD2     H11911   0.142   0.956  15.463  0.0786 -1.8110  0.5823
  805MPD2    H111912   4.682   1.123  15.809  3.1424 -0.9750 -0.9942
  805MPD2    H211913   4.452   1.018  15.479 -0.0668 -0.4620 -0.3267
  805MPD2    H311914   4.469   1.133  15.688  0.9937  0.4787  1.6552
  805MPD2     N11915   0.167   1.067  15.728  0.0043 -0.5098 -0.0526
  805MPD2    H511916   0.153   1.114  15.817  1.3853  0.3798 -0.3109
  805MPD2    N111917   4.643   0.929  15.330  0.1270  0.4715 -0.5318
  805MPD2    H711918   4.720   0.878  15.289  0.3605 -1.2487  2.0476
  806MPD2     C11919   4.663   1.016   0.276 -0.0929 -0.1131 -0.0520
  806MPD2    C111920   0.051   1.043   0.317 -0.3341 -0.1735  0.5534
  806MPD2    C211921   0.147   1.052   0.220  0.1043 -0.2141 -0.0660
  806MPD2    C311922   0.125   1.017   0.089 -0.2298  0.1651 -0.2409
  806MPD2    C411923   4.731   1.002   0.050 -0.2274  1.0099  0.1319
  806MPD2    C511924   4.626   1.000   0.144  0.1460  0.3179 -0.5686
  806MPD2     H11925   0.248   1.071   0.252 -0.0530 -1.1697  1.0179
  806MPD2    H111926   4.705   1.011  17.693  1.5301 -0.0353 -0.4041
  806MPD2    H211927   4.588   1.013   0.354 -0.7915 -0.5122 -0.7426
  806MPD2    H311928   4.523   0.988   0.111 -0.1828 -1.3402  1.0390
  806MPD2     N11929   0.239   1.020  17.744 -0.7711 -0.1372 -0.8255
  806MPD2    H511930   0.334   1.032   0.029 -0.8705  1.3310 -1.0992
  806MPD2    N111931   0.074   1.060   0.460  0.0371 -0.6353 -0.5567
  806MPD2    H711932   0.003   1.056   0.532 -1.2463  0.1846 -1.7600
  807MPD2     C11933   4.500   0.921   1.106 -0.0644 -0.1221 -0.2837
  807MPD2    C111934   4.616   0.976   1.155  0.3535 -0.4349 -0.4235
  807MPD2    C211935   4.630   0.964   1.295  0.2282  0.0178 -0.1841
  807MPD2    C311936   4.543   0.893   1.378 -0.3325 -0.7529  0.1616
  807MPD2    C411937   4.429   0.841   1.315 -0.1964  0.1493  0.1545
  807MPD2    C511938   4.407   0.864   1.184 -0.1590  0.3368 -0.1603
  807MPD2     H11939   4.720   0.994   1.346 -0.2301  0.8049  0.1581
  807MPD2    H111940   4.358   0.780   1.370 -1.6249  0.9018 -0.8503
  807MPD2    H211941   4.468   0.918   1.003 -2.1908  2.1466  0.3228
  807MPD2    H311942   4.323   0.810   1.141  0.2866 -1.2813  1.0304
  807MPD2     N11943   4.559   0.878   1.521  0.1336  0.2931 -0.0400
  807MPD2    H511944   4.642   0.914   1.567 -0.2939  0.3926  0.6548
  807MPD2    N111945   4.724   1.026   1.077  0.4128 -0.6106 -0.1796
  807MPD2    H711946   0.077   1.019   1.122  0.2202 -0.9501  0.1524
  808MPD2     C11947   0.223   1.399  10.105 -0.8874 -0.2680 -0.2077
  808MPD2    C111948   0.227   1.399   9.970 -0.4314  0.9969  0.2369
  808MPD2    C211949   0.272   1.512   9.907 -0.2639  0.4293 -0.2498
  808MPD2    C311950   0.308   1.620   9.976  0.0918 -0.8520 -0.7629
  808MPD2    C411951   0.326   1.610  10.111  0.3877  0.5158  0.0139
  808MPD2    C511952   0.275   1.501  10.179  0.2615  0.5618 -0.3404
  808MPD2     H11953   0.287   1.510   9.800  2.1535 -1.5058  0.1259
  808MPD2    H111954   0.366   1.692  10.170  2.4576 -2.0151  2.1253
  808MPD2    H211955   0.169   1.325  10.163  0.9053 -0.4663  1.2264
  808MPD2    H311956   0.263   1.492  10.286  1.5212 -1.4250 -0.3704
  808MPD2     N11957   0.361   1.742   9.911  0.6139  0.0752 -0.1140
  808MPD2    H511958   0.384   1.813   9.980 -0.0499  0.8839 -0.7232
  808MPD2    N111959   0.180   1.283   9.898  0.0761  0.7469  0.5745
  808MPD2    H711960   0.199   1.284   9.798 -0.6657  0.0131  0.4287
  809MPD2     C11961   1.077   1.525   9.503  0.2323 -0.0650 -0.3762
  809MPD2    C111962   1.081   1.653   9.446 -0.1857 -0.2836 -0.2299
  809MPD2    C211963   0.977   1.747   9.469 -0.0753  0.1798  0.1640
  809MPD2    C311964   0.875   1.704   9.558 -0.0333 -0.0468 -0.1147
  809MPD2    C411965   0.877   1.580   9.619 -0.0295  0.8315  0.0200
  809MPD2    C511966   0.973   1.491   9.594  0.5416 -0.1854  0.2948
  809MPD2     H11967   0.969   1.841   9.416  0.8083 -0.4354 -1.0526
  809MPD2    H111968   0.802   1.564   9.696  0.5166 -1.8350  0.0202
  809MPD2    H211969   1.156   1.452   9.491 -0.5206 -0.8784 -0.3937
  809MPD2    H311970   0.978   1.398   9.648  1.0865 -1.6299 -2.2459
  809MPD2     N11971   0.772   1.791   9.598  0.9731  0.3107 -0.1902
  809MPD2    H511972   0.719   1.758   9.678 -0.8141 -1.3132 -2.0608
  809MPD2    N111973   1.185   1.689   9.354  0.2484  0.2840  0.3486
  809MPD2    H711974   1.185   1.787   9.329 -0.8452  0.0887 -0.4248
  810MPD2     C11975   4.319   1.294  10.683 -0.8033  0.2183  0.6763
  810MPD2    C111976   4.264   1.328  10.561  0.4288  0.3478 -0.3674
  810MPD2    C211977   4.169   1.429  10.561  0.0002 -0.2669  0.3595
  810MPD2    C311978   4.132   1.488  10.674  0.5960 -0.3238 -0.1260
  810MPD2    C411979   4.185   1.449  10.790  1.0443  0.3257  0.3119
  810MPD2    C511980   4.276   1.356  10.800 -0.1937 -0.2893  0.7113
  810MPD2     H11981   4.103   1.432  10.475  0.5040  0.3049 -0.0143
  810MPD2    H111982   4.144   1.497  10.879  0.2986 -1.3514  0.8853
  810MPD2    H211983   4.392   1.214  10.694  0.4979  1.1660 -0.9910
  810MPD2    H311984   4.316   1.325  10.896  1.4329 -0.0108  0.1303
  810MPD2     N11985   4.020   1.577  10.682 -0.5748  0.0974 -0.2643
  810MPD2    H511986   4.007   1.626  10.770  1.2608 -1.2797  0.7627
  810MPD2    N111987   4.281   1.252  10.447  0.8271  0.1839 -0.3516
  810MPD2    H711988   4.232   1.280  10.363  1.8803 -2.2080 -1.7456
  811MPD2     C11989   3.916   1.116   9.720 -0.0963  0.7189 -0.0787
  811MPD2    C111990   3.989   1.193   9.808 -0.2251 -0.1881 -0.7511
  811MPD2    C211991   3.978   1.333   9.795 -0.1389 -0.0381  0.2382
  811MPD2    C311992   3.909   1.397   9.696  0.3878  0.2854  0.3083
  811MPD2    C411993   3.836   1.322   9.611  0.2856  0.1443 -0.6265
  811MPD2    C511994   3.845   1.183   9.624  0.3724 -0.3316  0.8046
  811MPD2     H11995   4.022   1.408   9.860 -2.5476  2.3663 -0.8919
  811MPD2    H111996   3.780   1.365   9.529  0.1986  1.3026  0.0488
  811MPD2    H211997   3.927   1.008   9.717  1.7799  0.9622 -1.2144
  811MPD2    H311998   3.791   1.120   9.555 -0.7073 -1.7363  2.9399
  811MPD2     N11999   3.918   1.540   9.695  0.1342  0.2129  0.3353
  811MPD2    H512000   3.966   1.587   9.771 -0.6275  1.5379  0.0042
  811MPD2    N112001   4.070   1.135   9.908 -0.6234 -0.3221 -0.1519
  811MPD2    H712002   4.084   1.035   9.897 -1.6074 -0.4907  0.1301
  812MPD2     C12003   4.229   1.944  12.057 -0.7282 -0.0511 -0.7207
  812MPD2    C112004   4.103   1.921  12.100 -0.1888 -0.2272 -0.2734
  812MPD2    C212005   4.076   1.816  12.185  0.4396  0.1466 -0.1960
  812MPD2    C312006   4.178   1.740  12.246  0.1774  0.0566  0.8926
  812MPD2    C412007   4.308   1.773  12.209  0.2997  0.7036  0.6724
  812MPD2    C512008   4.330   1.876  12.119 -0.1599  0.0302 -0.0794
  812MPD2     H12009   3.978   1.785  12.220  1.3196 -2.1056  0.2534
  812MPD2    H112010   4.393   1.713  12.240 -1.2128 -1.5089  0.5280
  812MPD2    H212011   4.249   2.022  11.985  2.8115  0.1731  0.5375
  812MPD2    H312012   4.428   1.899  12.078  0.2048 -1.6699 -0.1360
  812MPD2     N12013   4.151   1.645  12.345 -0.1648  0.2883 -0.3929
  812MPD2    H512014   4.053   1.632  12.369 -0.4677 -0.6615 -2.0852
  812MPD2    N112015   4.004   2.015  12.067 -0.5209  0.2036  0.3584
  812MPD2    H712016   4.043   2.085  12.004  1.5030 -1.0244  0.2441
  813MPD2     C12017   3.227   3.199  12.355 -0.2034 -0.9592 -0.2895
  813MPD2    C112018   3.281   3.295  12.440  0.0453  0.5091  0.2614
  813MPD2    C212019   3.203   3.344  12.543 -0.9304 -0.2438 -0.3112
  813MPD2    C312020   3.073   3.301  12.568  0.2464  0.0304  0.0276
  813MPD2    C412021   3.022   3.197  12.490  0.5213 -0.1530  0.2658
  813MPD2    C512022   3.096   3.153  12.384 -0.3996 -0.3099 -0.7358
  813MPD2     H12023   3.244   3.410  12.618  0.1478 -1.5671  0.2644
  813MPD2    H112024   2.922   3.156  12.496  0.3591  0.2396  0.2225
  813MPD2    H212025   3.285   3.149  12.278  0.7627 -0.6497  0.2481
  813MPD2    H312026   3.057   3.079  12.315  2.4709 -1.0307 -1.5875
  813MPD2     N12027   3.003   3.365  12.675 -0.5402 -0.1023  0.3879
  813MPD2    H512028   3.042   3.452  12.710 -1.6642 -0.2220  1.9537
  813MPD2    N112029   3.413   3.350  12.423  0.6794 -0.0591  0.1068
  813MPD2    H712030   3.430   3.434  12.479 -1.1438 -0.6441  1.5072
  814MPD2     C12031   3.604   4.528  12.313 -1.0312 -0.5691 -0.4302
  814MPD2    C112032   3.556   4.545  12.179 -0.4690  0.0170  0.0382
  814MPD2    C212033   3.604   4.646  12.099  0.4774  0.0132  0.6855
  814MPD2    C312034   3.681   0.009  12.154 -0.1677 -1.0861 -0.1270
  814MPD2    C412035   3.712   4.736  12.289 -0.5001 -0.2306  0.4104
  814MPD2    C512036   3.692   4.624  12.358  0.4578  0.0698 -0.5759
  814MPD2     H12037   3.577   4.656  11.994  0.9079  0.0899  0.5832
  814MPD2    H112038   3.778   0.071  12.336 -0.2539  0.6593 -1.3110
  814MPD2    H212039   3.579   4.443  12.375 -3.0166 -1.8494 -2.9650
  814MPD2    H312040   3.741   4.615  12.454  1.6073  0.1613 -1.1514
  814MPD2     N12041   3.742   0.121  12.086  0.0395 -0.2106 -0.1469
  814MPD2    H512042   3.803   0.179  12.143  1.0405 -0.5831 -0.8273
  814MPD2    N112043   3.468   4.460  12.113 -0.0853  0.2017  0.0490
  814MPD2    H712044   3.452   4.477  12.014 -1.7973 -0.6403  0.1771
  815MPD2     C12045   3.687   2.917  11.745  0.1462  0.1680  0.3232
  815MPD2    C112046   3.593   2.951  11.650  0.1677 -0.7965 -0.2772
  815MPD2    C212047   3.458   2.948  11.671  0.0195 -0.3026 -0.5336
  815MPD2    C312048   3.409   2.909  11.795 -0.5391 -0.2807 -0.0994
  815MPD2    C412049   3.501   2.868  11.893 -0.0212  0.0480 -0.6797
  815MPD2    C512050   3.636   2.869  11.864  0.7034 -0.7945  0.1528
  815MPD2     H12051   3.383   2.989  11.604 -0.1939 -1.2901 -0.9056
  815MPD2    H112052   3.479   2.828  11.991  0.0837 -0.9451 -1.0596
  815MPD2    H212053   3.794   2.917  11.729 -0.0703  1.2935 -1.1323
  815MPD2    H312054   3.706   2.834  11.938  2.7887 -0.0404 -1.4769
  815MPD2     N12055   3.271   2.925  11.826  0.2341  0.1961 -0.1675
  815MPD2    H512056   3.216   2.985  11.766  1.2296  1.8465  0.5548
  815MPD2    N112057   3.642   2.994  11.530 -0.3654 -0.6596  0.1423
  815MPD2    H712058   3.742   3.011  11.524 -0.3675 -1.2362 -1.3774
  816MPD2     C12059   3.952   2.148  17.139  0.8250 -0.3882 -0.1220
  816MPD2    C112060   3.909   2.160  17.010 -0.3764  0.0172  0.1648
  816MPD2    C212061   3.984   2.097  16.911  0.1716 -0.1395 -0.2939
  816MPD2    C312062   4.093   2.016  16.943  0.1281  0.7924  0.2683
  816MPD2    C412063   4.132   1.995  17.076  0.2613 -0.3555  0.2251
  816MPD2    C512064   4.071   2.074  17.170  0.3178  0.4196 -0.8379
  816MPD2     H12065   3.958   2.106  16.806  0.4167  0.4427 -0.3004
  816MPD2    H112066   4.214   1.929  17.103  1.0010 -0.3301 -1.9656
  816MPD2    H212067   3.901   2.206  17.215 -0.9815 -1.2080 -0.7271
  816MPD2    H312068   4.098   2.072  17.275 -0.4960  1.1609 -0.6179
  816MPD2     N12069   4.153   1.965  16.824 -0.2769 -0.0183  0.3977
  816MPD2    H512070   4.130   2.001  16.731  0.9253  2.1615  0.9404
  816MPD2    N112071   3.801   2.250  16.984 -0.0113 -0.0584 -0.1149
  816MPD2    H712072   3.778   2.316  17.058  0.6498  0.6744 -0.5543
  817MPD2     C12073   3.527   3.604   9.828  0.1584 -0.1450  0.8214
  817MPD2    C112074   3.507   3.534   9.709  0.1154 -0.5143 -0.1273
  817MPD2    C212075   3.468   3.602   9.596 -0.3648  0.0315  0.3249
  817MPD2    C312076   3.478   3.741   9.589  0.8283 -0.5891  0.1430
  817MPD2    C412077   3.508   3.808   9.700 -0.0630 -0.6437 -0.0544
  817MPD2    C512078   3.529   3.738   9.814  0.3762 -0.2029  0.1708
  817MPD2     H12079   3.446   3.540   9.509 -0.9552  1.7568 -0.7467
  817MPD2    H112080   3.506   3.916   9.705 -1.2198 -0.7383  1.3845
  817MPD2    H212081   3.556   3.559   9.923 -1.3728  1.8795  2.2719
  817MPD2    H312082   3.560   3.798   9.899  1.4892  1.5468 -1.4657
  817MPD2     N12083   3.435   3.798   9.464  0.8026  0.0392  0.5159
  817MPD2    H512084   3.402   3.733   9.393 -0.5898  2.0164 -0.6195
  817MPD2    N112085   3.530   3.398   9.706 -0.3624  0.5289 -0.3044
  817MPD2    H712086   3.507   3.347   9.622  0.6291  0.1011 -0.3202
  818MPD2     C12087   1.210   4.231   9.412 -0.0281 -0.7470  0.6583
  818MPD2    C112088   1.312   4.203   9.507 -0.6513  0.7594  0.0111
  818MPD2    C212089   1.434   4.150   9.465 -0.4001 -0.2598  0.2962
  818MPD2    C312090   1.462   4.126   9.331  0.3606  0.5315 -0.4385
  818MPD2    C412091   1.365   4.155   9.240 -0.6696 -0.1717 -0.0969
  818MPD2    C512092   1.239   4.200   9.284 -0.7040 -0.0027  0.6158
  818MPD2     H12093   1.507   4.121   9.540 -0.6427 -1.6541 -0.0077
  818MPD2    H112094   1.374   4.117   9.139  1.1993  0.0854 -0.0307
  818MPD2    H212095   1.111   4.266   9.438 -1.0879 -0.7831 -3.3213
  818MPD2    H312096   1.171   4.234   9.206  0.5837  0.2043 -0.4218
  818MPD2     N12097   1.582   4.075   9.285  0.2289  0.0652 -0.0568
  818MPD2    H512098   1.596   4.074   9.184 -0.0990  1.0165 -0.1121
  818MPD2    N112099   1.298   4.210   9.646 -0.4892 -0.0161  0.6906
  818MPD2    H712100   1.381   4.190   9.701 -0.8496  2.2991  2.0923
  819MPD2     C12101   0.735   0.560  15.387 -1.0037  0.6312  0.2412
  819MPD2    C112102   0.757   0.429  15.431 -0.5860 -0.9209 -0.1198
  819MPD2    C212103   0.845   0.403  15.533  0.4000 -0.1356 -0.2484
  819MPD2    C312104   0.926   0.503  15.591  1.1215  0.4261  0.0613
  819MPD2    C412105   0.897   0.631  15.558  0.2727  0.3839  0.0643
  819MPD2    C512106   0.794   0.658  15.466 -0.5664  0.2757  0.4576
  819MPD2     H12107   0.865   0.303  15.571 -0.1502  0.7935  2.4511
  819MPD2    H112108   0.959   0.716  15.584  0.1151  0.5621 -0.1416
  819MPD2    H212109   0.654   0.585  15.319 -0.4210  0.4392 -0.5311
  819MPD2    H312110   0.781   0.760  15.429  2.5455  0.2057 -0.8370
  819MPD2     N12111   1.011   0.476  15.698  0.0579 -0.3673 -0.6518
  819MPD2    H512112   1.060   0.388  15.692 -2.4312 -1.6371 -2.0593
  819MPD2    N112113   0.675   0.328  15.376 -0.0932 -0.2159  0.2772
  819MPD2    H712114   0.627   0.343  15.289  0.3795  0.0586  0.0655
  820MPD2     C12115   4.596   0.244  14.809 -0.4301  0.6447 -0.0128
  820MPD2    C112116   4.655   0.335  14.899 -0.0149  0.8103 -0.3279
  820MPD2    C212117   0.035   0.303  14.966 -0.4876 -0.6664  0.2956
  820MPD2    C312118   0.101   0.181  14.950 -0.1920  0.5530 -0.7050
  820MPD2    C412119   0.050   0.096  14.856  0.6633 -0.0899 -0.2498
  820MPD2    C512120   4.675   0.128  14.789 -0.3015 -1.0056  0.0083
  820MPD2     H12121   0.099   0.374  15.017 -1.3919  0.0325  0.4559
  820MPD2    H112122   0.092   4.736  14.830 -1.3217 -1.2094  0.7124
  820MPD2    H212123   4.512   0.264  14.744  0.2248  3.9692  0.1826
  820MPD2    H312124   4.636   0.060  14.714  0.0365 -0.4555 -0.6685
  820MPD2     N12125   0.218   0.133  15.025 -0.2492  0.2621  0.2060
  820MPD2    H512126   0.252   0.039  15.010  0.8046  0.5722  0.7091
  820MPD2    N112127   4.596   0.458  14.924 -0.6172 -0.3373 -0.5561
  820MPD2    H712128   4.526   0.493  14.860  0.2456  2.6456  0.1207
  821MPD2     C12129   1.171   1.604  13.035 -0.0611  0.1341 -0.6346
  821MPD2    C112130   1.231   1.631  13.158  0.0822  0.2027 -0.1648
  821MPD2    C212131   1.345   1.709  13.149  0.0148  0.0133 -0.4052
  821MPD2    C312132   1.395   1.751  13.022 -0.7944 -0.0779 -0.6080
  821MPD2    C412133   1.323   1.723  12.904  0.0954  0.2166 -0.0469
  821MPD2    C512134   1.212   1.652  12.912  0.9069  0.0784  0.4736
  821MPD2     H12135   1.403   1.722  13.240  0.7236  0.2463 -0.8914
  821MPD2    H112136   1.363   1.766  12.813  0.6946  0.1130  0.1719
  821MPD2    H212137   1.077   1.550  13.044  1.2208 -1.7769  1.3975
  821MPD2    H312138   1.157   1.626  12.822 -1.0539 -1.5247  2.1619
  821MPD2     N12139   1.507   1.837  13.011  0.4809 -0.1874  0.4162
  821MPD2    H512140   1.537   1.878  12.924  2.5663  1.7927  2.0860
  821MPD2    N112141   1.179   1.592  13.281  0.2532 -0.4151  0.2198
  821MPD2    H712142   1.234   1.614  13.364  0.3402 -1.2200  0.3714
  822MPD2     C12143   1.636   2.052  15.700  0.2379  0.5679 -0.4622
  822MPD2    C112144   1.610   2.022  15.834 -0.0277 -0.0000  0.1151
  822MPD2    C212145   1.526   2.108  15.907 -0.2659 -0.5009 -0.1708
  822MPD2    C312146   1.472   2.226  15.852 -0.1601 -0.2562  0.6096
  822MPD2    C412147   1.501   2.260  15.717  0.1667  0.0036 -0.3522
  822MPD2    C512148   1.581   2.166  15.646 -0.8244  0.5040 -0.1448
  822MPD2     H12149   1.514   2.087  16.012  1.0705  0.0389  0.0933
  822MPD2    H112150   1.453   2.346  15.672  3.0035  1.4615 -0.5927
  822MPD2    H212151   1.705   2.000  15.635  0.0454 -1.0874  0.6429
  822MPD2    H312152   1.602   2.180  15.541  1.1636 -0.7891  0.0835
  822MPD2     N12153   1.381   2.301  15.929 -0.3652 -0.1553 -0.3463
  822MPD2    H512154   1.361   2.264  16.021 -0.1207 -0.0306 -0.2404
  822MPD2    N112155   1.660   1.913  15.906 -0.2443  0.2163  0.4042
  822MPD2    H712156   1.620   1.892  15.996 -1.8089 -0.8955 -0.5440
  823MPD2     C12157   0.902   2.606  16.616 -0.0628 -1.2211 -0.2576
  823MPD2    C112158   0.968   2.514  16.540  0.0111 -0.0133 -0.3531
  823MPD2    C212159   1.022   2.401  16.605 -0.6092 -0.2646 -0.5018
  823MPD2    C312160   1.001   2.379  16.741  0.7146 -0.8350 -0.3644
  823MPD2    C412161   0.925   2.468  16.807  0.6659  0.0412 -0.1678
  823MPD2    C512162   0.875   2.577  16.744  0.4212  0.1072  0.3609
  823MPD2     H12163   1.092   2.342  16.546  0.1270 -0.7976  0.9152
  823MPD2    H112164   0.905   2.460  16.913  1.1859  0.8305 -0.0114
  823MPD2    H212165   0.866   2.699  16.574  0.2038 -0.2633  1.6742
  823MPD2    H312166   0.828   2.649  16.810  0.7691  1.1996 -0.5908
  823MPD2     N12167   1.054   2.268  16.816 -0.3228 -0.1699 -0.7980
  823MPD2    H512168   1.014   2.258  16.909 -1.8042 -1.1206 -1.5386
  823MPD2    N112169   1.003   2.536  16.402  0.0350 -0.3581 -0.5053
  823MPD2    H712170   0.987   2.631  16.370  0.1205  0.9614  3.4071
  824MPD2     C12171   1.965   1.050  16.073 -0.0931 -0.2413  0.2618
  824MPD2    C112172   1.968   1.146  15.976  0.2346  0.1363  0.0998
  824MPD2    C212173   2.059   1.116  15.870  0.4603  0.0029 -0.1100
  824MPD2    C312174   2.129   1.001  15.853 -0.2423  0.0946  0.0635
  824MPD2    C412175   2.110   0.903  15.951 -0.4384  0.0509  0.6071
  824MPD2    C512176   2.029   0.927  16.063 -0.1747  0.6231 -0.1530
  824MPD2     H12177   2.077   1.194  15.798  1.4091 -0.0267  0.0916
  824MPD2    H112178   2.160   0.806  15.947  1.3492  0.9033  2.1572
  824MPD2    H212179   1.896   1.070  16.155  0.6464 -2.7787  1.5123
  824MPD2    H312180   2.017   0.846  16.134  0.7598 -0.8803 -1.6971
  824MPD2     N12181   2.204   0.992  15.739 -0.0465  0.3965 -0.1691
  824MPD2    H512182   2.214   1.075  15.682  0.0606  1.3529  1.2428
  824MPD2    N112183   1.894   1.267  15.987 -0.8025 -0.3039  0.4786
  824MPD2    H712184   1.840   1.273  16.072 -0.7496 -0.1854  0.5043
  825MPD2     C12185   2.772   1.408  15.272 -0.1741 -0.1983  0.4552
  825MPD2    C112186   2.656   1.386  15.354 -0.4672 -0.6955  0.9341
  825MPD2    C212187   2.599   1.497  15.412  0.3724  0.1569  0.8278
  825MPD2    C312188   2.659   1.618  15.395  0.6122 -0.1409 -0.1890
  825MPD2    C412189   2.768   1.639  15.314  0.4892  0.1453 -0.6787
  825MPD2    C512190   2.821   1.537  15.253 -0.4311  0.3631 -0.8547
  825MPD2     H12191   2.502   1.498  15.461  0.9981 -0.8767  2.0885
  825MPD2    H112192   2.799   1.737  15.281  0.2571 -0.2458 -2.0839
  825MPD2    H212193   2.810   1.318  15.225 -0.4944  0.6073 -1.3505
  825MPD2    H312194   2.909   1.544  15.190 -1.8504  2.1863 -2.6181
  825MPD2     N12195   2.600   1.741  15.445 -0.1567 -0.4055 -0.9026
  825MPD2    H512196   2.630   1.826  15.398  0.8201 -0.2509  0.0014
  825MPD2    N112197   2.600   1.251  15.364  0.4715 -0.3733 -0.3912
  825MPD2    H712198   2.667   1.176  15.353  0.1265 -0.5201 -1.4846
  826MPD2     C12199   1.817   1.243  13.530  0.5278 -0.7810 -1.0884
  826MPD2    C112200   1.863   1.321  13.632 -0.0410  0.5605  0.1346
  826MPD2    C212201   1.799   1.440  13.662  0.3198  0.0221 -0.1442
  826MPD2    C312202   1.686   1.476  13.596  0.9292 -0.4122 -0.6060
  826MPD2    C412203   1.641   1.396  13.490  0.0918  0.7423 -0.0100
  826MPD2    C512204   1.710   1.285  13.461  0.8996 -0.3328 -0.1578
  826MPD2     H12205   1.836   1.497  13.746  0.3411 -1.0696  0.5895
  826MPD2    H112206   1.552   1.409  13.428  0.1057 -0.4616 -0.3003
  826MPD2    H212207   1.864   1.150  13.497  1.3013 -0.6982 -0.2295
  826MPD2    H312208   1.670   1.219  13.385 -0.2576  0.2287 -0.0405
  826MPD2     N12209   1.624   1.599  13.634 -0.0711  0.3954  0.2120
  826MPD2    H512210   1.668   1.646  13.712  1.9200  0.6821 -1.0920
  826MPD2    N112211   1.981   1.275  13.684  0.0434  0.0311  0.4910
  826MPD2    H712212   2.012   1.182  13.660  0.9412  0.7569 -1.1828
  827MPD2     C12213   2.547   3.230   9.959  0.6619 -0.5486  0.0220
  827MPD2    C112214   2.485   3.115   9.989  0.1540 -0.4028 -0.3007
  827MPD2    C212215   2.395   3.061   9.896 -0.2253  0.2438 -0.0133
  827MPD2    C312216   2.360   3.127   9.783  0.3862 -0.1568  0.3366
  827MPD2    C412217   2.422   3.247   9.756 -0.0001 -0.6487 -0.0450
  827MPD2    C512218   2.514   3.298   9.843 -0.5018  0.5031 -0.6158
  827MPD2     H12219   2.362   2.961   9.921 -0.1915  0.3459  0.4483
  827MPD2    H112220   2.396   3.303   9.667 -2.9408  0.6675  1.6385
  827MPD2    H212221   2.613   3.272  10.033  0.1814  1.7132 -0.8519
  827MPD2    H312222   2.560   3.389   9.806  0.3683  0.1430 -0.4087
  827MPD2     N12223   2.281   3.064   9.682  0.1887 -0.1868  0.3366
  827MPD2    H512224   2.230   2.983   9.714 -2.4059  0.5822 -1.8476
  827MPD2    N112225   2.523   3.047  10.114 -0.0555  0.6509  0.0711
  827MPD2    H712226   2.596   3.095  10.166 -1.0185  0.4711  1.6003
  828MPD2     C12227   1.590   2.854  11.785 -0.0749  0.5389  0.0417
  828MPD2    C112228   1.488   2.891  11.709  0.1720 -0.3672 -0.2867
  828MPD2    C212229   1.486   2.855  11.578 -0.0719  0.0688 -0.5886
  828MPD2    C312230   1.593   2.786  11.522  0.5643 -0.1372  0.2822
  828MPD2    C412231   1.700   2.749  11.597  0.1242 -0.0473 -0.2613
  828MPD2    C512232   1.701   2.785  11.731  0.8639  0.0891 -0.0946
  828MPD2     H12233   1.400   2.891  11.523  0.4511 -0.7553 -1.9510
  828MPD2    H112234   1.778   2.683  11.558 -0.0266  0.0894 -0.7959
  828MPD2    H212235   1.596   2.874  11.891 -3.1613  2.0538 -0.0681
  828MPD2    H312236   1.788   2.760  11.790  1.4973  1.1312 -0.5858
  828MPD2     N12237   1.606   2.762  11.384  0.0741  0.2285  0.2065
  828MPD2    H512238   1.669   2.688  11.353  1.4240  1.2206  0.5423
  828MPD2    N112239   1.378   2.961  11.760 -0.3210 -0.0196  0.3903
  828MPD2    H712240   1.300   2.947  11.697  1.2383  1.5996 -1.9062
  829MPD2     C12241   0.893   3.255  11.204 -0.7400  0.4777 -0.3679
  829MPD2    C112242   0.827   3.169  11.297  0.1181 -0.6550  0.3630
  829MPD2    C212243   0.863   3.159  11.429  0.0833  0.3569  0.6167
  829MPD2    C312244   0.976   3.225  11.481 -0.6238 -0.4823  0.3869
  829MPD2    C412245   1.038   3.320  11.387  0.0435 -0.5254 -0.5877
  829MPD2    C512246   0.984   3.333  11.261 -0.1030  0.7769 -0.7856
  829MPD2     H12247   0.808   3.082  11.482  0.9374  0.6307  1.8869
  829MPD2    H112248   1.119   3.389  11.410  0.8975 -1.7266 -0.0175
  829MPD2    H212249   0.872   3.252  11.098 -2.6205 -1.7593  0.0706
  829MPD2    H312250   1.025   3.408  11.194  0.7355 -0.4628 -1.6588
  829MPD2     N12251   1.021   3.207  11.613 -0.2447  0.0076 -0.3210
  829MPD2    H512252   1.109   3.250  11.640 -0.1192  0.0489 -0.7985
  829MPD2    N112253   0.721   3.089  11.245 -0.2820  0.2317 -0.1233
  829MPD2    H712254   0.714   3.117  11.147  0.9249 -1.2204 -0.6291
  830MPD2     C12255   1.776   0.152  15.786  0.2740 -0.0468 -0.0550
  830MPD2    C112256   1.691   0.237  15.728  0.9119 -0.2977 -0.0325
  830MPD2    C212257   1.734   0.311  15.617 -0.1854 -0.0193  0.3187
  830MPD2    C312258   1.861   0.286  15.564  0.3662  0.0119 -0.9586
  830MPD2    C412259   1.938   0.193  15.623 -0.1267  0.9964  0.6030
  830MPD2    C512260   1.897   0.125  15.729 -0.6334 -0.5293 -0.2333
  830MPD2     H12261   1.671   0.392  15.583  2.7944  1.0381 -2.6252
  830MPD2    H112262   2.043   0.183  15.597 -0.3047  1.4511 -0.3126
  830MPD2    H212263   1.758   0.099  15.879 -0.3040  1.3388  0.6135
  830MPD2    H312264   1.962   0.047  15.767  0.1592  0.4665  0.4312
  830MPD2     N12265   1.910   0.348  15.451 -0.4709 -0.9965  0.1906
  830MPD2    H512266   2.011   0.339  15.447 -0.5269 -0.6299 -2.0278
  830MPD2    N112267   1.567   0.259  15.798  0.4853 -0.1052 -0.2633
  830MPD2    H712268   1.549   0.211  15.886  0.6870 -1.4316 -0.9581
  831MPD2     C12269   1.603   2.408  16.388  0.8224  0.4094 -0.1180
  831MPD2    C112270   1.603   2.319  16.290 -0.3846  0.2858  0.0813
  831MPD2    C212271   1.499   2.233  16.275 -0.1610  0.1949  0.7229
  831MPD2    C312272   1.387   2.241  16.358  0.0243 -0.5570 -0.7149
  831MPD2    C412273   1.382   2.338  16.455 -0.1321  0.1520 -0.1334
  831MPD2    C512274   1.491   2.421  16.468  0.2463 -0.7250  0.6876
  831MPD2     H12275   1.511   2.159  16.196  1.2967  0.4215  0.7291
  831MPD2    H112276   1.299   2.358  16.522  0.2455  0.9506  0.0904
  831MPD2    H212277   1.679   2.484  16.389  1.2880 -0.0341 -1.5088
  831MPD2    H312278   1.486   2.507  16.535 -0.6461  0.1452 -0.4939
  831MPD2     N12279   1.278   2.155  16.355 -0.0024 -0.0033 -0.2779
  831MPD2    H512280   1.211   2.155  16.432 -0.0907 -2.8933 -0.3347
  831MPD2    N112281   1.719   2.309  16.214  0.0368  0.1312 -0.4114
  831MPD2    H712282   1.779   2.391  16.203  0.7318 -0.3918 -0.5498
  832MPD2     C12283   4.367   3.325  17.004  0.6733 -0.2420  0.1376
  832MPD2    C112284   4.440   3.387  16.902 -0.1435 -0.3958 -0.2366
  832MPD2    C212285   4.425   3.340  16.767 -0.2637  0.0173  0.0217
  832MPD2    C312286   4.327   3.245  16.742  0.7206 -0.6860  0.7467
  832MPD2    C412287   4.250   3.190  16.847  0.6656 -0.2208 -0.1854
  832MPD2    C512288   4.281   3.226  16.977 -0.5816  0.0992  0.3652
  832MPD2     H12289   4.479   3.392  16.689 -1.4292 -1.2921 -1.6478
  832MPD2    H112290   4.167   3.123  16.826 -0.1634  1.0209 -0.8788
  832MPD2    H212291   4.383   3.364  17.104  1.1858  0.0639 -0.0625
  832MPD2    H312292   4.234   3.173  17.059 -2.2451 -0.1150 -0.7305
  832MPD2     N12293   4.303   3.212  16.607  0.2777  0.3593 -0.3173
  832MPD2    H512294   4.240   3.135  16.586  2.2679 -1.3958  0.0365
  832MPD2    N112295   4.536   3.473  16.952  0.2747 -0.1259 -0.4136
  832MPD2    H712296   4.518   3.511  17.044  1.8965  2.1024 -1.0096
  833MPD2     C12297   2.016   4.608  12.078  0.0641 -0.0772  0.8871
  833MPD2    C112298   2.057   0.001  12.051  0.9003  0.2352 -0.5113
  833MPD2    C212299   2.170   0.025  11.976 -0.1599  0.1541  0.0394
  833MPD2    C312300   2.222   4.657  11.894 -0.4282 -0.4971  0.6413
  833MPD2    C412301   2.177   4.528  11.912 -0.6000 -0.5173 -0.0351
  833MPD2    C512302   2.075   4.504  12.004 -0.2849  0.8057  0.1875
  833MPD2     H12303   2.214   0.123  11.959 -0.7194  0.2005 -1.1707
  833MPD2    H112304   2.227   4.447  11.861  0.8597  0.1740  0.3061
  833MPD2    H212305   1.928   4.590  12.139  0.0190  0.0098  0.8482
  833MPD2    H312306   2.036   4.403  12.006  2.3714 -0.2785 -3.0829
  833MPD2     N12307   2.316   4.676  11.791  0.5381  0.3064  0.0608
  833MPD2    H512308   2.343   4.594  11.738  0.0501  0.8497 -1.0348
  833MPD2    N112309   1.990   0.108  12.117  1.0252  0.5411  0.4490
  833MPD2    H712310   1.909   0.068  12.164 -0.3666  5.1375  1.9772
  834MPD2     C12311   1.807   4.176  11.439  0.1907 -0.0898  0.5271
  834MPD2    C112312   1.802   4.256  11.327 -1.1556  0.2278 -0.5604
  834MPD2    C212313   1.895   4.355  11.314  0.1821  0.2737  0.1887
  834MPD2    C312314   1.987   4.389  11.412 -0.3077 -0.2260 -0.4994
  834MPD2    C412315   1.984   4.304  11.522  0.2620  0.0289  0.5147
  834MPD2    C512316   1.898   4.204  11.537 -0.5347  0.3903  0.3392
  834MPD2     H12317   1.892   4.409  11.220 -0.6893  0.4839  0.3389
  834MPD2    H112318   2.052   4.321  11.604  0.0963  0.8570  0.4892
  834MPD2    H212319   1.751   4.085  11.457 -0.8061  0.4405  0.0684
  834MPD2    H312320   1.906   4.146  11.629 -0.2144  0.6952  0.5048
  834MPD2     N12321   2.080   4.493  11.404  0.0881  0.3269  0.0920
  834MPD2    H512322   2.092   4.536  11.313  1.7874  2.6106  1.3843
  834MPD2    N112323   1.722   4.214  11.219 -0.2724  0.2281 -0.6930
  834MPD2    H712324   1.683   4.120  11.226 -0.4177  0.4088  0.8930
  835MPD2     C12325   2.160   2.298  10.732 -0.1431 -0.4837  0.6147
  835MPD2    C112326   2.122   2.394  10.818 -0.3055  0.3716 -0.3066
  835MPD2    C212327   2.170   2.384  10.947 -0.9690  0.0126  0.1102
  835MPD2    C312328   2.258   2.283  10.986 -0.4891 -0.7654  0.5980
  835MPD2    C412329   2.292   2.193  10.891  0.1367 -0.6664 -0.0947
  835MPD2    C512330   2.256   2.204  10.759  0.3932 -0.2989 -0.5027
  835MPD2     H12331   2.140   2.463  11.016  2.4821 -0.2945  1.9585
  835MPD2    H112332   2.356   2.107  10.908  0.1091 -0.4003  1.3887
  835MPD2    H212333   2.132   2.298  10.627 -0.6404  0.1008  0.7478
  835MPD2    H312334   2.282   2.126  10.688  1.7732 -1.2362  1.0308
  835MPD2     N12335   2.293   2.243  11.116 -0.6087 -0.1621  0.3198
  835MPD2    H512336   2.335   2.151  11.124 -1.1426 -0.3805  0.6331
  835MPD2    N112337   2.040   2.504  10.779  0.3346 -0.3544 -0.0405
  835MPD2    H712338   2.003   2.563  10.852  1.0706  0.6612 -0.4983
  836MPD2     C12339   2.133   2.107  12.039 -0.4149  0.4017 -0.1563
  836MPD2    C112340   2.091   2.192  11.934 -0.7314  0.1223 -0.3515
  836MPD2    C212341   2.004   2.296  11.955 -0.2938  0.4495  0.2203
  836MPD2    C312342   1.951   2.316  12.085  0.6832  0.4423 -1.1539
  836MPD2    C412343   1.986   2.229  12.186  0.9382 -0.2395 -0.7351
  836MPD2    C512344   2.075   2.131  12.159 -0.5200  0.2774  0.6337
  836MPD2     H12345   1.986   2.375  11.883  2.4358  0.5297 -0.3779
  836MPD2    H112346   1.944   2.240  12.285  3.2053  2.3558 -0.0523
  836MPD2    H212347   2.202   2.023  12.035 -1.6704 -0.5789 -1.2509
  836MPD2    H312348   2.101   2.068  12.243 -0.5823 -0.9635 -0.2851
  836MPD2     N12349   1.861   2.420  12.105  0.5676 -0.0369 -0.2346
  836MPD2    H512350   1.830   2.430  12.201 -0.5262 -1.4277 -0.4476
  836MPD2    N112351   2.155   2.178  11.810  0.2236  0.4544 -0.7626
  836MPD2    H712352   2.233   2.114  11.802  0.9761  1.2072  0.6954
  837MPD2     C12353   4.149   2.139  10.056  0.0031  1.0028 -0.2672
  837MPD2    C112354   4.089   2.173   9.938 -0.9036 -0.1369  0.4651
  837MPD2    C212355   4.065   2.301   9.904 -0.9363  0.4059  0.3300
  837MPD2    C312356   4.113   2.397   9.985  0.6171  0.3308 -0.2260
  837MPD2    C412357   4.169   2.361  10.102  0.2318 -0.2042 -0.3602
  837MPD2    C512358   4.182   2.233  10.141  0.3215 -0.5166 -0.7970
  837MPD2     H12359   4.024   2.332   9.809  1.5570 -1.2686 -1.2659
  837MPD2    H112360   4.221   2.438  10.158 -1.0547  0.2727  0.1997
  837MPD2    H212361   4.163   2.039  10.095  0.6047  1.1205 -0.1843
  837MPD2    H312362   4.236   2.210  10.232  0.3820 -0.1575 -0.7458
  837MPD2     N12363   4.118   2.532   9.937  1.1910  0.1398 -0.8977
  837MPD2    H512364   4.069   2.545   9.849  0.9535 -1.0937 -0.9478
  837MPD2    N112365   4.051   2.075   9.846  0.1717 -0.4854 -0.3901
  837MPD2    H712366   3.999   2.116   9.768 -0.1325 -0.1537 -0.0113
  838MPD2     C12367   2.886   4.729  11.048  0.5723 -0.4130  0.1261
  838MPD2    C112368   2.935   0.104  11.098  0.4336 -0.1338 -0.7457
  838MPD2    C212369   2.919   0.128  11.234 -0.0478  0.7527  0.5177
  838MPD2    C312370   2.842   0.044  11.311  0.0793  0.2440 -0.5504
  838MPD2    C412371   2.793   4.667  11.248 -0.5931 -0.3382 -0.0290
  838MPD2    C512372   2.814   4.636  11.118 -0.1207  1.1054  0.0929
  838MPD2     H12373   2.948   0.223  11.278 -1.7232  1.9564 -0.9595
  838MPD2    H112374   2.734   4.594  11.302 -1.8506  0.4965 -0.2732
  838MPD2    H212375   2.899   4.711  10.942  0.1864  1.5920 -0.2511
  838MPD2    H312376   2.775   4.540  11.085  1.7430 -0.3218  2.0598
  838MPD2     N12377   2.819   0.072  11.450 -0.6374 -0.2843 -0.3269
  838MPD2    H512378   2.859   0.159  11.483  0.0900  0.0786 -2.1526
  838MPD2    N112379   2.999   0.198  11.009 -0.8709  0.3189  0.2866
  838MPD2    H712380   3.034   0.168  10.919 -0.9452  2.7966 -0.5562
  839MPD2     C12381   3.185   0.276  11.616 -0.0828  0.2370  0.0804
  839MPD2    C112382   3.195   0.201  11.502 -0.3143  0.3646 -0.1869
  839MPD2    C212383   3.243   0.257  11.388  0.9757  0.3871  0.3344
  839MPD2    C312384   3.282   0.390  11.391  0.1544 -0.1763  0.1928
  839MPD2    C412385   3.271   0.467  11.504 -0.1548 -0.3756  0.5933
  839MPD2    C512386   3.230   0.403  11.619  0.0495  0.1676 -0.1040
  839MPD2     H12387   3.257   0.197  11.299  0.5914 -2.0806  1.9403
  839MPD2    H112388   3.310   0.565  11.527 -0.4428 -0.6120  2.1162
  839MPD2    H212389   3.149   0.239  11.711 -3.9295 -1.3832 -2.0140
  839MPD2    H312390   3.232   0.456  11.713 -0.3195  1.5109 -0.8520
  839MPD2     N12391   3.314   0.455  11.272  0.2512 -0.0991  0.2697
  839MPD2    H512392   3.309   0.557  11.267  0.1503 -0.1148  0.0366
  839MPD2    N112393   3.162   0.068  11.495  0.5695 -0.2766  0.4964
  839MPD2    H712394   3.187   0.021  11.409 -0.8021  0.3654 -0.2354
  840MPD2     C12395   3.184   2.749  10.272 -0.0510  0.4877  0.5442
  840MPD2    C112396   3.121   2.844  10.346 -0.8495  0.5363 -0.5089
  840MPD2    C212397   3.194   2.914  10.441  0.3768  0.2320 -0.1677
  840MPD2    C312398   3.328   2.894  10.452 -0.6024 -0.0492 -0.9548
  840MPD2    C412399   3.393   2.794  10.383 -0.5275 -0.8608  0.9418
  840MPD2    C512400   3.313   2.713  10.303 -0.0852 -0.3452  0.3563
  840MPD2     H12401   3.142   2.988  10.499  1.8417  0.8584  0.3471
  840MPD2    H112402   3.496   2.777  10.412 -0.8208 -0.6658  2.0895
  840MPD2    H212403   3.127   2.690  10.201 -0.9424 -2.3161  3.6601
  840MPD2    H312404   3.363   2.630  10.254 -1.7755 -0.7398 -0.6956
  840MPD2     N12405   3.407   2.966  10.544 -0.2707  0.4862 -0.6739
  840MPD2    H512406   3.507   2.968  10.533  0.2824 -1.9654  3.7983
  840MPD2    N112407   2.982   2.854  10.320  0.4931 -0.6445 -0.2926
  840MPD2    H712408   2.932   2.794  10.256 -0.5552  0.6137 -0.6464
  841MPD2     C12409   2.615   2.850  14.435  0.4936  0.3697  0.5180
  841MPD2    C112410   2.609   2.793  14.313  0.6092  0.2381 -0.3092
  841MPD2    C212411   2.715   2.794  14.227  0.2270 -0.3958  0.2624
  841MPD2    C312412   2.834   2.855  14.263  0.2875 -0.4019 -0.3495
  841MPD2    C412413   2.839   2.916  14.386  0.0035 -0.3494  0.9993
  841MPD2    C512414   2.732   2.918  14.467 -0.5066 -0.3771 -0.0581
  841MPD2     H12415   2.712   2.747  14.130 -0.9333  0.4971 -0.1418
  841MPD2    H112416   2.922   2.976  14.422  0.3097 -1.7412  2.6248
  841MPD2    H212417   2.538   2.836  14.510  0.3805 -0.8940  0.1564
  841MPD2    H312418   2.735   2.971  14.561  0.5464 -0.2220 -0.1855
  841MPD2     N12419   2.940   2.852  14.176  0.3897  0.4010  0.0063
  841MPD2    H512420   2.948   2.780  14.105 -2.5228  0.4559 -0.3933
  841MPD2    N112421   2.497   2.722  14.258 -0.2266  0.4775 -0.0565
  841MPD2    H712422   2.518   2.688  14.165 -1.2035  3.0114 -1.2083
  842MPD2     C12423   3.906   3.770  16.793  0.0983 -0.0415 -0.6004
  842MPD2    C112424   3.820   3.662  16.804 -0.4996 -0.6390  0.1315
  842MPD2    C212425   3.758   3.633  16.927 -0.6345  0.5179 -0.1630
  842MPD2    C312426   3.797   3.712  17.033 -0.9768 -0.1582  0.6644
  842MPD2    C412427   3.876   3.824  17.019  0.1951 -0.8045 -0.5086
  842MPD2    C512428   3.940   3.845  16.902  0.1343 -0.4299 -0.1659
  842MPD2     H12429   3.697   3.545  16.942  2.6950 -1.6202  0.8532
  842MPD2    H112430   3.893   3.893  17.102  2.1906  1.2578 -2.6344
  842MPD2    H212431   3.952   3.797  16.698  1.0619  2.5638  0.6066
  842MPD2    H312432   4.003   3.931  16.884  2.0703 -1.7726  0.2766
  842MPD2     N12433   3.739   3.689  17.161 -0.2471  0.1082  0.3299
  842MPD2    H512434   3.747   3.761  17.233  0.4684  0.1154  0.2452
  842MPD2    N112435   3.803   3.590  16.684 -0.1774  0.4245 -0.2657
  842MPD2    H712436   3.860   3.614  16.604  0.6033  0.7262  0.3777
  843MPD2     C12437   0.825   4.565   0.268 -0.0951  0.4855 -0.7213
  843MPD2    C112438   0.843   4.636   0.153  0.6289  0.3032 -0.5541
  843MPD2    C212439   0.956   4.706   0.134 -0.0875 -0.1742 -0.1967
  843MPD2    C312440   1.057   4.694   0.229  0.2958  0.1249  0.4834
  843MPD2    C412441   1.038   4.608   0.339  0.1366  0.5155 -0.2984
  843MPD2    C512442   0.917   4.549   0.364  0.8996  0.4633  0.0323
  843MPD2     H12443   0.953   0.039   0.052  0.7764  2.1170  1.7296
  843MPD2    H112444   1.115   4.615   0.415  1.0622 -0.7241 -1.1040
  843MPD2    H212445   0.731   4.514   0.287  1.0849 -1.6815 -0.7443
  843MPD2    H312446   0.899   4.503   0.460  1.0259 -3.0311 -1.6393
  843MPD2     N12447   1.180   0.031   0.229  0.3707  0.1474 -0.1563
  843MPD2    H512448   1.250   0.015   0.301  1.0550 -0.7952 -1.0300
  843MPD2    N112449   0.733   4.641   0.058 -0.3857 -0.6402  0.4422
  843MPD2    H712450   0.644   4.605   0.088 -1.3385  0.8162 -0.6463
  844MPD2     C12451   4.523   2.880  16.616 -0.0683  0.5977 -0.2852
  844MPD2    C112452   4.601   2.934  16.513 -0.7382 -0.1520 -0.0750
  844MPD2    C212453   4.697   3.032  16.560 -0.1615  0.1595 -0.5280
  844MPD2    C312454   4.696   3.078  16.693  0.6290 -0.3550  0.4183
  844MPD2    C412455   4.604   3.030  16.776 -1.6166  1.4459  0.3057
  844MPD2    C512456   4.525   2.927  16.744 -0.3371  0.9956  0.6579
  844MPD2     H12457   0.026   3.063  16.480 -2.2898 -0.0348 -2.3897
  844MPD2    H112458   4.595   3.073  16.875  0.0732  1.0958  0.6113
  844MPD2    H212459   4.456   2.797  16.597  1.3666 -0.6175  0.0036
  844MPD2    H312460   4.456   2.897  16.823 -1.2991 -1.6585 -1.2027
  844MPD2     N12461   0.054   3.178  16.719 -0.6486  0.0201  0.0668
  844MPD2    H512462   0.105   3.214  16.638 -0.1789 -1.4993 -0.3279
  844MPD2    N112463   4.602   2.893  16.375 -0.2868 -0.5212 -0.0568
  844MPD2    H712464   4.671   2.931  16.311 -0.2006  0.7863  0.8242
  845MPD2     C12465   0.102   4.005  16.411  0.1467  0.0343  0.5724
  845MPD2    C112466   0.011   3.938  16.486 -0.2456  0.7436  0.5743
  845MPD2    C212467   0.050   3.812  16.531 -0.2873 -0.1746  0.6472
  845MPD2    C312468   0.179   3.763  16.506 -0.6256 -0.3548  0.3122
  845MPD2    C412469   0.270   3.832  16.435  0.1443 -0.2970  0.0871
  845MPD2    C512470   0.227   3.951  16.378 -0.4287  0.7191  0.5129
  845MPD2     H12471   4.720   3.762  16.600 -0.5864 -1.1593 -0.3495
  845MPD2    H112472   0.370   3.796  16.412 -0.5044 -0.8442 -1.8855
  845MPD2    H212473   0.075   4.107  16.384  1.2363  0.8463  2.5415
  845MPD2    H312474   0.297   4.012  16.321  0.4514  0.4023  1.2444
  845MPD2     N12475   0.209   3.638  16.576  0.2725  0.9730  0.4199
  845MPD2    H512476   0.142   3.582  16.629 -0.2573  0.0686 -1.2053
  845MPD2    N112477   4.637   4.017  16.532 -0.3890 -0.3651 -0.3410
  845MPD2    H712478   4.636   4.114  16.501 -1.0287 -0.7285 -1.4754
  846MPD2     C12479   1.242   4.285  13.413  0.2478 -0.1622 -0.3039
  846MPD2    C112480   1.143   4.382  13.397 -0.0602 -0.3339 -0.2740
  846MPD2    C212481   1.085   4.424  13.508  0.0326 -0.1172 -0.4422
  846MPD2    C312482   1.131   4.388  13.630 -0.3888  0.3964  0.3426
  846MPD2    C412483   1.230   4.293  13.647 -0.1340 -0.3591  0.2804
  846MPD2    C512484   1.286   4.236  13.534  0.2048  0.9978  0.1083
  846MPD2     H12485   1.001   4.493  13.509 -0.0708 -0.2505  0.0832
  846MPD2    H112486   1.276   4.262  13.741  0.5678 -0.6941 -0.1735
  846MPD2    H212487   1.287   4.238  13.327  1.1700 -0.1031  0.1514
  846MPD2    H312488   1.371   4.168  13.543  0.6001  1.3712 -0.8117
  846MPD2     N12489   1.074   4.443  13.747  0.2242  0.1739  0.5472
  846MPD2    H512490   0.986   4.494  13.738  1.5245  2.2220 -0.5893
  846MPD2    N112491   1.100   4.439  13.277 -0.2489 -0.8511  0.0931
  846MPD2    H712492   1.032   4.514  13.280 -0.3350 -0.9794  1.2739
  847MPD2     C12493   1.090   0.735  14.379 -0.1297  0.0876  0.1779
  847MPD2    C112494   1.143   0.685  14.499 -0.2196 -0.6536  0.2953
  847MPD2    C212495   1.241   0.589  14.494  0.3192  0.1652 -0.4116
  847MPD2    C312496   1.289   0.536  14.378 -0.6357  0.4037  0.3297
  847MPD2    C412497   1.247   0.599  14.261 -0.4514  0.6926 -0.0913
  847MPD2    C512498   1.154   0.696  14.262  0.4697  0.2355  0.2360
  847MPD2     H12499   1.271   0.552  14.591 -1.2226  2.8044  1.0538
  847MPD2    H112500   1.284   0.562  14.167  1.5067  0.0431  0.9453
  847MPD2    H212501   1.010   0.806  14.366 -1.0774 -0.9437  0.3777
  847MPD2    H312502   1.117   0.742  14.171 -0.8921  2.6054  1.9886
  847MPD2     N12503   1.408   0.456  14.368 -0.9654  0.1931  0.0933
  847MPD2    H512504   1.448   0.459  14.275 -2.1016 -0.4749 -0.4239
  847MPD2    N112505   1.087   0.715  14.619 -0.0401  0.5650  0.1625
  847MPD2    H712506   1.128   0.672  14.701  0.1463 -0.2835 -0.3780
  848MPD2     C12507   4.277   3.301  15.736  0.6724 -0.1310  0.5506
  848MPD2    C112508   4.261   3.372  15.848  0.3888 -0.6663 -0.3894
  848MPD2    C212509   4.238   3.507  15.840 -0.1688 -0.3163  0.2119
  848MPD2    C312510   4.229   3.572  15.720 -0.1009  0.0570  0.6472
  848MPD2    C412511   4.238   3.492  15.610 -0.0716  0.3520  0.2096
  848MPD2    C512512   4.273   3.362  15.618  0.1559  0.7701  0.2017
  848MPD2     H12513   4.232   3.566  15.931 -0.8862  2.1958 -1.4490
  848MPD2    H112514   4.210   3.543  15.518  0.1340 -1.1690 -0.6926
  848MPD2    H212515   4.292   3.194  15.739 -0.2507 -0.3141 -1.5378
  848MPD2    H312516   4.283   3.315  15.520 -2.6897 -0.3488  0.4427
  848MPD2     N12517   4.196   3.706  15.699  0.2230 -0.1205 -0.0230
  848MPD2    H512518   4.172   3.744  15.608 -1.1960  1.0195  0.8218
  848MPD2    N112519   4.268   3.315  15.978  0.1908 -0.5585 -0.3895
  848MPD2    H712520   4.249   3.377  16.056 -1.1807 -0.8221 -0.5230
  849MPD2     C12521   3.074   3.407  13.697  0.4467 -0.6281  0.2965
  849MPD2    C112522   3.177   3.432  13.610  0.0040 -0.9930 -0.1755
  849MPD2    C212523   3.299   3.369  13.643 -0.5161 -0.0349  0.7243
  849MPD2    C312524   3.319   3.299  13.756 -0.5116 -0.4425 -0.5253
  849MPD2    C412525   3.218   3.266  13.837  0.1971  0.0215  0.3146
  849MPD2    C512526   3.099   3.329  13.806 -0.4015 -0.4616  0.5519
  849MPD2     H12527   3.389   3.386  13.584 -0.4574  0.2738  0.9028
  849MPD2    H112528   3.229   3.217  13.933 -0.1085  2.7218  1.7004
  849MPD2    H212529   2.972   3.441  13.680  0.2011 -2.6726 -2.3482
  849MPD2    H312530   3.011   3.310  13.867 -0.3847  0.6020  0.9138
  849MPD2     N12531   3.447   3.241  13.786  0.0434  0.8277 -0.0587
  849MPD2    H512532   3.517   3.239  13.713  0.9055 -0.6655  0.8092
  849MPD2    N112533   3.173   3.517  13.503  0.6062 -0.4868  0.3066
  849MPD2    H712534   3.259   3.534  13.452  0.1584  2.8361  0.6899
  850MPD2     C12535   1.418   1.412  14.756  0.5274 -0.2794  0.0344
  850MPD2    C112536   1.424   1.483  14.874 -0.2440 -0.2399 -0.2606
  850MPD2    C212537   1.550   1.529  14.915 -0.3088 -0.2679  0.0135
  850MPD2    C312538   1.667   1.474  14.850  0.1270  0.0867 -0.5077
  850MPD2    C412539   1.655   1.391  14.743 -0.0126 -0.4996  0.1025
  850MPD2    C512540   1.529   1.366  14.696  0.4531  0.2433  0.1248
  850MPD2     H12541   1.559   1.599  14.997  0.9890  0.7867 -1.0261
  850MPD2    H112542   1.745   1.354  14.696  2.8001  1.4410  3.9552
  850MPD2    H212543   1.320   1.381  14.721 -0.2827  1.8796  0.4261
  850MPD2    H312544   1.520   1.299  14.612  2.0911 -0.5259  0.5615
  850MPD2     N12545   1.802   1.500  14.896 -0.3902  0.0412 -0.0559
  850MPD2    H512546   1.877   1.457  14.843  0.4610  1.8880 -0.3688
  850MPD2    N112547   1.306   1.524  14.928 -0.2005  0.3023  0.1702
  850MPD2    H712548   1.230   1.505  14.865 -0.1450 -1.0442  0.5082
  851MPD2     C12549   1.964   1.321  15.467  1.1932  0.4607  0.1619
  851MPD2    C112550   1.863   1.286  15.380 -0.0298 -0.0191 -0.5573
  851MPD2    C212551   1.874   1.168  15.305 -0.0139  0.3332 -1.0787
  851MPD2    C312552   1.970   1.075  15.339 -0.6320 -0.4024 -0.1370
  851MPD2    C412553   2.071   1.111  15.433  0.0816 -0.5396  0.0990
  851MPD2    C512554   2.064   1.236  15.495  0.2217  0.8734 -0.3926
  851MPD2     H12555   1.810   1.133  15.225 -1.7477  2.3224 -0.5913
  851MPD2    H112556   2.150   1.042  15.461 -0.8997 -1.8166 -0.3412
  851MPD2    H212557   1.952   1.394  15.546  0.4977 -0.9780  1.3848
  851MPD2    H312558   2.135   1.250  15.576  0.0623  1.8905 -0.4205
  851MPD2     N12559   1.951   0.949  15.286  0.3185  0.7497 -0.4746
  851MPD2    H512560   1.873   0.939  15.222  0.8660  0.9542 -1.1816
  851MPD2    N112561   1.753   1.379  15.358 -0.6707 -0.0423  0.4279
  851MPD2    H712562   1.759   1.472  15.399  0.4912 -0.6376  1.5892
  852MPD2     C12563   0.505   4.077   9.644  0.3020  0.2423  0.2847
  852MPD2    C112564   0.552   4.058   9.767 -0.4436  0.3864 -0.6971
  852MPD2    C212565   0.642   4.163   9.814  0.1343  0.1057  0.0428
  852MPD2    C312566   0.672   4.278   9.748  0.1391  0.4122 -0.5154
  852MPD2    C412567   0.606   4.302   9.628 -0.8323 -0.6746 -0.7692
  852MPD2    C512568   0.527   4.199   9.580  0.2652  0.6320 -0.4827
  852MPD2     H12569   0.673   4.145   9.917 -3.8466  2.1015  1.6037
  852MPD2    H112570   0.619   4.385   9.560  0.1611 -1.6122 -1.7362
  852MPD2    H212571   0.447   4.003   9.590  0.3898  0.6901 -0.4348
  852MPD2    H312572   0.473   4.214   9.487  1.7508  0.1854 -1.4235
  852MPD2     N12573   0.748   4.371   9.809  0.6808  0.0564  0.2556
  852MPD2    H512574   0.780   4.344   9.901 -3.1994  1.0253  1.8950
  852MPD2    N112575   0.539   3.945   9.852  0.1587  0.1997  0.2755
  852MPD2    H712576   0.573   3.958   9.947 -0.3677 -0.0190  0.4931
  853MPD2     C12577   2.650   3.917  12.263  0.8269  0.3402  0.0745
  853MPD2    C112578   2.588   4.033  12.223 -0.0762 -0.5163 -0.6100
  853MPD2    C212579   2.544   4.040  12.092 -0.3414 -0.0597  0.2731
  853MPD2    C312580   2.547   3.932  12.008  0.3587  0.1649  0.1606
  853MPD2    C412581   2.602   3.810  12.050  0.2147 -0.1058  0.1314
  853MPD2    C512582   2.655   3.811  12.181 -0.1573  0.6721 -1.0066
  853MPD2     H12583   2.485   4.126  12.062  1.8296  1.2142 -0.4046
  853MPD2    H112584   2.613   3.723  11.987 -1.4900 -2.0314  2.4729
  853MPD2    H212585   2.697   3.909  12.360  0.2710 -2.5267  0.0955
  853MPD2    H312586   2.702   3.720  12.216 -1.6975  0.0680 -0.5110
  853MPD2     N12587   2.515   3.933  11.874 -0.2061 -0.4761 -0.0304
  853MPD2    H512588   2.512   3.840  11.834 -1.5565  0.9135 -3.1611
  853MPD2    N112589   2.607   4.144  12.313 -0.2121  0.4080  0.4800
  853MPD2    H712590   2.654   4.120  12.400 -0.1256 -0.3588  0.2199
  854MPD2     C12591   4.334   3.785  12.302  0.2107  0.5763  0.7570
  854MPD2    C112592   4.402   3.880  12.382  0.3154  0.1095 -0.4257
  854MPD2    C212593   4.489   3.844  12.477 -0.2888 -0.0804  0.0432
  854MPD2    C312594   4.523   3.716  12.508 -0.7673 -0.2666  0.0843
  854MPD2    C412595   4.471   3.620  12.429  1.1411  0.2138  0.0365
  854MPD2    C512596   4.371   3.659  12.335  0.4651  0.4028 -0.1421
  854MPD2     H12597   4.544   3.916  12.538  1.2244 -0.4917 -0.8433
  854MPD2    H112598   4.486   3.513  12.445  0.8841 -0.0037 -1.1400
  854MPD2    H212599   4.268   3.802  12.218  1.1336  0.0360 -0.0831
  854MPD2    H312600   4.331   3.579  12.275 -0.4633  0.4693  0.3786
  854MPD2     N12601   4.620   3.678  12.604 -0.7796 -0.9629  0.1434
  854MPD2    H512602   4.642   3.580  12.621  3.0360 -0.1860 -0.4929
  854MPD2    N112603   4.378   4.015  12.354 -0.2571 -0.7981  0.3949
  854MPD2    H712604   4.315   4.035  12.278  0.1522  0.4544  0.3882
  855MPD2     C12605   0.288   3.892  13.479  0.3062  0.6395  0.4900
  855MPD2    C112606   0.338   3.778  13.419 -0.0520  0.4328  0.2199
  855MPD2    C212607   0.318   3.760  13.282  0.5602  0.4069  0.5569
  855MPD2    C312608   0.263   3.861  13.205 -0.4222 -0.0107 -0.0081
  855MPD2    C412609   0.207   3.966  13.273  0.4263 -0.1763 -0.0370
  855MPD2    C512610   0.221   3.982  13.410 -0.2626  0.0099 -0.4209
  855MPD2     H12611   0.353   3.674  13.228 -2.4711  0.0776 -0.8848
  855MPD2    H112612   0.151   4.042  13.220 -0.8395 -0.6413  0.6490
  855MPD2    H212613   0.297   3.899  13.587 -0.7098  0.6097  0.5751
  855MPD2    H312614   0.181   4.074  13.452 -2.6859 -0.4045 -1.8788
  855MPD2     N12615   0.247   3.856  13.064 -0.3357 -0.0461 -0.1265
  855MPD2    H512616   0.180   3.921  13.024  0.0011  0.0226 -0.5696
  855MPD2    N112617   0.379   3.659  13.490  0.1305 -0.3565 -0.2986
  855MPD2    H712618   0.391   3.579  13.430  3.5018 -0.1516  0.0910
  856MPD2     C12619   1.993   4.661  13.786  0.4147  0.1521 -0.1640
  856MPD2    C112620   1.975   0.044  13.850 -0.4662 -0.1817 -0.0766
  856MPD2    C212621   1.859   0.109  13.830 -0.5078 -0.1868 -0.0832
  856MPD2    C312622   1.756   0.069  13.746 -0.1678 -0.5631  0.5617
  856MPD2    C412623   1.782   4.692  13.674 -0.0084  0.7992 -0.2633
  856MPD2    C512624   1.897   4.619  13.696  0.1541 -0.6289 -0.0696
  856MPD2     H12625   1.851   0.203  13.883 -0.4842 -0.2974  0.1168
  856MPD2    H112626   1.721   4.656  13.592  3.9913 -2.3075 -1.9078
  856MPD2    H212627   2.085   4.606  13.799  0.8318  0.9035  0.0791
  856MPD2    H312628   1.905   4.525  13.644 -1.8344 -0.2714 -0.9876
  856MPD2     N12629   1.638   0.139  13.725  0.3739 -0.1397  0.4220
  856MPD2    H512630   1.586   0.121  13.640 -1.3140 -1.1942  1.6925
  856MPD2    N112631   2.077   0.100  13.930 -0.0413 -0.6353 -0.3579
  856MPD2    H712632   2.065   0.191  13.974  0.9507  0.2711 -1.9381
  857MPD2     C12633   4.125   2.213  13.160 -0.7005  0.4143  0.0340
  857MPD2    C112634   4.161   2.229  13.026 -0.1208  0.5591 -0.0906
  857MPD2    C212635   4.223   2.343  12.991 -0.8819  0.0699 -0.3675
  857MPD2    C312636   4.253   2.439  13.078  0.7987  0.5534 -0.0455
  857MPD2    C412637   4.215   2.425  13.214  0.1321  0.4017  0.0749
  857MPD2    C512638   4.147   2.311  13.251  0.0802 -0.0729  0.2909
  857MPD2     H12639   4.238   2.346  12.884 -0.4728  1.6664 -0.2632
  857MPD2    H112640   4.235   2.496  13.293  0.9322  1.0545 -0.7000
  857MPD2    H212641   4.076   2.124  13.196 -2.3594  1.7895  1.1946
  857MPD2    H312642   4.104   2.300  13.350  1.3659  1.4130  1.0131
  857MPD2     N12643   4.323   2.554  13.032  0.3544  0.2585 -0.0253
  857MPD2    H512644   4.359   2.549  12.937  1.7592  1.3417  0.4415
  857MPD2    N112645   4.156   2.130  12.931  0.5414  0.5151 -0.0496
  857MPD2    H712646   4.206   2.151  12.844 -0.3499  0.4196 -0.5784
  858MPD2     C12647   4.436   1.135  16.473 -0.1844  0.1106 -0.2079
  858MPD2    C112648   4.554   1.066  16.473 -0.1964  0.0560  0.0461
  858MPD2    C212649   4.627   1.056  16.594  0.0233 -0.2998  0.6630
  858MPD2    C312650   4.573   1.115  16.708  0.0758  0.0041  0.1020
  858MPD2    C412651   4.456   1.189  16.701 -0.8701 -0.5591 -0.4529
  858MPD2    C512652   4.396   1.201  16.584  0.0202 -0.9906 -0.5286
  858MPD2     H12653   4.719   1.001  16.615  0.1703  0.3689  1.7674
  858MPD2    H112654   4.422   1.245  16.788 -0.7467 -0.3238 -0.5552
  858MPD2    H212655   4.381   1.147  16.380 -1.3286  0.8888  0.5601
  858MPD2    H312656   4.317   1.275  16.573  1.8436  0.8407 -1.4429
  858MPD2     N12657   4.626   1.107  16.833  1.1567  0.8305  0.7408
  858MPD2    H512658   4.574   1.157  16.904 -0.9708 -0.5668  0.1849
  858MPD2    N112659   4.593   1.002  16.355  0.8818 -0.2364 -0.0080
  858MPD2    H712660   4.532   1.020  16.277 -0.3610  1.1997  1.2968
  859MPD2     C12661   2.745   2.963  14.810  0.8471  0.2556 -0.0191
  859MPD2    C112662   2.879   2.929  14.786 -0.1633  0.0752 -0.2036
  859MPD2    C212663   2.923   2.795  14.791 -0.1283  0.4067  0.3487
  859MPD2    C312664   2.825   2.696  14.817  0.4151 -0.2373  0.9188
  859MPD2    C412665   2.692   2.735  14.847  0.2516  0.6316 -0.3582
  859MPD2    C512666   2.654   2.866  14.842  0.2170 -0.0665  0.0784
  859MPD2     H12667   3.027   2.771  14.772 -0.4698 -1.4025  0.7036
  859MPD2    H112668   2.615   2.665  14.876  0.0988  1.6525  1.7145
  859MPD2    H212669   2.716   3.067  14.801 -0.1537 -0.1397 -1.4169
  859MPD2    H312670   2.554   2.889  14.876  0.2486  0.1362  0.0319
  859MPD2     N12671   2.860   2.558  14.824  0.3513 -0.5673 -0.2296
  859MPD2    H512672   2.785   2.489  14.827  0.5251 -0.7329  0.2203
  859MPD2    N112673   2.969   3.034  14.758  0.0914  0.6310  0.0808
  859MPD2    H712674   2.931   3.125  14.735 -2.8360 -0.9392 -1.2330
  860MPD2     C12675   0.972   3.628  11.475  0.3074 -0.0580  0.1616
  860MPD2    C112676   0.956   3.610  11.609 -0.3726 -0.3364 -0.2741
  860MPD2    C212677   0.844   3.549  11.660 -0.0751 -0.1726  0.9816
  860MPD2    C312678   0.762   3.484  11.582 -0.0366  0.2554  0.5615
  860MPD2    C412679   0.765   3.503  11.445  0.3512 -0.1510  0.1181
  860MPD2    C512680   0.871   3.570  11.398 -0.2586  0.5997  0.0919
  860MPD2     H12681   0.835   3.538  11.767  1.2101  1.4985  1.2712
  860MPD2    H112682   0.708   3.453  11.368 -0.3508 -0.2210  0.6920
  860MPD2    H212683   1.060   3.667  11.427  1.3815 -0.2923  1.9506
  860MPD2    H312684   0.873   3.584  11.291 -0.5788 -0.0625 -0.0028
  860MPD2     N12685   0.675   3.397  11.651  0.0828 -0.0101  0.1194
  860MPD2    H512686   0.695   3.384  11.749 -2.3310 -1.5544  0.4105
  860MPD2    N112687   1.046   3.672  11.699  0.2644 -0.3155  0.1290
  860MPD2    H712688   1.032   3.662  11.799 -0.5720 -1.5885 -0.1021
  861MPD2     C12689   3.724   1.655  11.451 -0.0327 -0.5602  0.3588
  861MPD2    C112690   3.807   1.742  11.392  0.5419 -0.2816 -0.0528
  861MPD2    C212691   3.784   1.778  11.259 -0.0126 -0.1025 -0.3798
  861MPD2    C312692   3.673   1.725  11.192  0.5841  0.4900 -0.1892
  861MPD2    C412693   3.585   1.646  11.260  0.1051 -0.1291 -0.6093
  861MPD2    C512694   3.618   1.604  11.386 -0.3743 -0.5012 -0.7043
  861MPD2     H12695   3.847   1.849  11.206  1.3142 -1.6060 -0.8015
  861MPD2    H112696   3.497   1.604  11.213  0.1102 -1.0130  0.1678
  861MPD2    H212697   3.739   1.632  11.556 -1.1174 -0.6978  0.4799
  861MPD2    H312698   3.559   1.541  11.451 -1.0097  0.3196 -0.4955
  861MPD2     N12699   3.636   1.759  11.061 -0.4305 -0.3555  0.0286
  861MPD2    H512700   3.549   1.719  11.028 -0.8444 -1.9402  3.0859
  861MPD2    N112701   3.902   1.820  11.461  0.2108 -0.3591  0.3168
  861MPD2    H712702   3.952   1.889  11.407 -1.3560  1.3560  1.0751
  862MPD2     C12703   3.063   1.974  10.448 -0.3802 -0.0094  0.0153
  862MPD2    C112704   3.155   1.901  10.514  0.5303  0.9507  0.5817
  862MPD2    C212705   3.187   1.777  10.456  0.7362 -0.1090  0.5122
  862MPD2    C312706   3.123   1.721  10.349  0.5176  0.5704 -0.2518
  862MPD2    C412707   3.013   1.793  10.300 -0.1713  0.6648  0.0981
  862MPD2    C512708   2.995   1.925  10.344 -0.4545  0.1623  1.0399
  862MPD2     H12709   3.267   1.718  10.500 -0.4407 -1.7860  0.3845
  862MPD2    H112710   2.952   1.766  10.214  2.1609 -0.2499 -1.2704
  862MPD2    H212711   3.044   2.076  10.477  0.0657 -0.1027  0.6442
  862MPD2    H312712   2.921   1.990  10.299  0.9960  1.2475  0.1930
  862MPD2     N12713   3.149   1.598  10.288  0.2624 -0.0006  0.1112
  862MPD2    H512714   3.082   1.560  10.222 -0.1973  1.3825 -0.2118
  862MPD2    N112715   3.236   1.960  10.608 -0.7742  0.2660  0.7134
  862MPD2    H712716   3.230   2.061  10.610 -0.4045  0.2917  0.6508
  863MPD2     C12717   3.048   4.254  16.376  0.3212 -0.0148 -0.2067
  863MPD2    C112718   3.063   4.367  16.441  0.2017 -0.1863 -0.6952
  863MPD2    C212719   3.163   4.382  16.537  0.4639  0.7290  0.7311
  863MPD2    C312720   3.251   4.277  16.568  0.9278 -0.3614  0.0754
  863MPD2    C412721   3.216   4.154  16.517  0.5763  0.2837 -0.1731
  863MPD2    C512722   3.128   4.142  16.410 -0.4832 -0.0915  0.6941
  863MPD2     H12723   3.180   4.475  16.589 -1.0627  0.7199  1.2547
  863MPD2    H112724   3.256   4.064  16.561 -0.9596  0.7459  2.2081
  863MPD2    H212725   2.975   4.241  16.297 -0.6795  2.8338  0.2771
  863MPD2    H312726   3.123   4.048  16.356 -2.3191  3.0636 -4.6701
  863MPD2     N12727   3.340   4.284  16.675  0.2907  0.0681  0.3195
  863MPD2    H512728   3.373   4.198  16.717 -1.6235 -1.1149 -0.5751
  863MPD2    N112729   2.979   4.469  16.396  0.0385 -0.2826  0.2003
  863MPD2    H712730   2.913   4.436  16.326 -1.5469 -0.7417  1.9279
  864MPD2     C12731   3.434   0.623  17.093  0.6187 -0.2013 -0.5764
  864MPD2    C112732   3.545   0.599  17.008  0.0688  0.2062  0.9251
  864MPD2    C212733   3.613   0.708  16.943 -0.3921 -0.3570 -0.4805
  864MPD2    C312734   3.571   0.835  16.952  0.2243  0.3008 -0.4495
  864MPD2    C412735   3.460   0.865  17.033  0.2099 -0.0739  0.0628
  864MPD2    C512736   3.401   0.761  17.104  0.0665 -0.0130 -0.0093
  864MPD2     H12737   3.693   0.686  16.872  0.0083 -0.6027  0.0503
  864MPD2    H112738   3.422   0.966  17.043  0.1174 -0.2322  1.2758
  864MPD2    H212739   3.376   0.551  17.151  0.9796 -0.1449 -0.1427
  864MPD2    H312740   3.329   0.794  17.179 -0.4193 -0.1148 -0.4297
  864MPD2     N12741   3.636   0.944  16.887 -0.3368 -0.1787  0.4318
  864MPD2    H512742   3.588   1.033  16.887 -0.7220 -0.3869  1.0924
  864MPD2    N112743   3.569   0.460  16.984 -0.2253 -0.5703  0.2593
  864MPD2    H712744   3.497   0.395  17.015 -0.0568 -1.5089 -1.3056
  865MPD2     C12745   3.371   0.990  16.418  0.9603 -0.7718  0.0963
  865MPD2    C112746   3.492   1.050  16.379  0.0782  0.4214 -0.1211
  865MPD2    C212747   3.528   1.164  16.450  0.1102  0.2193 -0.0490
  865MPD2    C312748   3.448   1.221  16.558 -0.3640  0.3153 -0.2511
  865MPD2    C412749   3.329   1.156  16.591  0.8167 -0.6704  0.4332
  865MPD2    C512750   3.291   1.045  16.518 -0.0363  0.8373 -0.5841
  865MPD2     H12751   3.621   1.214  16.427 -0.2957  0.8011 -0.4058
  865MPD2    H112752   3.270   1.206  16.667  0.4373 -2.3361  1.2356
  865MPD2    H212753   3.337   0.902  16.364  0.6492 -0.3389 -0.4251
  865MPD2    H312754   3.196   0.996  16.534  0.0875  1.1193  0.9786
  865MPD2     N12755   3.480   1.337  16.629  0.0877  0.1305  0.5767
  865MPD2    H512756   3.403   1.396  16.658  0.1609 -0.3032  1.6722
  865MPD2    N112757   3.564   0.992  16.272 -0.0273  0.2190 -0.1704
  865MPD2    H712758   3.529   0.909  16.226  1.6516  0.2295 -1.4727
  866MPD2     C12759   4.579   1.716  11.458  0.3485  0.5933  0.1040
  866MPD2    C112760   4.646   1.794  11.369  0.0998  0.1189 -0.1606
  866MPD2    C212761   4.574   1.875  11.284  0.7109  0.1602  0.3001
  866MPD2    C312762   4.438   1.879  11.289  0.7726 -0.8052  0.7359
  866MPD2    C412763   4.371   1.797  11.381  0.8871 -0.1219  0.1479
  866MPD2    C512764   4.449   1.734  11.473  0.2818  0.3958 -0.2830
  866MPD2     H12765   4.615   1.958  11.227  1.8245  0.7189  1.9241
  866MPD2    H112766   4.265   1.799  11.402  0.4461  4.1174 -2.3408
  866MPD2    H212767   4.620   1.674  11.549 -0.6900  1.1017  0.8137
  866MPD2    H312768   4.402   1.675  11.550  0.2441 -2.4313 -2.4602
  866MPD2     N12769   4.371   1.977  11.218 -0.1370 -0.0000 -0.1371
  866MPD2    H512770   4.425   2.038  11.157  2.3026 -1.4839  0.5225
  866MPD2    N112771   0.045   1.793  11.384  0.0768 -0.1582 -0.0336
  866MPD2    H712772   0.083   1.754  11.469 -1.1769  1.3264  1.2104
  867MPD2     C12773   2.565   1.340  16.385 -0.1210  0.3087 -0.0196
  867MPD2    C112774   2.681   1.294  16.447  0.2253  0.0093 -0.5640
  867MPD2    C212775   2.739   1.378  16.542  0.6477 -0.0274 -0.0327
  867MPD2    C312776   2.691   1.505  16.569 -0.2320  0.5935 -0.2841
  867MPD2    C412777   2.573   1.548  16.503  0.2879  0.4943  0.4035
  867MPD2    C512778   2.510   1.461  16.413 -0.4733 -0.5131  0.0556
  867MPD2     H12779   2.831   1.346  16.588 -0.0071 -2.2014 -0.2357
  867MPD2    H112780   2.539   1.651  16.505 -1.0600  0.0474  0.2124
  867MPD2    H212781   2.496   1.283  16.323 -0.3063  0.5831 -0.0637
  867MPD2    H312782   2.415   1.493  16.371 -0.2125  0.2576  0.0609
  867MPD2     N12783   2.750   1.598  16.657 -0.0584 -0.9195  0.4174
  867MPD2    H512784   2.686   1.677  16.665 -0.4363 -0.9239 -2.3480
  867MPD2    N112785   2.729   1.172  16.410 -0.2310 -0.5426  0.4568
  867MPD2    H712786   2.674   1.129  16.336  1.1496  0.5872 -1.2156
  868MPD2     C12787   3.804   1.250  12.930 -0.3209 -0.7044  0.5722
  868MPD2    C112788   3.882   1.194  13.029 -0.0586  0.4163 -0.2931
  868MPD2    C212789   3.844   1.218  13.153 -0.0248 -0.9016  0.3830
  868MPD2    C312790   3.732   1.291  13.184  0.6585 -0.0097 -0.3818
  868MPD2    C412791   3.664   1.363  13.083 -0.1136 -0.2341 -0.3196
  868MPD2    C512792   3.698   1.333  12.958 -0.4459 -0.0037 -0.0628
  868MPD2     H12793   3.894   1.170  13.236 -1.1615 -0.5163  1.3026
  868MPD2    H112794   3.584   1.433  13.101 -0.3862 -0.3542 -1.0489
  868MPD2    H212795   3.828   1.239  12.825 -0.6698  0.0959  0.4145
  868MPD2    H312796   3.639   1.390  12.887 -0.2444 -0.2479 -0.4212
  868MPD2     N12797   3.713   1.316  13.325  0.2445  0.2649 -0.0267
  868MPD2    H512798   3.786   1.282  13.388  1.3263  2.5754 -0.0354
  868MPD2    N112799   3.989   1.116  12.988 -0.4781  0.4074 -0.1775
  868MPD2    H712800   4.010   1.101  12.890  2.4839 -1.7756  0.8061
  869MPD2     C12801   4.427   3.332   0.628  0.0814  0.0581 -0.3176
  869MPD2    C112802   4.383   3.404   0.517  0.4364  0.6209 -0.0582
  869MPD2    C212803   4.417   3.537   0.498  0.3828 -0.2452  0.5262
  869MPD2    C312804   4.519   3.584   0.582  0.1216  0.5714 -0.5549
  869MPD2    C412805   4.573   3.506   0.683 -0.3809  0.4558 -0.0664
  869MPD2    C512806   4.527   3.381   0.706 -0.8887 -0.0110 -0.1372
  869MPD2     H12807   4.378   3.596   0.416 -0.2384 -0.5972  0.5685
  869MPD2    H112808   4.656   3.547   0.738 -0.0379 -0.3926  0.0437
  869MPD2    H212809   4.388   3.233   0.648  0.9738 -0.4604 -1.1003
  869MPD2    H312810   4.556   3.323   0.793  0.2322  1.2511  0.3335
  869MPD2     N12811   4.574   3.718   0.569 -0.3754  0.4040 -0.1567
  869MPD2    H512812   4.647   3.748   0.633 -1.7591 -1.7724  2.4424
  869MPD2    N112813   4.289   3.335   0.442  0.0899  0.4356  0.0999
  869MPD2    H712814   4.283   3.236   0.465 -0.6951  0.0362 -1.8275
  870MPD2     C12815   1.110   1.748   1.230 -0.0250  0.3116  0.1259
  870MPD2    C112816   0.974   1.729   1.218 -0.0117  0.3636  0.1279
  870MPD2    C212817   0.902   1.842   1.218  0.0740  0.0266  0.1284
  870MPD2    C312818   0.952   1.971   1.231 -0.2786  0.2426 -0.4320
  870MPD2    C412819   1.092   1.993   1.234  0.1993  0.1312  0.1516
  870MPD2    C512820   1.169   1.878   1.240 -0.3771  0.2090  0.1460
  870MPD2     H12821   0.794   1.839   1.222 -0.0082  2.4755  0.1173
  870MPD2    H112822   1.132   2.094   1.239  1.8994 -0.3531 -3.4233
  870MPD2    H212823   1.189   1.674   1.231  2.0831  2.5668  1.5964
  870MPD2    H312824   1.277   1.886   1.238 -0.3203 -0.6098 -0.4046
  870MPD2     N12825   0.857   2.077   1.236 -0.6398 -0.0023  0.3400
  870MPD2    H512826   0.759   2.053   1.220 -0.4262  0.5195 -1.8293
  870MPD2    N112827   0.922   1.601   1.219 -0.3936 -0.1183  0.5404
  870MPD2    H712828   0.995   1.530   1.213 -0.0120  0.3042  0.2179
  871MPD2     C12829   1.376   1.678  16.411  0.4201 -0.4218  0.4191
  871MPD2    C112830   1.303   1.641  16.517  0.9615  0.3236  0.2501
  871MPD2    C212831   1.249   1.516  16.520 -0.4894  0.2479  1.0982
  871MPD2    C312832   1.273   1.432  16.416  0.4013 -0.4398  0.0969
  871MPD2    C412833   1.349   1.473  16.309 -1.5069 -0.4250  0.2266
  871MPD2    C512834   1.395   1.600  16.304 -0.3150 -0.2167  0.1576
  871MPD2     H12835   1.179   1.485  16.596 -0.1325 -1.0558  0.8929
  871MPD2    H112836   1.358   1.406  16.224 -1.6921 -0.7278  0.4482
  871MPD2    H212837   1.429   1.773  16.409 -1.2186  0.4677 -0.6108
  871MPD2    H312838   1.451   1.638  16.220  1.2360 -2.9403 -0.0110
  871MPD2     N12839   1.227   1.298  16.400  0.1547  0.4302  0.3098
  871MPD2    H512840   1.256   1.249  16.316 -1.0208 -0.4329  0.4000
  871MPD2    N112841   1.283   1.732  16.624  0.9133 -0.6134 -0.1800
  871MPD2    H712842   1.314   1.827  16.605 -0.1981  0.0069  1.1626
  872MPD2     C12843   2.065   3.701  14.031  0.9961 -0.7715 -0.1557
  872MPD2    C112844   2.075   3.841  14.041  0.2841  0.6577  0.4690
  872MPD2    C212845   1.973   3.919  14.095 -0.1397  0.2186  0.5473
  872MPD2    C312846   1.860   3.856  14.145 -0.7620  0.6286 -0.2759
  872MPD2    C412847   1.847   3.720  14.125  0.4230  0.1023  0.3274
  872MPD2    C512848   1.945   3.641  14.068 -0.2405  0.0876  0.1690
  872MPD2     H12849   1.970   4.027  14.095  1.4376  0.2556 -0.4764
  872MPD2    H112850   1.767   3.668  14.176 -0.5352  1.2006 -0.0396
  872MPD2    H212851   2.135   3.630  13.989  0.3330 -0.1105 -2.4111
  872MPD2    H312852   1.953   3.534  14.081 -2.0268  0.1896  2.1218
  872MPD2     N12853   1.752   3.940  14.192 -0.0632  0.5021  0.3936
  872MPD2    H512854   1.773   4.034  14.225  0.0988  1.0565 -1.2965
  872MPD2    N112855   2.190   3.907  13.985 -0.4497  0.0820 -0.0891
  872MPD2    H712856   2.197   4.008  13.986 -0.9652  0.1381 -1.7393
  873MPD2     C12857   4.407   3.950   1.309  0.3400 -0.2826  0.2269
  873MPD2    C112858   4.281   3.926   1.273 -0.3729 -0.5969 -0.6593
  873MPD2    C212859   4.233   3.798   1.262  0.0580  0.1405  0.3150
  873MPD2    C312860   4.323   3.687   1.277  0.4448  0.3130 -0.3603
  873MPD2    C412861   4.446   3.717   1.319 -0.2102  0.2897 -0.1632
  873MPD2    C512862   4.496   3.846   1.333 -0.3343  0.1516 -0.2849
  873MPD2     H12863   4.127   3.779   1.255 -0.0255  0.1893  1.5138
  873MPD2    H112864   4.504   3.634   1.357 -1.2928  0.5494  2.0687
  873MPD2    H212865   4.448   4.049   1.329  0.0521 -0.5890  2.3853
  873MPD2    H312866   4.595   3.860   1.374  0.3061 -2.6667 -0.8549
  873MPD2     N12867   4.279   3.554   1.269 -0.2390  0.3773 -0.3565
  873MPD2    H512868   4.355   3.490   1.289 -1.7014 -1.2245  0.1730
  873MPD2    N112869   4.195   4.039   1.255 -0.0947  0.5784 -0.0639
  873MPD2    H712870   4.248   4.125   1.258  0.2149  0.3750  0.2678
  874MPD2     C12871   3.410   3.708  15.955  0.4859  0.1567 -0.0830
  874MPD2    C112872   3.530   3.684  16.022 -0.5779  0.1175  0.4447
  874MPD2    C212873   3.642   3.735  15.966  0.3758  0.4288 -0.6398
  874MPD2    C312874   3.635   3.814  15.854  0.8159 -0.2409  0.3789
  874MPD2    C412875   3.514   3.837  15.790 -0.1899 -0.3556  0.5602
  874MPD2    C512876   3.402   3.787  15.844 -0.4944 -0.0974  0.6397
  874MPD2     H12877   3.745   3.721  15.999 -0.1429 -3.1221 -0.5168
  874MPD2    H112878   3.505   3.912  15.712 -1.6943  1.2261  2.2485
  874MPD2    H212879   3.318   3.661  15.988  0.7491 -1.1923 -1.2796
  874MPD2    H312880   3.304   3.805  15.802  0.3704 -1.4376 -1.9107
  874MPD2     N12881   3.753   3.867  15.804  0.2749  0.1667 -0.5260
  874MPD2    H512882   3.833   3.848  15.864 -0.0999  1.6878  0.4527
  874MPD2    N112883   3.540   3.612  16.133 -0.3655 -0.1790  0.5510
  874MPD2    H712884   3.466   3.544  16.152 -0.9918  0.3752  0.1091
  875MPD2     C12885   4.417   2.428  14.564 -0.4066 -0.2043  0.2144
  875MPD2    C112886   4.544   2.455  14.517 -0.5441  0.1337  0.2330
  875MPD2    C212887   4.644   2.447  14.614  1.2742  0.9386  0.8859
  875MPD2    C312888   4.618   2.410  14.744  0.8200  0.4605 -0.0076
  875MPD2    C412889   4.487   2.380  14.786  0.9671 -0.6511 -0.1518
  875MPD2    C512890   4.384   2.402  14.695  0.3256  0.8649  0.1356
  875MPD2     H12891   0.008   2.452  14.575  0.8639 -0.7085 -0.3836
  875MPD2    H112892   4.468   2.359  14.891 -0.5099  0.5808 -0.1764
  875MPD2    H212893   4.337   2.431  14.490 -0.8165 -1.3144  0.6008
  875MPD2    H312894   4.281   2.383  14.725  0.1635  2.1858  0.4578
  875MPD2     N12895   4.715   2.418  14.847 -0.4168  0.5496  0.2090
  875MPD2    H512896   4.675   2.397  14.937 -1.5610 -2.2278 -0.9427
  875MPD2    N112897   4.572   2.483  14.381 -0.2762  0.1786  0.4468
  875MPD2    H712898   4.664   2.491  14.339 -0.1718 -2.5579  0.1027
  876MPD2     C12899   3.701   3.655  15.458 -0.2756 -0.2514  0.1252
  876MPD2    C112900   3.834   3.637  15.442  0.3135 -0.1198 -0.0313
  876MPD2    C212901   3.906   3.567  15.539  0.1864 -0.2012 -0.9799
  876MPD2    C312902   3.839   3.522  15.653 -0.6122  0.2244 -0.7701
  876MPD2    C412903   3.705   3.545  15.666  0.4673  0.2664  0.2890
  876MPD2    C512904   3.640   3.614  15.570 -0.1485 -0.0451 -0.7037
  876MPD2     H12905   4.008   3.539  15.516  0.0890 -0.7351 -0.7462
  876MPD2    H112906   3.640   3.523  15.750  0.3708  0.2267  0.2037
  876MPD2    H212907   3.633   3.712  15.395  2.9839  3.1521 -0.3407
  876MPD2    H312908   3.534   3.636  15.576 -0.1186  0.2887 -1.4310
  876MPD2     N12909   3.916   3.438  15.740  0.5938  0.5499  0.3403
  876MPD2    H512910   4.013   3.416  15.723 -0.1729 -3.3675  1.1875
  876MPD2    N112911   3.897   3.671  15.317 -0.1375  0.2783 -0.3748
  876MPD2    H712912   3.831   3.699  15.245 -0.1008  0.3363 -0.3861
  877MPD2     C12913   4.377   4.097  14.728  0.0176  0.6407 -0.6797
  877MPD2    C112914   4.247   4.047  14.718  0.3647  0.7200  0.7150
  877MPD2    C212915   4.179   4.073  14.595 -0.3109 -0.8350  0.1909
  877MPD2    C312916   4.229   4.154  14.491 -0.0265 -0.2360  0.0231
  877MPD2    C412917   4.357   4.198  14.513  0.3089  0.2828  0.8759
  877MPD2    C512918   4.427   4.168  14.626 -0.3956  0.1950  0.4507
  877MPD2     H12919   4.091   4.012  14.578 -1.9045  1.9040 -1.2959
  877MPD2    H112920   4.409   4.248  14.432 -1.9785  0.7609 -0.3231
  877MPD2    H212921   4.441   4.099  14.816  1.2085 -1.8328 -1.4953
  877MPD2    H312922   4.521   4.223  14.628  0.4672 -1.2521 -0.6832
  877MPD2     N12923   4.161   4.174  14.366  0.2396 -0.1233 -0.0317
  877MPD2    H512924   4.219   4.192  14.284 -1.8402  0.8626 -1.2653
  877MPD2    N112925   4.185   3.961  14.813  0.0206  0.4173 -0.1424
  877MPD2    H712926   4.088   3.937  14.792  0.0407  1.3073 -1.2231
  878MPD2     C12927   3.449   3.171  12.749  0.5851 -0.4775 -0.0887
  878MPD2    C112928   3.522   3.286  12.766 -0.0481  0.1535  0.1623
  878MPD2    C212929   3.463   3.396  12.827 -0.3957 -0.4593  0.6961
  878MPD2    C312930   3.348   3.377  12.907  0.2431  0.5898 -0.5789
  878MPD2    C412931   3.284   3.252  12.909  0.2991 -0.2350 -1.1400
  878MPD2    C512932   3.337   3.155  12.824  0.4152 -0.3086 -0.3144
  878MPD2     H12933   3.509   3.494  12.832  1.6448 -1.3642 -0.3912
  878MPD2    H112934   3.191   3.238  12.963  0.3103 -1.6240 -1.4572
  878MPD2    H212935   3.485   3.094  12.681 -1.9296  0.3183 -2.3497
  878MPD2    H312936   3.277   3.065  12.814  0.1969 -0.4016  1.7123
  878MPD2     N12937   3.290   3.486  12.975  0.3148 -0.0537  0.0846
  878MPD2    H512938   3.335   3.575  12.953  0.2111 -0.1637 -0.5620
  878MPD2    N112939   3.631   3.295  12.677 -0.2218 -0.5311 -0.1606
  878MPD2    H712940   3.643   3.222  12.608 -0.6374  0.7750 -1.6250
  879MPD2     C12941   3.791   4.650  16.565  0.4524  0.1224  0.2030
  879MPD2    C112942   3.826   4.529  16.617  0.0814  0.4593 -0.2317
  879MPD2    C212943   3.772   4.416  16.553  0.5513  0.0274  0.8594
  879MPD2    C312944   3.671   4.419  16.457  0.4424  0.0546 -0.0145
  879MPD2    C412945   3.637   4.542  16.410 -0.1221 -0.3758  0.1644
  879MPD2    C512946   3.699   4.656  16.463 -0.4627 -0.0679 -0.0195
  879MPD2     H12947   3.811   4.319  16.582  0.3520 -0.6642 -1.1843
  879MPD2    H112948   3.560   4.561  16.337 -0.5351 -0.7424  0.5101
  879MPD2    H212949   3.828   0.003  16.611  3.2933 -1.5314  1.1855
  879MPD2    H312950   3.673   0.021  16.436 -1.8929 -1.0667 -2.4512
  879MPD2     N12951   3.602   4.306  16.400  0.3904 -0.2726  0.5641
  879MPD2    H512952   3.536   4.323  16.324  1.6538  1.7838 -0.0733
  879MPD2    N112953   3.921   4.522  16.728 -0.7945 -0.0021  0.1302
  879MPD2    H712954   3.973   4.606  16.750 -1.2328 -0.3113  2.3126
  880MPD2     C12955   0.161   1.552   0.108  0.2207  0.6980 -0.3280
  880MPD2    C112956   0.247   1.598   0.204  0.3793 -0.3655  0.5841
  880MPD2    C212957   0.348   1.519   0.254  0.0193  0.4857  1.4741
  880MPD2    C312958   0.363   1.390   0.207  0.6598 -0.3897  0.1017
  880MPD2    C412959   0.280   1.344   0.110 -0.6492 -0.2425  0.3259
  880MPD2    C512960   0.184   1.429   0.057 -0.2115 -0.1058 -0.4773
  880MPD2     H12961   0.416   1.559   0.328  1.5499 -2.2647  1.5550
  880MPD2    H112962   0.290   1.242   0.075  1.3821  0.8224 -2.1430
  880MPD2    H212963   0.086   1.615   0.061  3.7726  3.6476 -2.1164
  880MPD2    H312964   0.122   1.410  17.718 -2.9308  0.8816  1.2474
  880MPD2     N12965   0.467   1.319   0.262 -0.1495  0.2188  0.5307
  880MPD2    H512966   0.519   1.364   0.336 -2.4343 -1.4868  3.2008
  880MPD2    N112967   0.230   1.731   0.241  0.1061 -0.3870 -0.5120
  880MPD2    H712968   0.147   1.777   0.205  1.0896  1.7435 -0.0587
  881MPD2     C12969   0.262   2.692  17.634  0.3893 -0.6180 -0.5074
  881MPD2    C112970   0.297   2.562  17.592  0.3702  0.5042 -0.7998
  881MPD2    C212971   0.301   2.464  17.691  0.3485  0.2356  0.0144
  881MPD2    C312972   0.253   2.482   0.069 -0.4681  0.2086 -0.2727
  881MPD2    C412973   0.224   2.614   0.110 -0.7539  0.2392 -0.3031
  881MPD2    C512974   0.224   2.715   0.021  0.4904  0.3570 -0.5038
  881MPD2     H12975   0.317   2.366  17.648  0.5311 -0.0578  0.7462
  881MPD2    H112976   0.193   2.628   0.213 -0.0640 -1.0733  0.0860
  881MPD2    H212977   0.253   2.768  17.557 -1.3135 -1.7752 -1.4401
  881MPD2    H312978   0.178   2.809   0.049  1.1326 -0.1487  2.3087
  881MPD2     N12979   0.230   2.376   0.159  0.5684 -0.1883 -0.5178
  881MPD2    H512980   0.182   2.410   0.242  2.1475  0.2925  0.2000
  881MPD2    N112981   0.360   2.553  17.463 -0.1528 -0.8047  0.2806
  881MPD2    H712982   0.350   2.637  17.406 -0.4101  0.2891  1.9162
  882MPD2     C12983   3.653   3.664  13.917  0.0690 -0.2354 -0.4184
  882MPD2    C112984   3.627   3.784  13.970  0.1593 -0.7854 -0.8716
  882MPD2    C212985   3.499   3.808  14.016 -0.7133 -0.1274 -0.4591
  882MPD2    C312986   3.404   3.708  14.026  0.5228  0.2279  0.2477
  882MPD2    C412987   3.430   3.592  13.969  0.4495  0.3706  0.3276
  882MPD2    C512988   3.555   3.571  13.919 -0.6255 -0.6615  0.3043
  882MPD2     H12989   3.463   3.900  14.060 -0.9798  0.2477 -1.4546
  882MPD2    H112990   3.362   3.508  13.974 -0.1391  0.8601  0.5573
  882MPD2    H212991   3.749   3.651  13.868  1.1446 -1.0420  1.8687
  882MPD2    H312992   3.578   3.478  13.867  0.4930  1.1834 -2.5067
  882MPD2     N12993   3.276   3.735  14.073  0.2336  0.0214  0.1970
  882MPD2    H512994   3.218   3.652  14.065 -0.0296  0.2435 -0.1798
  882MPD2    N112995   3.729   3.881  13.969  0.0882  0.5749 -0.0789
  882MPD2    H712996   3.814   3.859  13.918  1.3404  1.3718  1.6691
  883MPD2     C12997   0.846   3.456  15.945  0.3476  0.3449 -0.9316
  883MPD2    C112998   0.911   3.557  15.883  0.1255  0.7750  0.4159
  883MPD2    C212999   1.005   3.627  15.954 -0.3066 -0.4896 -0.7321
  883MPD2    C313000   1.022   3.614  16.091  0.2851 -0.2394 -0.4711
  883MPD2    C413001   0.938   3.515  16.153  0.5461  0.1555 -0.2783
  883MPD2    C513002   0.862   3.432  16.080  0.1365 -0.3553  0.0625
  883MPD2     H13003   1.064   3.702  15.903  0.8140 -1.2313 -0.5314
  883MPD2    H113004   0.938   3.496  16.259  1.2814 -1.4936 -0.5665
  883MPD2    H213005   0.790   3.388  15.881  2.6158 -1.4381 -1.0078
  883MPD2    H313006   0.813   3.347  16.127 -1.4037  0.2697 -0.4054
  883MPD2     N13007   1.108   3.702  16.155 -0.3806  0.0155 -0.1540
  883MPD2    H513008   1.164   3.771  16.106 -1.0912  1.6165  1.2782
  883MPD2    N113009   0.907   3.575  15.738  0.1548 -0.1626 -0.5165
  883MPD2    H713010   0.979   3.638  15.704 -1.7915  1.4480 -1.6368
  884MPD2     C13011   2.705   4.460  14.824 -0.3612 -0.6753  0.2566
  884MPD2    C113012   2.643   4.541  14.728  0.3789 -0.3650 -0.9756
  884MPD2    C213013   2.512   4.578  14.756  0.5408  0.5956 -0.3384
  884MPD2    C313014   2.445   4.536  14.871 -0.1161 -0.0469  0.3125
  884MPD2    C413015   2.512   4.449  14.958 -0.2421 -0.8840  0.0937
  884MPD2    C513016   2.642   4.422  14.938 -0.2344 -0.4297 -0.0048
  884MPD2     H13017   2.458   4.635  14.681  1.1208  0.3367 -0.9488
  884MPD2    H113018   2.472   4.396  15.044  1.9609  1.3607  2.4860
  884MPD2    H213019   2.804   4.418  14.807 -0.8590 -1.1442 -1.3880
  884MPD2    H313020   2.688   4.350  15.005  0.6885 -0.1988 -0.3958
  884MPD2     N13021   2.311   4.584  14.891  0.1802  0.2718 -0.3433
  884MPD2    H513022   2.256   4.623  14.815  0.3652  1.9453  0.3966
  884MPD2    N113023   2.710   4.588  14.610 -0.2705 -0.7931 -0.4725
  884MPD2    H713024   2.662   4.661  14.558  0.0010  0.6318  1.2635
  885MPD2     C13025   0.638   0.768   0.188 -0.0173  0.5160  0.0951
  885MPD2    C113026   0.757   0.696   0.157  0.1461  0.6319  0.9189
  885MPD2    C213027   0.768   0.656   0.023 -0.3587 -0.0324 -0.0968
  885MPD2    C313028   0.671   0.669  17.680  0.3067  0.3037  0.8349
  885MPD2    C413029   0.544   0.721  17.716  0.8025  0.0990 -0.7536
  885MPD2    C513030   0.534   0.772   0.098  0.0492  0.1116 -0.0857
  885MPD2     H13031   0.864   0.614  17.743  0.5810  2.2184 -0.2533
  885MPD2    H113032   0.462   0.733  17.646  0.0195 -0.3189  0.1000
  885MPD2    H213033   0.621   0.813   0.286  2.5867  1.3015  0.1863
  885MPD2    H313034   0.440   0.822   0.119  1.0387  1.7637  0.3828
  885MPD2     N13035   0.688   0.615  17.556 -0.0226  0.0627 -0.0124
  885MPD2    H513036   0.776   0.566  17.553  1.6190  2.9425  1.0114
  885MPD2    N113037   0.865   0.682   0.251  0.2576 -0.6620 -0.3248
  885MPD2    H713038   0.844   0.703   0.348 -3.1757 -0.9891 -0.9947
  886MPD2     C13039   2.232   3.338  15.112 -0.1180 -0.4968  1.0605
  886MPD2    C113040   2.357   3.334  15.052  0.1038  1.1630  0.4445
  886MPD2    C213041   2.382   3.436  14.967  0.6153  0.1175  0.6531
  886MPD2    C313042   2.294   3.538  14.941  0.4202 -0.0592  0.3213
  886MPD2    C413043   2.167   3.533  14.998  0.4674  0.0997 -0.1249
  886MPD2    C513044   2.141   3.431  15.077 -0.3544 -0.0090 -0.3417
  886MPD2     H13045   2.479   3.444  14.919 -0.0398  0.9417 -0.5410
  886MPD2    H113046   2.082   3.592  14.965 -0.3752  0.1527  2.1122
  886MPD2    H213047   2.176   3.265  15.168 -1.1064 -0.0681  0.6364
  886MPD2    H313048   2.038   3.419  15.110 -0.3285 -1.3786 -0.7509
  886MPD2     N13049   2.344   3.642  14.852  0.2098  0.0382  0.4681
  886MPD2    H513050   2.443   3.635  14.832  0.4142  1.1142  1.0859
  886MPD2    N113051   2.455   3.231  15.067  0.2408  0.5369  0.3054
  886MPD2    H713052   2.543   3.246  15.019 -0.2584  0.3446 -0.6704
  887MPD2     C13053   3.183   3.174  15.076  0.3856 -0.5907 -0.5494
  887MPD2    C113054   3.052   3.225  15.053 -0.4594 -0.2169  0.1517
  887MPD2    C213055   3.034   3.352  14.992  0.0473 -0.3845  0.5605
  887MPD2    C313056   3.147   3.422  14.951  0.4722 -0.5520 -0.0262
  887MPD2    C413057   3.273   3.366  14.958  0.2115 -0.1795 -0.4186
  887MPD2    C513058   3.288   3.251  15.030  0.3996 -0.0367 -0.9521
  887MPD2     H13059   2.936   3.399  14.985  0.8057  1.0256 -0.7042
  887MPD2    H113060   3.361   3.424  14.933  0.4431 -0.5319 -0.4311
  887MPD2    H213061   3.201   3.090  15.143 -0.1298  1.4971  2.2215
  887MPD2    H313062   3.386   3.205  15.040  2.1705  4.0245  0.0182
  887MPD2     N13063   3.120   3.554  14.910  0.2935  0.3579 -0.2929
  887MPD2    H513064   3.025   3.590  14.920  0.0570 -0.2942 -0.1747
  887MPD2    N113065   2.933   3.159  15.091 -0.3810 -0.3622 -0.0274
  887MPD2    H713066   2.846   3.210  15.074  0.1901  0.4017 -0.6467
  888MPD2     C13067   0.016   3.340  14.599 -0.3530  0.3203  0.5992
  888MPD2    C113068   4.686   3.390  14.710  0.6224  0.4991 -0.2180
  888MPD2    C213069   4.694   3.528  14.742  0.1912  0.1712  0.5550
  888MPD2    C313070   0.017   3.620  14.656 -0.3475  0.1681  0.5354
  888MPD2    C413071   0.079   3.565  14.543 -0.8832 -0.7191 -0.2172
  888MPD2    C513072   0.067   3.431  14.514  0.0905 -0.0205  0.3431
  888MPD2     H13073   4.650   3.571  14.831 -0.8428  0.9023 -0.3125
  888MPD2    H113074   0.135   3.619  14.467 -0.6050 -0.9749 -0.1928
  888MPD2    H213075   0.012   3.240  14.557 -1.3387  0.9880 -0.8763
  888MPD2    H313076   0.100   3.389  14.420 -1.1938 -0.6250  0.1547
  888MPD2     N13077   4.736   3.757  14.681 -0.0906 -0.2556  0.0397
  888MPD2    H513078   4.687   3.792  14.763 -0.5934 -1.0851  0.0897
  888MPD2    N113079   4.604   3.301  14.785  0.0344 -0.4686 -0.2359
  888MPD2    H713080   4.568   3.327  14.876  0.6570 -0.1986 -0.0725
  889MPD2     C13081   4.254   3.257  12.571 -0.3133  0.5887  0.4226
  889MPD2    C113082   4.272   3.258  12.708 -0.1057  0.1220 -0.2388
  889MPD2    C213083   4.209   3.355  12.776 -0.0984 -0.1727 -0.6108
  889MPD2    C313084   4.162   3.471  12.719 -0.3135  0.1336  0.2625
  889MPD2    C413085   4.171   3.479  12.584 -0.1267  0.0361  0.2435
  889MPD2    C513086   4.217   3.370  12.508 -0.9025 -0.6980  0.0444
  889MPD2     H13087   4.226   3.366  12.882 -2.3306  1.4612 -0.4177
  889MPD2    H113088   4.148   3.570  12.529 -0.0091 -1.0481 -1.5746
  889MPD2    H213089   4.295   3.176  12.510  0.6297  0.9817  0.5269
  889MPD2    H313090   4.230   3.391  12.403  0.5886 -0.3428  0.3016
  889MPD2     N13091   4.113   3.577  12.800  0.0845 -0.0638 -0.2106
  889MPD2    H513092   4.122   3.572  12.901  1.5971 -0.6515 -0.3848
  889MPD2    N113093   4.330   3.147  12.761  0.2363  0.1788  0.3344
  889MPD2    H713094   4.371   3.078  12.698 -0.1467 -1.1519  1.5406
  890MPD2     C13095   3.453   0.289  14.252  0.0437 -0.0210 -0.4097
  890MPD2    C113096   3.562   0.348  14.305  1.0425  0.6189 -0.8842
  890MPD2    C213097   3.670   0.261  14.339 -0.2970 -0.0927 -0.0931
  890MPD2    C313098   3.664   0.123  14.324  0.5292 -0.9121 -0.0689
  890MPD2    C413099   3.550   0.076  14.265  0.1289 -0.5434 -0.8322
  890MPD2    C513100   3.446   0.157  14.229  0.4951 -0.5344 -0.4901
  890MPD2     H13101   3.760   0.308  14.377 -0.2718  0.5347 -0.9095
  890MPD2    H113102   3.532   4.707  14.254  1.3739 -0.8537  0.1383
  890MPD2    H213103   3.368   0.351  14.230 -0.2613 -0.8624 -1.5844
  890MPD2    H313104   3.354   0.108  14.202 -0.3693 -0.3283  2.1567
  890MPD2     N13105   3.761   0.036  14.370 -0.0609  1.2032 -0.5734
  890MPD2    H513106   3.835   0.078  14.426  0.0662 -1.5990  1.3228
  890MPD2    N113107   3.563   0.490  14.331 -0.5505  0.0991 -0.1481
  890MPD2    H713108   3.479   0.542  14.309  0.7782  0.6432 -3.9407
  891MPD2     C13109   1.580   2.921  16.617  0.0848  0.4170  0.0441
  891MPD2    C113110   1.596   3.056  16.621 -0.0471  0.9373 -0.1086
  891MPD2    C213111   1.725   3.106  16.647 -0.4541  0.3047  1.1834
  891MPD2    C313112   1.830   3.020  16.667 -0.2417 -0.5239 -0.7536
  891MPD2    C413113   1.810   2.884  16.645 -0.7549 -0.8547  0.3757
  891MPD2    C513114   1.683   2.833  16.619  0.2254 -0.1092  0.4096
  891MPD2     H13115   1.749   3.212  16.648 -3.7711  1.0822  0.1099
  891MPD2    H113116   1.885   2.810  16.672  0.1088 -0.2352 -0.3119
  891MPD2    H213117   1.483   2.883  16.587 -1.1439  2.6249  1.2725
  891MPD2    H313118   1.672   2.725  16.614  0.2605 -0.1117  0.3905
  891MPD2     N13119   1.955   3.072  16.710 -0.3445  0.4102  0.5900
  891MPD2    H513120   1.964   3.170  16.736 -2.1222  0.2708  1.6520
  891MPD2    N113121   1.482   3.135  16.584  0.2986 -0.2925 -0.3581
  891MPD2    H713122   1.394   3.086  16.570 -0.1662  0.6480 -0.8001
  892MPD2     C13123   2.675   4.529  14.223 -0.1150  0.3342 -0.1115
  892MPD2    C113124   2.627   4.426  14.303 -0.2692  0.0841 -0.5030
  892MPD2    C213125   2.681   4.303  14.273 -0.1874 -0.0869  0.0875
  892MPD2    C313126   2.792   4.292  14.198 -0.3856 -0.5351  0.3892
  892MPD2    C413127   2.842   4.402  14.128  0.2220 -0.1729 -0.0365
  892MPD2    C513128   2.789   4.525  14.147 -0.5062 -0.3181 -1.5030
  892MPD2     H13129   2.653   4.219  14.336 -1.2849 -0.7315 -1.2635
  892MPD2    H113130   2.939   4.406  14.079 -0.4105  2.4081 -1.0871
  892MPD2    H213131   2.632   4.628  14.229 -0.8898 -0.1369  2.2571
  892MPD2    H313132   2.842   4.609  14.103  0.4032  0.1009  0.4168
  892MPD2     N13133   2.856   4.165  14.175  0.6514 -0.2574  0.1733
  892MPD2    H513134   2.941   4.168  14.120  0.9116 -2.9285  0.4185
  892MPD2    N113135   2.517   4.446  14.386 -0.2807 -0.3297 -0.0103
  892MPD2    H713136   2.469   4.535  14.373  1.8048  0.7818 -0.1182
  893MPD2     C13137   4.050   2.865   1.704 -0.2284  0.1605  0.1986
  893MPD2    C113138   4.005   2.810   1.587 -0.2205  0.9259 -0.2220
  893MPD2    C213139   3.868   2.811   1.569  0.3786  0.1835 -0.1086
  893MPD2    C313140   3.781   2.847   1.669 -0.1626 -0.7499  0.3468
  893MPD2    C413141   3.830   2.874   1.798  0.0715  0.3141 -0.1645
  893MPD2    C513142   3.964   2.880   1.814 -0.0161 -0.1222 -0.5214
  893MPD2     H13143   3.826   2.797   1.470 -0.4542 -0.0598  0.2767
  893MPD2    H113144   3.759   2.897   1.877  0.9965 -1.7299  1.2711
  893MPD2    H213145   4.157   2.880   1.712 -0.1266  0.1477 -1.2956
  893MPD2    H313146   4.002   2.892   1.915 -2.4787 -0.0781  0.3796
  893MPD2     N13147   3.643   2.866   1.647 -0.2620 -0.6478 -0.2462
  893MPD2    H513148   3.590   2.911   1.721 -0.4351  0.5934 -1.1227
  893MPD2    N113149   4.099   2.789   1.487 -0.6543 -0.5001 -0.3053
  893MPD2    H713150   4.197   2.808   1.504 -1.0092  0.1387  0.9855
  894MPD2     C13151   2.435   4.683   0.930  1.2111  0.4761  0.3894
  894MPD2    C113152   2.419   0.049   1.018  0.4905 -0.3264  0.1454
  894MPD2    C213153   2.494   0.165   0.998  0.6005  0.9294 -0.3501
  894MPD2    C313154   2.562   0.181   0.883  0.0674  0.2453 -0.2219
  894MPD2    C413155   2.556   0.086   0.786  0.1632  0.5408 -0.0402
  894MPD2    C513156   2.493   4.710   0.810 -0.4281  0.0325 -0.2262
  894MPD2     H13157   2.506   0.233   1.082 -1.8947 -1.0224  1.6051
  894MPD2    H113158   2.598   0.098   0.687  0.7027 -1.8407 -0.0858
  894MPD2    H213159   2.385   4.590   0.951  1.7617  0.3951  1.3790
  894MPD2    H313160   2.480   4.635   0.733  0.0487 -2.0352  1.7041
  894MPD2     N13161   2.643   0.303   0.869  0.1020  0.5690 -0.2454
  894MPD2    H513162   2.631   0.368   0.946 -1.8671  2.5072 -2.1510
  894MPD2    N113163   2.341   0.042   1.134  0.3900 -0.3160  0.8969
  894MPD2    H713164   2.337   0.118   1.202 -1.2503 -1.0077  1.5597
  895MPD2     C13165   1.753   3.513  13.532 -0.3257 -0.9746  0.0086
  895MPD2    C113166   1.673   3.402  13.557  0.2076  0.1416  0.1417
  895MPD2    C213167   1.725   3.270  13.525 -0.1014  0.3006 -0.7021
  895MPD2    C313168   1.834   3.266  13.444  0.0950 -0.7622  0.3910
  895MPD2    C413169   1.913   3.375  13.424  0.7810  0.1690 -0.4386
  895MPD2    C513170   1.874   3.500  13.467  0.5921 -0.0434 -0.1802
  895MPD2     H13171   1.665   3.182  13.544 -0.5061  0.7203 -0.0265
  895MPD2    H113172   2.010   3.379  13.374  0.6075  1.1122 -0.6982
  895MPD2    H213173   1.713   3.608  13.566  0.7628  0.1449 -1.8457
  895MPD2    H313174   1.925   3.590  13.436 -1.2351  1.5770  1.4764
  895MPD2     N13175   1.868   3.133  13.393 -0.1503  0.1270 -0.0637
  895MPD2    H513176   1.785   3.075  13.384  0.3591 -0.6864  0.5067
  895MPD2    N113177   1.544   3.398  13.608 -0.2598  0.0736  0.0279
  895MPD2    H713178   1.513   3.302  13.625 -1.5337  0.7090  1.2602
  896MPD2     C13179   4.044   1.250   1.491 -0.2595 -0.3595  0.2981
  896MPD2    C113180   4.043   1.188   1.370  0.0331  0.1814  0.0031
  896MPD2    C213181   3.935   1.109   1.323  0.2684  0.9306  0.0932
  896MPD2    C313182   3.828   1.092   1.409  0.1863 -0.3623  0.0304
  896MPD2    C413183   3.833   1.152   1.538 -0.0338 -0.0577 -0.5623
  896MPD2    C513184   3.935   1.234   1.568 -0.1706  0.2564  0.3526
  896MPD2     H13185   3.930   1.058   1.227  1.7259 -0.1698  0.5927
  896MPD2    H113186   3.748   1.134   1.603 -1.1072 -0.6073 -2.0990
  896MPD2    H213187   4.122   1.316   1.527 -0.7145  0.5256 -0.3343
  896MPD2    H313188   3.931   1.283   1.664 -0.9914  0.3928  0.2557
  896MPD2     N13189   3.718   1.014   1.362  0.0289  0.2198 -0.2799
  896MPD2    H513190   3.728   0.975   1.269  0.3138 -0.9091  0.2202
  896MPD2    N113191   4.158   1.223   1.284 -0.1465 -0.0726  0.1703
  896MPD2    H713192   4.231   1.283   1.321 -0.8693  0.7855  0.1973
  897MPD2     C13193   4.615   2.084  10.561  0.5911  0.3227 -0.0925
  897MPD2    C113194   4.624   2.218  10.553 -0.6245  0.5275 -0.2880
  897MPD2    C213195   4.579   2.302  10.661 -0.3532  1.0863 -0.3805
  897MPD2    C313196   4.510   2.243  10.760  0.8889  0.1571  0.8021
  897MPD2    C413197   4.495   2.105  10.769  0.7178  0.6787 -0.1502
  897MPD2    C513198   4.553   2.025  10.671 -0.1761 -0.0474 -0.0794
  897MPD2     H13199   4.572   2.411  10.662 -1.2936  1.0089  1.2087
  897MPD2    H113200   4.445   2.054  10.850  0.3302  1.3733  0.0509
  897MPD2    H213201   4.660   2.018  10.488  0.4263 -0.1691  0.2402
  897MPD2    H313202   4.546   1.917  10.672 -1.4166  0.0306  0.3027
  897MPD2     N13203   4.459   2.325  10.868 -0.0280 -0.6622  0.7102
  897MPD2    H513204   4.464   2.426  10.857 -1.3129 -0.7488 -0.6873
  897MPD2    N113205   4.702   2.277  10.446 -0.2613  0.2673 -0.3455
  897MPD2    H713206   4.713   2.234  10.355  3.5780  0.6363 -0.0487
  898MPD2     C13207   2.085   3.555   0.288  0.2675 -0.0066 -0.4719
  898MPD2    C113208   2.173   3.622   0.207  0.3419  0.1676  0.1381
  898MPD2    C213209   2.118   3.690   0.101  0.6402  0.1698  0.0871
  898MPD2    C313210   1.983   3.715   0.086  0.8525  0.3640 -0.2121
  898MPD2    C413211   1.900   3.639   0.160 -0.0200 -0.1356 -0.7060
  898MPD2    C513212   1.955   3.559   0.261  0.4325 -0.4246  0.0557
  898MPD2     H13213   2.190   3.739   0.036 -2.0017  1.0914 -2.1309
  898MPD2    H113214   1.792   3.631   0.163 -0.1455  2.0119  0.7578
  898MPD2    H213215   2.120   3.496   0.372 -0.6364 -1.2311 -0.9656
  898MPD2    H313216   1.889   3.502   0.325  1.1627 -0.6726  0.5924
  898MPD2     N13217   1.938   3.799  17.724  0.0122 -0.1038 -0.5149
  898MPD2    H513218   2.002   3.852  17.665 -0.3436 -0.0538 -0.8567
  898MPD2    N113219   2.310   3.628   0.243  0.0628  0.9173 -0.2813
  898MPD2    H713220   2.372   3.679   0.180 -0.6417  0.4205 -1.3773
  899MPD2     C13221   3.126   3.931  17.074  0.7545  0.1874  0.4644
  899MPD2    C113222   3.204   4.007  17.163  0.0128  0.9269  0.5178
  899MPD2    C213223   3.177   4.013  17.301  0.0656  0.6310  0.1254
  899MPD2    C313224   3.076   3.942  17.354  0.0067 -0.3675 -0.0924
  899MPD2    C413225   3.000   3.862  17.270 -0.3792  0.4093 -1.0509
  899MPD2    C513226   3.023   3.855  17.133  0.8092 -1.0510 -0.5705
  899MPD2     H13227   3.232   4.084  17.362  1.4088 -0.0056 -0.3555
  899MPD2    H113228   2.920   3.800  17.309 -1.2098  0.5065 -2.6113
  899MPD2    H213229   3.151   3.920  16.969  1.8476 -0.0764  0.7553
  899MPD2    H313230   2.966   3.796  17.062  0.6709 -0.9127 -0.5758
  899MPD2     N13231   3.029   3.953  17.488 -0.5391  0.5997  0.5843
  899MPD2    H513232   2.955   3.897  17.530 -1.3041  0.6345 -0.7269
  899MPD2    N113233   3.309   4.088  17.099 -0.0762 -0.0914  0.4447
  899MPD2    H713234   3.308   4.088  16.998  0.7918 -0.1467  0.4368
  900MPD2     C13235   3.091   1.369  12.476  0.2575 -0.5181 -0.2594
  900MPD2    C113236   3.004   1.268  12.453  0.3988 -0.2813 -0.0430
  900MPD2    C213237   2.868   1.306  12.435 -0.0477 -0.2442 -0.2677
  900MPD2    C313238   2.821   1.431  12.449  0.7178 -0.3923  0.3464
  900MPD2    C413239   2.911   1.532  12.476 -0.3829  0.2198 -0.4612
  900MPD2    C513240   3.044   1.499  12.484 -0.1402 -0.6047 -0.4972
  900MPD2     H13241   2.804   1.224  12.405  1.7698 -1.0622 -1.8850
  900MPD2    H113242   2.889   1.637  12.491  0.4688 -0.2676  4.0421
  900MPD2    H213243   3.194   1.352  12.504 -0.1963 -2.1259  0.4065
  900MPD2    H313244   3.109   1.582  12.507 -1.5876  0.5656 -0.6608
  900MPD2     N13245   2.688   1.466  12.428 -0.1898 -0.2334  0.3590
  900MPD2    H513246   2.620   1.394  12.407 -1.8453  1.2108  0.8000
  900MPD2    N113247   3.055   1.136  12.460 -0.1563  0.1241  0.1388
  900MPD2    H713248   3.156   1.126  12.464  0.1055  2.1425 -1.1125
  901MPD2     C13249   2.879   0.088  12.775 -0.2785 -0.1564  0.5170
  901MPD2    C113250   3.004   0.091  12.714 -0.0228  0.5827  0.5310
  901MPD2    C213251   3.039   0.207  12.647 -0.1845 -0.5479  0.1983
  901MPD2    C313252   2.954   0.319  12.627 -0.1240  0.6796 -0.6690
  901MPD2    C413253   2.829   0.306  12.678 -0.0924  0.0520 -0.5597
  901MPD2    C513254   2.790   0.194  12.752  0.5696 -0.8822  0.5329
  901MPD2     H13255   3.140   0.215  12.608 -0.0722 -3.6642 -0.1797
  901MPD2    H113256   2.754   0.380  12.652  1.4092  0.9824 -2.2573
  901MPD2    H213257   2.839   0.003  12.828 -0.3316 -1.7575 -2.1330
  901MPD2    H313258   2.689   0.179  12.789 -0.1253 -1.0981 -1.4646
  901MPD2     N13259   3.015   0.441  12.581  0.0294 -0.5733  0.0291
  901MPD2    H513260   3.082   0.433  12.504 -0.0909 -0.4459 -0.0884
  901MPD2    N113261   3.093   4.714  12.721 -0.6239 -0.1287 -0.4332
  901MPD2    H713262   3.052   4.625  12.748 -1.5688 -0.3212 -2.4910
  902MPD2     C13263   1.694   3.656  12.762 -0.1350  0.4839  0.4539
  902MPD2    C113264   1.731   3.774  12.713  0.6853  0.0179 -0.2290
  902MPD2    C213265   1.864   3.789  12.674 -0.0300 -0.3669  0.4565
  902MPD2    C313266   1.957   3.690  12.682  0.0667 -0.3870 -0.1449
  902MPD2    C413267   1.921   3.574  12.750  0.0400 -0.4908  0.5427
  902MPD2    C513268   1.788   3.561  12.790 -0.3180 -1.1684 -0.6556
  902MPD2     H13269   1.893   3.873  12.613 -0.9626 -0.4591 -0.1199
  902MPD2    H113270   1.991   3.492  12.751  1.0639  0.3823  0.6528
  902MPD2    H213271   1.590   3.628  12.775 -0.5779  2.1843  0.5650
  902MPD2    H313272   1.745   3.467  12.821 -1.8775 -0.3768 -0.3769
  902MPD2     N13273   2.095   3.707  12.643 -0.4829 -0.1500  0.4399
  902MPD2    H513274   2.150   3.623  12.628 -0.5189  0.2212 -1.7626
  902MPD2    N113275   1.634   3.882  12.680  0.0295 -0.3752 -0.0781
  902MPD2    H713276   1.536   3.862  12.696 -0.4905  1.6803 -0.6564
  903MPD2     C13277   1.981   4.139  11.996 -0.6558  0.4043 -0.4017
  903MPD2    C113278   1.945   4.033  12.077 -0.5764 -0.7762  0.3161
  903MPD2    C213279   1.814   3.981  12.065 -0.1272  0.3305 -0.0308
  903MPD2    C313280   1.716   4.040  11.981  0.1144 -0.1079  0.1767
  903MPD2    C413281   1.752   4.150  11.902 -0.6564  0.3917  0.2781
  903MPD2    C513282   1.882   4.200  11.915 -0.6409  0.8187  0.1871
  903MPD2     H13283   1.787   3.902  12.134  1.0557 -0.1567 -0.1303
  903MPD2    H113284   1.688   4.190  11.824  1.8842  1.8884 -1.0422
  903MPD2    H213285   2.081   4.177  11.979 -0.5223  0.2703  0.1135
  903MPD2    H313286   1.916   4.281  11.851  2.0704  0.5405  1.2911
  903MPD2     N13287   1.586   3.980  11.981  0.7508 -0.0108  0.1220
  903MPD2    H513288   1.570   3.906  12.049 -0.3545  0.2638  0.1722
  903MPD2    N113289   2.046   3.963  12.143 -0.0410  0.2586 -0.0029
  903MPD2    H713290   2.027   3.864  12.156  0.1650  0.2015 -0.1332
  904MPD2     C13291   1.914   2.681  13.869  0.5090 -0.1776  0.2923
  904MPD2    C113292   1.887   2.803  13.932  0.1755  0.1181  0.0108
  904MPD2    C213293   1.996   2.881  13.966  0.0541  0.6796 -0.4486
  904MPD2    C313294   2.121   2.844  13.931  0.1195 -0.5375 -0.5492
  904MPD2    C413295   2.142   2.723  13.863 -0.1484 -0.3135  0.5645
  904MPD2    C513296   2.037   2.639  13.830  0.8180  0.0525 -0.8881
  904MPD2     H13297   1.986   2.978  14.011 -0.5360  0.5319 -0.2572
  904MPD2    H113298   2.241   2.687  13.837  1.2087  2.2082  2.2682
  904MPD2    H213299   1.834   2.614  13.840  0.7200 -0.5307  0.5244
  904MPD2    H313300   2.053   2.545  13.779 -1.1951 -0.7329 -0.0969
  904MPD2     N13301   2.227   2.936  13.948  0.0755 -0.0927  0.2143
  904MPD2    H513302   2.208   3.028  13.988 -1.2965 -1.7398  3.3674
  904MPD2    N113303   1.746   2.832  13.950  0.5556 -0.0504 -0.1288
  904MPD2    H713304   1.676   2.772  13.909  0.5755  1.0490 -1.7617
  905MPD2     C13305   1.192   2.763  13.543  0.5733 -1.0071  0.2094
  905MPD2    C113306   1.289   2.855  13.563 -0.6826  0.0661 -0.2093
  905MPD2    C213307   1.395   2.876  13.474 -0.4747 -0.8836 -0.0291
  905MPD2    C313308   1.405   2.808  13.355 -0.4502 -0.1276 -0.3396
  905MPD2    C413309   1.299   2.718  13.335  0.2647  0.2503 -0.0704
  905MPD2    C513310   1.202   2.693  13.428  0.3464  0.7026 -0.4688
  905MPD2     H13311   1.472   2.951  13.489  0.8336 -1.9388 -1.4159
  905MPD2    H113312   1.286   2.675  13.237 -1.3824 -0.7259  0.5799
  905MPD2    H213313   1.114   2.746  13.617 -0.9022  1.6148 -0.7159
  905MPD2    H313314   1.127   2.616  13.412  1.1895 -0.3403  0.6243
  905MPD2     N13315   1.507   2.822  13.249  0.2473 -0.8396  0.4711
  905MPD2    H513316   1.515   2.749  13.179 -1.7593  0.2602 -0.9079
  905MPD2    N113317   1.289   2.909  13.695  0.0411 -0.2821  0.6995
  905MPD2    H713318   1.220   2.875  13.762 -0.3392  0.3943  0.6452
  906MPD2     C13319   3.403   3.358  11.289 -0.4334  0.3408  0.2204
  906MPD2    C113320   3.331   3.304  11.192  0.3232 -0.1561 -0.6820
  906MPD2    C213321   3.224   3.223  11.219  0.0513 -0.0450  0.1721
  906MPD2    C313322   3.204   3.185  11.346 -0.2142  0.1694 -0.2001
  906MPD2    C413323   3.275   3.242  11.452 -0.2923  0.0800  0.0602
  906MPD2    C513324   3.368   3.336  11.422  0.2455 -0.1638 -0.0085
  906MPD2     H13325   3.161   3.170  11.148  0.1703  0.7153 -0.5129
  906MPD2    H113326   3.253   3.230  11.557 -0.7060 -1.9900 -0.2657
  906MPD2    H213327   3.488   3.422  11.268  0.3860 -0.4856  0.9807
  906MPD2    H313328   3.433   3.379  11.497 -0.3443 -0.3185  0.5931
  906MPD2     N13329   3.104   3.084  11.369  0.5486 -0.3597 -0.2417
  906MPD2    H513330   3.051   3.047  11.291 -1.1345  0.6664  0.4100
  906MPD2    N113331   3.365   3.302  11.058 -0.0480 -0.8719 -0.2688
  906MPD2    H713332   3.321   3.228  11.004 -2.9469 -1.0479  2.3539
  907MPD2     C13333   2.634   2.261  16.058 -0.2253 -0.1037  0.6331
  907MPD2    C113334   2.653   2.135  15.998  0.4898 -0.1958  0.6608
  907MPD2    C213335   2.762   2.059  16.041 -1.1581  0.5624  1.0704
  907MPD2    C313336   2.857   2.114  16.123  0.0799  0.0976  0.5864
  907MPD2    C413337   2.837   2.240  16.180  0.0856 -0.4421  0.2864
  907MPD2    C513338   2.724   2.311  16.150  0.2442  0.3079 -0.5411
  907MPD2     H13339   2.769   1.954  16.015  1.7867  1.2989 -1.0797
  907MPD2    H113340   2.905   2.288  16.250 -0.7826 -1.5858  1.9172
  907MPD2    H213341   2.539   2.312  16.045  0.1291  0.5198  0.4890
  907MPD2    H313342   2.701   2.412  16.183 -2.5888 -1.2481  2.2332
  907MPD2     N13343   2.973   2.033  16.144 -0.0321 -0.1049  0.3614
  907MPD2    H513344   2.974   1.952  16.082  0.9193  0.0689  0.1550
  907MPD2    N113345   2.570   2.068  15.911  0.1551  0.6917 -0.1528
  907MPD2    H713346   2.605   1.979  15.876 -1.0674  0.0677  0.2072
  908MPD2     C13347   0.026   1.915   9.714  0.4026 -0.1790  0.1609
  908MPD2    C113348   0.030   1.882   9.847  0.0142 -0.0571 -0.7005
  908MPD2    C213349   0.054   1.989   9.931  0.1028 -0.3769 -0.1600
  908MPD2    C313350   0.078   2.117   9.886 -0.5900 -0.1760  0.0491
  908MPD2    C413351   0.088   2.143   9.751  0.1731 -0.8310 -1.3112
  908MPD2    C513352   0.049   2.046   9.667  0.4563 -0.1812  0.3120
  908MPD2     H13353   0.054   1.983  10.039  1.3695  1.3831 -0.0469
  908MPD2    H113354   0.117   2.239   9.709 -0.4273  0.0743  0.3122
  908MPD2    H213355   0.011   1.838   9.639 -0.1483 -0.8006  0.9166
  908MPD2    H313356   0.038   2.073   9.563  1.3719  1.6542  0.6935
  908MPD2     N13357   0.088   2.221   9.981  0.5146  0.2311 -0.1677
  908MPD2    H513358   0.073   2.182  10.074  2.3031 -1.3977 -0.5602
  908MPD2    N113359   0.003   1.751   9.884  0.3675 -0.2288  0.8062
  908MPD2    H713360   4.723   1.690   9.805 -0.8407  0.9773  0.1531
  909MPD2     C13361   0.347   0.932  11.835 -0.0536  0.1931  0.0408
  909MPD2    C113362   0.395   1.060  11.835  0.4055 -0.6898 -0.1678
  909MPD2    C213363   0.351   1.154  11.928  1.6320 -0.0496 -0.0971
  909MPD2    C313364   0.253   1.121  12.026 -1.7234  0.3716  0.1053
  909MPD2    C413365   0.208   0.986  12.028 -0.0356 -0.0342  0.6854
  909MPD2    C513366   0.254   0.894  11.931 -0.7684  0.7439 -0.0131
  909MPD2     H13367   0.403   1.249  11.927  2.5219 -0.4842  3.5094
  909MPD2    H113368   0.117   0.957  12.078 -1.4324  0.6001 -1.4669
  909MPD2    H213369   0.380   0.856  11.765  1.1498  1.6714 -0.9913
  909MPD2    H313370   0.208   0.797  11.938 -1.4770  1.1653  1.1148
  909MPD2     N13371   0.197   1.222  12.111  0.4792  0.6350  0.7281
  909MPD2    H513372   0.229   1.316  12.091  1.7015  0.6467  2.8140
  909MPD2    N113373   0.480   1.103  11.733  0.4161  0.6613  0.5090
  909MPD2    H713374   0.491   1.204  11.720  0.5102  0.5539 -0.2659
  910MPD2     C13375   2.271   2.862  16.419  0.4192 -0.7043 -0.1285
  910MPD2    C113376   2.302   2.760  16.336  0.0347 -0.4834 -0.4148
  910MPD2    C213377   2.249   2.774  16.208  0.6436  0.5220  0.4962
  910MPD2    C313378   2.170   2.882  16.166  0.1387  0.9213 -0.3029
  910MPD2    C413379   2.152   2.988  16.258 -0.0036  0.2623  0.1264
  910MPD2    C513380   2.202   2.975  16.382  0.1471  0.2254  0.4965
  910MPD2     H13381   2.271   2.687  16.146 -0.1488  2.9327 -3.1834
  910MPD2    H113382   2.075   3.062  16.239 -0.6626  0.0291  1.9066
  910MPD2    H213383   2.309   2.873  16.519 -1.9448  0.6933  0.6221
  910MPD2    H313384   2.170   3.042  16.462  0.7676  1.0820  0.0358
  910MPD2     N13385   2.100   2.878  16.042 -0.3214 -0.6023  0.1493
  910MPD2    H513386   2.046   2.961  16.020 -1.2356 -1.7177 -1.9390
  910MPD2    N113387   2.378   2.648  16.371 -0.3048 -0.1911 -0.0311
  910MPD2    H713388   2.409   2.584  16.298  0.9793 -4.1050  3.9452
  911MPD2     C13389   0.210   3.122  16.040  0.0655 -0.3189  0.9822
  911MPD2    C113390   0.211   3.162  16.169 -0.7062  0.0427 -0.3628
  911MPD2    C213391   0.171   3.296  16.192 -0.0621  0.3389  0.2409
  911MPD2    C313392   0.153   3.388  16.092 -0.1163  0.1285  0.0831
  911MPD2    C413393   0.158   3.343  15.964 -0.4642 -0.7513  0.2065
  911MPD2    C513394   0.179   3.213  15.938  0.3569  0.3592 -0.2567
  911MPD2     H13395   0.170   3.337  16.292 -0.0017 -0.5817  0.6245
  911MPD2    H113396   0.150   3.420  15.889 -1.6276 -0.8380  0.2428
  911MPD2    H213397   0.231   3.020  16.013  3.5865  0.7315 -0.3056
  911MPD2    H313398   0.179   3.182  15.834  3.1754 -1.0677  0.1509
  911MPD2     N13399   0.141   3.527  16.115 -0.2201 -0.3101  0.1098
  911MPD2    H513400   0.124   3.576  16.028 -0.5958 -0.8991 -0.1476
  911MPD2    N113401   0.244   3.065  16.275 -0.2792 -0.2549 -0.1583
  911MPD2    H713402   0.246   2.968  16.245 -0.8358 -0.9069  1.8927
  912MPD2     C13403   4.615   3.413  15.700 -0.4745  0.3384  0.0050
  912MPD2    C113404   4.586   3.415  15.836 -0.4699  0.6388 -0.2824
  912MPD2    C213405   4.586   3.297  15.903  0.3897  0.0999 -0.6486
  912MPD2    C313406   4.615   3.176  15.841  0.6465  0.6439  0.2179
  912MPD2    C413407   4.652   3.174  15.705  0.4924  0.4946 -0.0761
  912MPD2    C513408   4.654   3.293  15.644  0.3089 -1.1533 -0.1597
  912MPD2     H13409   4.582   3.293  16.012  1.3052  1.9256 -0.5430
  912MPD2    H113410   4.668   3.079  15.654  0.9154  0.2706  0.4696
  912MPD2    H213411   4.615   3.502  15.638 -0.7008 -0.9185 -1.8181
  912MPD2    H313412   4.684   3.291  15.540 -0.8181  0.2917 -0.5101
  912MPD2     N13413   4.624   3.060  15.917 -0.2217 -0.0760 -0.0666
  912MPD2    H513414   4.602   3.070  16.016 -0.1812 -4.8567  0.4192
  912MPD2    N113415   4.557   3.536  15.897 -0.2082 -0.2405  0.2849
  912MPD2    H713416   4.559   3.613  15.831  1.7815 -0.5499  0.0066
  913MPD2     C13417   0.136   3.412  10.013 -0.6043 -0.3605  0.6518
  913MPD2    C113418   0.120   3.519  10.095 -0.0871  0.7431  0.2743
  913MPD2    C213419   0.115   3.654  10.048  0.6409 -0.1444  0.2304
  913MPD2    C313420   0.135   3.671   9.912 -0.4268  0.1202  0.0109
  913MPD2    C413421   0.148   3.560   9.828 -0.3050  1.3008 -0.1644
  913MPD2    C513422   0.154   3.432   9.883 -0.2021  0.2299 -0.2559
  913MPD2     H13423   0.123   3.730  10.125 -2.1364 -0.8387  1.2252
  913MPD2    H113424   0.167   3.568   9.722  2.2264 -2.1303  0.0092
  913MPD2    H213425   0.164   3.314  10.049  1.2358  1.5602  4.3890
  913MPD2    H313426   0.168   3.352   9.811  0.0989  1.2816 -1.3841
  913MPD2     N13427   0.141   3.803   9.852 -0.2752 -0.3276  0.5618
  913MPD2    H513428   0.157   3.798   9.752  1.0832 -1.2061  0.8230
  913MPD2    N113429   0.109   3.492  10.231  0.2906  0.8576 -0.5205
  913MPD2    H713430   0.104   3.393  10.254 -0.2020  1.5815  2.4119
  914MPD2     C13431   2.827   4.278  12.061  0.4030  0.6078 -0.3815
  914MPD2    C113432   2.858   4.413  12.084  0.3898  0.3079  0.4047
  914MPD2    C213433   2.945   4.442  12.189  0.4156 -0.9127  0.0013
  914MPD2    C313434   2.994   4.341  12.273 -0.2456  0.1815 -0.1541
  914MPD2    C413435   2.955   4.215  12.255  0.2482 -0.3834 -0.5762
  914MPD2    C513436   2.879   4.189  12.144 -0.4499 -0.1462  0.7070
  914MPD2     H13437   2.974   4.544  12.208 -1.3976 -0.6405  1.3660
  914MPD2    H113438   2.987   4.129  12.312  1.7415  0.1285 -0.6444
  914MPD2    H213439   2.771   4.236  11.978  0.2269  0.0461  0.0263
  914MPD2    H313440   2.855   4.084  12.129 -0.3478 -0.1578  0.6223
  914MPD2     N13441   3.062   4.374  12.386  0.2379 -0.5745 -0.3269
  914MPD2    H513442   3.100   4.469  12.388 -0.1241 -0.4296 -0.3732
  914MPD2    N113443   2.807   4.515  11.999  0.1520 -0.5124 -0.3489
  914MPD2    H713444   2.726   4.477  11.950 -1.5088  0.5926  1.5453
  915MPD2     C13445   1.066   4.560  15.205 -0.3493  0.4374 -0.3023
  915MPD2    C113446   0.945   4.623  15.204 -0.0536 -0.0039  0.3147
  915MPD2    C213447   0.893   4.675  15.326  0.0158 -0.3367  0.2792
  915MPD2    C313448   0.965   4.659  15.441 -0.0840  0.0415  0.1697
  915MPD2    C413449   1.090   4.608  15.438  0.8474  0.4748 -0.4371
  915MPD2    C513450   1.138   4.559  15.318 -0.2364  0.7026 -0.0861
  915MPD2     H13451   0.804   4.737  15.325 -0.3274 -0.8922 -2.1245
  915MPD2    H113452   1.162   4.607  15.519  0.7675  0.5125 -0.3641
  915MPD2    H213453   1.106   4.526  15.111 -0.4339 -3.0812  0.9240
  915MPD2    H313454   1.235   4.511  15.312 -2.5158 -4.0324  0.7770
  915MPD2     N13455   0.907   4.710  15.563  0.2292  0.4205 -0.1160
  915MPD2    H513456   0.823   0.029  15.558 -0.6490 -0.9512 -1.0915
  915MPD2    N113457   0.880   4.619  15.081  0.1086 -0.3026  0.1452
  915MPD2    H713458   0.918   4.550  15.016 -0.5118  0.3603 -0.9346
  916MPD2     C13459   4.027   3.004  15.406  0.0339 -0.1337 -0.0800
  916MPD2    C113460   4.019   2.918  15.516 -0.8421 -0.9855  0.0356
  916MPD2    C213461   4.037   2.781  15.500  0.3179  0.6680 -0.2662
  916MPD2    C313462   4.064   2.727  15.374 -1.4631 -0.5131  0.3473
  916MPD2    C413463   4.068   2.810  15.265  0.3912  0.1339  0.3050
  916MPD2    C513464   4.055   2.946  15.283 -0.2608  0.4947 -0.1326
  916MPD2     H13465   4.051   2.716  15.585  2.5313  0.6804 -0.6178
  916MPD2    H113466   4.081   2.777  15.162 -0.2922  1.4850 -0.2014
  916MPD2    H213467   3.987   3.105  15.409  1.2420  0.3032  0.9794
  916MPD2    H313468   4.051   2.998  15.188  0.4377  1.9404  0.6323
  916MPD2     N13469   4.085   2.585  15.367  0.3524  0.1311  0.0904
  916MPD2    H513470   4.080   2.537  15.457 -1.2735  0.2335  0.0519
  916MPD2    N113471   3.989   2.990  15.628 -0.4193 -0.7407  0.2015
  916MPD2    H713472   3.975   3.088  15.606 -1.4337 -0.4797  2.0101
  917MPD2     C13473   3.718   0.165  10.831  0.3210 -0.9109  0.5478
  917MPD2    C113474   3.762   0.255  10.919  0.0147 -0.2587  0.3596
  917MPD2    C213475   3.825   0.373  10.877 -0.5793 -0.0372 -0.1972
  917MPD2    C313476   3.841   0.391  10.738  0.2054 -0.1423  0.2734
  917MPD2    C413477   3.787   0.299  10.650  0.2978 -0.6174 -0.1684
  917MPD2    C513478   3.734   0.190  10.698 -0.0269  0.3466 -0.0248
  917MPD2     H13479   3.853   0.450  10.948 -0.1269 -1.4893  1.2108
  917MPD2    H113480   3.800   0.318  10.545  0.4194 -2.3602 -0.4696
  917MPD2    H213481   3.656   0.082  10.864  0.8573 -1.7242 -0.4912
  917MPD2    H313482   3.689   0.117  10.633  2.1157 -0.3247 -0.7598
  917MPD2     N13483   3.893   0.507  10.688  0.6276 -0.3639  0.0117
  917MPD2    H513484   3.878   0.524  10.589 -0.9699 -0.2259  0.2840
  917MPD2    N113485   3.727   0.233  11.054 -0.1469 -0.7819 -0.2545
  917MPD2    H713486   3.698   0.138  11.075  1.4585 -1.8251 -2.7052
  918MPD2     C13487   3.598   0.869  11.875 -0.4989  0.5230  0.1372
  918MPD2    C113488   3.705   0.865  11.782  0.2651  0.0799  0.1789
  918MPD2    C213489   3.704   0.767  11.683  0.0710  0.5572  0.1452
  918MPD2    C313490   3.611   0.661  11.683 -0.0975 -0.3072 -0.4524
  918MPD2    C413491   3.505   0.664  11.779 -0.1718  0.3090  0.5296
  918MPD2    C513492   3.505   0.764  11.880  0.3955 -0.8407  1.2007
  918MPD2     H13493   3.786   0.763  11.612  0.7519  1.3145  0.8897
  918MPD2    H113494   3.431   0.584  11.779  0.0644  0.0930 -0.6106
  918MPD2    H213495   3.598   0.955  11.941 -3.5732  1.0487 -0.5651
  918MPD2    H313496   3.431   0.755  11.958 -1.2032  1.9236  0.0165
  918MPD2     N13497   3.628   0.550  11.588 -0.2499  0.1841  0.5481
  918MPD2    H513498   3.692   0.554  11.510 -1.3499 -2.0216 -0.4420
  918MPD2    N113499   3.818   0.953  11.784  0.2206 -0.2743 -0.6218
  918MPD2    H713500   3.893   0.933  11.718 -0.6165  0.9210 -1.9257
  919MPD2     C13501   0.110   4.026  11.627 -0.1325  0.2078  0.0796
  919MPD2    C113502   0.036   3.915  11.587  0.1990 -0.3538  0.0183
  919MPD2    C213503   4.722   3.915  11.458  0.1245 -0.4823  0.9623
  919MPD2    C313504   0.014   4.005  11.362  0.2709  0.0196  0.0548
  919MPD2    C413505   0.088   4.113  11.403  0.2829 -0.6115  0.2542
  919MPD2    C513506   0.131   4.127  11.539 -0.3126  0.8716 -0.5870
  919MPD2     H13507   4.654   3.833  11.439 -0.4462  0.2725 -0.2034
  919MPD2    H113508   0.128   4.183  11.331 -0.9040 -1.0576 -0.8341
  919MPD2    H213509   0.151   4.034  11.727  2.1740 -1.9393 -0.7107
  919MPD2    H313510   0.196   4.211  11.560 -0.5065  0.6355  0.9362
  919MPD2     N13511   4.707   4.000  11.228  0.2041 -0.0085  0.3885
  919MPD2    H513512   4.730   4.073  11.161 -0.1955  1.6936  2.1276
  919MPD2    N113513   4.735   3.809  11.676  0.1656 -0.0935  0.0606
  919MPD2    H713514   4.673   3.739  11.636 -2.2236  0.9235  1.9868
  920MPD2     C13515   4.326   4.576  10.561 -0.1417  0.2321 -0.0782
  920MPD2    C113516   4.265   4.466  10.517 -0.1959  0.0187 -0.9006
  920MPD2    C213517   4.307   4.346  10.582 -0.2638  1.1955  0.3133
  920MPD2    C313518   4.410   4.341  10.672  0.2229  0.0036 -0.2038
  920MPD2    C413519   4.468   4.455  10.718  0.0271 -0.3360 -0.1755
  920MPD2    C513520   4.418   4.573  10.661 -0.6801  0.0975 -0.0246
  920MPD2     H13521   4.262   4.249  10.565  2.5463  0.0477 -0.6216
  920MPD2    H113522   4.541   4.460  10.798 -1.4716  0.4939  1.1357
  920MPD2    H213523   4.297   4.676  10.530  0.9019  1.4950  2.9826
  920MPD2    H313524   4.456   4.664  10.707 -1.2230 -0.3216  1.2543
  920MPD2     N13525   4.444   4.219  10.736 -0.8306  0.2420  0.2134
  920MPD2    H513526   4.394   4.134  10.713  0.2940  0.0479 -1.5047
  920MPD2    N113527   4.169   4.465  10.413 -0.5751 -0.5710  0.7282
  920MPD2    H713528   4.132   4.373  10.390 -0.7401 -0.1240 -0.7654
  921MPD2     C13529   0.849   3.419  16.842 -0.2921 -0.3440  0.1959
  921MPD2    C113530   0.870   3.350  16.720  0.2181  0.1306  0.0405
  921MPD2    C213531   0.776   3.253  16.693  0.0614  0.0876  0.4525
  921MPD2    C313532   0.676   3.211  16.778  0.5415  0.3682  0.8275
  921MPD2    C413533   0.657   3.283  16.897  0.9418 -0.1872 -0.0728
  921MPD2    C513534   0.747   3.387  16.926 -0.0718  0.4597  0.6601
  921MPD2     H13535   0.786   3.179  16.615 -0.4039 -0.3925  0.8493
  921MPD2    H113536   0.575   3.267  16.967 -1.7443  1.7004 -2.8245
  921MPD2    H213537   0.915   3.499  16.874 -1.6334  1.5410 -1.7687
  921MPD2    H313538   0.735   3.451  17.013 -0.8664  0.7323  0.3491
  921MPD2     N13539   0.583   3.109  16.747  0.1273  0.8943  0.2985
  921MPD2    H513540   0.498   3.103  16.802 -0.8975  1.3312 -1.2434
  921MPD2    N113541   0.991   3.360  16.644  0.3318  0.0198 -0.4203
  921MPD2    H713542   1.064   3.417  16.685  0.5370 -0.6592  0.1612
  922MPD2     C13543   1.468   1.087  16.769 -0.6685 -0.6731 -0.1345
  922MPD2    C113544   1.557   1.116  16.866  0.0045  0.2746 -0.1731
  922MPD2    C213545   1.512   1.097  17.000 -1.0232 -0.0526  0.6144
  922MPD2    C313546   1.386   1.055  17.036  0.0453 -0.8359  0.2117
  922MPD2    C413547   1.296   1.030  16.930  0.0646 -0.1377  0.2200
  922MPD2    C513548   1.336   1.055  16.802  0.4330  0.4135 -0.4553
  922MPD2     H13549   1.571   1.109  17.090  1.6597 -1.5578 -0.9485
  922MPD2    H113550   1.197   0.989  16.948 -0.2300  0.3913 -0.1911
  922MPD2    H213551   1.484   1.095  16.662 -1.1006 -0.9194 -0.2183
  922MPD2    H313552   1.262   1.051  16.723 -1.5331  1.2429  1.3201
  922MPD2     N13553   1.349   1.044  17.170 -0.7219 -0.3263  0.8617
  922MPD2    H513554   1.408   1.097  17.234 -1.8409 -0.9927  2.4367
  922MPD2    N113555   1.691   1.169  16.849 -0.3496  0.2356 -0.1813
  922MPD2    H713556   1.732   1.214  16.930  1.2673  1.5792 -1.7612
  923MPD2     C13557   2.165   3.276   8.871 -0.1736  0.6163 -0.6131
  923MPD2    C113558   2.225   3.398   8.856  0.3305  0.2927 -0.1504
  923MPD2    C213559   2.342   3.418   8.929  0.4604 -0.6342  0.1745
  923MPD2    C313560   2.402   3.324   9.013 -0.2561 -0.3666  0.2013
  923MPD2    C413561   2.339   3.200   9.029 -0.0523 -0.7607  0.1154
  923MPD2    C513562   2.222   3.180   8.961  0.0367 -0.4440  0.1368
  923MPD2     H13563   2.387   3.516   8.916  0.8206 -0.6689  1.1803
  923MPD2    H113564   2.368   3.124   9.101  3.0828 -0.0949 -0.4414
  923MPD2    H213565   2.071   3.251   8.824  0.4490 -0.3065 -1.3570
  923MPD2    H313566   2.171   3.087   8.984 -0.3579  0.0071  1.0798
  923MPD2     N13567   2.523   3.351   9.084 -0.0455  0.2641 -0.3558
  923MPD2    H513568   2.547   3.272   9.143  0.8707  0.3677 -0.5968
  923MPD2    N113569   2.158   3.493   8.785 -0.4241  0.1661 -0.4254
  923MPD2    H713570   2.063   3.463   8.765 -0.0277 -0.9096 -0.6772
  924MPD2     C13571   3.457   1.210  15.995  0.0150  0.5836  0.0543
  924MPD2    C113572   3.328   1.243  16.040 -0.1367 -0.2280 -0.0963
  924MPD2    C213573   3.290   1.379  16.013 -0.0834  0.1478  0.1160
  924MPD2    C313574   3.384   1.472  15.963 -0.7000  0.7071 -0.2020
  924MPD2    C413575   3.510   1.430  15.935  0.2657  0.3342 -0.4803
  924MPD2    C513576   3.546   1.299  15.942  0.3031  0.2754 -0.4706
  924MPD2     H13577   3.184   1.401  16.013 -0.3536 -1.1464  0.0546
  924MPD2    H113578   3.586   1.499  15.900  1.1704 -0.2382  0.3406
  924MPD2    H213579   3.482   1.104  15.996  2.0369  1.0147 -3.5609
  924MPD2    H313580   3.642   1.269  15.903  0.8974 -0.3244  1.4592
  924MPD2     N13581   3.364   1.610  15.967 -0.3719 -0.3142  0.4805
  924MPD2    H513582   3.447   1.664  15.947  0.1752 -1.1287  0.5351
  924MPD2    N113583   3.252   1.139  16.091 -0.4156  0.4022  0.5020
  924MPD2    H713584   3.296   1.050  16.070 -1.4925  0.3500 -1.5057
  925MPD2     C13585   1.597   4.375  14.789 -0.5567 -0.5059  0.1385
  925MPD2    C113586   1.504   4.280  14.777 -0.0826 -0.2814 -0.4691
  925MPD2    C213587   1.438   4.244  14.896 -0.3980 -0.5515 -0.0064
  925MPD2    C313588   1.449   4.315  15.021 -0.0274 -0.0647  0.2566
  925MPD2    C413589   1.545   4.415  15.026  0.1245 -0.8048  0.1669
  925MPD2    C513590   1.620   4.443  14.909 -0.3695 -0.1007 -0.0312
  925MPD2     H13591   1.370   4.160  14.889  0.2430 -1.1438  0.7772
  925MPD2    H113592   1.567   4.474  15.114 -3.4510 -0.2032  0.6609
  925MPD2    H213593   1.642   4.422  14.703 -2.3370  1.0427  0.0572
  925MPD2    H313594   1.687   4.528  14.911  0.0818 -0.4247 -1.0014
  925MPD2     N13595   1.387   4.266  15.136 -0.8004 -0.4811  0.1053
  925MPD2    H513596   1.321   4.190  15.127  0.5858 -1.7839  1.0311
  925MPD2    N113597   1.476   4.217  14.654  0.8938 -0.2624 -0.3357
  925MPD2    H713598   1.390   4.164  14.641  0.5083 -0.0361  1.3472
  926MPD2     C13599   0.811   2.320  13.412  0.1141  0.0781 -0.0422
  926MPD2    C113600   0.738   2.438  13.378  1.0498 -0.5516  0.3635
  926MPD2    C213601   0.793   2.536  13.301 -0.4397  0.1208 -0.0665
  926MPD2    C313602   0.918   2.515  13.243  0.0046 -0.3861 -0.8619
  926MPD2    C413603   0.987   2.401  13.275  0.1365  0.2873 -0.8847
  926MPD2    C513604   0.931   2.304  13.347  0.2390  0.1313 -0.2732
  926MPD2     H13605   0.729   2.619  13.273  0.0603 -0.3857 -2.7343
  926MPD2    H113606   1.090   2.386  13.244 -0.7667 -1.5000 -3.0321
  926MPD2    H213607   0.772   2.243  13.478 -1.8218  1.6166  0.5980
  926MPD2    H313608   0.989   2.216  13.372 -0.9569 -0.3795  0.7516
  926MPD2     N13609   0.973   2.601  13.135  0.4492 -0.2666  0.1184
  926MPD2    H513610   1.053   2.561  13.086 -0.2902 -3.5846  1.5715
  926MPD2    N113611   0.610   2.473  13.426  0.5380  0.6989  0.1746
  926MPD2    H713612   0.563   2.546  13.374  0.7454  0.9019  0.2718
  927MPD2     C13613   4.506   0.114  17.679  0.3178 -0.3590 -0.4352
  927MPD2    C113614   4.630   0.173  17.679 -0.0281  0.2001 -0.1278
  927MPD2    C213615   4.719   0.145  17.576 -0.2864  0.0030  0.0717
  927MPD2    C313616   4.679   0.070  17.467 -0.4986  0.9147 -0.2238
  927MPD2    C413617   4.556   0.012  17.464 -0.1787  0.6537 -0.9138
  927MPD2    C513618   4.474   0.027  17.572  0.1314 -0.5985 -0.5928
  927MPD2     H13619   0.084   0.180  17.572 -0.5704  0.8808  0.4760
  927MPD2    H113620   4.532   4.672  17.393  0.5858 -0.0904 -0.3563
  927MPD2    H213621   4.425   0.141  17.746  3.6585  1.2541  3.0137
  927MPD2    H313622   4.375   4.718  17.574 -0.0408 -0.1653  0.6800
  927MPD2     N13623   0.036   0.054  17.363  0.4408  0.5744 -0.0494
  927MPD2    H513624   0.120   0.110  17.378  0.1554  1.0544 -0.2604
  927MPD2    N113625   4.656   0.264   0.038 -0.3647  0.2122 -0.2617
  927MPD2    H713626   4.573   0.305   0.079 -0.6664  1.3827 -2.0267
  928MPD2     C13627   2.431   3.249   0.746  0.6800 -0.4426 -0.2397
  928MPD2    C113628   2.524   3.232   0.839  0.7154  0.2854 -0.8129
  928MPD2    C213629   2.660   3.228   0.804  0.6072  0.3456  0.8002
  928MPD2    C313630   2.701   3.245   0.673 -0.1969 -0.6653 -0.1260
  928MPD2    C413631   2.601   3.255   0.580  0.6009  0.5067 -0.1030
  928MPD2    C513632   2.472   3.261   0.618  0.4491  0.3915  0.2072
  928MPD2     H13633   2.736   3.213   0.879 -0.1978 -3.5273  0.8437
  928MPD2    H113634   2.626   3.275   0.477  0.2243 -0.2117 -0.3367
  928MPD2    H213635   2.325   3.265   0.762  1.2613  2.8187  0.2773
  928MPD2    H313636   2.393   3.283   0.547  2.9187 -1.8186 -3.2340
  928MPD2     N13637   2.834   3.242   0.620 -0.1460 -0.1938  0.6920
  928MPD2    H513638   2.835   3.251   0.519  1.1056  0.5421  0.7624
  928MPD2    N113639   2.478   3.211   0.973  0.2059 -0.2587  0.4888
  928MPD2    H713640   2.389   3.249   1.004 -0.8702 -1.9588 -0.5316
  929MPD2     C13641   2.359   3.702   9.829 -0.2793 -0.6751 -0.2546
  929MPD2    C113642   2.262   3.607   9.804 -0.0185  0.5343  0.6615
  929MPD2    C213643   2.168   3.624   9.706  0.1561 -0.0059 -0.7567
  929MPD2    C313644   2.184   3.731   9.610  0.2649 -0.3873 -0.3383
  929MPD2    C413645   2.288   3.815   9.624  0.6718 -0.2847 -0.2846
  929MPD2    C513646   2.371   3.807   9.737  0.2210 -0.2775  0.4423
  929MPD2     H13647   2.087   3.552   9.693  0.5672 -0.4466 -0.8734
  929MPD2    H113648   2.294   3.900   9.557  1.1517 -0.1403 -0.0562
  929MPD2    H213649   2.422   3.683   9.915  0.0198 -1.2574 -0.5960
  929MPD2    H313650   2.447   3.882   9.756 -1.1413  1.4773 -0.9738
  929MPD2     N13651   2.088   3.755   9.510 -0.4654 -0.0640 -0.2016
  929MPD2    H513652   2.102   3.840   9.457  0.4805  0.1302  0.3620
  929MPD2    N113653   2.251   3.498   9.895  0.2668 -0.3435 -0.1218
  929MPD2    H713654   2.332   3.488   9.956 -0.5035 -3.2052  0.3868
  930MPD2     C13655   4.290   0.505  13.956 -0.0723  0.8263  0.2924
  930MPD2    C113656   4.422   0.525  13.936  0.2057  0.3765  0.3981
  930MPD2    C213657   4.473   0.528  13.809  0.2775  0.1979  0.4458
  930MPD2    C313658   4.384   0.503  13.701 -1.0222 -0.8241 -0.3737
  930MPD2    C413659   4.255   0.476  13.728 -0.4671 -0.2380  0.2018
  930MPD2    C513660   4.203   0.472  13.858 -0.0203  0.0522  0.4099
  930MPD2     H13661   4.577   0.554  13.790 -0.4401  0.8793 -2.4996
  930MPD2    H113662   4.195   0.440  13.645 -3.1454 -1.6254  2.7376
  930MPD2    H213663   4.255   0.524  14.057  0.7109 -0.7373  0.8686
  930MPD2    H313664   4.104   0.442  13.888  0.9987 -1.2280  2.4799
  930MPD2     N13665   4.421   0.532  13.566 -0.4552 -0.3111  0.3835
  930MPD2    H513666   4.348   0.540  13.495  1.0012  1.9413 -0.8701
  930MPD2    N113667   4.496   0.575  14.039  0.0241 -0.3432  0.0428
  930MPD2    H713668   4.443   0.631  14.106 -0.2924 -0.3329 -0.2157
  931MPD2     C13669   0.483   0.364   0.578  0.0546  0.7477 -0.0450
  931MPD2    C113670   0.340   0.376   0.584 -0.4591 -0.7258 -0.2034
  931MPD2    C213671   0.283   0.313   0.688 -0.1603 -0.7966  0.2155
  931MPD2    C313672   0.357   0.243   0.779  0.1061  0.5475 -0.0994
  931MPD2    C413673   0.495   0.238   0.770  0.2415 -0.2682  0.5088
  931MPD2    C513674   0.555   0.298   0.672 -1.2136  0.5976  0.7373
  931MPD2     H13675   0.179   0.328   0.714  0.2037 -0.2219  1.3542
  931MPD2    H113676   0.555   0.177   0.837 -1.1380 -0.8393  1.2318
  931MPD2    H213677   0.532   0.403   0.489 -2.1990 -1.9930 -2.5086
  931MPD2    H313678   0.663   0.296   0.674 -1.2602 -1.2973  1.6774
  931MPD2     N13679   0.294   0.175   0.890  0.1084  0.7267 -0.4657
  931MPD2    H513680   0.358   0.128   0.954 -0.1525  1.9946  0.7252
  931MPD2    N113681   0.267   0.439   0.485 -0.0610 -0.4314 -0.5245
  931MPD2    H713682   0.317   0.474   0.404  0.2926 -0.5678 -0.3663
  932MPD2     C13683   1.564   3.617  10.858 -0.1533 -0.1113  0.0822
  932MPD2    C113684   1.604   3.688  10.965 -0.2575  0.9010 -0.2042
  932MPD2    C213685   1.692   3.634  11.058 -0.8513 -0.6753 -0.1641
  932MPD2    C313686   1.751   3.513  11.037  0.1952  0.9113 -0.3090
  932MPD2    C413687   1.708   3.438  10.930  0.5532 -0.6033 -0.6227
  932MPD2    C513688   1.607   3.488  10.840  0.5881 -0.1741 -0.5713
  932MPD2     H13689   1.717   3.694  11.144 -0.1429 -1.3041  0.0644
  932MPD2    H113690   1.749   3.340  10.906 -0.2457 -0.7000 -1.5927
  932MPD2    H213691   1.494   3.653  10.783 -1.3362 -0.0888  1.1917
  932MPD2    H313692   1.574   3.424  10.758 -0.6653  1.2360 -1.1740
  932MPD2     N13693   1.849   3.459  11.125  0.5645  0.5475  0.1904
  932MPD2    H513694   1.895   3.372  11.103  0.8915  1.1177 -1.3501
  932MPD2    N113695   1.564   3.819  10.991  0.3576  0.0585  0.0925
  932MPD2    H713696   1.595   3.858  11.080  0.3363 -1.6317  0.8391
  933MPD2     C13697   2.004   3.546   1.263  0.0136  0.8035 -0.5468
  933MPD2    C113698   2.126   3.555   1.327 -0.0581  0.2643  0.2927
  933MPD2    C213699   2.148   3.664   1.402  0.5089  0.6719 -0.1824
  933MPD2    C313700   2.055   3.762   1.421 -0.3019 -0.1444  0.5054
  933MPD2    C413701   1.926   3.749   1.367 -0.7656  0.0111 -0.0736
  933MPD2    C513702   1.908   3.640   1.286  0.3032 -0.0385  0.0010
  933MPD2     H13703   2.241   3.676   1.456 -1.3098 -1.1422  3.3955
  933MPD2    H113704   1.852   3.825   1.389 -2.0655 -1.8251  1.9295
  933MPD2    H213705   1.977   3.459   1.204 -1.9738 -0.1677  1.8179
  933MPD2    H313706   1.812   3.622   1.239  0.3366  0.0439 -0.0984
  933MPD2     N13707   2.104   3.870   1.496  0.5128  0.4046 -0.5320
  933MPD2    H513708   2.199   3.855   1.528  0.4743  0.8249 -0.2192
  933MPD2    N113709   2.209   3.441   1.316 -0.2621  0.0333  0.5096
  933MPD2    H713710   2.179   3.375   1.245  0.4472 -0.0933  0.3244
  934MPD2     C13711   4.030   4.713   1.987 -1.0082  0.4078 -0.0605
  934MPD2    C113712   3.977   0.094   1.953 -0.3467 -0.0993  0.2925
  934MPD2    C213713   3.914   0.110   1.830 -0.1206 -0.3712 -0.1337
  934MPD2    C313714   3.881   4.734   1.756  0.4696  0.2497  0.4702
  934MPD2    C413715   3.932   4.610   1.795  0.1090 -0.6156  0.3686
  934MPD2    C513716   4.006   4.602   1.905 -0.1677 -0.6801 -0.3586
  934MPD2     H13717   3.896   0.213   1.798 -1.5462 -0.6731 -0.3222
  934MPD2    H113718   3.925   4.523   1.732  0.6808 -0.8305  0.6000
  934MPD2    H213719   4.102   4.695   2.067 -1.2184  2.2067  0.5403
  934MPD2    H313720   4.046   4.503   1.925  0.9763 -0.0843  0.3488
  934MPD2     N13721   3.804   0.004   1.641  0.6532  0.5122  0.2730
  934MPD2    H513722   3.790   4.658   1.585 -0.0916 -0.8722  2.5131
  934MPD2    N113723   3.989   0.213   2.032  0.2028  0.2031 -0.1831
  934MPD2    H713724   3.926   0.288   2.005  0.2377  0.1952 -0.2852
  935MPD2     C13725   4.049   4.396   0.926  0.3956  0.7115  0.9421
  935MPD2    C113726   3.918   4.379   0.930  0.2776  0.2776 -0.0772
  935MPD2    C213727   3.837   4.472   0.992  0.2489  0.2374 -0.0265
  935MPD2    C313728   3.894   4.565   1.070 -0.5869 -0.3316  0.2385
  935MPD2    C413729   4.027   4.572   1.078  0.3979  0.3850 -0.1949
  935MPD2    C513730   4.109   4.492   0.996  0.2376 -0.7982  0.2472
  935MPD2     H13731   3.729   4.463   0.996  0.3789 -0.6361  1.5133
  935MPD2    H113732   4.081   4.642   1.141  0.8513  0.5108 -0.7257
  935MPD2    H213733   4.109   4.324   0.870 -1.2167 -0.0707  0.2272
  935MPD2    H313734   4.216   4.509   0.996 -0.3214  2.6146  1.5586
  935MPD2     N13735   3.820   4.653   1.153  0.1708 -0.2554 -0.4275
  935MPD2    H513736   3.871   4.709   1.220 -2.2200  1.6231 -0.1584
  935MPD2    N113737   3.849   4.280   0.858  0.6642 -0.6214  0.2164
  935MPD2    H713738   3.748   4.282   0.855  0.6195 -0.0987  2.2232
  936MPD2     C13739   2.288   2.436  12.243  0.2659  0.3698 -0.6638
  936MPD2    C113740   2.376   2.436  12.349  0.2097  0.3025  0.3404
  936MPD2    C213741   2.374   2.538  12.438 -0.3887 -0.7535  0.4823
  936MPD2    C313742   2.285   2.644  12.410  0.0161  0.2343 -0.4549
  936MPD2    C413743   2.196   2.637  12.308 -0.1223  0.5676 -0.0125
  936MPD2    C513744   2.199   2.533  12.226 -0.0256 -0.0388  0.4725
  936MPD2     H13745   2.444   2.551  12.520  2.1642 -3.3981 -1.2917
  936MPD2    H113746   2.141   2.730  12.295  4.0328  3.0289 -0.2278
  936MPD2    H213747   2.281   2.357  12.169 -2.5577 -1.9974  2.1500
  936MPD2    H313748   2.126   2.517  12.148  0.4281  0.1467  0.0108
  936MPD2     N13749   2.288   2.769  12.484  0.2500  0.0374 -0.5209
  936MPD2    H513750   2.233   2.849  12.455  0.0344  0.0784 -0.0038
  936MPD2    N113751   2.476   2.336  12.372  0.2073  0.6530 -0.1943
  936MPD2    H713752   2.534   2.352  12.454  1.7812  1.7278 -1.5308
  937MPD2     C13753   0.033   3.128  11.509  0.0046  0.0735  0.0108
  937MPD2    C113754   0.080   3.257  11.513 -0.4152 -0.0612 -1.0378
  937MPD2    C213755   0.160   3.298  11.410 -1.3039  0.5412 -0.1206
  937MPD2    C313756   0.199   3.212  11.309  0.5898  0.0944  0.0012
  937MPD2    C413757   0.152   3.078  11.318 -0.0462  0.2854 -0.7094
  937MPD2    C513758   0.073   3.040  11.416  0.4060 -0.0722 -0.3250
  937MPD2     H13759   0.202   3.398  11.404  0.9565 -0.5234 -1.9256
  937MPD2    H113760   0.162   3.003  11.240 -1.2726 -0.7301  0.1079
  937MPD2    H213761   4.689   3.099  11.575 -0.7176  1.2036 -0.3862
  937MPD2    H313762   0.022   2.945  11.408 -2.2374  1.3449 -0.3115
  937MPD2     N13763   0.275   3.260  11.204  0.0868  0.5302 -0.6032
  937MPD2    H513764   0.291   3.360  11.195  0.0338  0.7137  1.3999
  937MPD2    N113765   0.031   3.369  11.592 -0.5709 -0.1180 -0.4962
  937MPD2    H713766   0.055   3.467  11.575  2.7389 -0.6014  1.4100
  938MPD2     C13767   2.731   4.512   0.583 -0.2102 -0.3001  0.1401
  938MPD2    C113768   2.810   4.591   0.665 -0.2941 -0.2942  0.4359
  938MPD2    C213769   2.799   4.563   0.798  0.1552  0.9063 -0.1699
  938MPD2    C313770   2.722   4.459   0.852  0.1964  0.3731 -0.0775
  938MPD2    C413771   2.651   4.380   0.768  0.0446  0.6771 -0.0467
  938MPD2    C513772   2.656   4.407   0.638 -0.2915  0.4882 -0.1554
  938MPD2     H13773   2.856   4.620   0.871  0.0102 -0.4363  0.9818
  938MPD2    H113774   2.572   4.310   0.795  0.5545  0.5196  1.0090
  938MPD2    H213775   2.735   4.515   0.475  1.0189 -0.0676  0.1911
  938MPD2    H313776   2.591   4.347   0.574  0.0101  0.0013 -0.0096
  938MPD2     N13777   2.699   4.442   0.992  0.2249  0.0603  0.0080
  938MPD2    H513778   2.631   4.373   1.024  1.2857 -0.6598  0.6993
  938MPD2    N113779   2.896   4.688   0.614 -0.1402 -0.2825  0.0393
  938MPD2    H713780   2.935   0.012   0.685 -0.8399  0.9979 -0.6762
  939MPD2     C13781   3.657   0.858   0.772 -0.5227 -0.2149  0.1689
  939MPD2    C113782   3.585   0.952   0.709  0.1907 -0.1282 -0.9665
  939MPD2    C213783   3.580   0.948   0.569 -0.2147 -0.2840  0.6615
  939MPD2    C313784   3.654   0.853   0.499  0.4254  0.3735 -0.7031
  939MPD2    C413785   3.733   0.761   0.571  0.2200  0.3291 -0.1555
  939MPD2    C513786   3.727   0.760   0.704 -0.2621 -0.2028 -0.2906
  939MPD2     H13787   3.520   1.020   0.513 -0.7841 -1.3369 -0.0849
  939MPD2    H113788   3.791   0.682   0.524  0.3674  0.3713 -0.0432
  939MPD2    H213789   3.693   0.875   0.873  0.6833 -0.3529 -0.2326
  939MPD2    H313790   3.789   0.690   0.759  0.5993  0.1170 -0.8554
  939MPD2     N13791   3.665   0.862   0.361  0.0707  0.4173  0.1519
  939MPD2    H513792   3.601   0.934   0.328 -1.7221 -0.9856  0.5295
  939MPD2    N113793   3.508   1.047   0.792 -0.7763 -0.2421  0.1132
  939MPD2    H713794   3.508   1.035   0.893 -1.0203 -0.3658  0.1003
  940MPD2     C13795   3.278   2.602  13.083  0.4527  0.4416 -0.5482
  940MPD2    C113796   3.224   2.484  13.044 -0.5504 -0.0868  0.4355
  940MPD2    C213797   3.303   2.381  12.993 -0.3090  0.0118  0.8655
  940MPD2    C313798   3.440   2.403  12.973  0.1205 -0.6127  0.3495
  940MPD2    C413799   3.496   2.517  13.025  0.4552 -0.3471  0.8770
  940MPD2    C513800   3.413   2.619  13.072 -0.3639 -0.2477  0.8942
  940MPD2     H13801   3.259   2.290  12.954  1.4112 -0.4132 -0.0401
  940MPD2    H113802   3.603   2.538  13.026  0.1556  1.3007 -1.3445
  940MPD2    H213803   3.217   2.680  13.128  0.6949  0.5696 -0.4392
  940MPD2    H313804   3.452   2.717  13.098  1.2718 -0.9260  1.0330
  940MPD2     N13805   3.522   2.324  12.891  0.2443 -0.1714 -0.0913
  940MPD2    H513806   3.609   2.365  12.858  0.3299 -1.2069 -1.1707
  940MPD2    N113807   3.085   2.463  13.071 -0.3758  0.4168  0.2236
  940MPD2    H713808   3.036   2.382  13.034  0.0522 -0.0301  0.6215
  941MPD2     C13809   1.461   2.017  10.013  0.6293  0.2089  0.4527
  941MPD2    C113810   1.551   1.911   9.994  0.0081  0.1705  0.4456
  941MPD2    C213811   1.516   1.784  10.032  0.0185 -0.6231 -0.1661
  941MPD2    C313812   1.395   1.763  10.095  0.5782  0.2953  0.4465
  941MPD2    C413813   1.314   1.870  10.120  0.5542 -0.8011  0.2454
  941MPD2    C513814   1.338   1.994  10.075  0.0042 -0.4947 -0.3441
  941MPD2     H13815   1.595   1.710  10.039 -0.7890 -1.4302  0.2943
  941MPD2    H113816   1.213   1.854  10.157 -0.1965  2.1053 -0.5477
  941MPD2    H213817   1.474   2.122   9.993  2.2651 -0.3882 -1.5670
  941MPD2    H313818   1.272   2.079  10.091 -1.1159 -1.3826 -0.2861
  941MPD2     N13819   1.353   1.639  10.148 -0.4283  0.0534 -0.8561
  941MPD2    H513820   1.261   1.640  10.191 -0.8298 -0.3548 -1.6956
  941MPD2    N113821   1.685   1.926   9.950 -0.1257  0.3349  0.0355
  941MPD2    H713822   1.747   1.846   9.952 -1.0071 -0.3094  1.8671
  942MPD2     C13823   1.837   3.275   9.102 -0.2793 -0.2233 -0.9628
  942MPD2    C113824   1.832   3.405   9.037 -0.5831 -0.2286  0.3236
  942MPD2    C213825   1.927   3.498   9.062  0.3547 -0.7135  0.0477
  942MPD2    C313826   2.031   3.468   9.145  0.4233 -0.1408 -0.1702
  942MPD2    C413827   2.027   3.345   9.218  0.1478  0.0290  0.1013
  942MPD2    C513828   1.941   3.249   9.188 -0.7928 -0.1455  0.8839
  942MPD2     H13829   1.922   3.593   9.009  0.4809  0.1505  1.5877
  942MPD2    H113830   2.102   3.328   9.294  0.6587 -2.5907 -0.9648
  942MPD2    H213831   1.758   3.201   9.093  0.7609 -1.6326  1.5298
  942MPD2    H313832   1.939   3.163   9.254  0.2950  0.5759  1.8651
  942MPD2     N13833   2.145   3.552   9.161 -0.4312 -0.4457  0.3327
  942MPD2    H513834   2.227   3.505   9.198  0.6467 -0.5835 -2.2335
  942MPD2    N113835   1.728   3.428   8.947  0.1679  0.0708  0.0052
  942MPD2    H713836   1.723   3.522   8.911  0.6747  0.6996  1.5656
  943MPD2     C13837   0.357   0.988  10.149 -0.4330  0.0604 -0.3365
  943MPD2    C113838   0.271   0.883  10.154 -0.4518  0.4397  0.0477
  943MPD2    C213839   0.165   0.896  10.240 -0.5364  0.2596  0.2172
  943MPD2    C313840   0.166   0.995  10.336  0.3986  0.3207  0.4496
  943MPD2    C413841   0.263   1.095  10.329  0.3760  0.8779 -0.5136
  943MPD2    C513842   0.357   1.093  10.233 -0.3260  0.2878 -0.1129
  943MPD2     H13843   0.080   0.830  10.222  0.6563 -1.6114  1.5241
  943MPD2    H113844   0.271   1.176  10.400  1.0107 -1.8134  2.4514
  943MPD2    H213845   0.429   0.990  10.068  0.0403 -0.4463  0.0765
  943MPD2    H313846   0.439   1.164  10.224  0.4702 -0.4876  1.0074
  943MPD2     N13847   0.068   1.008  10.439 -0.7455  0.2157 -0.2367
  943MPD2    H513848   0.082   1.078  10.511  2.2748 -1.7439  1.0850
  943MPD2    N113849   0.283   0.779  10.056  0.1617 -0.0183 -0.3275
  943MPD2    H713850   0.337   0.805   9.974  1.1834  1.0132  0.6616
  944MPD2     C13851   0.247   0.718  10.749 -0.3188  0.8226  0.5587
  944MPD2    C113852   0.305   0.835  10.708  0.5325  0.2738 -0.0931
  944MPD2    C213853   0.287   0.950  10.781  0.1521 -0.1801 -0.6044
  944MPD2    C313854   0.219   0.946  10.902 -0.4814 -0.4840  0.1517
  944MPD2    C413855   0.175   0.826  10.952  0.2693  0.1081 -0.1040
  944MPD2    C513856   0.188   0.713  10.879  0.3139  0.1930  0.5264
  944MPD2     H13857   0.322   1.045  10.742  1.2583 -0.2519  0.2079
  944MPD2    H113858   0.117   0.822  11.044  0.7785  0.1844  0.2205
  944MPD2    H213859   0.248   0.629  10.686  0.5250  0.4038  1.1672
  944MPD2    H313860   0.139   0.622  10.912  1.0934 -0.1829  0.6594
  944MPD2     N13861   0.204   1.073  10.964  0.4840  0.0655 -0.2545
  944MPD2    H513862   0.217   1.152  10.902  1.5784 -0.2539 -0.4318
  944MPD2    N113863   0.393   0.829  10.594 -0.0733 -0.1628  0.4820
  944MPD2    H713864   0.389   0.736  10.554  2.9088  0.1568 -0.5374
    1TMC1    C113865   4.270   1.502  14.664 -0.2525  0.6905  0.3334
    1TMC1    C213866   4.243   1.433  14.550  0.3953  0.6798  0.5950
    1TMC1    C313867   4.297   1.309  14.529 -0.1072  0.1798  0.2803
    1TMC1    C413868   4.336   1.450  14.767  0.7158  0.2469  0.4563
    1TMC1    C513869   4.399   1.327  14.742 -0.5435  0.0353 -0.4243
    1TMC1    C613870   4.392   1.256  14.619 -0.2044 -0.0320 -0.1138
    1TMC1     C13871   4.285   1.644  14.659  0.0371  0.2078  0.0143
    1TMC1     O13872   4.369   1.702  14.727 -0.1460  0.4302  0.4900
    1TMC1     H13873   4.169   1.463  14.476  1.2632 -0.1571 -0.6125
    1TMC1    H113874   4.340   1.505  14.860  3.4600 -0.8023  0.9782
    1TMC1    H213875   4.447   1.164  14.604  0.7220  0.5610 -0.4392
    1TMC1    C713876   4.472   1.258  14.843 -0.6444  0.5453  0.7966
    1TMC1    C813877   4.253   1.220  14.426  0.3534 -0.1383  0.0810
    1TMC1    O113878   4.560   1.179  14.809 -0.7227  0.3484 -0.1126
    1TMC1    O213879   4.220   1.107  14.452 -0.3170  0.3926 -0.3726
    1TMC1    O313880   4.407   1.259  14.965 -0.4570 -0.2597 -0.2252
    1TMC1    H313881   4.338   1.328  14.973 -0.3251 -0.2607  0.9159
    1TMC1    O513882   4.185   1.289  14.333 -0.0466  0.0220 -0.4571
    1TMC1    H513883   4.222   1.376  14.309  1.0886 -0.2321  0.3426
    2MPD2     C13884   4.175   2.116  14.476 -0.3173 -0.3634 -0.0381
    2MPD2    C113885   4.081   2.029  14.433 -0.3698 -0.2869 -1.3764
    2MPD2    C213886   4.078   1.900  14.472  0.1877 -0.4155 -0.0211
    2MPD2    C313887   4.181   1.846  14.556 -0.6625 -0.2121 -0.3192
    2MPD2    C413888   4.262   1.942  14.619  0.2590  0.3463 -0.3691
    2MPD2    C513889   4.261   2.077  14.580  0.1263  0.0987  0.6210
    2MPD2     H13890   4.002   1.834  14.430 -1.3236 -0.2643  2.4767
    2MPD2    H113891   4.352   1.926  14.678 -1.1601 -0.5066  1.5711
    2MPD2    H213892   4.173   2.223  14.455 -0.1457 -0.7058 -1.7340
    2MPD2    H313893   4.327   2.148  14.629 -0.0873  1.0389 -0.4439
    2MPD2     N13894   4.193   1.708  14.577  0.5542 -0.2334 -0.6100
    2MPD2    H513895   4.116   1.654  14.539  0.7409 -0.6083 -0.4621
    2MPD2    N113896   3.994   2.085  14.339 -0.0957 -0.3575 -0.0650
    2MPD2    H713897   4.017   2.178  14.305 -0.5015 -0.1077  0.3413
    3TMC2    C113898   3.812   2.112  14.200  0.4684  0.6711 -0.3430
    3TMC2    C213899   3.848   2.245  14.188  0.7710 -0.5556 -0.8912
    3TMC2    C313900   3.750   2.333  14.162 -1.0888  0.1674  0.2664
    3TMC2    C413901   3.689   2.072  14.180 -0.1310 -0.3395  0.8108
    3TMC2    C513902   3.591   2.157  14.153  0.2619  0.1752  0.8642
    3TMC2    C613903   3.618   2.292  14.148 -0.5553  0.2413  0.3302
    3TMC2     C13904   3.882   2.028  14.287  0.2967 -0.1002  1.0317
    3TMC2     O13905   3.840   1.914  14.298  0.1197  0.6137 -0.6353
    3TMC2     H13906   3.951   2.280  14.191 -0.0030  1.7701 -1.0986
    3TMC2    H113907   3.664   1.966  14.187  2.1412 -0.9527 -0.2551
    3TMC2    H213908   3.546   2.373  14.152 -0.3280  0.5046 -0.7524
    3TMC2    C713909   3.478   2.094  14.091  0.6287 -0.1104  0.5733
    3TMC2    C813910   3.758   2.470  14.208 -0.9810 -0.3433 -0.5380
    3TMC2    O113911   3.472   1.973  14.085 -0.1313 -0.2952 -0.6590
    3TMC2    O213912   3.691   2.528  14.290  0.4146 -0.0638 -0.2288
    3TMC2    O513913   3.825   2.532  14.102  0.6790 -0.3444 -0.3802
    3TMC2    H513914   3.873   2.474  14.038 -1.0624 -1.0296 -1.0704
    4TMC2    C113915   2.881   2.672  13.530 -0.7879  0.0201 -0.1818
    4TMC2    C213916   2.949   2.761  13.447  0.1209  0.3328  0.5009
    4TMC2    C313917   3.088   2.742  13.448 -0.3917  0.3030  0.3921
    4TMC2    C413918   2.933   2.558  13.586 -0.2168 -0.1357  0.0116
    4TMC2    C513919   3.068   2.534  13.569  0.1765  0.5505  0.0223
    4TMC2    C613920   3.143   2.628  13.507  0.4849 -0.0932  0.7335
    4TMC2     C13921   2.738   2.706  13.566 -0.1302 -0.2497 -0.7542
    4TMC2     O13922   2.679   2.650  13.658 -0.7542  0.2304  0.1467
    4TMC2     H13923   2.921   2.861  13.417  0.2823  0.2040 -0.0912
    4TMC2    H113924   2.884   2.495  13.659  0.0834  0.1259  0.4384
    4TMC2    H213925   3.247   2.609  13.484  0.5591  1.1576  0.0515
    4TMC2    C713926   3.150   2.464  13.655 -0.4019  0.0028 -0.3555
    4TMC2    C813927   3.173   2.823  13.369 -0.5937  0.9852 -0.2372
    4TMC2    O113928   3.236   2.525  13.717 -0.0435 -0.1114  0.0383
    4TMC2    O213929   3.142   2.852  13.253 -0.7488 -0.0618 -0.1277
    4TMC2    O513930   3.300   2.823  13.422 -0.8080  0.6400 -0.3373
    4TMC2    H513931   3.300   2.788  13.513 -2.9568 -1.7141 -1.2431
    5MPD2     C13932   2.308   2.976  13.484 -0.1900 -0.6782 -0.1454
    5MPD2    C113933   2.410   3.025  13.404  0.1525  0.0440  0.1743
    5MPD2    C213934   2.535   2.968  13.402  0.0701 -0.4557  0.3836
    5MPD2    C313935   2.561   2.865  13.496  0.1577  0.5196  0.0279
    5MPD2    C413936   2.465   2.824  13.587 -0.2466  0.3947 -0.1333
    5MPD2    C513937   2.345   2.879  13.579 -0.2357  0.2301 -0.1532
    5MPD2     H13938   2.614   3.002  13.336 -1.1061 -1.5742 -1.6232
    5MPD2    H113939   2.489   2.762  13.672  2.7336 -0.0880 -1.3427
    5MPD2    H213940   2.210   3.022  13.487  0.0427 -0.0751 -1.9659
    5MPD2    H313941   2.276   2.857  13.660 -0.6927 -2.2287 -1.2181
    5MPD2     N13942   2.690   2.807  13.489  0.4784  0.4013  0.3630
    5MPD2    H513943   2.752   2.840  13.416  0.4496 -2.0891 -0.7599
    5MPD2    N113944   2.373   3.126  13.317 -0.0634  0.4961 -0.0281
    5MPD2    H713945   2.278   3.160  13.328  0.2195  1.5437 -0.7710
    6MPD1     C13946   2.736   0.301  13.219 -0.2270  0.0125 -0.5101
    6MPD1    C113947   2.690   0.238  13.333 -0.3004  0.4780  0.4164
    6MPD1    C213948   2.635   0.113  13.318 -0.3084 -0.0248 -0.1764
    6MPD1    C313949   2.601   0.066  13.192 -0.0064 -0.0878 -0.3992
    6MPD1    C413950   2.623   0.147  13.081 -0.3528  0.1406  0.7586
    6MPD1    C513951   2.696   0.255  13.094 -0.6359 -0.2475 -0.3898
    6MPD1     H13952   2.611   0.061  13.410 -2.2297 -1.6926 -1.6197
    6MPD1    H113953   2.596   0.122  12.979 -1.6932  2.4996  0.5405
    6MPD1    H213954   2.798   0.390  13.226  0.0837  0.0204 -3.2866
    6MPD1    H313955   2.740   0.302  13.007  1.6249  2.8426  2.4292
    6MPD1     N13956   2.534   4.681  13.177  0.2183  0.1834  0.0214
    6MPD1    H513957   2.504   4.630  13.259  3.2037  1.4784  1.9369
    6MPD1    N113958   2.721   0.278  13.461  0.5584  0.3768 -0.1900
    6MPD1    H613959   2.669   0.219  13.526  3.4458 -3.2860 -1.2164
    6MPD1    H713960   2.689   0.374  13.474 -2.0119 -0.2464 -1.8777
    7MPD2     C13961   2.477   3.955  13.446  0.1572  0.3179 -0.5373
    7MPD2    C113962   2.396   3.960  13.339  0.2869 -0.1447  0.1962
    7MPD2    C213963   2.331   3.849  13.286 -0.7429  0.7063  0.4046
    7MPD2    C313964   2.348   3.731  13.346 -0.6060  0.6464 -0.4776
    7MPD2    C413965   2.420   3.719  13.460 -0.4520 -0.4766  0.5442
    7MPD2    C513966   2.483   3.830  13.505 -0.7109  0.2530 -0.4700
    7MPD2     H13967   2.262   3.870  13.205 -1.7211 -0.2635  0.9760
    7MPD2    H113968   2.431   3.630  13.520  3.0470  0.0787  0.7743
    7MPD2    H213969   2.541   4.036  13.483  1.1533 -0.9647  0.5595
    7MPD2    H313970   2.540   3.818  13.596 -0.0614 -0.0756 -0.9222
    7MPD2     N13971   2.288   3.613  13.302 -0.7425 -0.0543  0.2861
    7MPD2    H513972   2.315   3.535  13.362 -0.4568 -0.2687 -0.1189
    7MPD2    N113973   2.370   4.082  13.275 -0.0052  0.3361 -0.0720
    7MPD2    H713974   2.314   4.078  13.190  2.2379  1.1505 -1.5819
    8TMC3    C113975   2.214   3.453  13.132  0.3248 -0.4482  0.2911
    8TMC3    C213976   2.279   3.358  13.204 -0.5941  0.3093  0.6201
    8TMC3    C313977   2.366   3.273  13.136  0.3110 -0.0879  0.3822
    8TMC3    C413978   2.224   3.464  12.993 -0.2667  0.1699 -0.1435
    8TMC3    C513979   2.319   3.385  12.932 -0.6233  0.3619  0.6780
    8TMC3    C613980   2.393   3.297  13.008  0.7296 -0.2142  0.2925
    8TMC3     C13981   2.220   3.589  13.186  0.0845  0.0632 -0.3428
    8TMC3     O13982   2.192   3.671  13.098  0.0826 -0.1653  0.0085
    8TMC3     H13983   2.268   3.351  13.311  1.4242  1.9064  0.9309
    8TMC3    H113984   2.160   3.530  12.937 -1.7049 -0.3748  0.8463
    8TMC3    H213985   2.482   3.254  12.964  0.4746 -0.3229 -0.1226
    8TMC3    C713986   2.404   3.468  12.850 -0.0820 -0.2620  0.7680
    8TMC3    C813987   2.445   3.179  13.212  0.8204 -0.0125  0.6017
    8TMC3    O113988   2.493   3.426  12.781 -0.3205  0.2589 -0.1824
    8TMC3    O213989   2.549   3.136  13.156 -1.0578  0.0864  0.3914
    9TMC3    C113990   2.463   4.479  13.060 -0.1862 -0.0629 -0.9808
    9TMC3    C213991   2.472   4.411  12.938 -0.2280  0.1617 -0.3618
    9TMC3    C313992   2.463   4.279  12.943  0.2910  0.2347 -0.9998
    9TMC3    C413993   2.457   4.417  13.181  0.2883  0.0991  0.0694
    9TMC3    C513994   2.463   4.280  13.184 -0.4529 -0.2454  0.1459
    9TMC3    C613995   2.467   4.212  13.063 -0.7238  0.1760  0.7688
    9TMC3     C13996   2.520   4.617  13.053 -0.3145 -1.0743  0.5425
    9TMC3     O13997   2.571   4.644  12.947  0.1264  0.5134 -0.0438
    9TMC3     H13998   2.492   4.454  12.841  1.0590 -1.1227 -0.6715
    9TMC3    H113999   2.424   4.468  13.271 -1.0054 -0.5473 -0.0509
    9TMC3    H214000   2.488   4.106  13.072  0.8141  0.2821 -1.5403
    9TMC3    C714001   2.439   4.201  13.301  0.9561  0.0231  0.5497
    9TMC3    C814002   2.462   4.205  12.818 -0.0163  0.6027 -0.1921
    9TMC3    O114003   2.485   4.241  13.405  0.4827  0.0287 -0.3757
    9TMC3    O214004   2.516   4.254  12.726 -0.3133  0.2490 -0.7053
   10MPD2     C14005   2.500   3.709  12.681 -0.1929 -0.3431  0.3546
   10MPD2    C114006   2.428   3.715  12.795  0.1920  0.7464 -0.5426
   10MPD2    C214007   2.401   3.842  12.846 -0.6599 -0.2670 -0.0688
   10MPD2    C314008   2.427   3.957  12.775  0.0608 -0.0591  0.2303
   10MPD2    C414009   2.500   3.949  12.656  0.2251 -0.1331  0.1194
   10MPD2    C514010   2.534   3.823  12.613 -0.1193  0.2528 -0.1660
   10MPD2     H14011   2.353   3.857  12.943 -0.7995  0.3660 -0.2337
   10MPD2    H114012   2.517   4.035  12.592  1.2900 -0.2555  0.2451
   10MPD2    H214013   2.523   3.613  12.637  0.5455 -0.4607  0.9891
   10MPD2    H314014   2.580   3.811  12.516  0.3836 -0.9132  0.2140
   10MPD2     N14015   2.398   4.083  12.834  0.3967 -0.4680  0.4661
   10MPD2    H514016   2.329   4.074  12.908  0.5291  0.8212  0.7506
   10MPD2    N114017   2.374   3.603  12.864  0.2333 -0.3398 -0.0414
   10MPD2    H714018   2.300   3.633  12.927  0.4848  1.8851 -0.7986
   11MPD2     C14019   3.253   2.024  13.911 -0.0839 -0.5291  0.5749
   11MPD2    C114020   3.297   2.155  13.932 -0.9776  0.4310  0.3801
   11MPD2    C214021   3.249   2.252  13.851  0.3903 -0.3106  0.6168
   11MPD2    C314022   3.159   2.226  13.752  0.3736 -0.1968 -0.1612
   11MPD2    C414023   3.111   2.094  13.737  0.7338  0.0356  0.7256
   11MPD2    C514024   3.162   1.996  13.809  0.1816  0.1814 -0.4625
   11MPD2     H14025   3.299   2.348  13.858 -1.0534  0.5440 -0.9669
   11MPD2    H114026   3.051   2.078  13.648 -0.2292 -0.5886  1.4957
   11MPD2    H214027   3.279   1.937  13.971 -0.0824 -0.1929  1.0681
   11MPD2    H314028   3.131   1.893  13.793 -0.2797  0.2542 -0.0441
   11MPD2     N14029   3.111   2.329  13.660 -0.0168 -0.3851  0.5719
   11MPD2    H514030   3.045   2.308  13.585  0.2834  0.5851  0.0390
   11MPD2    N114031   3.400   2.193  14.025 -0.2515  0.1858  0.3762
   11MPD2    H714032   3.415   2.291  14.046  1.4476 -0.2039  1.0077
    1MPD1     C14033   2.256   3.638  16.818  0.7149  0.5740 -0.1068
    1MPD1    C114034   2.343   3.559  16.885  0.0344  0.4016  0.6041
    1MPD1    C214035   2.323   3.524  17.015 -0.3464 -1.0283 -0.2166
    1MPD1    C314036   2.205   3.572  17.082  0.0357  0.1439  0.1432
    1MPD1    C414037   2.117   3.654  17.011  0.4114 -0.5798  0.1321
    1MPD1    C514038   2.147   3.690  16.885  0.3073 -0.2421 -0.1372
    1MPD1     H14039   2.398   3.462  17.063  0.8347  0.8702  0.4058
    1MPD1    H114040   2.025   3.689  17.057  0.3840  0.0560 -0.4072
    1MPD1    H214041   2.282   3.671  16.718  0.0186 -0.5682 -0.6711
    1MPD1    H314042   2.068   3.746  16.837 -0.1643 -0.6996  0.1049
    1MPD1     N14043   2.161   3.523  17.207 -0.4375 -0.0259  0.4811
    1MPD1    H514044   2.070   3.551  17.242 -0.8618 -0.3269 -0.3764
    1MPD1    N114045   2.447   3.498  16.810 -1.0832  0.5262  0.3183
    1MPD1    H614046   2.474   3.547  16.725 -2.2665  0.0588 -0.3176
    1MPD1    H714047   2.530   3.474  16.864  0.4265  2.0804 -1.3256
    2MPD1     C14048   1.412   3.414   0.131  0.6151 -0.7991  0.2380
    2MPD1    C114049   1.518   3.352   0.192  0.5857  0.3976 -0.2139
    2MPD1    C214050   1.643   3.352   0.129  0.3219  0.1178  0.0490
    2MPD1    C314051   1.658   3.400  17.747 -0.4090  0.1162 -0.1545
    2MPD1    C414052   1.544   3.449  17.688  0.0736  0.5293  0.7973
    2MPD1    C514053   1.426   3.457   0.004 -0.4905  0.5106 -0.2102
    2MPD1     H14054   1.733   3.314   0.176  1.1752  1.8623 -0.1391
    2MPD1    H114055   1.554   3.485  17.587  0.9030 -1.4827  0.1483
    2MPD1    H214056   1.315   3.425   0.179  1.8304  0.9634  2.3056
    2MPD1    H314057   1.340   3.504  17.706 -1.4113  1.2311  2.2553
    2MPD1     N14058   1.786   3.385  17.692  0.8808 -0.5134 -0.3380
    2MPD1    H514059   1.854   3.334   0.000 -0.8926 -2.8052 -0.2849
    2MPD1    N114060   1.507   3.317   0.326 -0.2835  0.0238  0.2452
    2MPD1    H614061   1.569   3.241   0.351 -3.9064 -3.1014 -0.3423
    2MPD1    H714062   1.415   3.303   0.366 -0.1361  2.2729  1.3802
    3TMC3    C114063   1.977   3.414  17.555  0.2881  0.3220  0.6395
    3TMC3    C214064   2.054   3.382  17.664  0.1648  0.1550 -0.4309
    3TMC3    C314065   2.180   3.352  17.640 -0.0841  0.2524  0.9790
    3TMC3    C414066   2.038   3.432  17.438 -0.1864  0.1751  0.5526
    3TMC3    C514067   2.171   3.416  17.422  0.2375  0.0049 -0.8123
    3TMC3    C614068   2.245   3.364  17.522 -1.1604 -0.4349  0.5131
    3TMC3     C14069   1.836   3.445  17.580  0.2818 -0.9486 -0.3074
    3TMC3     O14070   1.764   3.487  17.487  1.2584 -0.6447  0.7222
    3TMC3     H14071   2.016   3.396   0.017 -0.4086 -2.9019 -0.2138
    3TMC3    H114072   1.964   3.444  17.360 -1.6462  0.7121  2.0056
    3TMC3    H214073   2.352   3.344  17.523 -1.3423 -1.3555  1.4454
    3TMC3    C714074   2.237   3.448  17.296  0.0556 -0.7356 -0.1791
    3TMC3    C814075   2.251   3.307   0.013  0.0247 -0.3345  0.0018
    3TMC3    O114076   2.359   3.426  17.298 -0.5058 -0.1655 -0.1358
    3TMC3    O214077   2.173   3.278   0.099  0.3279 -0.8578  0.2522
    4MPD1     C14078   2.606   3.046   0.284  0.6931  0.2810  0.6678
    4MPD1    C114079   2.659   3.080   0.161 -0.4755 -0.1558  0.3385
    4MPD1    C214080   2.583   3.155   0.071  0.3409  0.2444 -0.6049
    4MPD1    C314081   2.453   3.191   0.100 -0.3479  0.1529 -0.5826
    4MPD1    C414082   2.400   3.158   0.228  0.2347  0.4151 -0.0869
    4MPD1    C514083   2.475   3.077   0.313 -0.6225  0.0181  0.1271
    4MPD1     H14084   2.623   3.181  17.722  1.3126 -0.2680 -0.3320
    4MPD1    H114085   2.302   3.192   0.261  0.8393  0.9019  1.2038
    4MPD1    H214086   2.663   2.990   0.358  0.6258  1.7991  1.8488
    4MPD1    H314087   2.433   3.053   0.410 -0.8367  0.5159  0.1576
    4MPD1     N14088   2.383   3.259   0.004  0.0044 -0.0253  0.9459
    4MPD1    H514089   2.425   3.280  17.662  0.4414  0.4104  1.2453
    4MPD1    N114090   2.799   3.058   0.133  0.7768  0.5510  0.0949
    4MPD1    H614091   2.817   3.084   0.036 -0.4062 -2.3255 -0.8957
    4MPD1    H714092   2.837   2.970   0.167 -1.7440  0.0273  1.5699
    1TCq1    O114093   2.956   3.307  11.695  0.1375  0.2225  0.3474
    1TCq1    C114094   2.870   3.357  11.784  0.4347 -0.4379  0.1486
    1TCq1    O214095   2.898   3.443  11.865  0.2089 -0.2032  0.0910
    1TCq1    C214096   2.744   3.357  11.716 -0.5320 -0.5318  0.1352
    1TCq1    C314097   2.695   3.249  11.649  0.4198  0.8846  0.0293
    1TCq1    C414098   2.567   3.261  11.589 -0.6212  0.5254  0.3857
    1TCq1    C514099   2.487   3.369  11.610  0.0085  0.0727 -0.5499
    1TCq1    C614100   2.536   3.470  11.685 -0.4834  0.3104  0.0690
    1TCq1    C714101   2.663   3.465  11.741 -0.4783 -0.6097  0.3519
    1TCq1    C814102   2.447   3.585  11.722  0.8277  0.0636 -0.5622
    1TCq1    O414103   2.484   3.653  11.816 -0.3159  0.3239  0.0102
    1TCq1    C914104   2.501   3.144  11.541 -0.4729  0.6731 -0.2965
    1TCq1    O514105   2.570   3.045  11.517 -0.1002 -0.3510  0.2853
    1TCq1    O614106   2.372   3.141  11.537 -0.3009  0.2495 -0.1287
    1TCq1    H114107   2.916   3.257  11.620  1.2583  2.4013 -1.6838
    1TCq1    H214108   2.741   3.151  11.655 -1.1481  0.0026 -2.6186
    1TCq1    H314109   2.384   3.366  11.577  1.1278 -4.5034 -3.6786
    1TCq1    H414110   2.705   3.551  11.791 -0.4674 -0.2589 -0.2576
    2MPD1     C14111   2.053   3.883  11.682 -0.5929 -0.4711 -0.6388
    2MPD1    C114112   2.052   3.801  11.572 -0.0853 -0.2106  0.1917
    2MPD1    C214113   2.149   3.703  11.558  0.3177 -0.1250 -0.3227
    2MPD1    C314114   2.235   3.681  11.661  0.3459  0.2690 -0.1193
    2MPD1    C414115   2.225   3.754  11.782 -0.7286 -0.3037  0.8209
    2MPD1    C514116   2.139   3.862  11.787 -0.5648  1.2698  0.3917
    2MPD1     H14117   2.146   3.640  11.469 -2.0354 -0.4001 -0.0635
    2MPD1    H114118   2.279   3.723  11.871  1.6107 -1.3913 -0.9751
    2MPD1    H214119   1.978   3.960  11.692  1.9524  1.8976 -0.0359
    2MPD1    H314120   2.139   3.926  11.875 -0.5892  1.7496  0.0457
    2MPD1     N14121   2.339   3.592  11.640 -0.0815  0.1189  0.3701
    2MPD1    H514122   2.352   3.535  11.556 -1.6870  2.0774 -1.2138
    2MPD1    N114123   1.971   3.833  11.468  0.5250 -0.2022 -0.5163
    2MPD1    H614124   1.881   3.862  11.506  0.7755 -0.1108  0.0107
    2MPD1    H714125   1.955   3.763  11.395  3.4980 -0.7849 -0.5862
    1TMC1    C114126   0.103   0.726   1.106 -0.1411 -0.4499  0.9514
    1TMC1    C214127   4.735   0.637   1.110  0.5986  0.7785  0.1347
    1TMC1    C314128   4.704   0.576   0.995  0.5830 -0.0239 -0.2251
    1TMC1    C414129   0.170   0.744   0.992 -0.1614 -0.3525  0.4302
    1TMC1    C514130   0.131   0.685   0.881 -1.0828  0.4429 -0.4183
    1TMC1    C614131   0.024   0.596   0.873  0.0094  0.3172  0.1523
    1TMC1     C14132   0.158   0.788   1.227 -0.3601 -0.3980 -0.1936
    1TMC1     O14133   0.227   0.890   1.209 -0.6319  0.1817 -0.2100
    1TMC1     H14134   4.672   0.635   1.198 -0.3397 -2.8905 -0.6208
    1TMC1    H114135   0.261   0.802   0.992 -0.5597  0.2593  2.5943
    1TMC1    H214136   0.009   0.534   0.785 -3.0615 -1.7621  2.0985
    1TMC1    C714137   0.216   0.709   0.769  0.8692 -1.1024 -0.9241
    1TMC1    C814138   4.571   0.526   0.990  0.7110 -0.2969  0.2064
    1TMC1    O114139   0.332   0.738   0.775 -0.3473  0.4146  0.4263
    1TMC1    O214140   4.496   0.545   1.081 -0.1688 -0.2436 -0.1953
    1TMC1    O314141   0.140   0.736   0.662  0.1012  0.1971 -0.0272
    1TMC1    H314142   0.044   0.724   0.678 -0.0346 -0.6069 -1.4971
    1TMC1    O514143   4.591   0.402   0.940  0.6019  0.7612  0.0022
    1TMC1    H514144   4.680   0.374   0.911  0.9923 -0.1862  2.1025
    2MPD1     C14145   0.289   0.784   1.720  0.1114 -0.1787  0.3844
    2MPD1    C114146   0.215   0.670   1.696 -0.2974 -0.4487  0.9865
    2MPD1    C214147   0.159   0.654   1.569 -0.1529  0.2786 -0.0402
    2MPD1    C314148   0.184   0.744   1.469  0.5582 -0.5550  0.2837
    2MPD1    C414149   0.265   0.850   1.493  0.0373  0.2413  0.3785
    2MPD1    C514150   0.314   0.868   1.620  0.3458 -0.2629 -0.7738
    2MPD1     H14151   0.107   0.562   1.545  0.4647 -0.2032  0.4633
    2MPD1    H114152   0.272   0.935   1.426  1.1620 -0.1930 -0.0742
    2MPD1    H214153   0.330   0.816   1.815  2.1080 -2.4059  0.2834
    2MPD1    H314154   0.371   0.959   1.637 -0.7283 -0.4331  3.5849
    2MPD1     N14155   0.134   0.712   1.337 -0.5154  0.2536 -0.3686
    2MPD1    H514156   0.070   0.633   1.327 -0.6359  0.6857 -3.0754
    2MPD1    N114157   0.224   0.565   1.790  0.0759 -0.0202 -0.0601
    2MPD1    H614158   0.258   0.589   1.883  0.4275 -0.3764 -0.1008
    2MPD1    H714159   0.145   0.500   1.789  0.3669 -0.3577 -0.7964
    1MPD1     C14160   3.280   3.355  11.799 -0.3634  0.4144 -0.1778
    1MPD1    C114161   3.287   3.485  11.767  0.1276  0.1074  0.4846
    1MPD1    C214162   3.415   3.545  11.764 -0.2732 -0.4177 -0.0194
    1MPD1    C314163   3.530   3.464  11.760 -0.2135 -0.2310 -0.2340
    1MPD1    C414164   3.517   3.327  11.780  0.3629 -0.3688 -0.5405
    1MPD1    C514165   3.389   3.281  11.797 -0.0086  0.1952 -0.5898
    1MPD1     H14166   3.428   3.652  11.758  1.0516 -0.6085 -0.4591
    1MPD1    H114167   3.599   3.256  11.775 -1.1267 -2.0343 -1.5746
    1MPD1    H214168   3.184   3.307  11.814  0.0428 -0.2624  0.2045
    1MPD1    H314169   3.372   3.175  11.810  0.6823  0.5925  3.5398
    1MPD1     N14170   3.655   3.530  11.738  0.1459 -0.5356 -0.3264
    1MPD1    H514171   3.649   3.631  11.742 -0.9052 -0.5773 -0.9736
    1MPD1    N114172   3.176   3.571  11.779  0.7961  0.0694 -0.0490
    1MPD1    H614173   3.094   3.543  11.726  0.3732  2.1377 -0.4892
    1MPD1    H714174   3.209   3.657  11.736 -1.6073  0.4134 -1.1746
    2MPD1     C14175   3.171   3.789  10.745 -0.4946 -0.4135 -0.4114
    2MPD1    C114176   3.259   3.723  10.824 -0.3832  0.0353  0.2778
    2MPD1    C214177   3.355   3.642  10.760  0.0008  0.5497 -0.2469
    2MPD1    C314178   3.353   3.619  10.625  0.2225  0.3899  0.3619
    2MPD1    C414179   3.258   3.680  10.550 -0.2979 -0.1419  0.0882
    2MPD1    C514180   3.174   3.766  10.610 -0.9799  0.3705  0.6372
    2MPD1     H14181   3.435   3.603  10.821 -0.0968  0.7390  0.0029
    2MPD1    H114182   3.245   3.653  10.446 -1.2880 -0.7809  0.3827
    2MPD1    H214183   3.097   3.865  10.770 -0.9862 -1.3405  0.9187
    2MPD1    H314184   3.100   3.808  10.544  0.6552  0.5329 -1.1087
    2MPD1     N14185   3.433   3.528  10.546  0.6437 -0.4071 -0.1469
    2MPD1    H514186   3.414   3.537  10.447 -1.6179 -0.4397  0.2881
    2MPD1    N114187   3.278   3.758  10.956 -0.3601  0.0762  0.1868
    2MPD1    H614188   3.190   3.787  11.000 -0.3533 -1.2931  1.0897
    2MPD1    H714189   3.324   3.695  11.020  2.4192  0.2472 -1.6345
    3MPD1     C14190   3.166   3.030   9.911 -0.6918  0.6315  0.3912
    3MPD1    C114191   3.166   3.162   9.931 -0.7885 -0.4990  0.1107
    3MPD1    C214192   3.253   3.206  10.028 -0.4724 -0.3226  0.2221
    3MPD1    C314193   3.359   3.131  10.082 -0.3904  0.6844 -0.3837
    3MPD1    C414194   3.360   2.993  10.052 -0.1038 -0.2053 -0.2644
    3MPD1    C514195   3.261   2.944   9.971 -0.2590  0.7858  0.6628
    3MPD1     H14196   3.234   3.304  10.070 -0.1986  0.3568 -1.2492
    3MPD1    H114197   3.443   2.930  10.084 -0.1268  0.9754  2.1008
    3MPD1    H214198   3.120   2.983   9.825  2.3180 -3.2265  0.8664
    3MPD1    H314199   3.273   2.839   9.947  1.3352  0.9154  0.8676
    3MPD1     N14200   3.454   3.190  10.169 -0.3367 -0.0260  0.9717
    3MPD1    H514201   3.429   3.288  10.180 -0.0549  0.1832 -0.3397
    3MPD1    N114202   3.058   3.243   9.896  0.3562 -0.2549  0.2719
    3MPD1    H614203   3.084   3.341   9.883 -0.6508  0.4403  3.2995
    3MPD1    H714204   3.009   3.216   9.811  2.2362  0.0738 -0.9033
    4MPD2     C14205   4.054   3.787  11.171  0.4066 -0.3419 -0.3243
    4MPD2    C114206   4.111   3.709  11.269 -0.2855 -0.6496  0.2465
    4MPD2    C214207   4.220   3.621  11.233  0.2971 -0.4393 -1.2527
    4MPD2    C314208   4.254   3.609  11.100  0.2836  0.3764  0.4401
    4MPD2    C414209   4.185   3.678  11.000  0.8354  0.3703 -0.0521
    4MPD2    C514210   4.076   3.765  11.035  0.4315 -0.0974  0.4239
    4MPD2     H14211   4.259   3.553  11.308  0.4982  1.5396  0.4357
    4MPD2    H114212   4.204   3.657  10.896 -2.2149  0.3182 -0.5868
    4MPD2    H214213   3.982   3.863  11.200 -0.1935 -2.0322  2.6126
    4MPD2    H314214   4.039   3.829  10.956 -0.9943 -1.5583 -0.0951
    4MPD2     N14215   4.359   3.522  11.060 -0.0129 -0.3853 -0.1468
    4MPD2    H514216   4.376   3.508  10.961  1.4794 -0.4657  0.1158
    4MPD2    N114217   4.082   3.720  11.406 -0.0541  0.1671 -0.2437
    4MPD2    H714218   4.138   3.667  11.472  0.5979  1.7027  0.4419
    5TMC3    C114219   3.973   3.751  11.603  0.1754  0.4903 -0.2326
    5TMC3    C214220   3.862   3.679  11.628 -0.6308 -0.3475 -0.0076
    5TMC3    C314221   3.879   3.572  11.710 -0.6788  0.7250 -0.1413
    5TMC3    C414222   4.100   3.717  11.650  0.5600  0.1794 -0.4353
    5TMC3    C514223   4.112   3.599  11.718 -0.7655  0.2878  0.0376
    5TMC3    C614224   4.002   3.534  11.752 -0.6317 -0.6405  0.8168
    5TMC3     C14225   3.973   3.776  11.463 -0.1819 -0.7068 -0.5495
    5TMC3     O14226   3.867   3.809  11.412 -0.2573  0.3196 -0.4617
    5TMC3     H14227   3.768   3.699  11.578  1.2243 -0.2562 -3.4972
    5TMC3    H114228   4.182   3.781  11.617  0.4988 -0.5296 -1.9510
    5TMC3    H214229   4.005   3.450  11.821  2.0980 -0.7279  0.5987
    5TMC3    C714230   4.209   3.507  11.656 -0.3388 -0.3749 -0.2028
    5TMC3    C814231   3.775   3.469  11.713 -0.1310  0.3264  0.1431
    5TMC3    O114232   4.270   3.565  11.566  0.0807 -0.3669 -0.4834
    5TMC3    O214233   3.813   3.353  11.707  0.3558 -0.1763  0.3715
    6TMC3    C114234   3.617   3.372  10.501  0.2265 -0.5278 -0.2010
    6TMC3    C214235   3.552   3.304  10.398  0.2377  0.1578 -0.2693
    6TMC3    C314236   3.624   3.213  10.333  1.0136 -0.4194  0.5856
    6TMC3    C414237   3.741   3.339  10.541 -0.1943  0.5479  0.2028
    6TMC3    C514238   3.815   3.244  10.466 -0.2171  0.1984 -0.3227
    6TMC3    C614239   3.751   3.182  10.363 -0.4704  0.1135 -0.1454
    6TMC3     C14240   3.547   3.466  10.585  0.0743  0.5829 -0.5592
    6TMC3     O14241   3.595   3.479  10.695 -0.4694  0.0240 -0.0322
    6TMC3     H14242   3.447   3.317  10.374 -0.2704  0.2635  1.9217
    6TMC3    H114243   3.791   3.369  10.632  1.1997 -0.1083 -0.3418
    6TMC3    H214244   3.804   3.120  10.292 -1.8474 -0.0265 -1.0431
    6TMC3    C714245   3.942   3.200  10.514  0.2938  0.1523 -0.3982
    6TMC3    C814246   3.566   3.137  10.229 -0.5018  0.5665 -0.1125
    6TMC3    O114247   4.008   3.285  10.582 -0.0877 -0.2762 -0.1366
    6TMC3    O214248   3.624   3.034  10.196  0.0961 -0.0385  0.1123
    7MPD2     C14249   4.413   3.043  11.522 -0.0319 -0.2422 -0.0574
    7MPD2    C114250   4.412   3.162  11.458 -0.8252 -0.2416  0.7288
    7MPD2    C214251   4.344   3.271  11.513 -0.4003  0.4928 -0.0821
    7MPD2    C314252   4.276   3.262  11.638  0.6405 -0.7000  0.5034
    7MPD2    C414253   4.267   3.134  11.696 -0.0690 -0.5320 -0.0783
    7MPD2    C514254   4.348   3.030  11.641  0.3448 -0.6332  0.2537
    7MPD2     H14255   4.348   3.363  11.456 -2.3135  2.0923  2.3677
    7MPD2    H114256   4.220   3.115  11.792 -1.8197  0.9382 -0.6451
    7MPD2    H214257   4.472   2.956  11.496 -0.7163 -1.4240  2.2639
    7MPD2    H314258   4.359   2.938  11.696  0.2125 -0.2355  0.9530
    7MPD2     N14259   4.204   3.370  11.692  0.3209  0.0991  0.1698
    7MPD2    H514260   4.147   3.349  11.774 -1.7399 -1.7660 -1.7454
    7MPD2    N114261   4.476   3.184  11.335  0.9360 -0.1381  0.2199
    7MPD2    H714262   4.489   3.283  11.316  0.5342 -0.2770 -0.7767
    8TMC3    C114263   4.589   3.152  11.145 -0.3890 -0.2853 -0.4367
    8TMC3    C214264   4.527   3.104  11.027 -0.2196  0.0640 -0.2408
    8TMC3    C314265   4.491   3.193  10.924 -0.3575  0.3361  0.3604
    8TMC3    C414266   4.596   3.287  11.164  0.2668 -0.9033  0.2861
    8TMC3    C514267   4.535   3.369  11.072  1.0567 -0.3586  0.4320
    8TMC3    C614268   4.501   3.332  10.944 -0.1362 -1.4743  0.5532
    8TMC3     C14269   4.529   3.087  11.251 -0.2214  0.3521  0.2072
    8TMC3     O14270   4.526   2.967  11.253 -0.0053 -0.5403  0.0487
    8TMC3     H14271   4.506   2.999  11.013 -0.6914  0.1082  0.1198
    8TMC3    H114272   4.656   3.339  11.238  1.0356 -0.9146 -0.3222
    8TMC3    H214273   4.487   3.404  10.865  2.0320 -1.7811 -0.1032
    8TMC3    C714274   4.453   3.462  11.146 -0.4219  0.1717 -0.2465
    8TMC3    C814275   4.395   3.165  10.816 -0.3160  0.1388 -0.2572
    8TMC3    O114276   4.472   3.460  11.268 -0.3205  0.0661 -0.0970
    8TMC3    O214277   4.341   3.258  10.757 -0.2381  0.2243  0.0256
    9MPD2     C14278   4.265   2.845  10.711  0.3150 -0.0487 -0.5030
    9MPD2    C114279   4.265   2.978  10.722  0.3180 -0.0864  0.1275
    9MPD2    C214280   4.178   3.056  10.642  0.5524 -0.5806  0.4892
    9MPD2    C314281   4.074   2.991  10.571 -0.7937 -0.6773 -0.3758
    9MPD2    C414282   4.064   2.856  10.580 -0.1435  0.2379  0.2579
    9MPD2    C514283   4.163   2.784  10.645 -0.1855  0.2890 -0.0807
    9MPD2     H14284   4.192   3.163  10.643 -3.6924 -0.0128  0.4973
    9MPD2    H114285   3.971   2.806  10.554 -0.3100  1.3247 -1.2151
    9MPD2    H214286   4.338   2.792  10.771  0.6148  0.8622 -0.0505
    9MPD2    H314287   4.148   2.682  10.680  0.6045  0.1752 -0.0588
    9MPD2     N14288   3.966   3.064  10.508 -0.7257  0.4119 -0.7000
    9MPD2    H514289   3.905   3.004  10.453  1.0168 -1.0507 -1.0477
    9MPD2    N114290   4.358   3.034  10.811  0.1967  0.5590  0.5569
    9MPD2    H714291   4.407   2.966  10.868  2.7062  1.5324 -0.4087
    1MPD1     C14292   4.073   2.518  16.726  0.1591 -0.8492 -0.2447
    1MPD1    C114293   4.156   2.584  16.631  0.0946  0.3917  0.2008
    1MPD1    C214294   4.167   2.521  16.508 -0.3288 -0.7057  0.0008
    1MPD1    C314295   4.103   2.400  16.486 -0.0067 -0.1822  0.5930
    1MPD1    C414296   4.021   2.348  16.579 -0.9633  0.4952  0.0312
    1MPD1    C514297   4.012   2.407  16.698 -0.2859  0.2781 -0.0253
    1MPD1     H14298   4.230   2.568  16.434  0.2793 -2.3922 -0.5557
    1MPD1    H114299   3.957   2.263  16.556 -2.5402  1.2796  1.4933
    1MPD1    H214300   4.051   2.560  16.823 -1.0299 -1.3674 -0.2950
    1MPD1    H314301   3.941   2.380  16.776  1.8525  2.9091  2.8545
    1MPD1     N14302   4.099   2.335  16.357 -0.5737  0.3485  0.6330
    1MPD1    H514303   4.030   2.264  16.337  0.5152 -0.9408  1.3703
    1MPD1    N114304   4.238   2.693  16.666 -0.2631 -0.2464  1.1595
    1MPD1    H614305   4.268   2.734  16.578  0.0693 -1.1764  0.8393
    1MPD1    H714306   4.190   2.765  16.720 -2.3812 -0.0565 -0.9992
    2TMC2    C114307   3.960   2.221  15.999 -0.1530  0.2375  0.3669
    2TMC2    C214308   4.006   2.280  15.884  0.1529 -0.0239  0.0931
    2TMC2    C314309   4.095   2.384  15.888 -0.0290  0.0622  0.1567
    2TMC2    C414310   4.020   2.239  16.119  0.1503  0.2275 -0.2433
    2TMC2    C514311   4.116   2.340  16.122  0.8584  0.3522 -0.2199
    2TMC2    C614312   4.147   2.413  16.008  0.0184  0.2736  0.3518
    2TMC2     C14313   3.864   2.113  16.002 -0.2345 -0.0344 -0.1446
    2TMC2     O14314   3.854   2.041  16.100 -0.1189 -0.2987  0.7977
    2TMC2     H14315   3.974   2.247  15.786  1.3524 -2.0326  0.3874
    2TMC2    H114316   3.998   2.178  16.207 -0.9379  1.6311  0.4596
    2TMC2    H214317   4.220   2.493  16.015 -2.3039  2.2033  2.5241
    2TMC2    C714318   4.180   2.368  16.246  0.1630 -0.2237  0.7309
    2TMC2    C814319   4.115   2.475  15.781  0.1630  0.5507  0.3778
    2TMC2    O114320   4.282   2.440  16.249 -0.5578  0.5653 -0.1040
    2TMC2    O214321   4.210   2.550  15.786  0.1289  0.4556  0.3034
    2TMC2    O514322   4.033   2.462  15.676 -0.2052 -0.0401 -0.1286
    2TMC2    H514323   3.960   2.398  15.693  0.1711 -0.8098 -1.4468
    3MPD1     C14324   3.613   1.768  15.711  0.5483 -0.0257  0.0070
    3MPD1    C114325   3.595   1.896  15.645  0.8593 -0.3880 -0.0657
    3MPD1    C214326   3.658   2.003  15.709 -0.4622 -0.1561 -0.3656
    3MPD1    C314327   3.720   1.993  15.832  0.1331  0.0008 -1.0255
    3MPD1    C414328   3.713   1.871  15.895  0.5986 -0.1113  0.0937
    3MPD1    C514329   3.662   1.758  15.835  0.3422 -0.5877  0.2338
    3MPD1     H14330   3.662   2.100  15.663 -1.7685 -0.0632 -0.2720
    3MPD1    H114331   3.757   1.853  15.993  1.3356  1.8556  0.1198
    3MPD1    H214332   3.563   1.679  15.674  1.8838  0.3347 -2.6691
    3MPD1    H314333   3.698   1.665  15.879  0.7932 -0.3341  0.4023
    3MPD1     N14334   3.790   2.100  15.883 -0.4383 -0.3665 -0.0437
    3MPD1    H514335   3.784   2.188  15.833 -1.7186 -0.0752  0.6369
    3MPD1    N114336   3.546   1.901  15.514  0.0022  0.5853 -0.3122
    3MPD1    H614337   3.518   1.993  15.481  2.9538  0.6717 -2.5215
    3MPD1    H714338   3.465   1.839  15.505  0.6855 -0.7032  2.2056
    1TMC1    C114339   1.812   1.157  13.009  0.1589  0.1849  0.3028
    1TMC1    C214340   1.762   1.104  13.132 -0.4185 -0.6744 -0.5984
    1TMC1    C314341   1.653   1.030  13.112  0.1454  0.2420  0.1479
    1TMC1    C414342   1.759   1.147  12.892  0.7628  0.5317 -0.4890
    1TMC1    C514343   1.635   1.094  12.891  0.4456  0.5975  0.1465
    1TMC1    C614344   1.586   1.029  12.996  0.5935 -0.3552  0.0412
    1TMC1     C14345   1.930   1.242  13.021  0.4229 -0.3068 -0.2717
    1TMC1     O14346   1.992   1.264  12.917 -0.2934  0.2779  0.1635
    1TMC1     H14347   1.819   1.097  13.224 -1.8163 -0.0861  0.3090
    1TMC1    H114348   1.809   1.161  12.797 -1.0722  1.4507 -1.3244
    1TMC1    H214349   1.481   1.003  13.000 -0.0496  2.4593  1.4111
    1TMC1    C714350   1.559   1.087  12.769  0.9859 -0.6039  0.0073
    1TMC1    C814351   1.587   0.977  13.230 -0.5400 -0.2585 -0.1586
    1TMC1    O114352   1.472   1.001  12.760  0.5821 -0.4724 -0.4287
    1TMC1    O214353   1.538   1.058  13.309  0.1426 -0.5026 -1.1192
    1TMC1    O314354   1.578   1.190  12.684 -0.2367 -0.0529 -0.3791
    1TMC1    H314355   1.640   1.259  12.719  0.6293 -1.8150  1.5738
    1TMC1    O514356   1.673   0.887  13.262 -0.1867 -0.3786  0.3021
    1TMC1    H514357   1.699   0.833  13.184  0.3232  0.9401 -0.4335
    2MPD2     C14358   2.178   1.383  13.124  0.9049 -0.1865 -0.1473
    2MPD2    C114359   2.063   1.367  13.196  0.1846 -0.1915  0.3326
    2MPD2    C214360   2.055   1.427  13.322 -0.7969  0.0295 -0.7689
    2MPD2    C314361   2.157   1.506  13.376 -0.0739 -1.3116  0.5257
    2MPD2    C414362   2.275   1.512  13.299  0.1935  0.1544  0.9433
    2MPD2    C514363   2.289   1.448  13.176 -0.0606 -0.2596 -0.7693
    2MPD2     H14364   1.964   1.418  13.381  0.6713 -0.2637  1.4287
    2MPD2    H114365   2.361   1.562  13.341  0.7292 -1.3782  1.6442
    2MPD2    H214366   2.183   1.342  13.023 -1.9879 -0.7219 -0.0713
    2MPD2    H314367   2.378   1.469  13.118  0.6469  2.1001  1.1906
    2MPD2     N14368   2.142   1.564  13.496 -0.1157  0.1006  0.1258
    2MPD2    H514369   2.051   1.564  13.542 -0.4141 -0.0195 -0.4702
    2MPD2    N114370   1.947   1.297  13.146 -0.1102 -0.0980  0.3817
    2MPD2    H714371   1.866   1.276  13.203  0.3912 -0.3513  1.0084
    3TCq1    O114372   1.816   1.789  13.755 -0.2801  0.2633 -0.2620
    3TCq1    C114373   1.886   1.888  13.712 -0.2227  0.2270  0.1387
    3TCq1    O214374   1.858   1.952  13.612 -0.1825 -0.5060  0.1607
    3TCq1    C214375   2.025   1.857  13.738  0.2231  0.3226  0.2942
    3TCq1    C314376   2.060   1.834  13.870  0.5646  0.3456 -0.1657
    3TCq1    C414377   2.174   1.769  13.900 -0.1716  0.3947 -0.3115
    3TCq1    C514378   2.242   1.710  13.797 -0.7244 -1.0951  0.2456
    3TCq1    C614379   2.185   1.704  13.673 -0.6372 -0.4640 -0.8130
    3TCq1    C714380   2.078   1.783  13.638 -0.0534 -0.3202 -0.0700
    3TCq1    C814381   2.240   1.611  13.583 -0.3972  0.4974  1.0863
    3TCq1    O414382   2.362   1.598  13.573  0.4042 -0.0352 -0.1425
    3TCq1    C914383   2.215   1.732  14.031  0.3542  0.7070  0.1830
    3TCq1    O514384   2.127   1.744  14.120 -0.1704  0.3455 -0.6103
    3TCq1    O614385   2.335   1.694  14.053 -0.5238 -0.5501 -0.2737
    3TCq1    H114386   1.857   1.741  13.830 -1.7416 -1.5453 -0.5945
    3TCq1    H214387   2.006   1.875  13.955 -0.3304 -0.3583 -0.3972
    3TCq1    H314388   2.319   1.636  13.815  1.2242  0.9356  0.3203
    3TCq1    H414389   2.052   1.796  13.534  1.8116 -0.8427 -0.6032
    1MPD2     C14390   1.730   2.656  15.038 -0.7336  0.3939  0.0908
    1MPD2    C114391   1.655   2.542  15.035  0.4776 -0.0409  1.0076
    1MPD2    C214392   1.711   2.421  15.054  0.4832  0.6355  1.2583
    1MPD2    C314393   1.848   2.404  15.069  0.4888  0.6882  0.3064
    1MPD2    C414394   1.921   2.516  15.092 -0.1864  0.4999 -0.2606
    1MPD2    C514395   1.864   2.643  15.069 -0.3773 -0.3245  1.0317
    1MPD2     H14396   1.645   2.335  15.047  0.7271  0.4511  1.2306
    1MPD2    H114397   2.028   2.512  15.112 -0.4342  3.6804  1.7509
    1MPD2    H214398   1.684   2.754  15.034 -0.9173  0.3685  1.6683
    1MPD2    H314399   1.936   2.724  15.071 -1.6666  0.8885 -1.1949
    1MPD2     N14400   1.911   2.274  15.076 -0.8158  0.1377  0.2294
    1MPD2    H514401   2.007   2.280  15.108 -0.4114 -0.4012 -0.9148
    1MPD2    N114402   1.515   2.560  15.031  0.5961  0.1282 -0.0142
    1MPD2    H714403   1.490   2.658  15.022 -3.6341 -0.9733 -0.4046
    2TMC3    C114404   1.282   2.515  15.065  0.1873  0.0406  0.0980
    2TMC3    C214405   1.193   2.413  15.092 -0.7109  0.4008  0.9508
    2TMC3    C314406   1.094   2.377  15.010  0.1964 -0.2580 -0.8129
    2TMC3    C414407   1.251   2.595  14.955  0.1272 -0.2535 -0.1838
    2TMC3    C514408   1.140   2.568  14.882  0.3236 -0.2767 -0.2663
    2TMC3    C614409   1.060   2.458  14.903 -0.1368 -0.3230  0.2337
    2TMC3     C14410   1.423   2.477  15.096  0.6698 -0.7213  0.2014
    2TMC3     O14411   1.452   2.370  15.150 -0.1613  0.1183  0.1918
    2TMC3     H14412   1.200   2.361  15.187  1.7884 -1.2252 -0.1230
    2TMC3    H114413   1.320   2.673  14.925 -0.3028  0.4885  0.7518
    2TMC3    H214414   0.984   2.424  14.834 -1.0087  1.1695  0.4702
    2TMC3    C714415   1.113   2.643  14.760 -0.1485 -1.0539 -0.1216
    2TMC3    C814416   1.104   2.237  14.966 -0.5290  0.1834  0.7352
    2TMC3    O114417   1.028   2.604  14.679 -0.8486 -0.2889  0.2331
    2TMC3    O214418   1.019   2.192  14.893 -0.5144  0.9378  0.0592
    3TCq1    O114419   1.469   3.872  14.777 -0.3321  0.0523  0.2359
    3TCq1    C114420   1.364   3.790  14.772  0.4662 -0.2648 -0.6700
    3TCq1    O214421   1.247   3.830  14.767  0.2519 -0.5993  0.2342
    3TCq1    C214422   1.403   3.647  14.756 -0.5694 -0.2878 -0.2349
    3TCq1    C314423   1.513   3.604  14.831 -0.0444 -0.4111 -0.7772
    3TCq1    C414424   1.560   3.482  14.815 -0.1572  0.1406  0.0050
    3TCq1    C514425   1.492   3.390  14.743 -0.2033  0.3373 -0.2228
    3TCq1    C614426   1.383   3.432  14.674  0.7310 -0.0771  0.2057
    3TCq1    C714427   1.346   3.564  14.670  0.3054 -0.4224  0.1669
    3TCq1    C814428   1.300   3.338  14.596 -0.5266  0.4884 -0.1424
    3TCq1    O414429   1.213   3.374  14.518 -0.1141  0.0029 -0.0360
    3TCq1    C914430   1.677   3.443  14.889 -0.0106  0.7273 -0.0099
    3TCq1    O514431   1.696   3.320  14.918 -0.0409  0.2719  0.1276
    3TCq1    O614432   1.755   3.534  14.930  0.1475 -0.2509 -0.5305
    3TCq1    H114433   1.556   3.833  14.752  1.3472  2.6903  1.9632
    3TCq1    H214434   1.571   3.675  14.888 -0.5280 -0.0092 -0.7785
    3TCq1    H314435   1.527   3.288  14.732  1.1334  0.6838  0.8662
    3TCq1    H414436   1.250   3.590  14.626  0.1259  1.5764  1.7224
    4MPD2     C14437   1.159   3.086  14.502  0.3781  0.9711 -0.3067
    4MPD2    C114438   1.241   3.099  14.616 -0.3320 -0.1283  1.0001
    4MPD2    C214439   1.240   2.990  14.702  0.1190  0.1706  0.0981
    4MPD2    C314440   1.161   2.872  14.679  0.0567  0.2723 -0.1232
    4MPD2    C414441   1.082   2.865  14.562 -0.7295 -0.4271  0.6138
    4MPD2    C514442   1.091   2.969  14.477 -0.3577 -0.5440  0.2103
    4MPD2     H14443   1.306   2.983  14.788 -1.1651 -0.7919  1.0013
    4MPD2    H114444   1.019   2.782  14.531 -1.6295  0.0194  1.2465
    4MPD2    H214445   1.153   3.161  14.425  0.3288  1.8912  0.5915
    4MPD2    H314446   1.036   2.949  14.387  1.8984  0.5928 -1.4407
    4MPD2     N14447   1.173   2.766  14.768 -0.0170 -0.5729 -0.5801
    4MPD2    H514448   1.240   2.782  14.842  0.4288  0.5182 -1.2247
    4MPD2    N114449   1.309   3.215  14.657 -0.1257 -0.1796  0.0102
    4MPD2    H714450   1.379   3.211  14.730  0.1620  0.4399 -0.2238
    5TMC2    C114451   1.758   1.908  15.218  0.6025  0.0208 -0.6865
    5TMC2    C214452   1.795   1.941  15.346  0.2167  0.5740 -0.5427
    5TMC2    C314453   1.885   2.045  15.359  0.2901 -1.1398 -0.0380
    5TMC2    C414454   1.835   1.948  15.112  0.0837 -0.1448  0.3668
    5TMC2    C514455   1.917   2.057  15.123 -0.1688  0.9573 -0.2193
    5TMC2    C614456   1.951   2.102  15.252  0.0133 -1.6244  0.1093
    5TMC2     C14457   1.617   1.930  15.191  0.5476  0.1503  0.5401
    5TMC2     O14458   1.548   1.996  15.264 -0.2865 -0.6885 -0.5022
    5TMC2     H14459   1.738   1.906  15.432  0.5573  0.5574 -0.3221
    5TMC2    H114460   1.814   1.916  15.011  3.3192 -0.6323 -0.1589
    5TMC2    H214461   2.012   2.184  15.289 -0.5332 -2.1291  2.1206
    5TMC2    C714462   1.847   2.164  15.052 -0.2949 -0.1291 -0.4176
    5TMC2    C814463   1.898   2.109  15.488 -0.1056  0.1227  0.4104
    5TMC2    O114464   1.757   2.142  14.971  0.7933 -0.1617  0.1569
    5TMC2    O214465   1.964   2.076  15.586  0.1857  0.3992  0.1429
    5TMC2    O514466   1.854   2.234  15.467  0.0918  0.3785  0.3134
    5TMC2    H514467   1.778   2.252  15.407 -0.1695 -0.6319  0.3434
    6MPD2     C14468   1.223   1.987  14.869  0.9807 -0.7089 -0.7073
    6MPD2    C114469   1.277   2.072  14.961  0.4332 -0.2774 -0.3987
    6MPD2    C214470   1.394   2.038  15.023 -0.1120  0.0855 -0.0920
    6MPD2    C314471   1.461   1.922  15.003 -0.3507 -0.8303  0.6707
    6MPD2    C414472   1.417   1.845  14.898  1.1169  0.1463  0.5969
    6MPD2    C514473   1.300   1.879  14.839  0.5139  0.2113 -0.2294
    6MPD2     H14474   1.433   2.108  15.096 -0.7850  1.0226 -0.6291
    6MPD2    H114475   1.465   1.755  14.863 -0.6583  0.1834 -1.9214
    6MPD2    H214476   1.132   1.994  14.811  0.9833 -2.5852 -0.9320
    6MPD2    H314477   1.267   1.822  14.753 -0.1348  0.4303 -0.1238
    6MPD2     N14478   1.585   1.890  15.064 -0.8617  0.1269  0.6248
    6MPD2    H514479   1.646   1.817  15.027 -2.3220 -1.3397  1.1168
    6MPD2    N114480   1.218   2.187  15.009 -0.9037  0.2872 -0.0798
    6MPD2    H714481   1.275   2.241  15.073  1.0200 -0.0922 -1.4914
  945NH4     N114482   2.010   1.144  11.646 -0.2106 -0.3425 -0.0163
  945NH4     H214483   2.064   1.225  11.682  1.7078 -1.8347  0.4614
  945NH4     H314484   2.033   1.131  11.545  0.8860  0.0244  0.1844
  945NH4     H414485   1.908   1.157  11.658 -0.4147 -2.1275  0.2370
  945NH4     H514486   2.042   1.057  11.694  1.2982  1.3354  2.0030
  946SOD     NA14487   3.221   2.575  15.076  0.4474 -0.5264 -0.0683
  947SOD     NA14488   2.018   1.524  10.821  0.2432 -0.3905 -0.2667
  948SOD     NA14489   1.941   3.317  12.410 -0.0686  0.2813 -0.2094
  949SOD     NA14490   2.291   1.607  14.259 -0.3416  0.5007 -0.1288
  950SOD     NA14491   2.854   0.725   2.164 -0.1130  0.1198  0.3048
  951SOD     NA14492   3.935   2.588  17.368 -0.0618 -0.1895  0.0634
  952SOD     NA14493   0.414   4.675  13.740 -0.5478  0.0640  0.1714
  953SOL     OW14494   1.834   3.764   3.498 -0.1067 -0.1718 -0.0594
  953SOL    HW114495   1.821   3.705   3.573  1.3026 -0.5846 -0.1326
  953SOL    HW214496   1.926   3.744   3.482 -0.2789 -0.9111 -0.1356
  954SOL     OW14497   0.050   0.179   8.662 -0.5364  0.5726 -0.2050
  954SOL    HW114498   0.045   0.097   8.612  2.3497  0.2019  0.1553
  954SOL    HW214499   4.726   0.150   8.730 -1.7082  1.7487 -0.7582
  955SOL     OW14500   1.243   3.795   0.063 -0.0116 -0.3935  0.0049
  955SOL    HW114501   1.337   3.792   0.080  0.0072  1.0161  0.1449
  955SOL    HW214502   1.230   3.888   0.043 -0.6442 -0.3223  0.7579
  956SOL     OW14503   1.231   4.442  11.472 -0.2286  0.0614  0.2045
  956SOL    HW114504   1.271   4.499  11.406  1.1043  0.0731  1.0142
  956SOL    HW214505   1.216   4.505  11.543  1.1227 -0.4400  0.9300
  957SOL     OW14506   2.475   2.578   1.728  0.1116  0.3087  0.2224
  957SOL    HW114507   2.498   2.539   1.643 -2.9862 -1.2293  0.0768
  957SOL    HW214508   2.393   2.532   1.749 -0.0702  1.0438  1.1282
  958SOL     OW14509   2.999   2.247  12.923 -0.7823  1.0733 -0.1783
  958SOL    HW114510   2.929   2.185  12.940  0.5541 -0.5300 -0.4935
  958SOL    HW214511   2.998   2.259  12.828 -0.7523  1.1514 -0.1692
  959SOL     OW14512   4.420   2.159   1.252  0.1258  0.2333 -0.3913
  959SOL    HW114513   4.361   2.147   1.327 -1.3984  0.7213 -1.5143
  959SOL    HW214514   4.362   2.184   1.180  0.5278 -1.7703 -1.4057
  960SOL     OW14515   4.513   1.707   0.953 -0.1350  0.4462 -0.3853
  960SOL    HW114516   4.588   1.694   0.896 -1.6298 -2.1433 -1.7572
  960SOL    HW214517   4.539   1.797   0.975 -0.4996  0.5457 -0.3471
  961SOL     OW14518   2.407   0.737  11.999  0.2195  0.0822 -0.4501
  961SOL    HW114519   2.420   0.782  12.082  0.6396 -0.0059 -0.4706
  961SOL    HW214520   2.495   0.707  11.976  0.3207  0.0466 -0.0128
  962SOL     OW14521   4.035   4.297  12.862 -0.5571 -0.4092 -0.0110
  962SOL    HW114522   4.068   4.216  12.823 -1.6322 -1.1965  0.7149
  962SOL    HW214523   4.095   4.298  12.937 -0.2244 -1.8040 -0.2519
  963SOL     OW14524   2.626   2.394  14.747  0.6073  0.1637 -0.6866
  963SOL    HW114525   2.673   2.363  14.669  0.6332  0.9313 -0.9786
  963SOL    HW214526   2.539   2.409  14.711 -0.0187 -2.4589 -0.2229
  964SOL     OW14527   2.139   0.591   4.479 -0.1733  0.0042 -0.0217
  964SOL    HW114528   2.103   0.647   4.411 -2.5645 -1.5940 -0.0670
  964SOL    HW214529   2.170   0.656   4.541 -1.3675  0.4654  0.0845
  965SOL     OW14530   2.508   1.696   7.292  0.5853  0.2842  0.0745
  965SOL    HW114531   2.512   1.787   7.320 -0.5370 -0.1534  1.6346
  965SOL    HW214532   2.573   1.696   7.221 -2.9618  0.4134 -3.2171
  966SOL     OW14533   3.819   3.294   4.152 -0.0297 -0.3418  0.2905
  966SOL    HW114534   3.731   3.260   4.137 -0.0079 -0.3651  0.2157
  966SOL    HW214535   3.820   3.317   4.244 -1.6058  1.2201 -0.0780
  967SOL     OW14536   1.686   1.969   5.071  0.1730  0.0708  0.0650
  967SOL    HW114537   1.735   1.888   5.090 -0.8042  0.3591  3.7943
  967SOL    HW214538   1.597   1.938   5.087 -1.1626  3.7017 -0.4137
  968SOL     OW14539   4.120   2.278   5.427  0.0421  0.4392  0.2296
  968SOL    HW114540   4.105   2.279   5.333 -2.1893  0.7520  0.5873
  968SOL    HW214541   4.128   2.369   5.454  1.2047  0.8152 -1.3864
  969SOL     OW14542   4.288   2.835  17.281 -0.2763  0.5308  0.1834
  969SOL    HW114543   4.338   2.767  17.325  1.0901  1.4651  0.0804
  969SOL    HW214544   4.311   2.912  17.334  0.9882 -0.2541  0.7604
  970SOL     OW14545   1.526   2.158   8.368  0.2005  0.1865 -0.0414
  970SOL    HW114546   1.595   2.172   8.434  1.1320 -2.6766 -0.4159
  970SOL    HW214547   1.471   2.091   8.408  0.2964 -0.6775 -1.3841
  971SOL     OW14548   2.248   2.556   1.329  0.4066 -0.3221 -0.0462
  971SOL    HW114549   2.224   2.526   1.417  2.6609  1.0657  1.0522
  971SOL    HW214550   2.259   2.481   1.271 -0.2992 -1.4625  1.2759
  972SOL     OW14551   2.684   4.293   7.086 -0.0321 -0.2729  0.1895
  972SOL    HW114552   2.642   4.321   7.167  1.0096 -0.1951  0.6914
  972SOL    HW214553   2.686   4.198   7.097 -1.7877 -0.4404 -0.9399
  973SOL     OW14554   2.538   1.773   5.185 -0.1774 -0.3886 -0.3260
  973SOL    HW114555   2.553   1.699   5.127 -0.2389  0.8139 -1.8794
  973SOL    HW214556   2.446   1.762   5.210 -0.0495 -0.6293  0.0420
  974SOL     OW14557   2.928   0.753   3.909 -0.0689  0.0435  0.7200
  974SOL    HW114558   2.890   0.666   3.907 -0.0049  0.0155  0.7270
  974SOL    HW214559   3.023   0.738   3.911 -0.0966  0.0009  1.6798
  975SOL     OW14560   0.624   0.808   9.338  0.0227  1.0688 -0.0590
  975SOL    HW114561   0.548   0.756   9.314  0.6872  0.7270 -1.4074
  975SOL    HW214562   0.603   0.885   9.286 -0.6864  1.4716  0.8319
  976SOL     OW14563   0.877   2.550  10.188  0.1067 -0.0359  0.0125
  976SOL    HW114564   0.813   2.541  10.260 -1.9570  0.1451 -1.8108
  976SOL    HW214565   0.905   2.641  10.189 -1.6760  0.4914  3.7665
  977SOL     OW14566   4.319   2.945  12.261  0.3368 -0.2902 -0.0762
  977SOL    HW114567   4.341   2.970  12.172  1.1563  2.6085  0.9109
  977SOL    HW214568   4.225   2.960  12.273  0.7354  2.3577 -0.2228
  978SOL     OW14569   3.246   0.362   6.768 -0.2555  0.5249  0.1648
  978SOL    HW114570   3.337   0.383   6.747 -0.1231 -0.0014  0.1992
  978SOL    HW214571   3.234   0.307   6.690  0.7660 -1.6481  1.5145
  979SOL     OW14572   0.203   3.396   6.342 -0.2866 -0.7756 -0.4761
  979SOL    HW114573   0.146   3.463   6.380  3.0433  1.7298  0.1089
  979SOL    HW214574   0.149   3.355   6.275 -1.2673  0.9660 -0.7523
  980SOL     OW14575   3.462   4.100   7.179 -0.1288 -0.1888 -0.1805
  980SOL    HW114576   3.485   4.147   7.099 -0.9437 -2.5713 -1.8335
  980SOL    HW214577   3.416   4.024   7.144  0.8255 -1.3562  1.1059
  981SOL     OW14578   1.837   0.162   9.562 -0.4336 -0.0312  0.3521
  981SOL    HW114579   1.892   0.166   9.484  0.3274  0.7013  0.9309
  981SOL    HW214580   1.751   0.177   9.523 -1.1821 -3.2755  0.7326
  982SOL     OW14581   0.021   4.325   5.582  0.1023  0.0510  0.2434
  982SOL    HW114582   0.102   4.278   5.603 -0.2396  1.1299  3.8429
  982SOL    HW214583   4.688   4.261   5.594  0.7901 -0.8305 -0.3807
  983SOL     OW14584   1.824   2.280   4.657 -0.1187  0.5781 -0.8595
  983SOL    HW114585   1.750   2.250   4.603  1.0941  0.2063 -2.3344
  983SOL    HW214586   1.792   2.355   4.705  1.1370 -0.0907  0.9978
  984SOL     OW14587   2.470   2.263  10.149 -0.1118 -0.4230 -0.5677
  984SOL    HW114588   2.472   2.208  10.072  0.7182 -0.0317 -0.8256
  984SOL    HW214589   2.560   2.261  10.182  0.0533  0.8065 -0.9460
  985SOL     OW14590   2.957   3.151   1.313 -0.3540 -0.1152  0.0510
  985SOL    HW114591   2.888   3.215   1.329  1.0870  0.3950  4.3364
  985SOL    HW214592   2.920   3.120   1.231 -0.1395  2.4888 -1.0199
  986SOL     OW14593   1.527   3.216   1.447  0.4936  0.6451  0.0868
  986SOL    HW114594   1.573   3.141   1.409  0.8179  1.9806 -2.1569
  986SOL    HW214595   1.453   3.179   1.495 -0.6517  2.8360  0.0339
  987SOL     OW14596   2.693   1.850   5.942 -0.0053 -0.2260 -0.2449
  987SOL    HW114597   2.761   1.785   5.960  0.0429  0.2669  1.3994
  987SOL    HW214598   2.738   1.911   5.884  1.0893  1.3720  2.2409
  988SOL     OW14599   1.881   0.520  13.730 -0.4451  0.3534 -0.4416
  988SOL    HW114600   1.847   0.472  13.654  1.4254  1.8810 -2.2503
  988SOL    HW214601   1.855   0.610  13.713 -1.5542  0.1930  0.4427
  989SOL     OW14602   1.133   4.077  12.946  0.3405  0.3358  0.5426
  989SOL    HW114603   1.170   4.077  13.035  3.2875  1.6434 -0.6727
  989SOL    HW214604   1.185   4.011  12.900 -2.2387 -1.7935  0.6753
  990SOL     OW14605   2.512   1.071   8.761  0.4305  0.2996  0.6110
  990SOL    HW114606   2.504   1.093   8.854 -0.3171 -1.3371  0.9325
  990SOL    HW214607   2.604   1.092   8.746  0.4658 -1.1385 -1.1108
  991SOL     OW14608   1.677   2.098   5.972 -0.4649 -0.7093  0.0673
  991SOL    HW114609   1.715   2.030   5.916 -0.0289 -0.0865 -0.3987
  991SOL    HW214610   1.708   2.179   5.930 -0.8037 -1.2658 -1.2622
  992SOL     OW14611   2.839   1.205   3.070 -0.3888 -0.6060 -0.6626
  992SOL    HW114612   2.837   1.168   2.982 -2.1072  0.5978 -1.1505
  992SOL    HW214613   2.758   1.162   3.097 -0.7648  0.1882 -0.5132
  993SOL     OW14614   3.453   0.292  15.659 -0.2269  0.4808  0.2986
  993SOL    HW114615   3.445   0.309  15.566 -1.0294  0.0542  0.2865
  993SOL    HW214616   3.415   0.373  15.692 -2.4813  0.1547 -1.5041
  994SOL     OW14617   3.023   2.045   0.507  0.0088  0.1112 -0.1457
  994SOL    HW114618   3.088   1.979   0.528  1.3836  1.1856 -1.0350
  994SOL    HW214619   3.060   2.080   0.426 -1.9645  1.3947 -0.5074
  995SOL     OW14620   3.435   3.595   3.202 -0.0441 -0.8008 -0.3989
  995SOL    HW114621   3.427   3.569   3.110 -4.2089  0.4236 -0.3825
  995SOL    HW214622   3.343   3.610   3.222  0.0059  1.5439 -2.0402
  996SOL     OW14623   2.231   1.277   4.002 -0.5515 -0.2086  0.4787
  996SOL    HW114624   2.155   1.227   4.031  0.7145 -0.8122  2.7153
  996SOL    HW214625   2.299   1.225   4.043 -1.8930 -0.7531  1.9999
  997SOL     OW14626   2.227   1.882   5.914  0.1950 -0.4096  0.0674
  997SOL    HW114627   2.154   1.913   5.968 -1.5573 -3.1082 -0.7095
  997SOL    HW214628   2.265   1.969   5.901  2.3193 -1.1636  1.2911
  998SOL     OW14629   2.081   4.337   7.402  0.0871 -0.3902  0.6866
  998SOL    HW114630   2.137   4.305   7.332 -0.8357 -2.5232  0.9447
  998SOL    HW214631   2.124   4.321   7.486  0.3491 -1.6975  0.2938
  999SOL     OW14632   1.181   1.462   3.167 -0.3224  0.5003 -0.4563
  999SOL    HW114633   1.225   1.419   3.240  0.2343 -0.6904 -1.5018
  999SOL    HW214634   1.096   1.482   3.208  0.0996 -0.4305  0.8821
 1000SOL     OW14635   2.693   3.499   5.453  0.5682 -0.1478 -0.0826
 1000SOL    HW114636   2.655   3.452   5.527 -1.6479 -2.2115 -2.5057
 1000SOL    HW214637   2.763   3.543   5.501  1.9103 -2.2793 -0.0945
 1001SOL     OW14638   1.696   0.341   1.024 -0.3746 -0.2650  0.1156
 1001SOL    HW114639   1.737   0.389   0.952 -3.4493 -0.4858 -1.7661
 1001SOL    HW214640   1.656   0.415   1.070  0.5695  2.1838 -3.0547
 1002SOL     OW14641   0.778   2.761   5.391  0.2068  0.0428 -0.5226
 1002SOL    HW114642   0.730   2.695   5.341  1.9037 -0.9781 -0.8352
 1002SOL    HW214643   0.869   2.729   5.388  0.5942  1.2197 -1.2078
 1003SOL     OW14644   1.859   3.775   6.854 -0.2125 -0.0012  0.0677
 1003SOL    HW114645   1.857   3.779   6.758 -0.4272  2.2788  0.1563
 1003SOL    HW214646   1.814   3.693   6.870 -0.7461  0.0187 -1.2936
 1004SOL     OW14647   0.723   2.445  11.643  0.7094  0.1380 -0.4093
 1004SOL    HW114648   0.800   2.488  11.682  1.7132 -1.5232 -0.5696
 1004SOL    HW214649   0.653   2.491  11.691  0.1032  0.0159 -1.1810
 1005SOL     OW14650   1.233   4.139   5.445 -0.4941 -0.4179 -0.5587
 1005SOL    HW114651   1.175   4.087   5.501  1.7092 -2.8063 -0.5001
 1005SOL    HW214652   1.313   4.090   5.463  0.3023  0.8483 -0.5991
 1006SOL     OW14653   1.561   2.294   7.105  0.1576  0.4917  0.1606
 1006SOL    HW114654   1.587   2.260   7.190 -1.2136  1.0808  0.8091
 1006SOL    HW214655   1.639   2.349   7.097  0.0648  0.5770 -0.1818
 1007SOL     OW14656   1.667   3.019   6.667 -0.1547  0.3238 -0.3114
 1007SOL    HW114657   1.738   3.017   6.604  2.5783 -0.5034  2.8158
 1007SOL    HW214658   1.702   2.953   6.726  1.2622  1.8387  0.5269
 1008SOL     OW14659   4.021   0.230   8.341 -0.5304 -0.2806 -0.1332
 1008SOL    HW114660   4.037   0.182   8.423  0.0781 -0.6620 -0.4722
 1008SOL    HW214661   4.032   0.320   8.372  1.5647 -0.4246 -0.4393
 1009SOL     OW14662   0.308   2.763   2.586  0.4573 -0.2129 -0.4618
 1009SOL    HW114663   0.338   2.776   2.676 -0.4736  0.3502 -0.2275
 1009SOL    HW214664   0.338   2.851   2.561 -0.6399  0.3701  0.2748
 1010SOL     OW14665   3.265   4.292   5.040 -0.7226 -0.2830  0.4645
 1010SOL    HW114666   3.317   4.232   5.094  3.6561  2.3609 -0.8571
 1010SOL    HW214667   3.186   4.238   5.030 -0.9061  0.2820 -1.1157
 1011SOL     OW14668   2.292   2.615   0.326 -0.7598 -0.1775 -0.4338
 1011SOL    HW114669   2.298   2.681   0.257  0.7717 -1.0745 -1.1553
 1011SOL    HW214670   2.362   2.649   0.382 -0.0599 -1.3438 -0.6190
 1012SOL     OW14671   3.756   2.818   8.003 -0.5301 -0.1601  0.2322
 1012SOL    HW114672   3.842   2.781   8.025 -0.3358 -0.1648 -0.5108
 1012SOL    HW214673   3.722   2.805   8.091  1.3077 -1.9920  0.6826
 1013SOL     OW14674   4.530   1.892  13.569  0.4655 -0.5263  0.0024
 1013SOL    HW114675   4.439   1.915  13.588 -0.3958 -3.2220 -0.8523
 1013SOL    HW214676   4.575   1.976  13.582  0.2105 -0.3721 -0.1101
 1014SOL     OW14677   1.523   3.965   7.255  0.4927  0.1437  0.2804
 1014SOL    HW114678   1.556   3.883   7.218  0.9254  0.2903  0.3422
 1014SOL    HW214679   1.581   4.027   7.210  1.2130 -0.8121 -0.1111
 1015SOL     OW14680   4.220   1.369  17.149 -0.0145  0.1664 -0.1229
 1015SOL    HW114681   4.172   1.323  17.080 -0.2960 -0.9802  0.8417
 1015SOL    HW214682   4.269   1.430  17.094  2.4358 -1.0568  0.6962
 1016SOL     OW14683   0.464   0.273   4.876 -0.1192 -0.9144 -0.3496
 1016SOL    HW114684   0.517   0.193   4.882 -2.6658 -2.5936 -0.5031
 1016SOL    HW214685   0.491   0.313   4.793 -1.4356  0.8899  0.1050
 1017SOL     OW14686   2.971   1.680   8.483  0.5040  0.3739 -0.6322
 1017SOL    HW114687   3.022   1.736   8.424 -0.9251  0.6111 -1.6414
 1017SOL    HW214688   3.032   1.628   8.534  1.7073  0.5533 -1.8847
 1018SOL     OW14689   3.585   1.440  15.146 -0.5787 -0.3243  0.2616
 1018SOL    HW114690   3.676   1.468  15.156 -1.0253  0.6638  1.5707
 1018SOL    HW214691   3.574   1.432  15.051  0.0347  1.2878  0.0510
 1019SOL     OW14692   3.402   3.391   7.548 -0.4090 -0.0638  0.0425
 1019SOL    HW114693   3.467   3.395   7.618 -2.2901  0.8491  1.7378
 1019SOL    HW214694   3.332   3.449   7.578 -0.2703 -0.1539  0.5492
 1020SOL     OW14695   0.827   1.622  10.428  0.4382 -0.0896 -0.5267
 1020SOL    HW114696   0.792   1.600  10.342  1.2671 -0.8953 -0.6522
 1020SOL    HW214697   0.869   1.539  10.448  0.3314 -0.2525 -0.9800
 1021SOL     OW14698   2.783   3.524  15.716 -0.3126 -0.2263 -0.2286
 1021SOL    HW114699   2.725   3.478  15.655  0.0203 -0.4497 -0.3811
 1021SOL    HW214700   2.803   3.452  15.776 -0.7224  1.1796  1.5644
 1022SOL     OW14701   0.321   1.391  11.735 -0.2809 -0.1270 -0.3367
 1022SOL    HW114702   0.229   1.372  11.717 -0.1098 -0.5247 -0.7875
 1022SOL    HW214703   0.332   1.421  11.644 -2.4730  2.6935  0.3099
 1023SOL     OW14704   0.037   2.099   1.110 -0.2654  0.1642  0.5779
 1023SOL    HW114705   0.130   2.118   1.114  0.0677 -1.1829 -0.9516
 1023SOL    HW214706   0.007   2.168   1.170  2.2795  0.5399  1.4094
 1024SOL     OW14707   0.515   1.135   4.404 -0.3220  0.0568  0.1526
 1024SOL    HW114708   0.427   1.172   4.399  0.7444  1.9521 -5.0031
 1024SOL    HW214709   0.499   1.062   4.463 -0.3882 -0.8282 -0.9437
 1025SOL     OW14710   0.708   3.921   2.045  0.5127  0.7842  0.3378
 1025SOL    HW114711   0.767   3.979   1.998 -1.8205  1.7127 -1.4710
 1025SOL    HW214712   0.757   3.910   2.127 -1.1170  1.8748  1.4677
 1026SOL     OW14713   3.606   1.302  14.901  0.4051 -0.3217  0.2363
 1026SOL    HW114714   3.611   1.333  14.811 -0.2149  0.6155  0.5254
 1026SOL    HW214715   3.584   1.211  14.883  0.5056 -0.2372 -0.3072
 1027SOL     OW14716   4.391   1.343   8.446 -0.0160 -0.0002  0.4391
 1027SOL    HW114717   4.434   1.420   8.409 -0.6453  0.4054  0.5569
 1027SOL    HW214718   4.455   1.312   8.511  1.5628 -0.0547 -1.1410
 1028SOL     OW14719   4.673   3.439   5.319 -0.2793  0.3977 -0.0596
 1028SOL    HW114720   4.615   3.482   5.257  1.2357 -0.7098 -2.2478
 1028SOL    HW214721   4.664   3.500   5.392 -2.2428  0.0838 -0.0256
 1029SOL     OW14722   2.572   0.665  10.120 -0.8845 -0.1015  0.2775
 1029SOL    HW114723   2.650   0.640  10.070  0.5818  1.0789  2.0027
 1029SOL    HW214724   2.507   0.663  10.049 -1.2750 -1.6749  0.6658
 1030SOL     OW14725   3.440   3.652  11.182 -0.2464  0.3316 -0.8459
 1030SOL    HW114726   3.519   3.691  11.220  0.4725 -1.7587 -0.2350
 1030SOL    HW214727   3.477   3.567  11.160  0.0915 -0.0728  1.2999
 1031SOL     OW14728   0.306   3.500   6.992 -0.3674 -0.2475  0.3528
 1031SOL    HW114729   0.318   3.595   6.990 -2.1421 -0.0415  0.0541
 1031SOL    HW214730   0.261   3.485   6.910 -0.2258  0.0637  0.2177
 1032SOL     OW14731   0.439   4.052   8.759  0.2747  0.0054 -0.9812
 1032SOL    HW114732   0.353   4.075   8.722 -0.3775 -1.4036 -0.3395
 1032SOL    HW214733   0.404   4.000   8.832  1.1604 -0.0634 -0.6126
 1033SOL     OW14734   1.639   4.554   5.184  0.6874 -0.5477 -1.1594
 1033SOL    HW114735   1.669   4.490   5.119 -0.7027 -0.9652 -1.3699
 1033SOL    HW214736   1.639   4.506   5.267 -3.2154  0.9659 -0.3132
 1034SOL     OW14737   3.306   3.099   1.232  0.1663  0.1623  0.3231
 1034SOL    HW114738   3.358   3.177   1.250  0.5522 -0.1909  0.7530
 1034SOL    HW214739   3.286   3.100   1.138  2.8081 -0.4206 -0.2452
 1035SOL     OW14740   4.005   2.020   4.031 -0.2466  0.2144  0.4020
 1035SOL    HW114741   3.925   1.968   4.018 -0.4667  0.4176  0.9467
 1035SOL    HW214742   4.031   2.016   3.938 -0.2575 -3.1801  0.5164
 1036SOL     OW14743   0.750   2.695   3.281 -0.1236  0.7774  0.1881
 1036SOL    HW114744   0.710   2.627   3.333 -1.0181  2.1595  1.3041
 1036SOL    HW214745   0.843   2.671   3.274 -0.7925 -1.3003 -1.3436
 1037SOL     OW14746   2.550   4.380  11.922 -0.1971  0.0171  0.7643
 1037SOL    HW114747   2.513   4.301  11.883  0.8284 -0.9148  1.7025
 1037SOL    HW214748   2.558   4.359  12.015  1.3063  1.2535  0.9125
 1038SOL     OW14749   2.016   2.940   7.169 -0.5071 -0.0632 -0.0638
 1038SOL    HW114750   1.946   3.001   7.147 -0.2861  0.4521  0.6558
 1038SOL    HW214751   2.085   2.992   7.128  2.8771 -2.5066  2.5921
 1039SOL     OW14752   0.451   1.756   1.216 -0.2957 -0.4109  0.2295
 1039SOL    HW114753   0.535   1.718   1.192 -1.0069 -2.6911  1.2946
 1039SOL    HW214754   0.400   1.681   1.247  0.4727 -0.6086  0.9988
 1040SOL     OW14755   4.270   2.788  15.966  0.5942 -0.2878  0.5576
 1040SOL    HW114756   4.258   2.881  15.945  0.8901 -0.4724 -0.4038
 1040SOL    HW214757   4.213   2.743  15.904  1.6528  0.8954 -1.2649
 1041SOL     OW14758   3.611   1.550   3.437 -0.2463  0.7927  0.9538
 1041SOL    HW114759   3.671   1.486   3.475  1.1043  1.1091 -0.6151
 1041SOL    HW214760   3.551   1.488   3.395 -0.6884  1.5765  0.4270
 1042SOL     OW14761   3.823   3.239  15.494  0.2850 -0.4771 -0.6844
 1042SOL    HW114762   3.762   3.248  15.420 -0.9124  2.3550  0.6548
 1042SOL    HW214763   3.761   3.236  15.566  1.0878  0.0485  0.0236
 1043SOL     OW14764   4.678   2.199   7.675  0.4422 -0.2936  0.4055
 1043SOL    HW114765   4.604   2.250   7.709 -0.1662 -2.3648  2.2264
 1043SOL    HW214766   4.700   2.154   7.757  0.8315  1.4370  1.2567
 1044SOL     OW14767   3.152   2.864  17.081 -0.2713  0.5056  0.3922
 1044SOL    HW114768   3.197   2.808  17.145 -0.3644 -1.1200 -0.9815
 1044SOL    HW214769   3.168   2.954  17.112 -1.6097  1.1647 -0.8414
 1045SOL     OW14770   2.910   3.400   3.914 -0.5963 -0.3060  0.1788
 1045SOL    HW114771   2.957   3.318   3.898 -1.1361 -0.6169  0.2145
 1045SOL    HW214772   2.971   3.463   3.952  0.9716 -1.3089 -0.6396
 1046SOL     OW14773   2.881   3.128  11.077 -0.3818 -0.0775  0.1361
 1046SOL    HW114774   2.939   3.156  11.006 -0.7867 -2.9530 -1.2944
 1046SOL    HW214775   2.881   3.034  11.060  0.8847  0.4846 -3.0048
 1047SOL     OW14776   1.116   3.413   1.542  0.8098 -0.2330 -0.3374
 1047SOL    HW114777   1.202   3.447   1.518  0.7468  0.8069  0.9467
 1047SOL    HW214778   1.130   3.318   1.536 -0.0792 -0.2298 -2.7502
 1048SOL     OW14779   3.314   1.899   0.037 -0.5354 -0.2535 -0.6989
 1048SOL    HW114780   3.397   1.927  17.747  0.4170  1.6663  2.8514
 1048SOL    HW214781   3.292   1.837  17.714  1.5774 -0.2492 -1.3881
 1049SOL     OW14782   1.490   3.972   5.524  0.0480  0.5644  0.1659
 1049SOL    HW114783   1.521   3.882   5.516  0.6651  0.7738  0.2165
 1049SOL    HW214784   1.470   3.981   5.617 -2.6618  0.7701 -0.4210
 1050SOL     OW14785   0.845   2.834   9.775  0.2423  0.3794  0.4208
 1050SOL    HW114786   0.838   2.911   9.719  0.2258 -1.1344 -1.6914
 1050SOL    HW214787   0.920   2.787   9.737 -0.4986 -0.8586  0.4847
 1051SOL     OW14788   3.672   3.724   5.784  0.2573 -0.1966 -0.1573
 1051SOL    HW114789   3.585   3.740   5.822 -0.2896 -0.5650 -1.2630
 1051SOL    HW214790   3.703   3.638   5.812 -1.4545 -0.5059  0.7890
 1052SOL     OW14791   2.001   2.658   2.683  0.1896  0.1150  0.3671
 1052SOL    HW114792   2.067   2.614   2.629  0.5603  0.1174  0.8256
 1052SOL    HW214793   2.031   2.749   2.687  0.1513  0.2768 -3.1615
 1053SOL     OW14794   2.212   0.049   8.054  0.2263  0.3462  0.2067
 1053SOL    HW114795   2.230   0.136   8.017  1.0800  0.3327  0.5950
 1053SOL    HW214796   2.252   4.728   7.989 -0.2120 -0.3721  0.5804
 1054SOL     OW14797   0.810   0.398   6.195  0.0416  0.3039 -0.2829
 1054SOL    HW114798   0.883   0.398   6.134 -0.2204 -1.3059 -0.6006
 1054SOL    HW214799   0.743   0.347   6.150  0.4905 -0.7465  0.2460
 1055SOL     OW14800   0.102   0.860  11.583 -0.6745 -0.0417  0.1868
 1055SOL    HW114801   0.109   0.954  11.602 -1.9286  0.1347 -0.2476
 1055SOL    HW214802   0.018   0.837  11.624 -0.8666  0.0315 -0.1696
 1056SOL     OW14803   2.577   0.495  12.418  0.4472 -0.2438 -0.2301
 1056SOL    HW114804   2.583   0.444  12.337  1.5031 -1.7319  0.7874
 1056SOL    HW214805   2.610   0.579  12.384  1.0103 -0.9309 -1.3736
 1057SOL     OW14806   3.301   1.382  11.129 -0.2404 -0.1270  0.3365
 1057SOL    HW114807   3.261   1.452  11.181  0.6171  2.7333 -2.8304
 1057SOL    HW214808   3.226   1.339  11.090 -1.2088  2.2421 -0.4115
 1058SOL     OW14809   2.694   0.955   3.164  0.5881  0.0909  0.4518
 1058SOL    HW114810   2.747   0.875   3.175  0.0439 -0.4166 -0.6143
 1058SOL    HW214811   2.706   1.005   3.244  1.2509  0.6781 -0.0150
 1059SOL     OW14812   0.021   1.088   7.154  0.3653 -0.2800  0.3005
 1059SOL    HW114813   0.025   1.132   7.070 -0.3786 -0.3201  0.2430
 1059SOL    HW214814   4.666   1.062   7.153  0.8734 -2.1977  1.4544
 1060SOL     OW14815   3.689   4.660   3.168 -0.0095 -0.3430 -0.2998
 1060SOL    HW114816   3.655   4.578   3.203 -1.9854  0.0889 -1.2182
 1060SOL    HW214817   3.782   4.642   3.154  0.4585  2.3091 -0.6358
 1061SOL     OW14818   2.151   2.218   8.765 -0.3755 -0.2131  0.5344
 1061SOL    HW114819   2.219   2.227   8.831 -0.7172  0.3774  0.7999
 1061SOL    HW214820   2.196   2.159   8.703 -1.7034  0.9231 -1.5270
 1062SOL     OW14821   2.090   1.588   4.277  0.0941  1.2162 -0.6730
 1062SOL    HW114822   2.052   1.580   4.189  0.6166 -1.8813 -0.5957
 1062SOL    HW214823   2.182   1.570   4.262 -0.0764 -1.8652  2.0497
 1063SOL     OW14824   2.431   1.354   0.246  0.0095 -0.1532 -0.2726
 1063SOL    HW114825   2.378   1.433   0.256  0.4949 -0.0528  1.5388
 1063SOL    HW214826   2.388   1.317   0.169  1.6018 -1.4341 -0.5481
 1064SOL     OW14827   1.768   0.923   1.291  0.1118 -0.0385 -0.1530
 1064SOL    HW114828   1.746   0.840   1.248 -3.7509  0.6193  0.5433
 1064SOL    HW214829   1.826   0.887   1.359  0.3797 -0.2696 -0.5037
 1065SOL     OW14830   3.408   0.761   7.048  0.2774  0.4233 -0.0490
 1065SOL    HW114831   3.412   0.669   7.075  0.5549  0.3495 -0.3530
 1065SOL    HW214832   3.461   0.816   7.105 -0.7556  0.6450  0.7048
 1066SOL     OW14833   3.264   1.531   3.533 -0.4590  0.0067 -0.2300
 1066SOL    HW114834   3.250   1.559   3.623  0.0531 -1.6182  0.3592
 1066SOL    HW214835   3.315   1.604   3.500  0.4042 -0.3992  0.2024
 1067SOL     OW14836   3.772   4.412  12.914 -0.5134  0.5361 -0.0982
 1067SOL    HW114837   3.835   4.341  12.898  1.4887  1.9661  1.5105
 1067SOL    HW214838   3.711   4.407  12.841 -0.3621  0.7815 -0.2398
 1068SOL     OW14839   1.916   3.624  14.750  0.0425 -0.3822 -0.5705
 1068SOL    HW114840   1.991   3.676  14.780 -1.2532  0.1875  1.7259
 1068SOL    HW214841   1.863   3.614  14.829 -0.3985  1.6328 -0.6021
 1069SOL     OW14842   1.666   0.608   6.519  0.0355  0.4954 -0.0026
 1069SOL    HW114843   1.654   0.597   6.613 -1.3592 -1.3818 -0.3888
 1069SOL    HW214844   1.750   0.654   6.515 -0.8834  2.1311 -0.1030
 1070SOL     OW14845   0.869   0.436   5.691  0.4113  0.0629 -0.3011
 1070SOL    HW114846   0.904   0.428   5.602  1.6323 -0.2280  0.1977
 1070SOL    HW214847   0.948   0.422   5.744  0.7318 -0.5052 -0.9268
 1071SOL     OW14848   0.901   1.341   6.652 -0.0949  0.4272  0.4463
 1071SOL    HW114849   0.858   1.288   6.718  0.0450  1.1908  1.1484
 1071SOL    HW214850   0.825   1.386   6.615  0.5701  1.2738  0.0995
 1072SOL     OW14851   3.135   0.610   6.806 -0.1693  0.1174  0.4417
 1072SOL    HW114852   3.176   0.524   6.800  0.9110  0.6249  0.6633
 1072SOL    HW214853   3.194   0.659   6.749  0.7976 -1.0394  0.4512
 1073SOL     OW14854   1.330   4.163   7.320  0.2933 -0.8177 -0.3472
 1073SOL    HW114855   1.310   4.096   7.385 -1.5483 -0.0568 -0.1489
 1073SOL    HW214856   1.408   4.119   7.286  3.4731  1.5886  3.8971
 1074SOL     OW14857   3.467   2.426   3.948 -0.1103 -0.1842  0.4272
 1074SOL    HW114858   3.519   2.375   3.886  0.9787  1.7969 -0.2805
 1074SOL    HW214859   3.417   2.358   3.994 -0.3950 -0.2816 -0.0274
 1075SOL     OW14860   4.321   3.523   5.161  0.1237 -0.5738  0.6142
 1075SOL    HW114861   4.260   3.591   5.130  1.0680 -0.0102 -0.0100
 1075SOL    HW214862   4.263   3.448   5.151  1.9505 -1.9865  0.6535
 1076SOL     OW14863   3.860   4.342   2.077 -0.4920 -0.7780  0.1873
 1076SOL    HW114864   3.897   4.313   1.993 -1.9750 -1.5729 -0.1929
 1076SOL    HW214865   3.817   4.418   2.038 -0.6429 -0.3384  1.2338
 1077SOL     OW14866   3.749   3.411   4.837 -0.6430 -0.1991  0.5746
 1077SOL    HW114867   3.697   3.474   4.787 -1.4459 -1.3505 -0.0445
 1077SOL    HW214868   3.683   3.391   4.904 -0.3878 -0.5015  0.7355
 1078SOL     OW14869   3.577   1.169  10.509  0.1472 -0.4338  0.4982
 1078SOL    HW114870   3.563   1.264  10.506  0.4322 -0.4295 -0.7224
 1078SOL    HW214871   3.606   1.159  10.419 -1.3923 -1.2862  0.1000
 1079SOL     OW14872   3.629   1.889   7.756  0.1669 -0.2565 -0.2468
 1079SOL    HW114873   3.611   1.830   7.683 -1.0454 -0.7355  0.4362
 1079SOL    HW214874   3.545   1.935   7.745 -0.7761 -1.6823  0.9397
 1080SOL     OW14875   3.961   3.753   0.994 -0.3541 -0.7834 -0.3401
 1080SOL    HW114876   3.953   3.829   1.051  0.2594 -1.1357  0.2083
 1080SOL    HW214877   4.019   3.699   1.047  1.1970  1.0264 -0.2088
 1081SOL     OW14878   3.104   0.388   1.951  0.1009 -0.8500 -0.0276
 1081SOL    HW114879   3.093   0.332   2.028 -0.6757  0.6463  0.9364
 1081SOL    HW214880   3.094   0.321   1.883 -2.1583 -0.1283 -0.4163
 1082SOL     OW14881   4.303   1.770   4.158  0.0265 -0.2361 -0.0036
 1082SOL    HW114882   4.211   1.745   4.168 -0.2956 -0.4195 -3.2376
 1082SOL    HW214883   4.342   1.708   4.096  0.8711 -0.3435  0.6388
 1083SOL     OW14884   4.091   1.925   1.874  0.1621 -0.3592  0.3333
 1083SOL    HW114885   4.011   1.875   1.855 -0.5619  2.0861 -2.8921
 1083SOL    HW214886   4.158   1.878   1.824  2.3092  1.1803  1.7773
 1084SOL     OW14887   2.107   0.872   2.397  0.0879  0.1485  0.3354
 1084SOL    HW114888   2.159   0.918   2.331  2.3668  0.3340  2.2506
 1084SOL    HW214889   2.108   0.781   2.367  0.7064  0.9944 -2.2118
 1085SOL     OW14890   2.874   2.084  16.458  0.1882 -0.3835 -0.2860
 1085SOL    HW114891   2.942   2.121  16.402  1.4222 -1.1779  0.6966
 1085SOL    HW214892   2.891   2.118  16.546  0.0224 -2.2809  0.4756
 1086SOL     OW14893   2.444   3.339   3.771 -0.0918 -0.7103 -0.1914
 1086SOL    HW114894   2.369   3.397   3.784  0.8485  1.0866 -2.6490
 1086SOL    HW214895   2.520   3.368   3.822 -0.5223 -0.7957  0.5033
 1087SOL     OW14896   0.456   1.723  12.017 -0.0729  0.3041 -0.1040
 1087SOL    HW114897   0.533   1.669  11.999 -2.2675 -3.0140  0.4408
 1087SOL    HW214898   0.431   1.681  12.099 -0.8872  0.1199 -0.4457
 1088SOL     OW14899   4.405   1.122   4.110 -0.2134 -0.5684 -0.4532
 1088SOL    HW114900   4.500   1.121   4.117 -0.3177  0.7252  1.1945
 1088SOL    HW214901   4.384   1.205   4.154 -0.7108 -1.5491  1.1509
 1089SOL     OW14902   2.536   2.611   4.812  0.3736  0.4869  0.1377
 1089SOL    HW114903   2.446   2.630   4.839 -0.1952  0.7216 -1.8599
 1089SOL    HW214904   2.534   2.519   4.787 -1.4262  0.1664  1.4752
 1090SOL     OW14905   4.699   1.080   4.088  0.2983 -0.1192 -0.1018
 1090SOL    HW114906   4.685   1.075   3.993 -1.5140  1.0233  0.1260
 1090SOL    HW214907   0.006   0.998   4.112 -1.0188 -0.4200  1.3405
 1091SOL     OW14908   4.605   1.720   6.937  0.0655  0.3420 -0.3792
 1091SOL    HW114909   4.542   1.666   6.889  1.0643  0.0028 -1.3086
 1091SOL    HW214910   4.692   1.695   6.907  0.3203 -0.9745  1.3959
 1092SOL     OW14911   3.657   2.357   3.710  0.0884  0.3706  0.3584
 1092SOL    HW114912   3.740   2.353   3.757 -0.1277  1.9425  0.8534
 1092SOL    HW214913   3.673   2.288   3.646  2.0495 -0.2161  1.4612
 1093SOL     OW14914   2.089   2.417   2.337  0.0283 -0.3684 -0.0079
 1093SOL    HW114915   2.118   2.349   2.275  1.6833 -0.4230  0.8131
 1093SOL    HW214916   1.994   2.411   2.327  0.0509 -0.7580 -0.0196
 1094SOL     OW14917   0.278   3.057   0.524  0.1982  0.5420 -0.3405
 1094SOL    HW114918   0.213   3.014   0.468 -0.7726  1.7588 -0.1338
 1094SOL    HW214919   0.345   2.989   0.536 -0.3154  0.0923 -0.0001
 1095SOL     OW14920   1.950   4.453   3.281  0.2729 -0.0333 -0.1873
 1095SOL    HW114921   1.906   4.387   3.335  0.8977 -0.6796 -0.4629
 1095SOL    HW214922   2.041   4.426   3.293  0.9862  1.2921 -2.7850
 1096SOL     OW14923   1.238   0.838   2.127  0.0262 -0.4656 -0.0445
 1096SOL    HW114924   1.158   0.787   2.115 -1.7194  1.3360  3.7444
 1096SOL    HW214925   1.218   0.922   2.086  0.0631  0.2436  1.3708
 1097SOL     OW14926   0.334   4.457   5.726  0.0274  0.3941 -0.4670
 1097SOL    HW114927   0.273   4.472   5.799  0.5444 -0.0027  0.0422
 1097SOL    HW214928   0.324   4.363   5.708 -1.3361  0.2677  0.9574
 1098SOL     OW14929   0.997   0.039  17.135  0.4207  0.4543  0.0103
 1098SOL    HW114930   0.986   0.005  17.224  1.6682 -0.6446 -0.2610
 1098SOL    HW214931   1.083   0.003  17.111  1.1709  1.4475  1.1582
 1099SOL     OW14932   0.435   0.511   0.244 -0.1156  1.2455 -0.1629
 1099SOL    HW114933   0.498   0.580   0.225  1.6498 -0.2019  0.4798
 1099SOL    HW214934   0.468   0.439   0.191 -1.3707 -0.5189  1.4329
 1100SOL     OW14935   0.348   1.398   7.315  0.2633 -0.0242 -0.1203
 1100SOL    HW114936   0.337   1.493   7.310 -0.3556 -0.0622  0.5696
 1100SOL    HW214937   0.441   1.393   7.292  0.9331  0.2776  2.4597
 1101SOL     OW14938   1.431   3.350   6.691 -0.3486  0.1470 -0.2709
 1101SOL    HW114939   1.479   3.321   6.614  2.5295  0.1322  1.5050
 1101SOL    HW214940   1.363   3.282   6.686 -1.1135  0.9414 -0.5141
 1102SOL     OW14941   3.119   3.534  12.051 -0.7754 -0.2174  0.3997
 1102SOL    HW114942   3.123   3.543  11.956  1.6011 -1.6111  0.3748
 1102SOL    HW214943   3.063   3.456  12.047  2.8379 -2.9157  3.0036
 1103SOL     OW14944   4.023   1.736   5.766  0.6975 -0.2173  0.0928
 1103SOL    HW114945   4.060   1.651   5.788  1.9352  0.6391  1.2942
 1103SOL    HW214946   4.036   1.780   5.850  2.0174 -2.9309  1.2663
 1104SOL     OW14947   2.773   2.432  15.232 -0.0567 -0.6729 -0.0111
 1104SOL    HW114948   2.689   2.457  15.271 -0.5756 -1.8901 -0.3350
 1104SOL    HW214949   2.804   2.364  15.292 -0.1152  0.6565  1.5214
 1105SOL     OW14950   2.494   2.678   8.477  0.0330  0.1535  0.5900
 1105SOL    HW114951   2.447   2.750   8.434  1.1848  1.1582  1.0323
 1105SOL    HW214952   2.514   2.727   8.557  1.2626  0.2674  0.2170
 1106SOL     OW14953   0.285   1.850  12.459  0.2014 -0.5229 -0.3504
 1106SOL    HW114954   0.201   1.832  12.502  0.3270  1.2642  0.6775
 1106SOL    HW214955   0.332   1.901  12.525  1.0793  0.0457 -1.3970
 1107SOL     OW14956   3.109   3.679   2.260  0.2474  0.0966  0.0035
 1107SOL    HW114957   3.058   3.741   2.312 -0.4621 -1.6420  1.3966
 1107SOL    HW214958   3.054   3.601   2.274 -2.1479  1.5083 -1.5537
 1108SOL     OW14959   2.635   1.269  17.118  0.2439  0.1378  0.6692
 1108SOL    HW114960   2.639   1.176  17.094  1.3296 -0.0100  1.4041
 1108SOL    HW214961   2.546   1.276  17.153 -0.9288 -1.5704 -1.9514
 1109SOL     OW14962   0.555   2.332   4.217  0.7603  0.3604  0.3525
 1109SOL    HW114963   0.475   2.369   4.254  0.2848 -2.1260  1.7535
 1109SOL    HW214964   0.617   2.373   4.276  0.8699 -1.2916  1.3642
 1110SOL     OW14965   2.177   1.929   4.225 -0.1615  0.1796  0.2548
 1110SOL    HW114966   2.090   1.890   4.233  0.1869 -0.5249  0.6667
 1110SOL    HW214967   2.229   1.863   4.178 -2.6533 -0.0068 -2.2064
 1111SOL     OW14968   2.810   4.643   7.847 -0.6508 -0.5978 -0.6871
 1111SOL    HW114969   2.863   4.696   7.788  0.4613 -0.4799  0.4372
 1111SOL    HW214970   2.824   4.550   7.829 -2.9935 -1.3792  1.3648
 1112SOL     OW14971   3.218   2.885  12.272  0.0334  0.3674  0.0143
 1112SOL    HW114972   3.224   2.873  12.367  1.0639  1.1460  0.0507
 1112SOL    HW214973   3.128   2.861  12.252  0.2390 -1.7877  1.6721
 1113SOL     OW14974   2.675   0.782   9.477 -0.0814 -0.9325  0.1108
 1113SOL    HW114975   2.724   0.744   9.404 -0.4885 -0.4343 -0.4152
 1113SOL    HW214976   2.689   0.710   9.539  0.3351 -1.4349 -0.5560
 1114SOL     OW14977   2.576   1.628  11.368  0.6720  0.0673 -0.0639
 1114SOL    HW114978   2.572   1.535  11.391  0.3555  0.3088  0.8697
 1114SOL    HW214979   2.664   1.646  11.400  0.1903 -1.2814  1.9873
 1115SOL     OW14980   0.187   0.070   9.279 -0.1878  0.2900  0.0472
 1115SOL    HW114981   0.185   0.100   9.370  2.6177 -1.1899  0.5839
 1115SOL    HW214982   0.149   4.720   9.285  1.9113 -0.6124  0.0790
 1116SOL     OW14983   0.029   2.157   9.033 -0.6972 -0.7975  0.2284
 1116SOL    HW114984   0.106   2.210   9.053  0.9354 -2.0586 -2.8463
 1116SOL    HW214985   4.721   2.220   8.977  0.2408 -0.5842 -0.2814
 1117SOL     OW14986   2.245   0.183   6.069 -0.0001 -0.0429 -0.0705
 1117SOL    HW114987   2.210   0.234   6.142 -0.5066 -0.8134  0.2307
 1117SOL    HW214988   2.210   0.238   6.000  0.9985  2.7528  1.6643
 1118SOL     OW14989   4.684   3.904   2.543 -0.1159 -0.0673 -0.4004
 1118SOL    HW114990   4.590   3.910   2.555  0.2148  2.2240  0.9614
 1118SOL    HW214991   4.693   3.823   2.492 -1.4476  1.7753 -3.5340
 1119SOL     OW14992   1.995   3.447   2.471  0.0413  0.2557  0.1412
 1119SOL    HW114993   1.912   3.406   2.448  0.1494 -0.2779  0.6824
 1119SOL    HW214994   1.968   3.526   2.518 -3.3523 -0.8143 -0.0672
 1120SOL     OW14995   3.818   4.157   5.124  0.8974  0.0430  0.5652
 1120SOL    HW114996   3.829   4.228   5.062  1.4047 -0.9096 -0.4456
 1120SOL    HW214997   3.737   4.182   5.168  0.8635 -0.3953  0.7624
 1121SOL     OW14998   4.466   0.791   9.278  0.0212  0.5896  0.0387
 1121SOL    HW114999   4.538   0.806   9.216  1.2494 -0.0117  1.2977
 1121SOL    HW215000   4.469   0.696   9.267  1.2730  1.0111 -3.2803
 1122SOL     OW15001   4.520   2.846   7.827 -0.3141 -0.4302 -0.3137
 1122SOL    HW115002   4.504   2.902   7.903 -1.0669  0.5674 -1.2212
 1122SOL    HW215003   4.545   2.917   7.768 -2.1833  0.0963 -0.4591
 1123SOL     OW15004   3.699   0.594  12.927  0.6498 -0.0847 -0.5354
 1123SOL    HW115005   3.683   0.501  12.943  3.2708 -0.6516 -1.0768
 1123SOL    HW215006   3.663   0.607  12.840  1.4431  2.1752 -0.5531
 1124SOL     OW15007   3.481   4.042  15.296 -0.2300  0.0368  0.3926
 1124SOL    HW115008   3.426   3.995  15.358 -0.5906 -1.1893 -0.8645
 1124SOL    HW215009   3.421   4.061  15.225 -1.1456  0.9163  1.3978
 1125SOL     OW15010   2.189   1.040   8.975 -0.5259 -0.9190  0.1708
 1125SOL    HW115011   2.268   1.021   9.026 -0.7055 -3.2376 -0.4131
 1125SOL    HW215012   2.181   1.135   8.983  0.1775 -0.8559  0.1190
 1126SOL     OW15013   2.273   3.825   1.785 -0.0691  0.1856 -0.0995
 1126SOL    HW115014   2.332   3.750   1.790  1.5528  1.5563  1.0009
 1126SOL    HW215015   2.212   3.817   1.858  1.8076 -0.0020  1.4302
 1127SOL     OW15016   2.266   1.571   2.539  0.0366  0.5963 -0.8019
 1127SOL    HW115017   2.276   1.515   2.616 -1.2256  1.9387  0.3389
 1127SOL    HW215018   2.173   1.590   2.547 -0.2187  0.2701 -2.8473
 1128SOL     OW15019   0.994   2.964   1.818  0.0507 -0.0959 -0.1752
 1128SOL    HW115020   1.013   2.934   1.729  1.3219  1.1356 -0.3056
 1128SOL    HW215021   0.905   2.998   1.806 -0.7879 -1.6038  1.7423
 1129SOL     OW15022   0.183   0.778  11.311  0.4629 -0.6202  0.1236
 1129SOL    HW115023   0.154   0.821  11.392 -0.8881 -1.8585  0.3064
 1129SOL    HW215024   0.183   0.851  11.249 -2.6343 -0.9072 -0.2345
 1130SOL     OW15025   0.675   1.177   8.267  0.2301 -0.1990  0.8231
 1130SOL    HW115026   0.669   1.212   8.356  0.8834 -0.4903  0.9778
 1130SOL    HW215027   0.684   1.083   8.284  0.3019 -0.2285  0.6213
 1131SOL     OW15028   0.766   3.384   5.534  0.4999  0.2287 -0.1063
 1131SOL    HW115029   0.798   3.392   5.445  0.8519 -2.2106 -0.2043
 1131SOL    HW215030   0.711   3.306   5.531  1.9260 -0.7097 -1.5669
 1132SOL     OW15031   3.237   2.337   7.199 -0.2877  0.3597 -0.2236
 1132SOL    HW115032   3.315   2.293   7.233 -0.6292 -0.0216  0.0574
 1132SOL    HW215033   3.186   2.257   7.207  1.5963 -0.8978 -0.9715
 1133SOL     OW15034   4.405   3.646  17.123 -0.4833 -0.4325 -0.2970
 1133SOL    HW115035   4.415   3.728  17.171 -0.7622 -0.3790 -0.3280
 1133SOL    HW215036   4.313   3.646  17.097 -0.0192 -3.0683 -2.0043
 1134SOL     OW15037   1.680   0.898   4.329  0.3540  0.3735  0.1776
 1134SOL    HW115038   1.769   0.920   4.355  0.3006  1.8922 -0.9260
 1134SOL    HW215039   1.648   0.986   4.308 -0.8045 -0.0902  0.0030
 1135SOL     OW15040   0.893   3.763   9.857 -0.0068 -0.0865  0.0313
 1135SOL    HW115041   0.865   3.684   9.902 -0.8901 -0.4622 -1.1775
 1135SOL    HW215042   0.938   3.806   9.930 -0.6713  0.3709  0.1732
 1136SOL     OW15043   2.667   2.880   4.202  0.3785 -0.3509  0.2083
 1136SOL    HW115044   2.619   2.820   4.259 -0.4089  0.9512  0.9273
 1136SOL    HW215045   2.756   2.863   4.232  0.3559 -2.3099 -0.8137
 1137SOL     OW15046   0.762   4.205   3.018 -0.3686 -0.0942  0.1890
 1137SOL    HW115047   0.698   4.135   3.005  2.6441 -2.0475 -4.0335
 1137SOL    HW215048   0.752   4.241   2.930 -1.6867 -0.2266  0.2775
 1138SOL     OW15049   3.599   0.469   8.335 -0.2175  0.7460  0.1646
 1138SOL    HW115050   3.634   0.507   8.416 -0.1612 -0.1643  0.5646
 1138SOL    HW215051   3.513   0.445   8.369  0.1747 -0.1625  0.5236
 1139SOL     OW15052   3.333   1.392  14.927 -0.5568 -0.1530  0.4013
 1139SOL    HW115053   3.307   1.343  14.850 -1.5380  1.7276 -0.4628
 1139SOL    HW215054   3.424   1.364  14.919  0.2256  1.8968  2.0024
 1140SOL     OW15055   4.361   3.424  15.264  0.2484 -0.2216  0.7113
 1140SOL    HW115056   4.301   3.422  15.189  0.1502 -1.5200  0.8249
 1140SOL    HW215057   4.417   3.349  15.242  1.3447  0.4440  1.2133
 1141SOL     OW15058   0.633   4.295   3.627  0.1198 -0.3919 -0.4402
 1141SOL    HW115059   0.693   4.270   3.556  2.2830  0.4916  1.0658
 1141SOL    HW215060   0.653   4.389   3.628 -2.6757  0.1284  3.9079
 1142SOL     OW15061   2.879   0.625   7.945 -0.1211  0.1091 -0.2969
 1142SOL    HW115062   2.932   0.546   7.935  0.4492  0.5748 -0.8983
 1142SOL    HW215063   2.801   0.606   7.892  0.0714  0.6023 -0.7451
 1143SOL     OW15064   0.180   0.535   5.475 -0.1311  0.1479  1.1430
 1143SOL    HW115065   0.165   0.489   5.392 -0.5733  1.3660  0.5427
 1143SOL    HW215066   0.275   0.538   5.460 -0.4108 -3.1393 -1.2749
 1144SOL     OW15067   1.163   4.029   1.116  0.2532 -0.3134 -0.0339
 1144SOL    HW115068   1.218   3.966   1.163  0.2181 -1.0231 -0.9471
 1144SOL    HW215069   1.186   4.112   1.158  1.0802 -0.0098 -1.0982
 1145SOL     OW15070   2.411   1.062  16.276  0.6262 -0.0637  0.2473
 1145SOL    HW115071   2.398   1.079  16.183 -1.5890  0.6068  0.6791
 1145SOL    HW215072   2.337   1.109  16.314  2.7896  1.8377  2.0824
 1146SOL     OW15073   1.573   3.232   6.192 -0.5280  0.1512 -0.5985
 1146SOL    HW115074   1.530   3.147   6.189 -0.7616  0.2787 -0.9138
 1146SOL    HW215075   1.502   3.277   6.238  1.3166  0.6492  1.7507
 1147SOL     OW15076   0.251   1.430  10.518 -0.7619  0.3361  0.8867
 1147SOL    HW115077   0.171   1.435  10.571  0.3366  2.1170  2.3814
 1147SOL    HW215078   0.283   1.520  10.525 -2.0318  0.8111  0.5961
 1148SOL     OW15079   3.074   2.853  15.606  0.2459 -0.5544 -0.2286
 1148SOL    HW115080   3.062   2.821  15.695 -1.4332 -0.1126 -0.2973
 1148SOL    HW215081   3.007   2.917  15.581 -0.2877 -1.3189 -0.7607
 1149SOL     OW15082   0.048   0.095  12.501 -0.0737  0.3888  0.1472
 1149SOL    HW115083   0.093   0.014  12.475  1.6260  1.3662 -0.0046
 1149SOL    HW215084   0.081   0.109  12.590  1.9653 -0.0380 -0.5370
 1150SOL     OW15085   4.538   1.897   2.791 -0.2418  0.3076  0.6735
 1150SOL    HW115086   4.615   1.909   2.736  0.4767  2.7627  2.2009
 1150SOL    HW215087   4.493   1.980   2.776 -0.7860 -0.3414 -1.2678
 1151SOL     OW15088   3.413   0.155  13.230  0.0686  0.0191  0.1711
 1151SOL    HW115089   3.433   0.246  13.209 -0.7016 -0.1612 -1.3104
 1151SOL    HW215090   3.422   0.112  13.144 -3.5446 -1.4512  0.5296
 1152SOL     OW15091   2.101   2.027   8.029  0.8123 -0.1242 -0.5696
 1152SOL    HW115092   2.037   2.086   8.071 -0.6430 -3.1314  1.4148
 1152SOL    HW215093   2.041   1.971   7.980  0.1051 -0.6208  0.8674
 1153SOL     OW15094   2.185   1.101  16.485  0.2212 -0.4058  0.3817
 1153SOL    HW115095   2.257   1.083  16.546 -0.4283  1.5920  1.7414
 1153SOL    HW215096   2.117   1.040  16.513 -0.5134 -0.2786 -1.1047
 1154SOL     OW15097   0.356   3.162  15.203  0.2930 -0.6575 -0.3702
 1154SOL    HW115098   0.375   3.245  15.246 -0.2350 -1.0908  0.7016
 1154SOL    HW215099   0.442   3.122  15.196  0.7355 -0.5445  4.2811
 1155SOL     OW15100   1.859   1.345   3.031 -0.7771  0.0378  0.2767
 1155SOL    HW115101   1.792   1.375   2.969 -1.2931  0.6311  1.1369
 1155SOL    HW215102   1.854   1.405   3.105  0.8799 -0.4347  0.7790
 1156SOL     OW15103   4.442   2.094  17.623 -0.3932  0.7910  0.1699
 1156SOL    HW115104   4.415   2.133  17.706  0.6148  0.8922  0.4382
 1156SOL    HW215105   4.478   2.009  17.648 -1.8726  0.4659  1.2296
 1157SOL     OW15106   2.408   2.808  17.584  0.2929 -0.1299 -0.3325
 1157SOL    HW115107   2.394   2.900  17.562 -0.7524  0.4542  2.7299
 1157SOL    HW215108   2.446   2.777  17.502 -1.5851 -0.1152 -1.2231
 1158SOL     OW15109   4.003   0.166  14.495 -0.1550 -0.0684 -0.1648
 1158SOL    HW115110   4.080   0.159  14.550  0.6386 -0.5265 -1.3262
 1158SOL    HW215111   3.980   0.255  14.519 -1.0710 -0.3478 -0.0014
 1159SOL     OW15112   0.462   0.908   4.617 -0.0845 -0.1703  0.2925
 1159SOL    HW115113   0.482   0.979   4.678  0.7089 -0.6475  0.5949
 1159SOL    HW215114   0.389   0.864   4.660  0.1727 -1.3744 -0.5092
 1160SOL     OW15115   3.148   3.350   1.012 -0.0981  0.3803 -0.2548
 1160SOL    HW115116   3.160   3.261   1.045 -0.0965  0.4226 -0.1440
 1160SOL    HW215117   3.075   3.333   0.952 -0.0220  0.6214 -0.4196
 1161SOL     OW15118   0.205   1.369   8.376 -0.1129  0.0063  0.1649
 1161SOL    HW115119   0.122   1.418   8.372  0.5701  1.2220  1.2975
 1161SOL    HW215120   0.242   1.379   8.288  2.1170 -2.1715  0.8746
 1162SOL     OW15121   4.567   3.236  14.358 -0.7179  0.0974  0.3163
 1162SOL    HW115122   4.572   3.204  14.449  1.1100 -0.7882 -0.0986
 1162SOL    HW215123   4.603   3.158  14.316  2.4980  1.6384  0.2621
 1163SOL     OW15124   2.867   3.616   7.917  0.1634 -1.1824  0.4225
 1163SOL    HW115125   2.883   3.574   7.833  0.2372 -2.3636  1.0321
 1163SOL    HW215126   2.861   3.709   7.893  1.7804 -1.2732 -0.3268
 1164SOL     OW15127   0.351   2.476   3.402  0.8939  0.2679  0.2542
 1164SOL    HW115128   0.290   2.435   3.341 -1.5533  1.3072  2.0266
 1164SOL    HW215129   0.296   2.478   3.480 -0.7673 -2.3701 -0.8644
 1165SOL     OW15130   0.676   0.644   6.209 -0.1570  0.1104  0.1029
 1165SOL    HW115131   0.696   0.552   6.224  1.0302  0.5934  1.5606
 1165SOL    HW215132   0.599   0.670   6.259 -0.4761  0.2844 -0.4863
 1166SOL     OW15133   4.527   0.812   3.579 -0.3791  0.0921  0.7016
 1166SOL    HW115134   4.588   0.796   3.508  0.7198  0.9856  1.4501
 1166SOL    HW215135   4.579   0.797   3.658  0.3011 -2.6099 -0.2684
 1167SOL     OW15136   0.296   1.536  16.224 -0.4923 -0.5179 -0.4776
 1167SOL    HW115137   0.296   1.494  16.138 -1.3157 -0.0384 -0.7065
 1167SOL    HW215138   0.368   1.490  16.268 -0.0900 -0.3393 -0.9626
 1168SOL     OW15139   4.253   2.778   3.888 -0.2410 -0.1648 -0.2884
 1168SOL    HW115140   4.268   2.825   3.806  3.4145 -2.3845 -0.8981
 1168SOL    HW215141   4.188   2.831   3.935 -1.1979 -1.6288  0.0352
 1169SOL     OW15142   1.682   1.215   8.491  0.1033 -0.2009  0.3364
 1169SOL    HW115143   1.737   1.259   8.556 -0.5581 -0.0129  0.7648
 1169SOL    HW215144   1.741   1.177   8.426  0.6536 -1.7374  1.7665
 1170SOL     OW15145   4.347   2.724   2.583 -0.0422 -0.5927  0.3451
 1170SOL    HW115146   4.361   2.705   2.490 -0.3867 -0.3203  0.2359
 1170SOL    HW215147   4.329   2.817   2.595 -1.3121 -0.7555 -0.3199
 1171SOL     OW15148   0.951   0.915  17.691  0.0861  0.6850  0.3753
 1171SOL    HW115149   0.941   0.934   0.036 -2.4353  0.4969  0.1467
 1171SOL    HW215150   0.882   0.977  17.668 -1.2503 -0.6632  0.7956
 1172SOL     OW15151   2.114   1.378   5.890  0.0083 -0.1806  0.5943
 1172SOL    HW115152   2.048   1.442   5.916  0.9498  1.5348 -1.2410
 1172SOL    HW215153   2.190   1.434   5.906  0.9215 -1.6044  1.2324
 1173SOL     OW15154   1.915   1.229  14.568 -0.1586 -0.1342 -0.8198
 1173SOL    HW115155   1.906   1.323  14.555  1.3520  0.1698  0.3821
 1173SOL    HW215156   1.947   1.231  14.658 -0.4264  0.1627 -0.7327
 1174SOL     OW15157   0.558   3.701   3.731 -0.1084 -0.3776  0.5853
 1174SOL    HW115158   0.544   3.608   3.751  0.3696 -0.1402  2.0018
 1174SOL    HW215159   0.645   3.721   3.766  0.9046 -2.3469 -0.7973
 1175SOL     OW15160   3.445   0.057  10.204 -0.1740  0.1825 -0.2913
 1175SOL    HW115161   3.441   0.093  10.293 -0.0235 -0.3922 -0.0557
 1175SOL    HW215162   3.527   0.008  10.209 -0.1447  0.3941  1.2800
 1176SOL     OW15163   4.538   4.455   8.208 -0.7795  0.2515  0.2038
 1176SOL    HW115164   4.559   4.519   8.141 -1.4015  0.9561  0.6832
 1176SOL    HW215165   4.534   4.372   8.161  0.2542  1.3125 -1.7540
 1177SOL     OW15166   0.130   1.519  15.868 -0.2638  0.3322  0.6601
 1177SOL    HW115167   0.213   1.473  15.882  0.0390  1.1920  1.7326
 1177SOL    HW215168   0.157   1.607  15.895 -1.6325  1.2421 -0.9312
 1178SOL     OW15169   4.012   0.420  13.075  0.4942  0.2578 -0.1720
 1178SOL    HW115170   4.094   0.468  13.062 -0.5381  2.1928  0.3822
 1178SOL    HW215171   3.999   0.428  12.981  3.2631  1.0142 -0.4860
 1179SOL     OW15172   3.542   4.658   2.282  0.0470 -0.2611  0.5774
 1179SOL    HW115173   3.632   4.665   2.312  0.3173 -1.6730  0.1315
 1179SOL    HW215174   3.516   4.574   2.320  0.2214 -1.0690 -1.0540
 1180SOL     OW15175   0.728   3.917   8.204  0.1730  0.1901  0.0617
 1180SOL    HW115176   0.712   3.973   8.280 -0.2366  0.2987 -0.1018
 1180SOL    HW215177   0.811   3.953   8.173  1.0752  0.3914  2.7432
 1181SOL     OW15178   4.583   2.089  17.205  0.3275  0.3399  0.2442
 1181SOL    HW115179   4.517   2.115  17.140  1.1387 -0.9227 -1.0722
 1181SOL    HW215180   4.531   2.110  17.283 -1.5507 -2.3642 -0.2885
 1182SOL     OW15181   1.586   0.350   4.756 -0.3470  0.1768 -0.0847
 1182SOL    HW115182   1.546   0.296   4.688 -2.0701 -0.5097  1.4565
 1182SOL    HW215183   1.561   0.435   4.720 -2.1150 -0.2021  0.2376
 1183SOL     OW15184   2.746   3.477   3.556  0.3179  0.3447  0.3063
 1183SOL    HW115185   2.667   3.436   3.521 -0.1910  0.3336  1.4633
 1183SOL    HW215186   2.812   3.442   3.496 -0.6168 -1.1122  0.1173
 1184SOL     OW15187   3.631   2.506   7.485 -0.6829  0.1736  0.2368
 1184SOL    HW115188   3.701   2.559   7.523 -1.2303 -0.3990  2.0418
 1184SOL    HW215189   3.612   2.560   7.408  0.3375  0.4642  0.1841
 1185SOL     OW15190   3.198   4.636  13.091  0.4637  1.3781  0.2857
 1185SOL    HW115191   3.121   4.691  13.109 -0.4526  0.4564 -0.8395
 1185SOL    HW215192   3.187   4.569  13.159  0.3456 -0.5341 -1.6200
 1186SOL     OW15193   3.950   4.659   8.404  0.4899 -0.2504 -0.1782
 1186SOL    HW115194   3.989   4.690   8.322  1.1592 -0.6327  0.0006
 1186SOL    HW215195   4.013   4.597   8.440  0.6537  0.6780  1.1565
 1187SOL     OW15196   4.541   0.792   6.350 -0.1890 -0.5159  0.3459
 1187SOL    HW115197   4.592   0.723   6.392  1.1694  0.1578 -0.2077
 1187SOL    HW215198   4.561   0.861   6.413 -2.2198  0.7049 -0.3312
 1188SOL     OW15199   0.635   1.706   1.502  0.2642 -0.4317 -0.1390
 1188SOL    HW115200   0.680   1.687   1.420  0.7741 -1.9164  0.4718
 1188SOL    HW215201   0.664   1.632   1.556  1.7988  0.6233  0.4654
 1189SOL     OW15202   2.474   1.392   8.384 -0.0840  0.0512  0.1938
 1189SOL    HW115203   2.545   1.338   8.420 -0.3834 -0.2999  0.2562
 1189SOL    HW215204   2.398   1.334   8.379  0.6111 -0.9405  1.1187
 1190SOL     OW15205   2.596   3.556   1.353 -0.3711 -0.0127  0.0750
 1190SOL    HW115206   2.512   3.526   1.386 -0.3795 -0.9466 -0.7902
 1190SOL    HW215207   2.611   3.639   1.397  0.2312  0.1359 -0.4104
 1191SOL     OW15208   0.566   2.254   3.163 -0.7083  0.1375  0.1777
 1191SOL    HW115209   0.659   2.235   3.152 -1.3292 -3.1562  0.5646
 1191SOL    HW215210   0.553   2.294   3.249  1.9524  0.9483  0.1838
 1192SOL     OW15211   3.046   0.687   7.289 -0.1291 -0.3135 -0.2111
 1192SOL    HW115212   3.073   0.724   7.205 -1.4451 -0.3894 -0.6630
 1192SOL    HW215213   3.108   0.720   7.354 -1.5562 -0.7161  1.3293
 1193SOL     OW15214   0.349   2.507  14.061 -0.3496 -0.3157  0.2524
 1193SOL    HW115215   0.312   2.494  13.974 -1.1192  2.2879  0.1997
 1193SOL    HW215216   0.407   2.583  14.050 -1.7264  0.7966  0.7797
 1194SOL     OW15217   3.551   0.592   5.287 -0.2897  0.1253  0.5150
 1194SOL    HW115218   3.612   0.628   5.351  2.6861 -1.5234 -1.4094
 1194SOL    HW215219   3.587   0.643   5.214  1.3350 -2.4521 -0.5086
 1195SOL     OW15220   3.608   3.801  15.160  0.1395  0.3406  0.0992
 1195SOL    HW115221   3.574   3.876  15.209 -1.4640  0.3038 -0.9344
 1195SOL    HW215222   3.653   3.846  15.088  1.8634 -2.5364 -0.5984
 1196SOL     OW15223   0.515   2.090   2.613 -0.0385  0.3833  0.3768
 1196SOL    HW115224   0.561   2.065   2.693  0.7893  0.0786 -0.1945
 1196SOL    HW215225   0.425   2.108   2.640  0.3189  2.3847  0.2419
 1197SOL     OW15226   3.958   4.623   6.427  0.1995 -0.6572 -0.3520
 1197SOL    HW115227   4.030   4.588   6.479 -2.2726  0.6864  4.0002
 1197SOL    HW215228   3.912   4.540   6.412 -0.8027 -0.5797  2.3354
 1198SOL     OW15229   0.056   1.480   7.456  0.2553 -0.2416  0.3127
 1198SOL    HW115230   4.733   1.478   7.382 -0.1497  0.4419  0.6193
 1198SOL    HW215231   0.115   1.546   7.419 -0.9797 -0.0028 -1.2328
 1199SOL     OW15232   4.464   3.075   7.026 -0.0623 -0.3186 -0.3600
 1199SOL    HW115233   4.390   3.014   7.020  0.4358 -1.1154  1.4522
 1199SOL    HW215234   4.527   3.007   7.048  0.5166  0.5369  0.6717
 1200SOL     OW15235   2.205   0.548  12.192 -0.5410 -0.4215  0.4523
 1200SOL    HW115236   2.248   0.607  12.254 -0.3314  1.2612 -1.2732
 1200SOL    HW215237   2.275   0.506  12.143 -1.4308 -1.9705  0.5344
 1201SOL     OW15238   3.079   2.488   3.676 -0.3336  0.0920 -0.7882
 1201SOL    HW115239   3.046   2.405   3.643 -1.8804  0.8518 -1.1250
 1201SOL    HW215240   3.051   2.476   3.767  1.2223  0.7022 -0.2147
 1202SOL     OW15241   2.726   4.131  16.071 -0.4010 -0.0416  0.6119
 1202SOL    HW115242   2.817   4.105  16.056 -0.4150  0.0359  0.3967
 1202SOL    HW215243   2.693   4.115  15.983 -0.1623 -0.8082  0.6590
 1203SOL     OW15244   1.096   3.829  16.773  0.0969 -1.3836 -0.4761
 1203SOL    HW115245   1.075   3.816  16.866  0.6251  0.6097 -0.0840
 1203SOL    HW215246   1.143   3.750  16.746  3.3073 -0.3445  2.0623
 1204SOL     OW15247   3.168   0.814  16.736 -0.1708 -0.0618  0.4526
 1204SOL    HW115248   3.104   0.780  16.800 -0.5975 -0.8087 -0.3756
 1204SOL    HW215249   3.196   0.891  16.786 -1.6072 -0.9958  2.7321
 1205SOL     OW15250   0.297   0.606   4.101 -0.8352 -0.7267 -0.6463
 1205SOL    HW115251   0.240   0.659   4.045  0.4614  0.1761 -1.0985
 1205SOL    HW215252   0.240   0.538   4.137 -1.5067 -0.5814 -1.4378
 1206SOL     OW15253   4.262   3.375   7.547  0.0688  0.3309 -0.3568
 1206SOL    HW115254   4.169   3.357   7.560  0.8760 -4.0347 -0.4958
 1206SOL    HW215255   4.257   3.426   7.467 -1.1466 -0.5287 -0.8216
 1207SOL     OW15256   3.168   2.229  10.640  0.2138 -0.0133 -0.2524
 1207SOL    HW115257   3.155   2.290  10.568  0.4040 -0.1121 -0.3710
 1207SOL    HW215258   3.088   2.246  10.690  1.1275  1.3655  0.7536
 1208SOL     OW15259   4.373   4.240   7.737 -0.1858 -0.4433  0.1128
 1208SOL    HW115260   4.368   4.157   7.688  0.3712 -0.2204 -0.3262
 1208SOL    HW215261   4.357   4.305   7.669  1.2481  1.2756  1.4508
 1209SOL     OW15262   2.236   1.011  11.874  0.0559  0.0970 -0.4511
 1209SOL    HW115263   2.258   0.932  11.923  1.1830  2.4927  2.8638
 1209SOL    HW215264   2.322   1.051  11.861 -0.6990  1.7925 -0.2055
 1210SOL     OW15265   3.869   0.423   0.783  0.2432  0.3647 -0.6432
 1210SOL    HW115266   3.880   0.332   0.810 -0.0763  0.6712  0.4814
 1210SOL    HW215267   3.779   0.437   0.754 -0.2447 -0.0649  0.6948
 1211SOL     OW15268   3.455   0.683  16.382 -0.3295 -0.1241 -0.1688
 1211SOL    HW115269   3.545   0.657  16.367 -0.0435  0.1717  1.0412
 1211SOL    HW215270   3.463   0.720  16.470 -1.2719  1.4102 -0.7165
 1212SOL     OW15271   0.940   2.963   2.893 -0.1220 -0.1145 -0.2038
 1212SOL    HW115272   0.897   2.984   2.977 -0.0675 -2.3406  0.3885
 1212SOL    HW215273   1.030   2.944   2.918  0.0767  1.3081  0.1708
 1213SOL     OW15274   1.938   2.667  11.037 -0.9042  0.1589 -0.3155
 1213SOL    HW115275   1.936   2.597  11.103  0.8393 -1.4682 -2.0019
 1213SOL    HW215276   2.016   2.716  11.061  0.3269 -2.5999  1.3084
 1214SOL     OW15277   1.862   4.513   3.713  0.1252 -0.3669  0.3714
 1214SOL    HW115278   1.814   4.450   3.660 -2.2249 -0.5150  2.6617
 1214SOL    HW215279   1.946   4.468   3.717  0.3636  0.1062  0.8470
 1215SOL     OW15280   3.477   1.883  14.365  0.1171 -0.1011  0.1167
 1215SOL    HW115281   3.409   1.904  14.301  1.6878  0.8136 -1.2496
 1215SOL    HW215282   3.532   1.825  14.312  0.2788 -1.2604  1.5387
 1216SOL     OW15283   4.609   4.181   6.358 -0.0585  0.1723  0.1041
 1216SOL    HW115284   4.596   4.087   6.349  0.6295  0.5000 -4.2904
 1216SOL    HW215285   4.526   4.223   6.381 -0.9747 -1.2931 -0.5009
 1217SOL     OW15286   2.770   4.253  16.659 -0.0742  0.4898  0.0927
 1217SOL    HW115287   2.786   4.313  16.732  1.7084  0.6298 -0.4134
 1217SOL    HW215288   2.861   4.229  16.642  0.5716  1.7779  1.7698
 1218SOL     OW15289   1.765   2.763   4.822 -0.2250 -0.4154 -0.4080
 1218SOL    HW115290   1.676   2.796   4.815 -0.0575  0.0954 -0.1326
 1218SOL    HW215291   1.826   2.838   4.818  0.0623 -0.6026  0.4709
 1219SOL     OW15292   3.474   2.437   8.452 -0.4118 -0.0083  0.5837
 1219SOL    HW115293   3.447   2.366   8.509 -3.0637  0.9491  0.4930
 1219SOL    HW215294   3.409   2.499   8.484 -1.5282 -0.2896 -1.1370
 1220SOL     OW15295   1.675   3.177   7.992 -0.1514 -0.7039  0.3001
 1220SOL    HW115296   1.644   3.171   7.901 -0.6457 -1.1653  0.4950
 1220SOL    HW215297   1.613   3.245   8.017  1.4623  1.0917 -0.6050
 1221SOL     OW15298   2.878   2.591   4.747  0.7901 -0.0584  0.0183
 1221SOL    HW115299   2.843   2.570   4.660  1.8870 -0.1908 -0.4049
 1221SOL    HW215300   2.944   2.521   4.743  2.6695  1.6730  1.0004
 1222SOL     OW15301   0.775   4.303   0.835 -0.4417  0.3335 -0.2662
 1222SOL    HW115302   0.787   4.307   0.740 -1.5798 -0.7191 -0.4387
 1222SOL    HW215303   0.728   4.220   0.839  0.2208  0.1199  2.8008
 1223SOL     OW15304   3.268   0.812  17.529  0.4203  0.0999 -0.0816
 1223SOL    HW115305   3.195   0.827  17.469  0.9083  0.2352 -0.6519
 1223SOL    HW215306   3.287   0.721  17.508 -0.2025 -0.1042  0.2664
 1224SOL     OW15307   3.125   3.318   2.513  0.1183  0.3244  0.0387
 1224SOL    HW115308   3.054   3.350   2.457 -0.3853  0.2177  0.6081
 1224SOL    HW215309   3.177   3.265   2.452  0.1987 -1.1759  1.4064
 1225SOL     OW15310   0.250   0.922  14.394  0.5221  0.1216 -0.4730
 1225SOL    HW115311   0.282   0.987  14.332  0.6005 -0.1020 -0.6715
 1225SOL    HW215312   0.200   0.971  14.458  2.8034 -0.5054  1.8154
 1226SOL     OW15313   3.119   2.122  17.089 -0.3533 -0.0229 -0.0765
 1226SOL    HW115314   3.129   2.053  17.023 -0.5225 -2.0221  1.9496
 1226SOL    HW215315   3.060   2.178  17.040  0.4816  2.0455  1.2782
 1227SOL     OW15316   0.056   0.310   1.786  0.5428  0.4720 -0.2244
 1227SOL    HW115317   4.715   0.344   1.743 -0.0537 -0.3953  0.1745
 1227SOL    HW215318   0.092   0.243   1.727 -0.8608  1.3825 -2.1080
 1228SOL     OW15319   0.761   3.890   7.361  0.1626 -0.1540 -0.2484
 1228SOL    HW115320   0.736   3.816   7.305  1.8276 -1.1143  0.2922
 1228SOL    HW215321   0.680   3.912   7.407  0.0313  0.1893 -0.6404
 1229SOL     OW15322   0.166   3.150  17.418  0.3479 -0.0358 -0.3688
 1229SOL    HW115323   0.084   3.164  17.370 -0.3696 -2.1321  0.2633
 1229SOL    HW215324   0.196   3.241  17.410  0.4860 -0.0112  0.4425
 1230SOL     OW15325   1.312   2.202   0.119  0.0512 -0.5904 -0.3254
 1230SOL    HW115326   1.327   2.115   0.084  0.1491 -0.5579 -0.3630
 1230SOL    HW215327   1.218   2.213   0.101 -0.4012  0.0170  2.3692
 1231SOL     OW15328   0.812   4.269   1.773  0.7439  0.5903 -0.1939
 1231SOL    HW115329   0.740   4.290   1.714  1.0415  2.6199  0.1926
 1231SOL    HW215330   0.878   4.313   1.720  2.6449  0.0674  1.7290
 1232SOL     OW15331   4.462   2.642   4.103 -0.2034 -0.1122  0.0129
 1232SOL    HW115332   4.394   2.672   4.042 -0.5120  0.5407  0.6837
 1232SOL    HW215333   4.511   2.579   4.050  0.6464 -1.3404  2.3102
 1233SOL     OW15334   2.203   1.470   3.786 -0.6342  0.0000 -0.1883
 1233SOL    HW115335   2.275   1.479   3.723 -0.2157  0.2084  0.3220
 1233SOL    HW215336   2.239   1.400   3.841 -0.2880  0.1003 -0.2877
 1234SOL     OW15337   2.191   3.869   4.460 -0.2578 -0.1826  0.3514
 1234SOL    HW115338   2.188   3.783   4.418  1.1035  0.1089 -0.3733
 1234SOL    HW215339   2.246   3.858   4.538 -0.5186  0.0677  0.5717
 1235SOL     OW15340   1.664   3.509   8.077 -0.0235  0.3891 -0.3306
 1235SOL    HW115341   1.631   3.585   8.125 -1.0815  0.8527 -1.7786
 1235SOL    HW215342   1.742   3.546   8.036  0.2585 -1.1174 -1.1443
 1236SOL     OW15343   2.498   2.934   6.231  0.0711 -0.4080 -0.5774
 1236SOL    HW115344   2.492   2.860   6.292 -1.0234  0.4132  0.2873
 1236SOL    HW215345   2.507   3.004   6.295 -2.5107 -1.9569  1.5033
 1237SOL     OW15346   1.359   0.913  14.453 -0.3283  0.0168  0.1532
 1237SOL    HW115347   1.449   0.881  14.464 -0.3232  0.3098  0.9749
 1237SOL    HW215348   1.308   0.838  14.421 -2.0083  0.3426  2.0477
 1238SOL     OW15349   1.948   3.534  12.414 -0.1333 -0.2431 -0.3731
 1238SOL    HW115350   1.922   3.595  12.344  1.5230  0.2114 -0.5965
 1238SOL    HW215351   1.940   3.583  12.496  0.9134 -1.3303  0.3639
 1239SOL     OW15352   1.430   1.249   0.690 -0.3497 -0.3488  0.7249
 1239SOL    HW115353   1.434   1.338   0.655  2.9929 -0.8529 -0.2247
 1239SOL    HW215354   1.484   1.264   0.768 -0.4091  0.8947  0.5328
 1240SOL     OW15355   3.523   1.748   8.581  0.1209  0.1071  0.0620
 1240SOL    HW115356   3.529   1.804   8.658 -2.9304 -1.0753  1.1749
 1240SOL    HW215357   3.459   1.802   8.534  1.0588  0.5288 -0.7226
 1241SOL     OW15358   2.015   3.741  14.383 -0.0028 -0.6801 -0.0418
 1241SOL    HW115359   2.007   3.732  14.288  1.5302  1.4525 -0.3918
 1241SOL    HW215360   2.097   3.694  14.401  0.9896  0.8332 -0.5304
 1242SOL     OW15361   1.072   2.468  13.686 -0.3044 -0.6237 -0.4481
 1242SOL    HW115362   1.092   2.374  13.688 -0.9367 -0.7492 -0.1312
 1242SOL    HW215363   0.984   2.464  13.722  0.2725 -0.7104  0.9413
 1243SOL     OW15364   1.076   1.206   3.853  0.1935 -0.6246 -0.0021
 1243SOL    HW115365   1.008   1.270   3.831 -1.1234 -2.0714 -0.2026
 1243SOL    HW215366   1.148   1.242   3.802  0.4295  0.3950  1.0662
 1244SOL     OW15367   4.619   3.566   1.054 -0.1148  0.2321  0.0204
 1244SOL    HW115368   4.660   3.514   0.986  1.5868  0.6626  0.7165
 1244SOL    HW215369   4.687   3.552   1.119 -1.5022 -2.0821  0.9783
 1245SOL     OW15370   0.814   3.812  13.860 -0.3939  0.0491  0.3496
 1245SOL    HW115371   0.857   3.759  13.793 -1.4507 -0.2025 -0.1310
 1245SOL    HW215372   0.733   3.833  13.813 -0.8758 -1.9359  0.2905
 1246SOL     OW15373   0.153   0.961  13.355 -0.3610  0.1320  0.1132
 1246SOL    HW115374   0.188   1.030  13.411  2.3569 -0.3440 -1.0095
 1246SOL    HW215375   0.102   0.923  13.427  1.1304 -1.6947  0.2219
 1247SOL     OW15376   1.394   2.417   7.790  0.5212  0.2396  0.1445
 1247SOL    HW115377   1.380   2.403   7.696 -2.5773  3.6054  0.1376
 1247SOL    HW215378   1.488   2.431   7.803  0.3051 -0.2646  2.2479
 1248SOL     OW15379   3.840   2.377  10.609 -0.0582 -0.1183 -0.0786
 1248SOL    HW115380   3.912   2.351  10.665  0.5738  0.9385 -0.4125
 1248SOL    HW215381   3.770   2.393  10.672 -0.5815 -0.9923 -0.4311
 1249SOL     OW15382   2.907   0.223   3.357 -0.1453 -0.4209 -0.0493
 1249SOL    HW115383   2.866   0.302   3.323 -0.1826 -1.0303 -1.4153
 1249SOL    HW215384   2.828   0.180   3.390 -0.3967 -1.4430 -1.9766
 1250SOL     OW15385   0.165   3.139  14.980  0.5082  0.1063 -0.6752
 1250SOL    HW115386   0.097   3.137  15.047  0.5556  0.4282 -0.6189
 1250SOL    HW215387   0.233   3.166  15.041  0.1978 -0.3238 -0.1407
 1251SOL     OW15388   4.057   2.107   6.732  0.4677  0.0999  0.8291
 1251SOL    HW115389   4.064   2.118   6.638 -0.3967 -0.3387  0.7132
 1251SOL    HW215390   3.969   2.070   6.736  0.6333 -0.5253 -1.8330
 1252SOL     OW15391   1.349   3.008   7.852 -0.2151 -0.0738 -0.5578
 1252SOL    HW115392   1.364   2.915   7.831  3.7940  0.3888  0.2796
 1252SOL    HW215393   1.423   3.048   7.807 -1.0603  2.2758  0.1833
 1253SOL     OW15394   1.578   0.259   1.425  0.3575  0.4631 -0.1125
 1253SOL    HW115395   1.594   0.195   1.494 -1.1853  1.1814  0.9215
 1253SOL    HW215396   1.588   0.207   1.346 -1.2278  0.6829 -0.4754
 1254SOL     OW15397   2.923   3.196   3.488 -0.2045  0.1964  0.5971
 1254SOL    HW115398   2.833   3.164   3.491 -0.1411  0.0986  1.8388
 1254SOL    HW215399   2.956   3.153   3.567  0.1734  0.6998  0.7135
 1255SOL     OW15400   2.460   2.551   8.070 -0.3948  0.0574  0.0289
 1255SOL    HW115401   2.381   2.604   8.076  0.4876  1.2686  1.0707
 1255SOL    HW215402   2.517   2.601   8.129 -1.6299 -0.4757  1.6928
 1256SOL     OW15403   3.968   0.587   2.849  0.5584  0.3819 -0.1671
 1256SOL    HW115404   3.893   0.533   2.875 -1.1504  2.5892 -0.5780
 1256SOL    HW215405   3.954   0.601   2.756  1.3006 -0.4466 -0.4116
 1257SOL     OW15406   3.171   1.261  13.204  0.6096  0.0981 -0.1576
 1257SOL    HW115407   3.251   1.213  13.225 -0.0968 -1.5963 -1.3125
 1257SOL    HW215408   3.143   1.218  13.123  2.6432 -0.9439 -0.3067
 1258SOL     OW15409   0.226   2.351   4.672  0.1951 -0.2996 -0.1611
 1258SOL    HW115410   0.142   2.319   4.704  1.0798  0.9281  3.3369
 1258SOL    HW215411   0.212   2.446   4.675  2.1026 -0.0680  1.2337
 1259SOL     OW15412   1.547   2.603   2.868  0.3466  0.1202 -0.0840
 1259SOL    HW115413   1.612   2.602   2.798  0.8644  0.5250  0.3892
 1259SOL    HW215414   1.522   2.695   2.873  1.7223  0.4734  0.3823
 1260SOL     OW15415   0.658   2.613   7.214 -0.3205  0.2074 -0.1322
 1260SOL    HW115416   0.597   2.601   7.287 -1.7631 -0.2039 -1.4367
 1260SOL    HW215417   0.660   2.705   7.187  0.1888 -0.3676 -2.0445
 1261SOL     OW15418   1.483   2.522   6.680 -0.0044  0.2323  0.6295
 1261SOL    HW115419   1.424   2.449   6.700 -1.5673  1.0108 -1.1951
 1261SOL    HW215420   1.553   2.477   6.632 -0.2467  0.2787  0.2348
 1262SOL     OW15421   4.412   2.320   8.613 -0.3124  0.1556  0.3584
 1262SOL    HW115422   4.368   2.246   8.655  0.9092  0.6985  2.6158
 1262SOL    HW215423   4.495   2.273   8.603 -0.4098  0.1266 -0.2973
 1263SOL     OW15424   2.489   0.477   9.798  0.3799 -0.0097  0.1578
 1263SOL    HW115425   2.548   0.514   9.731 -0.1264  0.4771 -0.0185
 1263SOL    HW215426   2.547   0.423   9.851 -0.5089 -0.7298  0.4002
 1264SOL     OW15427   4.021   3.123  16.597  0.2274 -0.5826  0.2122
 1264SOL    HW115428   4.008   3.031  16.573  2.7198 -0.5662 -1.1199
 1264SOL    HW215429   3.950   3.141  16.659  3.1092  1.9107  2.7531
 1265SOL     OW15430   1.726   4.625  16.839  0.0624  0.3673  0.2475
 1265SOL    HW115431   1.735   4.651  16.747 -0.0726 -0.0438  0.1173
 1265SOL    HW215432   1.812   4.643  16.878  0.4929  0.8442 -0.9113
 1266SOL     OW15433   4.227   0.150   9.044 -0.3963 -0.6560 -0.1773
 1266SOL    HW115434   4.220   0.055   9.035 -1.8632 -0.4584 -1.2250
 1266SOL    HW215435   4.135   0.175   9.051  0.2176  1.9762 -1.3544
 1267SOL     OW15436   3.275   2.671   3.738 -0.1491 -0.4647 -0.3684
 1267SOL    HW115437   3.356   2.654   3.689  0.1656  0.3466 -0.1284
 1267SOL    HW215438   3.227   2.589   3.745  0.5910 -0.6765  2.0132
 1268SOL     OW15439   3.053   3.253   6.117 -0.7078  0.4139  0.3042
 1268SOL    HW115440   3.048   3.311   6.193 -0.3025  1.2841 -0.3359
 1268SOL    HW215441   3.000   3.183   6.154  1.4927 -1.3445  0.1361
 1269SOL     OW15442   3.670   0.932   4.597 -0.2954 -0.6049  0.3603
 1269SOL    HW115443   3.757   0.895   4.610  0.1417  0.4041  0.3602
 1269SOL    HW215444   3.613   0.857   4.611  0.2876 -1.5146 -2.2823
 1270SOL     OW15445   1.365   1.843   7.365 -0.3887 -0.3679  0.3299
 1270SOL    HW115446   1.278   1.850   7.325 -1.0974  0.2205  1.9873
 1270SOL    HW215447   1.418   1.821   7.289 -1.2873 -3.3811  0.5571
 1271SOL     OW15448   2.208   1.294   6.210 -0.4092 -0.6816  0.2690
 1271SOL    HW115449   2.226   1.379   6.250  1.1349 -0.1302 -1.5653
 1271SOL    HW215450   2.115   1.278   6.224 -0.8209  1.2779 -0.2350
 1272SOL     OW15451   1.203   1.128   5.450  0.2076  0.3191 -0.2773
 1272SOL    HW115452   1.287   1.161   5.420 -0.5700  0.0448 -2.7471
 1272SOL    HW215453   1.199   1.055   5.388 -0.6291 -0.4558  0.6712
 1273SOL     OW15454   2.187   3.448  14.279 -0.3734 -0.0567  0.4335
 1273SOL    HW115455   2.271   3.418  14.244  0.2539  1.7419  0.4202
 1273SOL    HW215456   2.206   3.535  14.313 -0.2945  0.7424 -1.6397
 1274SOL     OW15457   1.855   3.007   8.812  0.1297  0.1054  0.7220
 1274SOL    HW115458   1.908   2.928   8.817  0.0624  0.0809  1.0519
 1274SOL    HW215459   1.787   3.003   8.880 -0.0204  0.6150  0.6036
 1275SOL     OW15460   0.378   2.544   2.243  0.3624 -0.0080  0.4510
 1275SOL    HW115461   0.305   2.590   2.283 -0.1741 -2.7820  2.6866
 1275SOL    HW215462   0.396   2.496   2.324 -0.3029  0.4375  0.8653
 1276SOL     OW15463   4.206   4.416   8.762 -0.5891 -0.0605  0.4370
 1276SOL    HW115464   4.177   4.367   8.839  0.7417 -0.1306  0.8929
 1276SOL    HW215465   4.296   4.440   8.783 -0.3664 -0.0554 -0.5266
 1277SOL     OW15466   1.096   0.276  14.498  0.5180  0.3061 -0.3370
 1277SOL    HW115467   1.169   0.335  14.516  0.3595  0.7141 -1.0446
 1277SOL    HW215468   1.025   0.331  14.465  1.2082 -0.3472 -2.9012
 1278SOL     OW15469   2.130   1.982   4.880 -0.3865  0.3323 -0.4861
 1278SOL    HW115470   2.203   2.040   4.903  0.0468 -1.0172  1.5153
 1278SOL    HW215471   2.079   1.998   4.960 -1.5351  0.3500 -1.2182
 1279SOL     OW15472   2.398   4.554   7.256  0.1563 -0.2246  0.1636
 1279SOL    HW115473   2.453   4.628   7.231  1.1143 -1.1218 -0.3767
 1279SOL    HW215474   2.324   4.586   7.308  0.1881 -0.7044  0.5048
 1280SOL     OW15475   2.258   1.454   4.615 -0.0534  0.0047  0.5308
 1280SOL    HW115476   2.320   1.406   4.561  0.6762  0.3786  1.0325
 1280SOL    HW215477   2.246   1.534   4.563  0.6719 -0.7486 -0.7653
 1281SOL     OW15478   4.676   3.209   6.515 -0.7434 -0.3075  0.3519
 1281SOL    HW115479   4.629   3.146   6.460  0.7405 -0.2072 -1.0680
 1281SOL    HW215480   0.020   3.161   6.530 -0.3588  0.1495 -0.2690
 1282SOL     OW15481   0.366   1.890   3.331 -0.2545  0.5636 -0.1033
 1282SOL    HW115482   0.276   1.883   3.362 -0.5222  0.9362 -0.7831
 1282SOL    HW215483   0.384   1.798   3.313 -0.4385  0.9421 -2.2028
 1283SOL     OW15484   2.979   0.852   2.303  0.2493 -0.5634  0.0833
 1283SOL    HW115485   2.960   0.832   2.395  0.3905 -0.1022  0.2129
 1283SOL    HW215486   3.074   0.839   2.300  0.0466 -1.4045 -2.3815
 1284SOL     OW15487   0.293   3.552   5.956 -0.3216  0.0459  0.3059
 1284SOL    HW115488   0.332   3.631   5.919 -2.3181 -0.4242 -2.8262
 1284SOL    HW215489   0.237   3.584   6.026  2.1815  2.7752  1.0670
 1285SOL     OW15490   2.517   2.490   1.006 -0.1099  0.6798  0.1346
 1285SOL    HW115491   2.598   2.499   0.957  0.4755  0.7067  1.1077
 1285SOL    HW215492   2.518   2.573   1.054 -1.2703  1.0658 -0.5084
 1286SOL     OW15493   0.773   0.706  15.045  0.4970  0.1769  0.1932
 1286SOL    HW115494   0.854   0.753  15.066 -1.0416  2.1663  1.6746
 1286SOL    HW215495   0.703   0.736  15.104 -0.4436 -0.4569 -0.6073
 1287SOL     OW15496   4.174   4.737   3.976 -0.5262 -0.3135  0.7539
 1287SOL    HW115497   4.220   0.074   3.938 -0.4919 -0.0787  1.2476
 1287SOL    HW215498   4.157   0.035   4.064 -0.6560  0.3025  0.4764
 1288SOL     OW15499   3.595   0.092  15.171 -0.1057 -0.2648  0.5669
 1288SOL    HW115500   3.616   4.737  15.187 -0.3492 -1.1326 -4.2636
 1288SOL    HW215501   3.620   0.104  15.079 -1.1491  1.0994  0.4623
 1289SOL     OW15502   3.913   0.179   5.349 -0.9799  0.2005  0.6945
 1289SOL    HW115503   3.968   0.247   5.309 -1.1884 -0.6755 -1.0642
 1289SOL    HW215504   3.913   0.120   5.274  0.7869  0.7834  0.2213
 1290SOL     OW15505   3.298   2.185   6.492  0.4449  0.2540 -0.0235
 1290SOL    HW115506   3.224   2.145   6.445  1.0247 -1.4523  0.5161
 1290SOL    HW215507   3.363   2.171   6.424  1.2766 -1.1940  1.0938
 1291SOL     OW15508   4.485   2.421   7.784  0.1108  0.1297  0.6699
 1291SOL    HW115509   4.554   2.460   7.837  0.2991  0.4467  0.1907
 1291SOL    HW215510   4.428   2.369   7.841  0.3512 -2.0820 -1.1008
 1292SOL     OW15511   1.221   2.247   3.248  0.2094  0.5283  0.5196
 1292SOL    HW115512   1.195   2.179   3.185  1.7653 -1.0567  1.6184
 1292SOL    HW215513   1.316   2.246   3.240  0.0788 -0.6370 -1.0050
 1293SOL     OW15514   0.495   1.843   3.600 -0.1785  0.2733 -0.5346
 1293SOL    HW115515   0.449   1.763   3.628  0.2349  0.9866  2.2499
 1293SOL    HW215516   0.449   1.842   3.516 -2.2090  0.2081  0.5793
 1294SOL     OW15517   4.454   0.736   7.168 -0.4840 -0.0389 -0.0698
 1294SOL    HW115518   4.446   0.815   7.223 -1.6146  0.6264 -1.2128
 1294SOL    HW215519   4.416   0.665   7.219  1.0051  0.3001  1.5331
 1295SOL     OW15520   2.753   2.201   6.700  0.0095 -0.6413  0.5642
 1295SOL    HW115521   2.817   2.209   6.629 -2.8979  0.3015 -1.9383
 1295SOL    HW215522   2.814   2.149   6.752  2.5750 -0.2149 -1.9940
 1296SOL     OW15523   1.491   2.513   8.665 -0.4801 -0.8328  0.2371
 1296SOL    HW115524   1.499   2.592   8.720 -0.2494 -1.6457  1.3689
 1296SOL    HW215525   1.407   2.479   8.697 -1.7072 -1.6045 -3.7569
 1297SOL     OW15526   0.830   3.007   5.942 -0.1366 -0.1059 -0.9018
 1297SOL    HW115527   0.753   3.055   5.914 -1.4401 -1.1106  0.9835
 1297SOL    HW215528   0.889   3.046   5.878 -1.5275  0.3667 -1.8873
 1298SOL     OW15529   1.583   4.211  10.477  0.2667 -0.0255 -0.1115
 1298SOL    HW115530   1.539   4.217  10.562  0.4938  0.1699 -0.0094
 1298SOL    HW215531   1.589   4.118  10.459 -0.2724  0.3580 -2.2361
 1299SOL     OW15532   2.890   1.089  10.074 -0.1422  0.1798  0.4110
 1299SOL    HW115533   2.935   1.097  10.158  1.0363 -1.6442 -0.0581
 1299SOL    HW215534   2.966   1.069  10.019 -1.1157 -0.6280 -0.6423
 1300SOL     OW15535   3.965   0.643   2.586 -0.3488  0.1868  0.0297
 1300SOL    HW115536   4.044   0.692   2.565 -0.4123  0.4446  0.4015
 1300SOL    HW215537   3.922   0.654   2.501 -1.0143 -1.1384  0.1887
 1301SOL     OW15538   3.614   4.275   7.022 -0.4233  0.6161  0.1926
 1301SOL    HW115539   3.649   4.320   6.945 -0.2003  0.8337  0.4243
 1301SOL    HW215540   3.692   4.257   7.075  0.7659  1.9001 -1.1118
 1302SOL     OW15541   0.383   0.776   6.543 -0.7422 -0.1317  0.2733
 1302SOL    HW115542   0.477   0.788   6.531 -0.9416 -0.7969 -2.0215
 1302SOL    HW215543   0.361   0.712   6.475  0.2430  0.7001 -0.8211
 1303SOL     OW15544   3.143   1.048   1.509 -0.4415  0.6977 -0.3230
 1303SOL    HW115545   3.178   1.136   1.496  0.8011  0.6078  2.4927
 1303SOL    HW215546   3.135   1.023   1.417 -1.5669  1.2238 -0.3761
 1304SOL     OW15547   3.533   1.290   8.385  0.0842  0.1755 -0.1056
 1304SOL    HW115548   3.444   1.281   8.351  0.1052  0.4988 -0.2455
 1304SOL    HW215549   3.545   1.384   8.396 -1.3037  0.5700 -1.9315
 1305SOL     OW15550   1.007   1.401   1.655 -0.0465  0.0105  0.2102
 1305SOL    HW115551   1.015   1.425   1.748 -0.1913 -0.9314  0.4704
 1305SOL    HW215552   0.928   1.347   1.658 -0.0133 -0.1276 -1.7274
 1306SOL     OW15553   4.114   1.354   3.407 -0.1325  0.1735 -0.7143
 1306SOL    HW115554   4.169   1.295   3.356  0.0653  0.8843 -1.3207
 1306SOL    HW215555   4.022   1.334   3.390  0.0809 -0.4439 -1.1004
 1307SOL     OW15556   1.594   2.853   5.916 -0.1620  0.3718  0.0646
 1307SOL    HW115557   1.621   2.878   6.005 -0.8257 -0.0385  0.3838
 1307SOL    HW215558   1.533   2.781   5.934  1.1710 -1.2165 -1.7687
 1308SOL     OW15559   0.835   4.320   6.590 -0.6358 -0.3324  0.3477
 1308SOL    HW115560   0.922   4.346   6.560  0.2395 -3.8817 -0.2071
 1308SOL    HW215561   0.842   4.326   6.685  0.3794 -0.3516  0.2728
 1309SOL     OW15562   2.844   1.743   9.896  0.3573  0.2129 -0.2867
 1309SOL    HW115563   2.777   1.773   9.957  0.2126  1.5896 -1.1118
 1309SOL    HW215564   2.811   1.680   9.832 -0.3539  1.7430 -1.4031
 1310SOL     OW15565   0.895   2.596   2.895 -0.2480  0.1513  0.2837
 1310SOL    HW115566   0.887   2.501   2.884 -0.3757  0.1769  0.1562
 1310SOL    HW215567   0.899   2.622   2.803  0.1378  0.5486  0.4169
 1311SOL     OW15568   4.660   2.452   5.648 -0.2819  1.2013  0.6268
 1311SOL    HW115569   4.637   2.448   5.741 -0.3932 -0.5708  0.5300
 1311SOL    HW215570   4.604   2.379   5.622  1.6778 -0.7856  1.9412
 1312SOL     OW15571   2.164   2.465  17.053  0.0591 -0.1270 -0.2233
 1312SOL    HW115572   2.256   2.441  17.066  0.0042  1.5358  3.3859
 1312SOL    HW215573   2.145   2.400  16.986 -0.8394  0.1162 -0.2052
 1313SOL     OW15574   0.061   4.153  15.940  0.0355  0.7672  0.4930
 1313SOL    HW115575   0.052   4.193  16.026 -2.1090 -1.2051  1.2001
 1313SOL    HW215576   0.137   4.194  15.898  0.9804 -0.2974  1.1836
 1314SOL     OW15577   0.891   2.923   8.415  0.4216  0.4765  0.9473
 1314SOL    HW115578   0.949   2.931   8.340 -3.2641  1.9022 -1.7844
 1314SOL    HW215579   0.899   3.015   8.438  1.8350  0.2286  1.4082
 1315SOL     OW15580   4.222   1.834   6.949  0.3201  0.3591 -0.0246
 1315SOL    HW115581   4.200   1.904   7.011 -0.9957  0.8990 -1.1049
 1315SOL    HW215582   4.155   1.769   6.970  0.9289 -0.4359 -0.5470
 1316SOL     OW15583   3.552   0.628  15.183 -0.7836  0.2164 -0.2771
 1316SOL    HW115584   3.600   0.581  15.116 -0.4242  0.1039  0.0593
 1316SOL    HW215585   3.478   0.570  15.201 -0.8811  0.0563 -1.2417
 1317SOL     OW15586   1.722   3.085   0.935  0.2116  0.5939 -0.1862
 1317SOL    HW115587   1.695   3.113   1.023  1.9561  1.1946  0.1620
 1317SOL    HW215588   1.817   3.073   0.941  0.1266 -0.6160 -1.4705
 1318SOL     OW15589   0.634   0.631   1.209  0.2785 -0.3445  0.3688
 1318SOL    HW115590   0.691   0.695   1.167 -0.0962 -0.4349 -0.2782
 1318SOL    HW215591   0.567   0.695   1.230 -0.2832 -0.5012 -0.9330
 1319SOL     OW15592   0.479   4.165   4.842  0.0989 -0.1799  0.6640
 1319SOL    HW115593   0.467   4.140   4.934 -0.2459 -0.8226  0.4503
 1319SOL    HW215594   0.572   4.143   4.834 -0.3301 -1.0387 -1.9651
 1320SOL     OW15595   1.134   4.719   8.651 -0.2730 -0.6938 -0.1160
 1320SOL    HW115596   1.137   0.065   8.697  1.2015  0.8892 -3.1078
 1320SOL    HW215597   1.050   4.684   8.683 -0.2286 -1.3600 -0.7371
 1321SOL     OW15598   2.149   1.224   4.485  0.1891  0.2421  0.4361
 1321SOL    HW115599   2.233   1.268   4.475  0.9009 -0.5616  2.8497
 1321SOL    HW215600   2.177   1.165   4.555 -0.3466  0.3149  0.7179
 1322SOL     OW15601   2.077   0.918  13.150  0.3711 -0.1205 -0.4842
 1322SOL    HW115602   2.026   0.854  13.198  1.4178 -0.9231 -0.4276
 1322SOL    HW215603   2.130   0.958  13.219 -1.8334  1.1049  0.4761
 1323SOL     OW15604   3.155   2.704   4.978  0.2006 -0.6783 -0.0434
 1323SOL    HW115605   3.233   2.759   4.982 -1.8109  2.2863 -2.2651
 1323SOL    HW215606   3.178   2.674   4.891  2.2124  1.6935 -0.3042
 1324SOL     OW15607   1.988   2.050   1.725 -0.4792 -0.2026 -0.0413
 1324SOL    HW115608   2.018   1.996   1.798 -0.9970 -0.2892  0.1066
 1324SOL    HW215609   1.943   1.976   1.685 -0.4712  1.0108 -2.2810
 1325SOL     OW15610   0.326   0.132   9.035 -0.6285  0.1892 -0.6471
 1325SOL    HW115611   0.302   0.102   9.122  1.6091 -0.7413 -0.3397
 1325SOL    HW215612   0.409   0.087   9.016  0.6344  2.0299  0.5512
 1326SOL     OW15613   2.325   3.544   4.814 -0.0024  0.9416  0.1887
 1326SOL    HW115614   2.396   3.597   4.776  0.8135 -2.0611 -2.4936
 1326SOL    HW215615   2.361   3.515   4.898 -2.6323  1.8494  1.6259
 1327SOL     OW15616   2.166   1.157   1.393  0.0102  0.2472  0.7764
 1327SOL    HW115617   2.155   1.173   1.299  1.2580 -1.1253  0.3868
 1327SOL    HW215618   2.235   1.091   1.400  1.2371  1.6328  1.6755
 1328SOL     OW15619   4.333   2.604   1.911  0.2564 -0.3636 -0.1491
 1328SOL    HW115620   4.330   2.508   1.910 -0.6220 -0.3486  1.8980
 1328SOL    HW215621   4.377   2.622   1.828 -0.1131  0.2000 -0.2167
 1329SOL     OW15622   1.396   3.856   7.453  0.3078  0.2286  0.0921
 1329SOL    HW115623   1.428   3.878   7.365 -0.8316 -1.5473 -0.7859
 1329SOL    HW215624   1.317   3.910   7.457  1.8004  2.3189  1.1623
 1330SOL     OW15625   2.087   1.220   0.759 -0.4956  0.1700  0.1163
 1330SOL    HW115626   2.080   1.267   0.676  0.7683 -2.3786 -1.4547
 1330SOL    HW215627   2.161   1.163   0.738 -2.2033 -1.2554 -2.0381
 1331SOL     OW15628   3.208   2.298   1.102  0.4859 -0.2836 -0.6938
 1331SOL    HW115629   3.295   2.336   1.088  0.2103  0.9567  0.9049
 1331SOL    HW215630   3.199   2.293   1.198  1.1409  1.6875 -0.5316
 1332SOL     OW15631   0.918   2.761   4.290  0.4520  0.5907 -0.3681
 1332SOL    HW115632   0.895   2.773   4.383  1.4937  3.3103 -0.4707
 1332SOL    HW215633   0.976   2.684   4.293 -0.3489  0.0117  0.3139
 1333SOL     OW15634   2.734   2.414   3.799 -0.8311 -0.2588 -0.0399
 1333SOL    HW115635   2.718   2.486   3.738  2.1937  0.9590  0.5954
 1333SOL    HW215636   2.740   2.335   3.747 -0.6735  0.5625 -1.2749
 1334SOL     OW15637   3.350   3.943   2.841 -0.1175 -0.3232 -0.7369
 1334SOL    HW115638   3.332   4.032   2.810 -0.1079 -0.7612 -1.9902
 1334SOL    HW215639   3.445   3.939   2.830  0.0341 -1.1562  0.9705
 1335SOL     OW15640   0.625   4.622   7.470 -0.0142  0.0518 -0.1399
 1335SOL    HW115641   0.679   4.601   7.545  0.8605  0.0890 -0.7684
 1335SOL    HW215642   0.536   4.601   7.499 -0.1992  0.8607 -0.1029
 1336SOL     OW15643   3.183   3.544  10.084 -0.1227  0.2537  0.0301
 1336SOL    HW115644   3.109   3.494  10.048 -0.3476  0.8441 -0.3265
 1336SOL    HW215645   3.198   3.610  10.017  0.6562  0.4838  0.4270
 1337SOL     OW15646   2.637   1.083  14.645  0.5270  0.7005 -0.2063
 1337SOL    HW115647   2.628   0.992  14.616 -1.9627  0.0657  2.5455
 1337SOL    HW215648   2.714   1.109  14.595  0.2394  2.2418  0.1382
 1338SOL     OW15649   4.417   0.320   0.183  0.4081 -0.1327 -0.2752
 1338SOL    HW115650   4.334   0.368   0.185  0.7487  0.5066 -1.6446
 1338SOL    HW215651   4.407   0.281   0.270  1.4109  0.9477  0.3238
 1339SOL     OW15652   3.629   0.580   8.947 -0.5144 -0.0184 -0.3742
 1339SOL    HW115653   3.704   0.571   8.889  0.1224 -2.4706  0.7976
 1339SOL    HW215654   3.612   0.673   8.957 -1.5843 -0.4309  1.6677
 1340SOL     OW15655   3.482   0.158  10.469 -0.1308 -0.2912 -0.2707
 1340SOL    HW115656   3.428   0.220  10.517  0.4156 -1.2045  1.5405
 1340SOL    HW215657   3.481   0.089  10.536 -2.0338  2.2358  2.2915
 1341SOL     OW15658   1.719   3.406   1.521  0.4492 -0.2808  0.1193
 1341SOL    HW115659   1.788   3.364   1.573 -0.9141 -2.2966  0.2730
 1341SOL    HW215660   1.672   3.335   1.478  1.0551 -0.6880  0.1241
 1342SOL     OW15661   0.292   2.379   7.341  0.1339 -0.1800  0.7474
 1342SOL    HW115662   0.371   2.407   7.386  0.9942 -1.1866 -0.1459
 1342SOL    HW215663   0.245   2.355   7.420  1.4055 -2.4462  0.7901
 1343SOL     OW15664   2.737   4.165   8.868  0.0885  0.2197  0.8145
 1343SOL    HW115665   2.749   4.185   8.960  1.9157 -0.6514  0.7637
 1343SOL    HW215666   2.703   4.245   8.828  0.3569 -0.7034 -1.2960
 1344SOL     OW15667   3.297   3.201   5.078 -0.3218 -0.2061  0.0125
 1344SOL    HW115668   3.327   3.114   5.104 -1.6393 -1.0381 -1.2840
 1344SOL    HW215669   3.316   3.255   5.155 -1.9223  0.5415 -0.1152
 1345SOL     OW15670   1.103   0.761  16.192 -0.2072  0.0877  0.5420
 1345SOL    HW115671   1.016   0.767  16.152 -0.3376  1.7280  1.0828
 1345SOL    HW215672   1.152   0.813  16.130 -0.1589  2.9504  2.9846
 1346SOL     OW15673   1.498   1.507   8.206 -0.1791 -0.6004  0.2110
 1346SOL    HW115674   1.439   1.477   8.137 -0.4003 -1.2493  0.6880
 1346SOL    HW215675   1.452   1.476   8.284 -1.1444 -0.1273 -0.1750
 1347SOL     OW15676   1.697   4.656   8.962  0.7290  0.3948 -0.4007
 1347SOL    HW115677   1.702   4.616   8.876 -1.3892  2.8002 -1.6682
 1347SOL    HW215678   1.786   4.685   8.983 -0.5002  2.2622  2.2465
 1348SOL     OW15679   2.892   3.633   4.288 -0.4351 -0.0144 -0.0856
 1348SOL    HW115680   2.919   3.636   4.380 -3.0363  2.4064  0.5847
 1348SOL    HW215681   2.836   3.710   4.280 -0.9279 -0.6676 -3.0386
 1349SOL     OW15682   2.712   4.237   5.563  0.8003  0.2400 -0.0464
 1349SOL    HW115683   2.758   4.310   5.523  0.1952 -0.4391 -1.9858
 1349SOL    HW215684   2.652   4.282   5.622  1.7326  0.4733  0.7263
 1350SOL     OW15685   2.928   0.472   2.468  0.1627 -0.1813  0.0232
 1350SOL    HW115686   2.920   0.507   2.557 -0.6017  0.0218 -0.1226
 1350SOL    HW215687   3.001   0.411   2.470  0.1253 -0.2023  0.8589
 1351SOL     OW15688   2.276   2.620   4.904  0.5088 -0.1730  0.4651
 1351SOL    HW115689   2.233   2.705   4.903  1.6130  0.3848  1.0220
 1351SOL    HW215690   2.218   2.570   4.846 -1.1167  1.5858  0.5957
 1352SOL     OW15691   2.496   0.833  16.717  0.6389  0.4733  0.1544
 1352SOL    HW115692   2.494   0.748  16.759 -0.6149  0.2950 -0.2859
 1352SOL    HW215693   2.563   0.867  16.777  1.8509 -0.9098 -0.4213
 1353SOL     OW15694   2.467   3.714   8.502  0.2277  0.2892 -0.0143
 1353SOL    HW115695   2.467   3.809   8.512  0.8164 -0.0281  2.9534
 1353SOL    HW215696   2.442   3.684   8.589 -0.5339 -1.3587 -0.7988
 1354SOL     OW15697   1.555   2.481   8.408 -0.4741 -0.1305  0.0636
 1354SOL    HW115698   1.517   2.399   8.376 -4.5091  2.1238 -0.9328
 1354SOL    HW215699   1.542   2.478   8.502 -0.8241  2.3911  0.0899
 1355SOL     OW15700   2.477   3.930   0.400 -0.3176  0.0810 -0.5046
 1355SOL    HW115701   2.509   3.918   0.310 -0.4211 -0.8536 -0.4218
 1355SOL    HW215702   2.546   3.981   0.441 -2.1422  2.0755  0.0385
 1356SOL     OW15703   1.531   1.930   7.578 -0.1917  0.4644  0.1454
 1356SOL    HW115704   1.524   1.842   7.616 -0.3245  0.1492 -0.6155
 1356SOL    HW215705   1.469   1.923   7.506  1.8979  0.2059 -1.6443
 1357SOL     OW15706   4.260   3.610   5.857 -0.7612  0.1328  0.5553
 1357SOL    HW115707   4.294   3.529   5.818 -2.7431 -1.0712  1.3427
 1357SOL    HW215708   4.288   3.670   5.788 -1.4014  0.4770  0.5931
 1358SOL     OW15709   1.951   3.623   4.568 -0.4265  0.2556 -0.5718
 1358SOL    HW115710   2.043   3.627   4.542  0.0769 -0.4240  1.1160
 1358SOL    HW215711   1.965   3.570   4.647  0.4498  0.6179 -0.4767
 1359SOL     OW15712   0.683   4.544  14.473 -0.5150 -0.0728 -0.1773
 1359SOL    HW115713   0.753   4.581  14.527  0.8605 -0.4875 -1.6765
 1359SOL    HW215714   0.678   4.463  14.523  2.7946 -0.7329 -0.9419
 1360SOL     OW15715   4.149   4.660   6.053  0.2906 -0.3366 -0.0647
 1360SOL    HW115716   4.189   4.620   5.975  0.4372  0.8159 -0.5793
 1360SOL    HW215717   4.070   4.694   6.011 -0.0611 -0.9186  0.1255
 1361SOL     OW15718   0.520   3.824   6.913  0.4219 -0.5742 -0.8041
 1361SOL    HW115719   0.595   3.872   6.948 -0.8144  0.3607  0.5140
 1361SOL    HW215720   0.562   3.795   6.832 -2.4061 -2.5658 -1.5299
 1362SOL     OW15721   4.259   2.838   0.239  0.4127 -0.9697 -0.2850
 1362SOL    HW115722   4.223   2.752   0.218 -0.0402 -0.4256 -1.7195
 1362SOL    HW215723   4.355   2.831   0.233  0.5610 -0.7591  1.8168
 1363SOL     OW15724   3.974   3.636   8.066 -0.2941 -0.0305  0.3683
 1363SOL    HW115725   3.934   3.718   8.098 -0.9106 -0.5486  0.9305
 1363SOL    HW215726   4.065   3.655   8.044  0.3807  0.4452  3.5328
 1364SOL     OW15727   2.336   4.723  16.148  0.9105  0.5407 -0.2093
 1364SOL    HW115728   2.414   4.707  16.202  1.4256  2.0276 -0.5075
 1364SOL    HW215729   2.321   0.080  16.154  0.9480  0.4420  1.6100
 1365SOL     OW15730   0.998   4.328   5.682 -0.0729  0.3789 -0.4737
 1365SOL    HW115731   1.032   4.299   5.597 -0.9193 -1.9309 -0.0391
 1365SOL    HW215732   0.976   4.256   5.741 -0.3917  1.0023  0.1697
 1366SOL     OW15733   4.021   3.514   2.789  0.2905  0.3291  0.0779
 1366SOL    HW115734   4.060   3.520   2.877 -1.2162  1.4928  0.6611
 1366SOL    HW215735   3.981   3.600   2.776 -1.6679 -0.1361  3.0804
 1367SOL     OW15736   0.391   2.748  13.649 -0.3099 -0.3185 -0.0325
 1367SOL    HW115737   0.475   2.728  13.691  0.0213  0.4309 -0.3457
 1367SOL    HW215738   0.341   2.796  13.715  0.3574  0.3820 -0.0427
 1368SOL     OW15739   4.066   0.639   4.196 -0.0540 -0.2947  0.1936
 1368SOL    HW115740   4.113   0.558   4.178  1.8891  0.4996  1.6718
 1368SOL    HW215741   4.104   0.697   4.130  1.5672 -0.2757  1.1602
 1369SOL     OW15742   4.025   3.311  16.415 -0.5729 -0.2370  0.2294
 1369SOL    HW115743   3.950   3.291  16.358  0.4403 -2.4434 -0.3605
 1369SOL    HW215744   4.029   3.238  16.476 -1.8497  0.1708  0.8013
 1370SOL     OW15745   1.431   0.294   2.580  0.4336  0.3975 -0.5874
 1370SOL    HW115746   1.456   0.359   2.646 -0.6669 -0.1095  0.3257
 1370SOL    HW215747   1.363   0.348   2.540  1.5123  0.6239 -2.1119
 1371SOL     OW15748   2.526   0.462   1.382  0.9416 -0.4741  0.1163
 1371SOL    HW115749   2.555   0.436   1.470 -1.0175  3.5451  1.9699
 1371SOL    HW215750   2.584   0.537   1.369 -0.6480  0.4861 -1.4611
 1372SOL     OW15751   1.189   2.887   6.147  0.2076  0.5630 -0.3707
 1372SOL    HW115752   1.171   2.793   6.145  0.0047  0.6445 -2.4629
 1372SOL    HW215753   1.176   2.893   6.242  0.9217  0.8592 -0.2947
 1373SOL     OW15754   0.520   1.759   4.029  0.0267 -0.4990 -0.4274
 1373SOL    HW115755   0.537   1.849   4.058 -0.0974 -0.8573  0.7325
 1373SOL    HW215756   0.429   1.760   3.999  0.7327  1.1402 -2.5480
 1374SOL     OW15757   4.615   0.589  12.507  0.3138  0.6724  0.5037
 1374SOL    HW115758   4.645   0.503  12.477 -0.7854 -0.3088  2.2319
 1374SOL    HW215759   4.544   0.598  12.444  0.3956  0.0818  0.3210
 1375SOL     OW15760   0.642   2.504   3.434  0.5545 -0.7063  0.0668
 1375SOL    HW115761   0.653   2.463   3.519 -1.0407 -3.0637 -0.8547
 1375SOL    HW215762   0.555   2.470   3.412 -0.0720  0.5957  0.5517
 1376SOL     OW15763   2.334   1.010  10.048  0.2197  0.6380 -0.1622
 1376SOL    HW115764   2.408   0.954  10.070  1.1612  0.8047 -2.9726
 1376SOL    HW215765   2.300   0.965   9.971 -0.1429 -0.6351  0.7447
 1377SOL     OW15766   3.583   0.842  15.339  0.4606 -0.1482 -0.4920
 1377SOL    HW115767   3.490   0.864  15.344  0.7616  0.9165  0.2865
 1377SOL    HW215768   3.578   0.788  15.260 -1.6616  0.9261 -1.0807
 1378SOL     OW15769   0.843   3.477   7.922  0.2356 -0.0923  0.3532
 1378SOL    HW115770   0.849   3.560   7.970  1.2481 -1.6970  3.0274
 1378SOL    HW215771   0.771   3.433   7.968 -0.2642 -0.2651 -0.6019
 1379SOL     OW15772   0.653   3.251   2.606 -0.3429 -0.4119  0.1450
 1379SOL    HW115773   0.561   3.272   2.617 -0.3948  0.5534 -2.1285
 1379SOL    HW215774   0.662   3.161   2.638 -0.6055 -1.3725 -2.4072
 1380SOL     OW15775   0.585   0.693   5.840  0.0747  0.3773 -0.1265
 1380SOL    HW115776   0.605   0.604   5.811 -1.2491  0.5079 -1.4350
 1380SOL    HW215777   0.493   0.698   5.815 -0.4855 -0.3912  1.7896
 1381SOL     OW15778   1.697   3.053   1.729  0.2148 -0.0023  0.2984
 1381SOL    HW115779   1.749   3.107   1.669  0.8745 -3.0782 -1.9600
 1381SOL    HW215780   1.669   3.117   1.794  1.4764  0.6319  0.2229
 1382SOL     OW15781   4.101   0.611  16.578 -0.0471 -0.4370  0.3597
 1382SOL    HW115782   4.139   0.579  16.660  2.8888 -0.8306 -1.1301
 1382SOL    HW215783   4.105   0.537  16.516 -2.0308  0.2539 -0.5807
 1383SOL     OW15784   1.732   3.324   5.808 -0.2292 -0.4108 -0.2588
 1383SOL    HW115785   1.733   3.229   5.819  2.0024 -0.5118 -1.1841
 1383SOL    HW215786   1.797   3.315   5.738 -0.1198 -0.9230 -0.0904
 1384SOL     OW15787   3.444   2.448  15.488 -0.2655  0.0598 -0.5037
 1384SOL    HW115788   3.410   2.508  15.555 -1.6848 -2.1644  0.7627
 1384SOL    HW215789   3.523   2.492  15.456 -0.4194  0.3580 -0.4658
 1385SOL     OW15790   0.072   4.365  10.700 -0.0952 -0.1272  0.5937
 1385SOL    HW115791   0.035   4.347  10.786 -0.2204  0.9750  0.7701
 1385SOL    HW215792   0.166   4.383  10.711 -0.3787  1.9751 -0.4010
 1386SOL     OW15793   1.540   1.206  11.141  0.6288 -0.0593 -0.0697
 1386SOL    HW115794   1.624   1.182  11.182  0.8262 -0.4521 -0.7077
 1386SOL    HW215795   1.560   1.298  11.121 -2.4493  1.1102  2.1921
 1387SOL     OW15796   3.147   4.572   5.958 -0.3844 -0.1583 -0.6300
 1387SOL    HW115797   3.197   4.649   5.930 -1.7326  1.8611  2.5522
 1387SOL    HW215798   3.060   4.595   5.927 -0.5693  1.7576  1.3201
 1388SOL     OW15799   2.239   2.205   0.765  0.5780  0.0618 -1.0511
 1388SOL    HW115800   2.326   2.169   0.747  0.3518 -0.5187 -0.9653
 1388SOL    HW215801   2.260   2.281   0.820  0.5964 -1.3334  0.8703
 1389SOL     OW15802   2.798   4.613   2.373 -0.1099 -0.4158  0.2141
 1389SOL    HW115803   2.803   4.617   2.277 -0.0707  0.4994  0.2534
 1389SOL    HW215804   2.887   4.639   2.395 -0.0759 -0.9552  0.6923
 1390SOL     OW15805   1.221   3.993   8.285 -0.1663  0.0735  0.0191
 1390SOL    HW115806   1.169   4.010   8.363  1.2747 -0.2950  1.0472
 1390SOL    HW215807   1.310   4.004   8.318 -0.1775 -0.0346  0.0836
 1391SOL     OW15808   0.609   1.062   5.777 -0.5518  0.3274 -0.4530
 1391SOL    HW115809   0.645   1.039   5.863  0.2489  1.8395 -0.3772
 1391SOL    HW215810   0.693   1.060   5.730 -0.7224  0.2118 -0.7527
 1392SOL     OW15811   4.623   1.074   3.824  0.4306  0.4394  0.2595
 1392SOL    HW115812   4.532   1.077   3.795  0.3308 -1.8856  0.3377
 1392SOL    HW215813   4.657   1.163   3.818 -0.3011  0.6908 -0.2155
 1393SOL     OW15814   3.724   1.134   6.045  0.2634 -0.1827 -0.6060
 1393SOL    HW115815   3.764   1.073   6.107  0.1918  0.1888 -0.1948
 1393SOL    HW215816   3.801   1.180   6.013 -0.6278  2.1936  0.6814
 1394SOL     OW15817   3.447   2.296  10.418 -0.1702 -0.1082  0.2841
 1394SOL    HW115818   3.365   2.318  10.376 -0.4865 -0.4202  0.7379
 1394SOL    HW215819   3.494   2.378  10.404  0.5114 -0.4252  0.6521
 1395SOL     OW15820   4.070   4.369   6.690  0.2997  0.4694 -0.0671
 1395SOL    HW115821   4.030   4.333   6.611  1.0405  1.1981 -0.7588
 1395SOL    HW215822   4.125   4.299   6.726  0.8866  1.9308  1.8791
 1396SOL     OW15823   1.435   0.181   8.731  0.2203 -0.5631  0.0134
 1396SOL    HW115824   1.343   0.200   8.713  0.9782  2.3160 -0.8390
 1396SOL    HW215825   1.492   0.230   8.672 -2.1290  0.6892 -1.1936
 1397SOL     OW15826   2.089   0.526  17.680  0.5838 -0.5667  0.2785
 1397SOL    HW115827   2.119   0.484  17.600  1.7452 -2.3365  1.6337
 1397SOL    HW215828   2.001   0.559  17.661  0.6160 -0.9465 -0.4986
 1398SOL     OW15829   2.070   2.483   0.427  0.8171 -0.4648  0.4320
 1398SOL    HW115830   2.009   2.539   0.379  1.9566 -0.7047 -1.3069
 1398SOL    HW215831   2.152   2.520   0.395  0.5665  0.5494  0.9519
 1399SOL     OW15832   3.607   2.544   4.200 -0.5400 -0.2981 -0.5418
 1399SOL    HW115833   3.567   2.540   4.113  1.4059 -0.0301 -1.4457
 1399SOL    HW215834   3.578   2.463   4.242 -1.2405 -0.5754 -1.5665
 1400SOL     OW15835   0.982   1.340   8.762 -0.3180  0.0472  0.0071
 1400SOL    HW115836   0.957   1.268   8.820  0.0334  1.5036  1.9670
 1400SOL    HW215837   0.966   1.303   8.675  0.1597  1.6748 -0.7787
 1401SOL     OW15838   0.860   3.862   5.989  0.4694 -0.3024 -0.1238
 1401SOL    HW115839   0.940   3.866   6.041 -0.8677 -1.7516  2.0475
 1401SOL    HW215840   0.806   3.914   6.048  1.0043 -0.5503  0.5881
 1402SOL     OW15841   3.285   0.654   5.586 -0.1485 -0.1969 -0.1697
 1402SOL    HW115842   3.245   0.627   5.503 -1.9403 -0.5864  0.8109
 1402SOL    HW215843   3.203   0.652   5.636  1.5574 -2.0161  2.5683
 1403SOL     OW15844   4.036   0.983   4.775  0.2921  0.2432 -0.0161
 1403SOL    HW115845   4.045   0.966   4.681 -1.6606  0.3119 -0.2054
 1403SOL    HW215846   4.121   0.958   4.812  0.3357  0.5059  0.0611
 1404SOL     OW15847   3.898   3.540  11.141 -0.6184  0.1009 -0.3423
 1404SOL    HW115848   3.878   3.497  11.058 -0.7303 -1.3201  0.4220
 1404SOL    HW215849   3.959   3.609  11.116  0.5027 -0.7168  0.1411
 1405SOL     OW15850   0.556   2.041   4.384 -0.2913  0.3661  0.5250
 1405SOL    HW115851   0.602   2.057   4.302 -0.2717 -3.2657 -0.1672
 1405SOL    HW215852   0.509   1.960   4.365 -2.6687  1.1520  3.0074
 1406SOL     OW15853   0.803   1.128   9.175 -0.7380  0.3699 -0.1956
 1406SOL    HW115854   0.836   1.042   9.202  0.3557  0.5127 -1.0507
 1406SOL    HW215855   0.858   1.174   9.239 -1.0492  1.1796 -0.5094
 1407SOL     OW15856   4.258   2.227   1.051 -0.0358 -0.1285 -1.1667
 1407SOL    HW115857   4.215   2.282   1.116  1.8255 -0.7435  0.5662
 1407SOL    HW215858   4.296   2.290   0.989 -0.0296  0.4335 -0.5921
 1408SOL     OW15859   0.828   1.013  15.696  0.3541  0.2684 -0.6881
 1408SOL    HW115860   0.915   0.998  15.659  1.5276  1.0722  1.7318
 1408SOL    HW215861   0.761   0.986  15.633  2.2977 -0.9771 -2.2078
 1409SOL     OW15862   2.484   0.616  16.226 -0.0107 -0.0579 -0.8623
 1409SOL    HW115863   2.501   0.689  16.285  0.0360  0.3137 -1.3318
 1409SOL    HW215864   2.432   0.657  16.157 -0.2991 -2.4353 -2.0556
 1410SOL     OW15865   0.906   4.201  12.825  0.4621 -0.2740 -0.0619
 1410SOL    HW115866   0.833   4.143  12.800  1.4474 -0.3373 -2.7878
 1410SOL    HW215867   0.967   4.141  12.868 -0.0964 -1.7734 -1.3657
 1411SOL     OW15868   3.707   1.691  14.596 -0.1816 -0.2417  0.5963
 1411SOL    HW115869   3.746   1.778  14.607  1.4918 -0.7983 -0.6979
 1411SOL    HW215870   3.617   1.710  14.620 -0.3621  0.0030 -0.2682
 1412SOL     OW15871   2.112   2.510  17.339  0.3063  0.2192  0.1958
 1412SOL    HW115872   2.118   2.600  17.308  0.4568  0.4153  0.7918
 1412SOL    HW215873   2.100   2.462  17.257 -3.4715 -1.7398  1.8688
 1413SOL     OW15874   3.650   0.778   1.863  0.5178  0.3565  0.2904
 1413SOL    HW115875   3.708   0.819   1.798 -0.6124  1.0418 -0.2936
 1413SOL    HW215876   3.580   0.739   1.810 -0.8403  0.6707  1.8551
 1414SOL     OW15877   3.949   4.235   8.100 -0.9946 -0.1768  0.4655
 1414SOL    HW115878   3.922   4.327   8.102 -0.4329  0.0013  0.0580
 1414SOL    HW215879   4.001   4.235   8.181 -0.1832  0.9055 -0.0439
 1415SOL     OW15880   3.424   1.634   6.245  0.1746 -0.5630 -0.3132
 1415SOL    HW115881   3.499   1.576   6.229  0.1975 -0.4723 -0.5363
 1415SOL    HW215882   3.380   1.573   6.304  1.2696 -0.5401  0.5508
 1416SOL     OW15883   3.604   3.716  10.233  0.6681 -0.1153  0.1824
 1416SOL    HW115884   3.623   3.795  10.283 -0.7953  1.7576 -2.2584
 1416SOL    HW215885   3.669   3.722  10.163 -0.1415  0.6113 -0.5036
 1417SOL     OW15886   2.465   2.941   4.950  0.3796 -0.1398 -0.4245
 1417SOL    HW115887   2.495   2.995   4.876  0.4335  0.2653 -0.1083
 1417SOL    HW215888   2.546   2.891   4.963  1.4206  1.4108 -0.9626
 1418SOL     OW15889   0.046   2.621  16.341 -0.4156 -0.4939  0.5283
 1418SOL    HW115890   0.016   2.543  16.295 -0.0144  1.7365 -3.4843
 1418SOL    HW215891   0.009   2.608  16.429 -2.3203 -2.6279 -0.5887
 1419SOL     OW15892   3.174   3.004  10.991  0.1190  0.1946  0.0527
 1419SOL    HW115893   3.265   2.983  10.972  0.3122  1.0764 -0.0266
 1419SOL    HW215894   3.137   2.982  10.905  0.6487  0.5805 -0.2729
 1420SOL     OW15895   0.388   2.203   4.847 -0.1063 -0.0616  0.2968
 1420SOL    HW115896   0.322   2.253   4.799 -0.4009 -0.0988  0.6602
 1420SOL    HW215897   0.457   2.268   4.843  0.4003 -0.5488  0.9607
 1421SOL     OW15898   3.353   4.539   0.433 -0.9111 -1.1572  0.2470
 1421SOL    HW115899   3.414   4.465   0.443 -1.4933 -1.5032  1.1777
 1421SOL    HW215900   3.297   4.508   0.362 -0.8376  1.4228 -0.9116
 1422SOL     OW15901   0.548   1.113   5.040  0.2900  0.0388  0.7308
 1422SOL    HW115902   0.505   1.196   5.024 -0.0324 -0.4144 -0.7056
 1422SOL    HW215903   0.537   1.079   4.952 -1.5022  3.7292 -0.4489
 1423SOL     OW15904   1.244   1.851   4.050 -0.1426 -0.0008  0.6005
 1423SOL    HW115905   1.202   1.937   4.050 -0.2079 -0.0335 -0.1600
 1423SOL    HW215906   1.242   1.829   4.144  1.6043  2.0777  1.1153
 1424SOL     OW15907   3.418   1.730   4.356  0.1185  0.3154 -0.7621
 1424SOL    HW115908   3.458   1.771   4.280 -0.2543 -0.5043 -1.4075
 1424SOL    HW215909   3.449   1.639   4.349  1.3104  0.6770 -0.0932
 1425SOL     OW15910   3.161   0.398   7.206  0.6371  0.4242  0.0218
 1425SOL    HW115911   3.134   0.449   7.282  0.5080  0.5208 -0.0890
 1425SOL    HW215912   3.171   0.312   7.246 -0.2665  0.5005  0.4078
 1426SOL     OW15913   3.623   1.826   3.474 -0.7032  0.0339 -0.0640
 1426SOL    HW115914   3.599   1.733   3.475  1.7237 -0.5914  0.6662
 1426SOL    HW215915   3.715   1.817   3.448 -1.0639  1.4760 -1.7808
 1427SOL     OW15916   3.112   4.145   8.788 -0.3406 -0.2279 -0.3292
 1427SOL    HW115917   3.152   4.170   8.705 -1.2085  0.5754 -0.5005
 1427SOL    HW215918   3.082   4.056   8.767  1.5263 -0.4858 -1.8608
 1428SOL     OW15919   4.325   2.874   5.326 -0.5609 -0.3001  0.1458
 1428SOL    HW115920   4.409   2.835   5.352  0.5024  1.6816 -0.3354
 1428SOL    HW215921   4.351   2.953   5.374  1.3039 -1.7843  1.6020
 1429SOL     OW15922   1.312   3.067  16.932 -0.1583 -0.4359 -0.5537
 1429SOL    HW115923   1.303   3.018  17.014 -0.7455  1.7393  0.7008
 1429SOL    HW215924   1.407   3.065  16.922  0.0434 -0.2019  1.3532
 1430SOL     OW15925   0.930   1.362   7.887  0.7503 -0.2872  0.0989
 1430SOL    HW115926   0.996   1.385   7.952  1.2336 -0.3992 -0.3556
 1430SOL    HW215927   0.962   1.292   7.830 -0.2190 -0.3309 -0.3951
 1431SOL     OW15928   0.533   1.973   8.962 -0.1230  0.4095 -0.1284
 1431SOL    HW115929   0.554   1.915   9.036 -1.7656 -0.9452 -0.7162
 1431SOL    HW215930   0.591   2.048   8.956  1.1164 -0.6249 -0.9367
 1432SOL     OW15931   1.184   0.099   8.959 -0.6671  0.8715 -0.5351
 1432SOL    HW115932   1.264   0.049   8.974 -1.9167 -0.6281  1.2397
 1432SOL    HW215933   1.199   0.185   8.997 -0.7669  0.8631 -0.4755
 1433SOL     OW15934   0.486   0.786  12.717  0.2691  0.3106 -0.1702
 1433SOL    HW115935   0.502   0.705  12.668 -1.0508  0.0987 -0.2358
 1433SOL    HW215936   0.547   0.843  12.669  1.2081 -1.4687 -1.0825
 1434SOL     OW15937   0.235   1.161   2.789  0.1291 -0.3764  0.5161
 1434SOL    HW115938   0.213   1.195   2.702  1.2934 -1.1622 -0.0815
 1434SOL    HW215939   0.262   1.247   2.823 -0.8056  0.5908 -1.1509
 1435SOL     OW15940   1.273   0.252  16.932 -0.0452 -0.2660  0.3806
 1435SOL    HW115941   1.177   0.254  16.922 -0.1602  0.5650  1.7179
 1435SOL    HW215942   1.306   0.215  16.850 -0.4208  2.9177 -1.1916
 1436SOL     OW15943   1.359   2.670   5.896 -0.7077  0.4595  0.0063
 1436SOL    HW115944   1.338   2.586   5.856  0.1445  0.8297 -1.2017
 1436SOL    HW215945   1.312   2.679   5.979  0.6459 -0.1891  0.8354
 1437SOL     OW15946   4.469   1.621   6.730 -0.3371  0.4486  0.0752
 1437SOL    HW115947   4.460   1.715   6.744  1.1265  0.2325  2.5225
 1437SOL    HW215948   4.441   1.620   6.639  0.5052  2.2989 -0.2016
 1438SOL     OW15949   3.608   0.856   8.937  0.9496 -0.8362 -0.2599
 1438SOL    HW115950   3.518   0.871   8.907  0.6188 -1.6244  0.3215
 1438SOL    HW215951   3.653   0.922   8.884  1.5361 -0.0513  1.2482
 1439SOL     OW15952   3.054   2.989   4.064  0.3063 -0.4436 -0.3005
 1439SOL    HW115953   3.062   3.083   4.047 -3.2464  0.3656  2.5102
 1439SOL    HW215954   3.107   2.959   3.990 -0.1125 -1.1822 -0.2995
 1440SOL     OW15955   4.609   4.330  14.865 -0.1132  0.2422  0.1062
 1440SOL    HW115956   4.673   4.332  14.936 -1.9308  0.8511  1.7669
 1440SOL    HW215957   4.558   4.406  14.895  0.1046  0.3307  0.2550
 1441SOL     OW15958   2.010   3.839  10.287 -0.8925  0.9435 -0.0017
 1441SOL    HW115959   1.938   3.875  10.236 -0.6377  1.9727  0.3628
 1441SOL    HW215960   2.033   3.918  10.337 -1.6942 -0.3861  2.4816
 1442SOL     OW15961   2.270   3.853   2.345 -0.9364  0.9302  0.1459
 1442SOL    HW115962   2.187   3.901   2.348 -1.1230  0.4871  1.9728
 1442SOL    HW215963   2.260   3.780   2.405 -0.8552  1.1466  0.4236
 1443SOL     OW15964   0.869   3.050  17.748 -0.1825  1.0376  0.0732
 1443SOL    HW115965   0.943   3.101   0.032  0.5192  0.4079 -0.5380
 1443SOL    HW215966   0.832   3.030   0.086 -1.3783  1.3480 -0.3717
 1444SOL     OW15967   3.473   2.066   1.470  0.3099  0.0726 -0.4460
 1444SOL    HW115968   3.538   1.996   1.473  0.8447  0.5431 -1.4124
 1444SOL    HW215969   3.526   2.135   1.510 -0.5844 -0.3657  1.5149
 1445SOL     OW15970   3.975   0.510   7.686 -0.1171  0.2965  0.2855
 1445SOL    HW115971   4.061   0.469   7.694 -0.6448 -0.6066  1.3202
 1445SOL    HW215972   3.922   0.430   7.678  1.6179 -0.8778  0.6642
 1446SOL     OW15973   2.197   3.337   2.992  0.0860 -0.7709  0.6153
 1446SOL    HW115974   2.172   3.421   2.954 -1.3477 -1.5940 -0.2582
 1446SOL    HW215975   2.123   3.315   3.048 -1.7210 -1.0251 -1.8913
 1447SOL     OW15976   3.953   0.990   7.866  0.3233 -0.1556  0.2111
 1447SOL    HW115977   3.941   0.898   7.842 -1.1268  0.0121  0.3297
 1447SOL    HW215978   3.899   0.994   7.945  0.5396  0.4263  0.3308
 1448SOL     OW15979   0.393   2.969   4.266  0.5244 -0.0351 -0.0653
 1448SOL    HW115980   0.366   2.965   4.174  1.4331 -3.6523 -0.1835
 1448SOL    HW215981   0.477   3.011   4.251 -0.0794  1.6154  1.1556
 1449SOL     OW15982   2.978   2.591   6.410 -0.0764  0.5655 -0.2533
 1449SOL    HW115983   2.946   2.635   6.332 -1.4992  0.9993  0.5769
 1449SOL    HW215984   3.002   2.663   6.468  0.1393 -0.0680  0.4461
 1450SOL     OW15985   4.339   2.035   2.204 -0.7437 -0.0918 -0.6958
 1450SOL    HW115986   4.266   2.089   2.173  0.7935  2.1110 -0.5144
 1450SOL    HW215987   4.413   2.064   2.151  1.1445 -1.9122  0.9468
 1451SOL     OW15988   2.083   0.533  16.111 -0.3033  0.0964 -0.2239
 1451SOL    HW115989   2.131   0.478  16.049 -0.3619  2.3319 -2.2657
 1451SOL    HW215990   1.999   0.488  16.102 -0.3488 -0.3155  2.2208
 1452SOL     OW15991   0.705   1.069   3.564  0.4998  0.1360 -0.1680
 1452SOL    HW115992   0.755   1.015   3.625 -1.1490 -0.0517  1.0314
 1452SOL    HW215993   0.625   1.018   3.553  1.4766 -1.5652  0.7529
 1453SOL     OW15994   1.701   1.861   0.686  0.0613 -0.2424  0.8167
 1453SOL    HW115995   1.670   1.887   0.773  2.4136  0.9442  1.2927
 1453SOL    HW215996   1.785   1.906   0.686 -0.1584  0.1700  0.0872
 1454SOL     OW15997   3.823   1.123   8.894  0.6735  0.2414 -0.2666
 1454SOL    HW115998   3.816   1.106   8.988 -1.1443 -0.9347 -0.6055
 1454SOL    HW215999   3.907   1.168   8.894  0.0080  1.5004 -3.5509
 1455SOL     OW16000   1.879   2.394   3.172  0.3155 -0.6108  0.5083
 1455SOL    HW116001   1.896   2.430   3.085  0.9649 -0.3162  0.7593
 1455SOL    HW216002   1.784   2.402   3.185  0.1699  0.8877 -1.4760
 1456SOL     OW16003   0.087   2.680   5.929  0.1151  0.2940 -0.0311
 1456SOL    HW116004   0.158   2.742   5.916 -1.0747  1.7770  0.4752
 1456SOL    HW216005   0.045   2.716   6.008 -0.5815  1.2550 -0.8409
 1457SOL     OW16006   2.190   1.288   3.506 -0.6828  0.1728  0.2821
 1457SOL    HW116007   2.246   1.222   3.547 -1.1979 -1.4183 -1.6096
 1457SOL    HW216008   2.114   1.285   3.565 -0.0264 -1.6282  1.0384
 1458SOL     OW16009   2.431   3.173   2.029  0.5547  0.0671  0.2536
 1458SOL    HW116010   2.406   3.197   2.119 -0.4016  0.1637 -0.0371
 1458SOL    HW216011   2.465   3.086   2.046  1.0273  0.8824  3.6329
 1459SOL     OW16012   1.311   2.881   3.995  0.6341  0.7083  0.3161
 1459SOL    HW116013   1.375   2.819   4.030  1.8223  0.8494 -1.5824
 1459SOL    HW216014   1.230   2.833   4.004  0.1502  1.2051 -1.2810
 1460SOL     OW16015   1.800   0.565   3.872 -0.5319 -0.0967  0.1194
 1460SOL    HW116016   1.751   0.557   3.954  0.0914 -0.8481  0.4213
 1460SOL    HW216017   1.736   0.603   3.812  0.5494  0.2377 -0.8295
 1461SOL     OW16018   4.294   1.634   3.133 -0.4216 -0.1319 -0.3808
 1461SOL    HW116019   4.363   1.596   3.188 -0.9104  0.0399  0.3494
 1461SOL    HW216020   4.315   1.586   3.053  0.0650 -1.6213  0.6291
 1462SOL     OW16021   0.164   2.863  11.859 -0.4193  0.2010 -0.4014
 1462SOL    HW116022   0.242   2.889  11.907 -1.7539  1.0003  1.3104
 1462SOL    HW216023   0.207   2.872  11.774 -0.5141  0.4157 -0.4260
 1463SOL     OW16024   3.794   4.709   8.940 -0.8214  0.6015  0.2604
 1463SOL    HW116025   3.783   4.618   8.966  1.3276  0.9216  2.2376
 1463SOL    HW216026   3.737   4.728   8.866 -3.3521  0.6295  2.1979
 1464SOL     OW16027   3.742   2.680   1.141  0.1214 -0.0909  0.1177
 1464SOL    HW116028   3.682   2.753   1.158 -1.3182 -0.9068 -1.3705
 1464SOL    HW216029   3.807   2.702   1.207  1.4857  1.5459 -1.7628
 1465SOL     OW16030   4.435   2.212   4.063 -0.0913  0.5151  0.7550
 1465SOL    HW116031   4.431   2.278   4.133 -1.1414  0.2353  0.9639
 1465SOL    HW216032   4.376   2.146   4.100  0.6697 -0.2098  0.6642
 1466SOL     OW16033   1.247   0.972   5.221  0.4465 -0.3303 -0.2859
 1466SOL    HW116034   1.333   0.998   5.190  1.6481 -1.1997  2.3897
 1466SOL    HW216035   1.188   1.042   5.190  0.0491 -0.9016 -0.8216
 1467SOL     OW16036   0.960   0.058   7.147 -0.0308 -0.0991  0.1022
 1467SOL    HW116037   0.992   0.131   7.201  0.9475 -0.1963 -0.3534
 1467SOL    HW216038   0.921   0.114   7.080  0.5686  1.6304  1.1825
 1468SOL     OW16039   2.709   2.086   7.687  0.4862  0.0981 -0.1920
 1468SOL    HW116040   2.719   2.058   7.778 -2.3944 -1.1750 -0.2475
 1468SOL    HW216041   2.641   2.153   7.687 -0.1376 -0.5355 -0.0522
 1469SOL     OW16042   1.338   2.201   9.393 -0.5027 -0.4294 -0.7911
 1469SOL    HW116043   1.383   2.154   9.322 -0.8701 -2.1237  0.0842
 1469SOL    HW216044   1.264   2.140   9.399 -0.8569 -0.0655 -1.5545
 1470SOL     OW16045   3.322   3.178   7.400  0.1838  0.1541  0.5716
 1470SOL    HW116046   3.365   3.187   7.315 -1.2881 -2.1964 -0.4133
 1470SOL    HW216047   3.355   3.239   7.466  0.0858  0.4869  0.3152
 1471SOL     OW16048   1.523   4.312   8.529 -0.5367 -0.8325 -0.1871
 1471SOL    HW116049   1.468   4.366   8.586  1.3213 -0.7694  1.5732
 1471SOL    HW216050   1.542   4.373   8.458 -2.5172  0.4134  0.3599
 1472SOL     OW16051   2.180   3.087   4.300 -0.0795 -0.2992  0.1489
 1472SOL    HW116052   2.149   3.116   4.215  1.7933 -1.3294 -0.8823
 1472SOL    HW216053   2.192   3.169   4.348 -0.7742 -0.6252  0.8821
 1473SOL     OW16054   1.899   2.692  12.539 -0.0890  0.6019 -0.0592
 1473SOL    HW116055   1.839   2.645  12.598  2.4039  0.5237  2.4221
 1473SOL    HW216056   1.931   2.618  12.487 -1.6706 -0.0078 -0.1774
 1474SOL     OW16057   3.987   0.201  12.242  0.4054 -0.4515  0.1304
 1474SOL    HW116058   4.061   0.145  12.265  1.9543  1.0825 -1.1481
 1474SOL    HW216059   4.027   0.284  12.216 -0.3696  0.1063  0.7095
 1475SOL     OW16060   1.878   1.423   4.110 -0.0699  0.3673  0.1297
 1475SOL    HW116061   1.806   1.478   4.078 -1.6922 -0.8348  1.7562
 1475SOL    HW216062   1.947   1.467   4.060  1.8725 -0.0703  2.4220
 1476SOL     OW16063   1.143   4.651   2.403 -0.2848  0.1278  0.1031
 1476SOL    HW116064   1.080   4.642   2.331  0.5875  0.2011 -0.6763
 1476SOL    HW216065   1.078   4.655   2.474 -0.3749  0.3997  0.0073
 1477SOL     OW16066   2.871   2.054   5.854  0.3137  0.4130 -0.1064
 1477SOL    HW116067   2.962   2.029   5.870 -0.0551 -0.5799  0.4473
 1477SOL    HW216068   2.882   2.057   5.759  1.8511 -1.5635 -0.0078
 1478SOL     OW16069   3.743   1.832  11.838  0.3206 -0.3744  0.6436
 1478SOL    HW116070   3.811   1.785  11.789  0.6364 -0.0903  0.8110
 1478SOL    HW216071   3.726   1.768  11.907  1.3050  0.9402  2.0805
 1479SOL     OW16072   0.967   3.866  15.693  0.1679  0.1858 -0.0031
 1479SOL    HW116073   0.932   3.934  15.751  1.7141 -0.8643  2.1850
 1479SOL    HW216074   0.892   3.834  15.643  0.8825 -2.1012  0.3374
 1480SOL     OW16075   3.657   1.066   2.490  0.1355  0.2532 -0.1736
 1480SOL    HW116076   3.565   1.040   2.485  0.4208 -1.1062  1.3039
 1480SOL    HW216077   3.688   1.011   2.562 -0.6784 -1.6263 -1.2583
 1481SOL     OW16078   1.471   2.746   7.494 -0.5602  0.2526  0.2065
 1481SOL    HW116079   1.441   2.657   7.476 -1.1233  0.3164  0.8493
 1481SOL    HW216080   1.441   2.800   7.421 -1.2106  0.1798  0.4150
 1482SOL     OW16081   2.027   2.538   3.371  1.4481 -0.4183  0.3378
 1482SOL    HW116082   2.017   2.620   3.322 -0.4461  0.1556  1.6965
 1482SOL    HW216083   2.005   2.484   3.296 -1.1695  0.1918  0.6703
 1483SOL     OW16084   0.068   1.228   6.929  0.2844  0.3579 -0.2498
 1483SOL    HW116085   0.080   1.261   6.840  0.7567  1.8316  0.3498
 1483SOL    HW216086   0.132   1.284   6.974  0.5720  0.3174 -0.6112
 1484SOL     OW16087   2.973   1.243   3.916  0.1958 -0.0507 -0.0529
 1484SOL    HW116088   2.936   1.298   3.847  0.8373  0.6105  0.1304
 1484SOL    HW216089   2.892   1.228   3.965 -0.7976  1.1552 -1.3294
 1485SOL     OW16090   2.066   2.738  14.656  0.4741  0.5048  0.0350
 1485SOL    HW116091   1.976   2.732  14.623  1.0172 -0.3140 -1.2898
 1485SOL    HW216092   2.079   2.829  14.630  1.8311  0.3650  0.2146
 1486SOL     OW16093   3.885   2.197   1.569 -0.1595 -0.4974  0.0474
 1486SOL    HW116094   3.794   2.189   1.596  0.1308 -0.8657  0.9190
 1486SOL    HW216095   3.887   2.288   1.541 -0.7814 -0.5774 -0.2448
 1487SOL     OW16096   1.547   4.481   8.316 -0.2031  0.3856  0.4648
 1487SOL    HW116097   1.576   4.562   8.359 -1.0967  0.3223  1.1817
 1487SOL    HW216098   1.608   4.488   8.243 -1.5299  1.4568 -0.5482
 1488SOL     OW16099   3.510   0.481   4.525  0.3080 -0.0352  0.3698
 1488SOL    HW116100   3.545   0.399   4.561 -0.7419 -0.6685 -0.0529
 1488SOL    HW216101   3.497   0.457   4.433 -1.0948  0.9341  0.3223
 1489SOL     OW16102   2.112   1.735   3.616 -0.5614 -0.0593  0.1087
 1489SOL    HW116103   2.144   1.825   3.615  1.5410 -0.8078  1.6973
 1489SOL    HW216104   2.197   1.694   3.626 -1.1404 -1.4041 -0.4194
 1490SOL     OW16105   1.580   0.366   5.873  0.4768  0.1095  0.1055
 1490SOL    HW116106   1.596   0.438   5.812  0.2153 -0.1288 -0.2472
 1490SOL    HW216107   1.668   0.355   5.908 -0.7443 -2.1468  2.4394
 1491SOL     OW16108   2.599   3.278  10.669  0.0650  0.1913 -0.0749
 1491SOL    HW116109   2.511   3.250  10.695  0.7344  0.4716  2.5789
 1491SOL    HW216110   2.604   3.361  10.716  1.3176 -0.2309  0.5556
 1492SOL     OW16111   0.298   2.449  10.616  0.0986  0.6668 -0.0127
 1492SOL    HW116112   0.377   2.425  10.665  0.1342 -0.9108 -0.8531
 1492SOL    HW216113   0.228   2.408  10.666  1.7785 -0.9304  1.0191
 1493SOL     OW16114   0.753   3.517  10.537 -0.4493 -0.0692 -0.0067
 1493SOL    HW116115   0.804   3.527  10.457 -3.2706  0.2078 -1.7675
 1493SOL    HW216116   0.742   3.609  10.562  0.0034  0.0119 -0.1106
 1494SOL     OW16117   2.448   0.733   1.531 -0.2677  0.3232 -0.7161
 1494SOL    HW116118   2.535   0.752   1.567  0.3397 -1.2432 -1.3418
 1494SOL    HW216119   2.419   0.663   1.589 -0.2854 -1.8857 -3.3823
 1495SOL     OW16120   3.772   0.508   3.658 -0.6767  0.2739  0.4157
 1495SOL    HW116121   3.818   0.446   3.715  2.2161  2.0503  0.0337
 1495SOL    HW216122   3.845   0.565   3.636 -2.2870  1.7982 -0.9361
 1496SOL     OW16123   0.762   1.676  15.460  0.0290  0.0708  0.4529
 1496SOL    HW116124   0.822   1.635  15.522 -0.1197  1.0042  1.2219
 1496SOL    HW216125   0.753   1.764  15.496 -1.5776 -0.2439  0.8149
 1497SOL     OW16126   3.738   2.788   2.948  0.5101 -0.2007  0.4615
 1497SOL    HW116127   3.675   2.725   2.984  0.4775  0.1605  1.0406
 1497SOL    HW216128   3.798   2.795   3.022 -0.0362 -2.0670  1.0842
 1498SOL     OW16129   1.702   4.526   4.311  0.0279  0.0807 -0.5926
 1498SOL    HW116130   1.769   4.591   4.290  0.5654 -0.1629  0.3624
 1498SOL    HW216131   1.743   4.490   4.389  1.9532 -0.3681 -1.8157
 1499SOL     OW16132   4.147   4.449   2.834  0.2634  0.2128  0.6001
 1499SOL    HW116133   4.145   4.462   2.739 -0.0422  0.5828  0.6566
 1499SOL    HW216134   4.198   4.371   2.853  0.3945  0.0231 -0.5489
 1500SOL     OW16135   3.799   1.865   4.055 -0.4700 -0.4266  0.5070
 1500SOL    HW116136   3.766   1.776   4.067 -0.0634 -0.7940 -1.0655
 1500SOL    HW216137   3.810   1.897   4.145 -1.5702  0.9114  0.1428
 1501SOL     OW16138   1.904   0.936   7.573 -0.2413  0.2878 -0.1644
 1501SOL    HW116139   1.932   0.889   7.494  1.5167 -0.2431  0.7800
 1501SOL    HW216140   1.811   0.946   7.556 -0.3901  2.2430  1.7313
 1502SOL     OW16141   2.917   3.454  16.338  0.1566  0.3285 -0.4183
 1502SOL    HW116142   2.931   3.389  16.270 -0.7267 -0.4917  0.1759
 1502SOL    HW216143   2.934   3.540  16.300  1.3812  0.3054  0.0874
 1503SOL     OW16144   3.568   0.876   7.492 -0.4441  0.1137  0.1817
 1503SOL    HW116145   3.594   0.948   7.550  1.4447 -0.2530 -0.1835
 1503SOL    HW216146   3.531   0.812   7.552  1.3419  1.3555  2.5968
 1504SOL     OW16147   1.792   2.814   8.386  0.3466 -0.3636 -0.0457
 1504SOL    HW116148   1.763   2.864   8.463 -0.8262 -0.7407 -0.2386
 1504SOL    HW216149   1.763   2.871   8.315 -0.8156  0.8992  1.4296
 1505SOL     OW16150   1.412   2.106   5.812 -0.0316 -0.0715 -0.4959
 1505SOL    HW116151   1.458   2.167   5.871 -1.8549  0.3059  0.5296
 1505SOL    HW216152   1.420   2.151   5.728 -2.0647 -0.3658 -0.8392
 1506SOL     OW16153   2.081   2.751   6.853 -0.3159  0.1367  0.7085
 1506SOL    HW116154   2.158   2.782   6.901  0.7701  0.0769 -0.9960
 1506SOL    HW216155   2.122   2.709   6.777  3.2671  3.3169  0.8755
 1507SOL     OW16156   4.627   2.999   2.556 -0.1249 -0.5396 -0.3053
 1507SOL    HW116157   4.593   3.088   2.547  0.6918 -0.0301  1.5933
 1507SOL    HW216158   4.655   2.991   2.465 -1.3475  1.9618 -0.8990
 1508SOL     OW16159   3.821   0.517   8.017  0.5610  0.1015 -0.1056
 1508SOL    HW116160   3.729   0.492   8.004  0.3615  0.0226  1.4485
 1508SOL    HW216161   3.851   0.426   8.019  1.2590  0.3518  0.7425
 1509SOL     OW16162   1.212   3.023  16.680  0.1201  0.2308  0.2693
 1509SOL    HW116163   1.202   3.047  16.772 -0.0461  0.7875  0.1067
 1509SOL    HW216164   1.242   2.932  16.678  1.0986  0.6328 -3.0043
 1510SOL     OW16165   0.157   2.137  11.569  0.4910  0.1728  0.0567
 1510SOL    HW116166   0.207   2.217  11.586 -0.1607  0.6477 -0.2445
 1510SOL    HW216167   0.223   2.069  11.560  0.1458 -0.0098 -1.1271
 1511SOL     OW16168   0.548   0.056   5.123  0.2912  0.5252  0.1072
 1511SOL    HW116169   0.635   0.044   5.085  1.1452 -1.1023  2.5757
 1511SOL    HW216170   0.567   0.121   5.190 -1.2331  0.4434  0.6151
 1512SOL     OW16171   0.166   2.558  14.293 -0.2234  0.4492  0.3156
 1512SOL    HW116172   0.196   2.504  14.366 -4.3039 -0.7342  1.1027
 1512SOL    HW216173   0.223   2.525  14.224 -0.5889 -1.5305  0.9650
 1513SOL     OW16174   2.269   2.837   3.568  0.2305  0.2242 -0.9630
 1513SOL    HW116175   2.323   2.857   3.491  0.7135  0.5628 -0.5347
 1513SOL    HW216176   2.299   2.911   3.620  2.5514 -1.5083  0.1485
 1514SOL     OW16177   3.926   1.901   6.278  0.2148 -0.0836 -0.6957
 1514SOL    HW116178   4.001   1.849   6.248  1.6704  0.8646  1.2476
 1514SOL    HW216179   3.859   1.852   6.230  0.6156 -1.2335 -0.0746
 1515SOL     OW16180   0.730   3.707   4.582  0.1457 -0.0990  0.1942
 1515SOL    HW116181   0.729   3.777   4.517  1.8997  0.4655  0.7648
 1515SOL    HW216182   0.695   3.753   4.658 -0.4185  0.8288 -0.6318
 1516SOL     OW16183   1.511   0.687   0.927  0.0309  0.7874 -0.1092
 1516SOL    HW116184   1.548   0.644   1.004  1.2432  2.1577  0.0608
 1516SOL    HW216185   1.592   0.683   0.877  0.8316  0.6568  1.2083
 1517SOL     OW16186   1.945   0.045   4.596 -0.1502 -0.4471  0.2943
 1517SOL    HW116187   1.976   0.087   4.516  1.4994 -1.6315  0.3094
 1517SOL    HW216188   1.921   0.110   4.662  1.5525  3.0594 -2.5152
 1518SOL     OW16189   1.040   3.641   4.910 -0.5051  0.2263 -0.1908
 1518SOL    HW116190   1.045   3.622   4.816 -0.4716 -2.4336  0.3463
 1518SOL    HW216191   0.954   3.682   4.918 -0.3466  0.7540 -1.2537
 1519SOL     OW16192   2.218   0.567   2.753  0.2198  1.3245 -0.3338
 1519SOL    HW116193   2.138   0.516   2.741  0.4746  0.5669  1.2743
 1519SOL    HW216194   2.190   0.658   2.752  1.1802  1.6219  3.0237
 1520SOL     OW16195   1.849   3.062   5.143  0.1702  0.2494 -0.3803
 1520SOL    HW116196   1.871   3.152   5.166 -3.5775  0.8460  0.8955
 1520SOL    HW216197   1.913   3.021   5.201  0.3223 -2.5129 -2.4613
 1521SOL     OW16198   3.238   2.161   0.823  0.3688 -0.2521  0.0422
 1521SOL    HW116199   3.168   2.206   0.776  1.1869 -0.0526 -0.9783
 1521SOL    HW216200   3.215   2.180   0.914 -1.7350  1.2114 -0.7931
 1522SOL     OW16201   1.115   3.151   4.990  0.1365  0.2684  0.6573
 1522SOL    HW116202   1.165   3.224   4.955 -0.9385 -0.2674 -1.9837
 1522SOL    HW216203   1.121   3.089   4.918  2.5882  0.3774  0.7795
 1523SOL     OW16204   2.518   1.029  11.170 -0.5567  0.5596  0.0743
 1523SOL    HW116205   2.563   1.107  11.138 -2.7855  0.9002 -2.2082
 1523SOL    HW216206   2.587   0.972  11.205 -0.4234  1.0546  0.6158
 1524SOL     OW16207   0.562   3.345   4.196 -0.0082  0.4982 -0.0471
 1524SOL    HW116208   0.652   3.373   4.179 -0.4837  1.6984 -0.6307
 1524SOL    HW216209   0.591   3.261   4.232 -1.4856 -0.6445 -1.5296
 1525SOL     OW16210   4.134   4.242   8.305 -0.3646  0.4422  0.1253
 1525SOL    HW116211   4.103   4.263   8.393 -1.3236  2.2078 -0.6339
 1525SOL    HW216212   4.212   4.188   8.320 -1.3188 -0.7613  0.7474
 1526SOL     OW16213   0.944   3.701   2.798 -0.1082 -0.2923 -0.5153
 1526SOL    HW116214   0.917   3.793   2.794 -2.7399 -1.0347 -0.1081
 1526SOL    HW216215   1.037   3.701   2.777 -0.3951  0.8124 -1.7871
 1527SOL     OW16216   0.398   0.883   9.793 -0.5150 -0.5074  0.2618
 1527SOL    HW116217   0.450   0.821   9.742 -0.0853 -0.9651  1.2670
 1527SOL    HW216218   0.382   0.945   9.721 -2.9170 -0.4560  0.8217
 1528SOL     OW16219   2.284   4.206   6.330 -0.2547  0.2741  0.1723
 1528SOL    HW116220   2.229   4.129   6.348  0.4046 -0.5449 -1.3345
 1528SOL    HW216221   2.308   4.233   6.419  0.7035  2.2970 -0.7206
 1529SOL     OW16222   1.855   4.708   8.157  0.0234 -0.9421  0.4438
 1529SOL    HW116223   1.817   4.624   8.130 -1.3098 -0.0438 -0.5193
 1529SOL    HW216224   1.941   4.676   8.182  0.7516  0.1529 -0.6687
 1530SOL     OW16225   1.197   4.585   9.658 -0.7787  0.0553  0.0353
 1530SOL    HW116226   1.203   4.561   9.566  1.4020 -2.2153  0.7510
 1530SOL    HW216227   1.136   4.514   9.681  0.2923 -1.6197 -2.3708
 1531SOL     OW16228   1.104   3.525   6.204 -0.5447 -1.2424  0.5607
 1531SOL    HW116229   1.165   3.582   6.157  0.5328 -3.4289 -0.6788
 1531SOL    HW216230   1.031   3.553   6.149  1.1942  0.8187 -0.7069
 1532SOL     OW16231   1.623   3.666  11.422 -0.4201 -0.2328  0.3631
 1532SOL    HW116232   1.715   3.661  11.396 -0.4798  2.0962 -0.2550
 1532SOL    HW216233   1.604   3.577  11.451 -0.6328 -0.4650 -0.5031
 1533SOL     OW16234   0.865   4.660   4.136 -0.0547  0.2083  0.1304
 1533SOL    HW116235   0.784   4.711   4.136  1.0825  2.0279 -0.1268
 1533SOL    HW216236   0.914   4.710   4.070 -0.8859  0.2479 -0.4629
 1534SOL     OW16237   0.391   4.107   2.691  0.8765 -0.1409 -0.6446
 1534SOL    HW116238   0.409   4.029   2.637  1.8301 -0.0903 -0.3978
 1534SOL    HW216239   0.295   4.102   2.682  0.8132 -0.8360  0.4119
 1535SOL     OW16240   4.730   0.667   4.873  0.1643  0.3611  0.4255
 1535SOL    HW116241   0.047   0.627   4.941 -1.0750 -1.3004  0.4441
 1535SOL    HW216242   4.673   0.591   4.860  1.2176 -0.3676  0.0665
 1536SOL     OW16243   2.650   1.490   1.784 -0.7980  0.3148  0.8425
 1536SOL    HW116244   2.626   1.480   1.692 -0.3426  3.1651  0.4076
 1536SOL    HW216245   2.701   1.416   1.817 -0.7141 -0.0117 -0.0197
 1537SOL     OW16246   3.343   1.001  10.494  0.0073  0.0904 -0.0244
 1537SOL    HW116247   3.406   0.934  10.520  0.7576  0.9622  0.3896
 1537SOL    HW216248   3.397   1.075  10.521 -1.1360  0.9754 -0.1691
 1538SOL     OW16249   0.254   0.123  13.344  0.0193 -0.5094 -0.3202
 1538SOL    HW116250   0.169   0.168  13.348 -0.6302 -1.7363 -0.2221
 1538SOL    HW216251   0.248   0.086  13.256 -0.1481 -1.8573  0.2555
 1539SOL     OW16252   3.441   3.530   8.004 -0.5239  0.0696  0.0866
 1539SOL    HW116253   3.411   3.487   8.083 -1.9261 -0.5371 -0.7843
 1539SOL    HW216254   3.406   3.474   7.935 -0.3636  0.3410 -0.2237
 1540SOL     OW16255   2.530   2.219   0.837  0.1569 -0.4075 -0.2798
 1540SOL    HW116256   2.599   2.211   0.902  1.6930  1.0412 -1.7375
 1540SOL    HW216257   2.480   2.152   0.883  0.1417  0.2261  0.6372
 1541SOL     OW16258   1.193   3.697   5.126  0.1876 -0.4395 -0.1155
 1541SOL    HW116259   1.164   3.663   5.041  0.5425 -0.5453 -0.1924
 1541SOL    HW216260   1.151   3.782   5.140  2.9679  0.9177  0.0645
 1542SOL     OW16261   3.323   1.195   8.867 -0.5782  1.2405  0.1831
 1542SOL    HW116262   3.409   1.209   8.906 -0.0695 -0.3838 -0.3565
 1542SOL    HW216263   3.353   1.196   8.776  1.0748  0.6138  0.7250
 1543SOL     OW16264   2.277   1.892   4.663 -0.2125  0.2792 -0.3105
 1543SOL    HW116265   2.215   1.938   4.720  1.4653  1.8276  0.2500
 1543SOL    HW216266   2.362   1.906   4.704 -0.2016  0.7928 -0.4994
 1544SOL     OW16267   1.619   1.290  16.197 -0.0114 -0.5274 -0.2307
 1544SOL    HW116268   1.591   1.226  16.132  0.6389 -1.3409  0.2723
 1544SOL    HW216269   1.602   1.248  16.282  2.2717 -0.5231  0.2347
 1545SOL     OW16270   2.862   2.994  15.495 -0.1903  0.4009  0.7618
 1545SOL    HW116271   2.794   3.031  15.551 -1.2931  0.9432 -0.9415
 1545SOL    HW216272   2.888   3.075  15.451 -0.7637  1.0097  1.5519
 1546SOL     OW16273   3.669   2.675   6.964  0.4144 -0.4653 -0.1060
 1546SOL    HW116274   3.655   2.687   7.058  2.6547  0.2561  0.1394
 1546SOL    HW216275   3.758   2.641   6.972  0.9904  1.6359  2.6246
 1547SOL     OW16276   3.187   2.519   7.412  0.2651  0.3735 -0.2546
 1547SOL    HW116277   3.208   2.458   7.342  0.4677  0.1225  0.0268
 1547SOL    HW216278   3.209   2.603   7.370  0.8261  2.1210  3.5207
 1548SOL     OW16279   3.562   4.563  10.926  0.2594  0.1370  0.4757
 1548SOL    HW116280   3.621   4.521  10.990 -0.7189 -0.9504  0.6630
 1548SOL    HW216281   3.533   4.632  10.985 -0.7025 -1.8079  2.2918
 1549SOL     OW16282   0.575   1.593   0.532  0.4008 -0.6388  0.7577
 1549SOL    HW116283   0.573   1.527   0.601 -2.7394 -1.6678 -0.3223
 1549SOL    HW216284   0.487   1.629   0.544 -0.7619 -2.0380 -3.4522
 1550SOL     OW16285   4.319   4.703   9.427  0.4476  0.2685  0.5572
 1550SOL    HW116286   4.269   0.015   9.492  0.4368  0.2026  0.5995
 1550SOL    HW216287   4.288   4.612   9.432 -0.9246  0.8205  2.1318
 1551SOL     OW16288   1.152   3.626   3.270 -0.2092  0.2846  0.3450
 1551SOL    HW116289   1.083   3.610   3.206  0.2523  0.7300 -0.2681
 1551SOL    HW216290   1.126   3.577   3.348  1.0262  0.4485  0.8579
 1552SOL     OW16291   1.288   0.868   3.357 -0.0948 -0.1384  0.6122
 1552SOL    HW116292   1.343   0.946   3.346  2.1650 -1.7540  0.3649
 1552SOL    HW216293   1.285   0.838   3.266 -2.7103 -2.6420  1.5179
 1553SOL     OW16294   2.737   2.399  17.726  0.2905  0.8861 -0.1348
 1553SOL    HW116295   2.723   2.493  17.741  0.9556  0.8207  0.8791
 1553SOL    HW216296   2.824   2.415  17.691 -0.4591  0.3881 -2.2377
 1554SOL     OW16297   2.224   1.092  12.987  0.2151  0.7725 -0.4320
 1554SOL    HW116298   2.187   1.034  13.053  2.6451 -2.0015 -1.4915
 1554SOL    HW216299   2.146   1.137  12.953 -0.3296  0.8073  0.8543
 1555SOL     OW16300   1.397   2.893   2.038 -0.0947  0.1001  0.3670
 1555SOL    HW116301   1.415   2.848   1.956  0.8779  0.7194  0.2442
 1555SOL    HW216302   1.304   2.915   2.030  0.1129  1.6509  2.1609
 1556SOL     OW16303   1.341   3.520   1.418  0.6534  0.0383 -0.1998
 1556SOL    HW116304   1.382   3.440   1.386 -0.9202 -0.5415 -0.7630
 1556SOL    HW216305   1.363   3.584   1.349 -0.8360 -0.1578 -0.8528
 1557SOL     OW16306   4.532   3.399   1.301 -0.4567  0.4926  0.4040
 1557SOL    HW116307   4.548   3.386   1.395  0.8287 -1.5138 -0.0831
 1557SOL    HW216308   4.621   3.432   1.284 -0.8488 -0.5002 -3.4657
 1558SOL     OW16309   4.174   2.367   7.194 -0.2634  0.2133 -0.1628
 1558SOL    HW116310   4.208   2.441   7.144 -0.3022  0.0402 -0.4445
 1558SOL    HW216311   4.242   2.303   7.174 -3.0044 -3.0301  0.8917
 1559SOL     OW16312   1.281   0.068   2.591 -0.0798  0.4794 -0.3985
 1559SOL    HW116313   1.344   0.140   2.592 -0.0552  0.4762 -1.5481
 1559SOL    HW216314   1.279   0.055   2.496 -3.3742  2.9085 -0.6727
 1560SOL     OW16315   2.888   0.594  11.294  0.0510  0.4346 -0.5138
 1560SOL    HW116316   2.941   0.671  11.272  0.4590 -0.3123 -2.1204
 1560SOL    HW216317   2.913   0.537  11.222 -2.2306  0.4028 -1.2649
 1561SOL     OW16318   1.510   1.667   2.170 -0.2647 -0.1150 -0.1087
 1561SOL    HW116319   1.565   1.590   2.158 -0.9515 -0.8896  1.7138
 1561SOL    HW216320   1.487   1.643   2.259 -1.2148  1.0049 -0.0551
 1562SOL     OW16321   0.854   3.938   2.675 -0.3441  0.0248 -0.2812
 1562SOL    HW116322   0.924   3.937   2.610  0.2908 -2.1424  0.4362
 1562SOL    HW216323   0.870   4.026   2.708 -1.5915  0.4890 -0.9272
 1563SOL     OW16324   1.424   1.289  12.451 -0.2309  0.1575 -0.0449
 1563SOL    HW116325   1.466   1.228  12.512 -0.1262  0.6639  0.3843
 1563SOL    HW216326   1.389   1.233  12.381 -0.5101 -0.4990  0.6230
 1564SOL     OW16327   1.394   0.940   0.870 -0.0756 -0.1505 -0.3560
 1564SOL    HW116328   1.421   0.851   0.893 -0.2428  0.0155  0.4570
 1564SOL    HW216329   1.312   0.920   0.824  0.5655  0.1619 -1.6352
 1565SOL     OW16330   1.108   1.426   8.078  0.6734  0.6303 -0.3807
 1565SOL    HW116331   1.195   1.436   8.040  0.8071 -0.7816 -0.4704
 1565SOL    HW216332   1.111   1.501   8.136  2.2093  0.8576 -0.7341
 1566SOL     OW16333   3.721   1.720   4.638 -0.5611 -0.4636  0.2673
 1566SOL    HW116334   3.745   1.811   4.657 -1.6663 -0.6146  2.3400
 1566SOL    HW216335   3.790   1.698   4.576 -0.6418  1.9552 -0.6647
 1567SOL     OW16336   1.985   1.700   2.174  0.3714  0.7388  0.2317
 1567SOL    HW116337   2.076   1.705   2.206  0.5906  0.5400 -0.3730
 1567SOL    HW216338   1.987   1.614   2.134 -3.4135 -0.4476  2.6021
 1568SOL     OW16339   3.609   0.665  10.997 -0.2181 -0.8507  0.4008
 1568SOL    HW116340   3.664   0.604  11.047 -0.0483 -0.6934  0.4040
 1568SOL    HW216341   3.677   0.706  10.944 -0.0119 -2.7581 -0.8206
 1569SOL     OW16342   1.211   2.491   3.390 -0.6116  0.4067 -0.8932
 1569SOL    HW116343   1.217   2.413   3.335 -1.5749  1.4629 -2.5102
 1569SOL    HW216344   1.237   2.452   3.473 -0.5589 -0.4621 -1.3189
 1570SOL     OW16345   4.201   1.904   3.024 -0.8009  0.7856 -0.0776
 1570SOL    HW116346   4.137   1.879   3.091  1.9119  1.3364  2.7247
 1570SOL    HW216347   4.160   1.844   2.962 -0.0679  0.1106  0.0884
 1571SOL     OW16348   4.646   1.657   3.897  1.0775  0.0872 -0.0733
 1571SOL    HW116349   4.553   1.635   3.888  1.7128 -2.4982 -0.3732
 1571SOL    HW216350   4.670   1.682   3.808 -0.1975 -1.7226 -0.9099
 1572SOL     OW16351   0.935   3.657   6.769 -0.2560 -0.1229 -0.4241
 1572SOL    HW116352   0.967   3.582   6.719  0.6977 -0.2899  0.4244
 1572SOL    HW216353   1.016   3.705   6.786 -0.3604  0.0120 -0.3053
 1573SOL     OW16354   1.574   1.135   6.500 -0.3208 -0.4844 -0.3535
 1573SOL    HW116355   1.666   1.142   6.475 -0.8927  1.5097 -1.8405
 1573SOL    HW216356   1.589   1.098   6.588  0.9854 -1.8207 -1.1373
 1574SOL     OW16357   1.167   2.216   8.444  0.0678 -0.2630  0.2183
 1574SOL    HW116358   1.167   2.266   8.363 -0.4718 -0.3443  0.1689
 1574SOL    HW216359   1.242   2.255   8.491 -0.1158  1.0363 -0.5728
 1575SOL     OW16360   2.546   0.135  10.025  0.5644 -0.0714 -0.1722
 1575SOL    HW116361   2.550   0.135  10.121  1.4218 -0.9105 -0.2080
 1575SOL    HW216362   2.609   0.203  10.000  1.2211 -0.5747  0.1049
 1576SOL     OW16363   3.397   2.768   6.428 -0.3572  0.4872  0.0902
 1576SOL    HW116364   3.482   2.809   6.446  0.4007 -1.4425  0.9596
 1576SOL    HW216365   3.330   2.827   6.462  0.4654  1.0267  0.7623
 1577SOL     OW16366   3.929   3.520   7.807 -0.3295  0.3566 -0.1214
 1577SOL    HW116367   3.940   3.559   7.894  1.2952 -0.6321  0.1347
 1577SOL    HW216368   3.841   3.551   7.787 -0.0001  0.8317 -0.8633
 1578SOL     OW16369   4.688   4.549  13.864  0.3134  0.1438 -0.0719
 1578SOL    HW116370   4.634   4.509  13.796 -0.4252 -0.8932  1.1197
 1578SOL    HW216371   4.649   4.508  13.942  0.3936  0.7605  0.2950
 1579SOL     OW16372   2.490   0.852   8.610  0.5655  0.3313  0.1246
 1579SOL    HW116373   2.407   0.846   8.563  0.3552 -1.6229  0.7421
 1579SOL    HW216374   2.481   0.930   8.665  0.7027  1.4622 -1.4588
 1580SOL     OW16375   2.600   4.254   4.374  0.3497 -0.2422  0.1711
 1580SOL    HW116376   2.573   4.163   4.360 -3.0724  0.5302  1.7367
 1580SOL    HW216377   2.520   4.301   4.350  0.0301  0.1906  2.0796
 1581SOL     OW16378   0.721   1.974   8.362 -0.1050 -0.0597 -0.0231
 1581SOL    HW116379   0.802   2.011   8.327 -0.6737  1.7383  0.5619
 1581SOL    HW216380   0.717   1.881   8.338  2.1925 -0.1727  0.0216
 1582SOL     OW16381   2.411   3.993   6.924 -0.1981  0.2225  0.2203
 1582SOL    HW116382   2.395   4.082   6.956 -0.2679  0.4096 -0.3244
 1582SOL    HW216383   2.338   3.968   6.868 -0.5231  0.6010  0.4708
 1583SOL     OW16384   0.864   0.844   6.458 -0.0206  0.1626  0.1377
 1583SOL    HW116385   0.894   0.753   6.455  0.5489  0.1804  4.6168
 1583SOL    HW216386   0.930   0.871   6.394 -1.8689  2.0268 -0.9532
 1584SOL     OW16387   3.979   0.910   9.398 -0.0216  0.4762 -0.2927
 1584SOL    HW116388   3.909   0.877   9.342 -2.0713  1.2848  1.8227
 1584SOL    HW216389   4.045   0.923   9.330  0.9173 -1.7759  0.1899
 1585SOL     OW16390   0.181   1.709   2.939  0.2682 -0.6822 -0.3196
 1585SOL    HW116391   0.207   1.702   2.847 -0.2057 -0.7792 -0.4453
 1585SOL    HW216392   0.242   1.776   2.969 -0.3909 -0.6422  0.8988
 1586SOL     OW16393   1.895   2.170  17.105  0.2400 -0.9738  0.2977
 1586SOL    HW116394   1.896   2.075  17.091  0.0135 -0.7093 -1.5119
 1586SOL    HW216395   1.963   2.201  17.045 -0.0755  1.2206  1.0801
 1587SOL     OW16396   1.583   3.473  17.134 -0.1445 -0.3697  0.2167
 1587SOL    HW116397   1.566   3.399  17.191  0.4777 -0.2095  0.6092
 1587SOL    HW216398   1.499   3.501  17.098  0.8304 -0.2579 -2.0251
 1588SOL     OW16399   1.557   0.719   8.388 -0.1851 -0.5461  0.0641
 1588SOL    HW116400   1.621   0.762   8.445 -0.4325  0.5700 -0.4851
 1588SOL    HW216401   1.478   0.722   8.441  0.3653  1.2533  0.7939
 1589SOL     OW16402   0.210   3.289   5.533  0.3171  0.3453  0.0687
 1589SOL    HW116403   0.162   3.363   5.571 -1.6367 -1.6217  1.4418
 1589SOL    HW216404   0.142   3.254   5.476  0.8296 -0.1661 -0.2270
 1590SOL     OW16405   3.148   2.665   8.072  0.2515  0.1169 -0.6452
 1590SOL    HW116406   3.186   2.621   7.995  1.2652  0.8521 -0.5647
 1590SOL    HW216407   3.054   2.657   8.056  0.5853  0.2178 -2.6789
 1591SOL     OW16408   3.060   2.831   0.607 -0.2927  0.2157  0.7728
 1591SOL    HW116409   3.091   2.756   0.659  1.5564  1.9567  2.1819
 1591SOL    HW216410   3.135   2.832   0.548 -1.5269  1.2381 -0.7554
 1592SOL     OW16411   1.449   4.698   7.694  1.3363  0.0628 -0.5277
 1592SOL    HW116412   1.495   4.648   7.628 -0.2853 -1.9059 -0.1646
 1592SOL    HW216413   1.452   0.048   7.655  1.6447  0.0411 -0.5529
 1593SOL     OW16414   0.273   2.239   1.385  0.3406 -0.1827 -0.0920
 1593SOL    HW116415   0.273   2.157   1.335  1.7987  0.1845 -0.6885
 1593SOL    HW216416   0.352   2.219   1.435  0.0597 -1.4002 -0.1252
 1594SOL     OW16417   0.524   3.926   5.166 -0.0451 -0.6638 -0.2329
 1594SOL    HW116418   0.542   3.870   5.241 -1.1232  0.6623  1.0106
 1594SOL    HW216419   0.598   3.987   5.168 -1.0518  0.6677 -3.1054
 1595SOL     OW16420   1.958   1.190   2.047  0.7708 -0.1875  0.1273
 1595SOL    HW116421   1.928   1.104   2.018 -1.3003  0.5066  0.1549
 1595SOL    HW216422   2.032   1.198   1.987  0.9706 -0.4032  0.3497
 1596SOL     OW16423   1.191   0.338   3.127  0.0882 -0.2617  0.2009
 1596SOL    HW116424   1.278   0.297   3.131 -0.3332 -1.0995  0.5841
 1596SOL    HW216425   1.148   0.274   3.183 -0.7265 -1.2700 -1.5960
 1597SOL     OW16426   3.755   2.995   7.086 -0.7752  0.3665 -0.4479
 1597SOL    HW116427   3.749   2.945   7.168 -2.2097 -1.7003 -1.8036
 1597SOL    HW216428   3.847   3.021   7.087 -1.4703  2.7403  2.1283
 1598SOL     OW16429   4.167   0.228  15.633 -0.4294  0.2077 -0.5844
 1598SOL    HW116430   4.196   0.137  15.632  1.0898  0.6919 -0.4492
 1598SOL    HW216431   4.222   0.260  15.562 -0.2812 -0.3927 -0.7343
 1599SOL     OW16432   2.362   3.589   6.405  0.2826  0.1268  0.1841
 1599SOL    HW116433   2.388   3.658   6.344 -0.0725  1.2088  1.2413
 1599SOL    HW216434   2.272   3.611   6.428  0.1898  0.3228 -0.3734
 1600SOL     OW16435   0.675   2.185   1.866 -0.2596 -0.1578  0.3663
 1600SOL    HW116436   0.641   2.096   1.873  0.8043 -0.5195  1.0268
 1600SOL    HW216437   0.761   2.172   1.906 -0.5094 -0.4290  0.8066
 1601SOL     OW16438   4.407   0.600   7.597  0.0748 -0.0941  0.2460
 1601SOL    HW116439   4.454   0.668   7.645 -0.3638 -0.2210  0.8612
 1601SOL    HW216440   4.319   0.632   7.617  0.2044 -0.6093  1.6623
 1602SOL     OW16441   4.563   2.441   5.895 -0.4481 -0.1870  0.0748
 1602SOL    HW116442   4.584   2.456   5.987  1.1098  1.0008 -0.4694
 1602SOL    HW216443   4.522   2.355   5.889  0.5660 -0.7484  1.2398
 1603SOL     OW16444   0.267   3.169   7.691  0.4360 -0.0332  0.1720
 1603SOL    HW116445   0.293   3.259   7.715 -0.6872 -0.0396  1.4282
 1603SOL    HW216446   0.187   3.188   7.641 -0.5177 -0.8553  1.3928
 1604SOL     OW16447   1.195   1.500   3.705  0.2576  0.2526  0.1917
 1604SOL    HW116448   1.189   1.590   3.738  1.2399 -0.2330  1.7028
 1604SOL    HW216449   1.108   1.472   3.734  0.6508 -0.9121  0.2235
 1605SOL     OW16450   1.571   4.070  13.779 -0.1594 -0.1738 -0.3165
 1605SOL    HW116451   1.636   4.100  13.715 -0.5754 -0.7042 -0.9832
 1605SOL    HW216452   1.563   3.976  13.766 -1.7240 -0.1448  0.4010
 1606SOL     OW16453   0.703   0.074  17.213 -0.1214  0.1751 -0.4939
 1606SOL    HW116454   0.679   0.046  17.125 -0.2880 -1.5157  0.0830
 1606SOL    HW216455   0.798   0.077  17.203  0.1405 -0.2265  1.8811
 1607SOL     OW16456   4.044   0.849  12.508 -0.4730 -0.3700  0.2657
 1607SOL    HW116457   4.130   0.862  12.548 -0.6269 -2.4256  1.2506
 1607SOL    HW216458   4.032   0.932  12.462 -1.1473 -1.1961 -1.0790
 1608SOL     OW16459   2.505   0.294   1.999  0.6792  0.0207  0.3654
 1608SOL    HW116460   2.578   0.279   1.939  0.9248 -1.7705  1.1193
 1608SOL    HW216461   2.526   0.239   2.074 -0.3523  1.2249  1.5297
 1609SOL     OW16462   2.780   2.512  17.405  0.4757 -0.1343 -0.3798
 1609SOL    HW116463   2.852   2.557  17.448  1.1819  0.9202 -2.6912
 1609SOL    HW216464   2.817   2.472  17.326 -0.3265 -1.1005 -0.2691
 1610SOL     OW16465   0.371   4.158   5.334 -0.2146 -0.3522 -0.2006
 1610SOL    HW116466   0.313   4.232   5.319 -1.2247 -1.4936 -2.0556
 1610SOL    HW216467   0.452   4.208   5.327  1.2710 -2.9656 -2.2096
 1611SOL     OW16468   2.508   0.532  15.648 -0.4983 -0.2718  0.4797
 1611SOL    HW116469   2.555   0.578  15.718  0.2211 -0.3743  0.0616
 1611SOL    HW216470   2.489   0.448  15.689  0.9184 -0.7561  0.1405
 1612SOL     OW16471   2.251   1.858   0.458  0.4162 -0.8999 -0.0154
 1612SOL    HW116472   2.304   1.882   0.534 -0.1627 -0.0615  0.1162
 1612SOL    HW216473   2.163   1.885   0.484 -0.7553 -1.6296 -3.1667
 1613SOL     OW16474   0.610   3.901   4.135  0.0104 -0.4467  0.2007
 1613SOL    HW116475   0.534   3.847   4.113 -0.3963 -0.8134  2.4299
 1613SOL    HW216476   0.592   3.975   4.077  0.1450 -1.1051 -0.6843
 1614SOL     OW16477   1.619   2.091   4.814 -0.2709  0.1928 -0.3937
 1614SOL    HW116478   1.656   2.010   4.779 -0.4821 -1.0026  2.1461
 1614SOL    HW216479   1.647   2.080   4.905 -1.1231  1.7381  0.0577
 1615SOL     OW16480   2.982   3.497   4.803  0.0925 -0.0640  0.3951
 1615SOL    HW116481   3.039   3.436   4.850  0.8976  0.6477  0.3679
 1615SOL    HW216482   3.022   3.581   4.828  0.4705  0.2142 -1.1377
 1616SOL     OW16483   3.502   2.311   4.300 -0.0770  0.0669  0.2539
 1616SOL    HW116484   3.407   2.309   4.290  0.0978 -0.7657 -1.2132
 1616SOL    HW216485   3.504   2.271   4.387 -0.0171 -2.2134 -0.7952
 1617SOL     OW16486   1.161   0.231   6.987  0.0903 -0.2679 -0.5748
 1617SOL    HW116487   1.174   0.255   7.079  0.4906  1.6230 -1.1120
 1617SOL    HW216488   1.174   0.137   6.983  0.4055 -0.3086  1.5414
 1618SOL     OW16489   1.675   4.225   3.554 -0.8470 -0.3214  0.0609
 1618SOL    HW116490   1.679   4.135   3.520 -2.7502 -0.2079 -0.4627
 1618SOL    HW216491   1.624   4.220   3.635 -1.3478  1.2898 -0.1646
 1619SOL     OW16492   4.374   2.555   7.365 -0.3204 -0.0529 -0.3872
 1619SOL    HW116493   4.453   2.501   7.373 -0.2470  0.4484  1.9532
 1619SOL    HW216494   4.376   2.600   7.449  3.3846 -2.8863  1.0486
 1620SOL     OW16495   4.234   3.841  16.772  0.2005  0.0273 -0.2456
 1620SOL    HW116496   4.180   3.769  16.804  1.3983 -0.2751  1.0720
 1620SOL    HW216497   4.297   3.785  16.726  0.4067  0.9583 -1.1053
 1621SOL     OW16498   2.640   0.079   4.559  0.1216 -0.0150 -0.0109
 1621SOL    HW116499   2.624   4.727   4.590 -2.3688  0.7647  0.9804
 1621SOL    HW216500   2.611   0.137   4.630  0.4248  1.0883 -0.8031
 1622SOL     OW16501   4.531   0.919   4.717  0.0800 -0.1817 -0.1972
 1622SOL    HW116502   4.543   1.007   4.680  1.2822 -1.0951 -1.9547
 1622SOL    HW216503   4.517   0.877   4.632  0.0272 -0.3092 -0.1254
 1623SOL     OW16504   0.481   1.665   6.545 -0.1462 -0.2495 -0.5030
 1623SOL    HW116505   0.498   1.757   6.529  2.3495 -0.7203 -0.5294
 1623SOL    HW216506   0.389   1.652   6.522 -0.2181 -1.9675  0.7461
 1624SOL     OW16507   0.074   4.610   5.184 -0.0032 -0.3031  0.3975
 1624SOL    HW116508   0.134   4.684   5.191 -0.6321  0.3781 -1.3677
 1624SOL    HW216509   0.032   4.613   5.270  1.3090  0.2345  1.0194
 1625SOL     OW16510   1.146   3.634   7.385  0.0104  0.1815 -0.0186
 1625SOL    HW116511   1.199   3.631   7.465  3.9786  0.3837 -2.6620
 1625SOL    HW216512   1.078   3.693   7.418  0.3979 -0.1185  1.3197
 1626SOL     OW16513   3.451   4.536   8.433  0.3035 -0.7521  0.1566
 1626SOL    HW116514   3.459   4.600   8.362  3.3476 -2.5852 -1.1089
 1626SOL    HW216515   3.543   4.534   8.458  0.4624 -1.9960 -0.5868
 1627SOL     OW16516   4.377   4.579   3.915  0.4927 -0.4622 -0.4082
 1627SOL    HW116517   4.358   4.498   3.962  0.5873 -1.1662 -1.5900
 1627SOL    HW216518   4.302   4.637   3.922 -0.6952 -2.0947  0.2523
 1628SOL     OW16519   0.910   3.887   1.663 -0.2273  0.3057  0.0739
 1628SOL    HW116520   0.978   3.947   1.694  1.4383 -2.1380  1.1129
 1628SOL    HW216521   0.955   3.803   1.677  0.8792  0.5527 -2.0864
 1629SOL     OW16522   4.307   0.766   8.217  0.2672 -0.4856 -0.0782
 1629SOL    HW116523   4.367   0.838   8.200  1.2787 -0.9638  1.4701
 1629SOL    HW216524   4.218   0.801   8.214  0.0650 -0.7482  2.3905
 1630SOL     OW16525   4.116   3.928  16.142  0.5305 -0.4349 -0.4773
 1630SOL    HW116526   4.210   3.913  16.155  0.5342  1.2270  1.4881
 1630SOL    HW216527   4.089   3.844  16.106 -1.2394  0.3921 -1.1157
 1631SOL     OW16528   3.398   3.771   8.388 -0.1827 -0.2006  0.8616
 1631SOL    HW116529   3.444   3.851   8.411 -0.5907 -0.1972  1.6814
 1631SOL    HW216530   3.305   3.794   8.398 -0.3197 -0.0083 -0.8762
 1632SOL     OW16531   3.005   3.200   5.394  0.0694 -0.4238  0.3557
 1632SOL    HW116532   2.973   3.119   5.355  0.7080 -1.9577  3.0400
 1632SOL    HW216533   2.940   3.222   5.460  1.0108 -0.5966  1.3324
 1633SOL     OW16534   3.203   4.542   5.097  0.4253  0.9112  0.6196
 1633SOL    HW116535   3.145   4.540   5.021 -0.0562 -2.3845  1.0432
 1633SOL    HW216536   3.221   4.449   5.111 -1.2590  0.6310  0.8449
 1634SOL     OW16537   4.328   0.455   1.540 -0.3384  0.4163 -0.0959
 1634SOL    HW116538   4.339   0.433   1.447 -0.3807 -1.4277  0.3277
 1634SOL    HW216539   4.354   0.547   1.545 -2.5730  0.8993  2.3512
 1635SOL     OW16540   4.716   3.664   8.282  0.3105  0.1148 -0.1267
 1635SOL    HW116541   0.040   3.682   8.353 -2.2406 -0.0609  2.1176
 1635SOL    HW216542   4.641   3.623   8.324 -0.3377  2.2074  0.8074
 1636SOL     OW16543   1.463   0.114  14.258  0.1360  0.1547  0.2696
 1636SOL    HW116544   1.472   0.022  14.282  0.0698  0.1271  0.1873
 1636SOL    HW216545   1.378   0.137  14.296 -0.3108  0.7433 -1.0761
 1637SOL     OW16546   3.820   3.914   6.355  0.2253 -0.2525 -0.2965
 1637SOL    HW116547   3.783   3.992   6.398  0.0620 -0.4911 -0.0003
 1637SOL    HW216548   3.902   3.949   6.321 -0.8921  1.9819 -0.7436
 1638SOL     OW16549   3.174   3.622   8.136 -0.7088  0.0052 -0.1148
 1638SOL    HW116550   3.229   3.693   8.105  0.2915 -0.9903 -0.6236
 1638SOL    HW216551   3.170   3.557   8.066 -1.0273  0.1526 -0.2342
 1639SOL     OW16552   1.252   3.089  11.297 -0.1449  0.2319  0.2776
 1639SOL    HW116553   1.299   3.150  11.241  0.0218  1.4483  1.7537
 1639SOL    HW216554   1.323   3.026  11.307  0.0109  0.9192  3.4571
 1640SOL     OW16555   3.513   0.437   6.701 -0.0409  0.3136  0.0329
 1640SOL    HW116556   3.595   0.391   6.717 -0.6157 -0.2230  1.4038
 1640SOL    HW216557   3.509   0.430   6.606  2.8569 -0.6142 -0.0269
 1641SOL     OW16558   1.290   2.868   4.297 -0.4228 -0.3020 -0.1840
 1641SOL    HW116559   1.261   2.936   4.237 -0.5324 -0.2224 -0.0412
 1641SOL    HW216560   1.226   2.886   4.366 -3.0091 -3.5941 -1.7606
 1642SOL     OW16561   0.547   1.247  12.336 -0.6721 -0.1500  0.4013
 1642SOL    HW116562   0.593   1.187  12.277  1.0303  0.7604  0.7999
 1642SOL    HW216563   0.492   1.185  12.383 -0.1941  0.2448  1.4712
 1643SOL     OW16564   2.650   2.187   9.772 -0.1213 -0.0713  0.4256
 1643SOL    HW116565   2.723   2.134   9.739  1.7022  2.7859 -0.0382
 1643SOL    HW216566   2.593   2.173   9.696  1.2029  0.2586 -0.6259
 1644SOL     OW16567   2.185   0.136   5.285 -0.0605  0.0525 -0.0045
 1644SOL    HW116568   2.197   0.135   5.380  1.6925 -1.9794 -0.2330
 1644SOL    HW216569   2.138   0.218   5.273 -0.4142 -0.3629 -1.4847
 1645SOL     OW16570   1.093   2.135   6.915  0.0033 -0.5178 -0.1671
 1645SOL    HW116571   1.092   2.085   6.996 -0.0768 -0.5776 -0.2046
 1645SOL    HW216572   1.150   2.206   6.944  0.0847 -1.2342  1.4366
 1646SOL     OW16573   3.900   2.713   3.926 -0.0786 -0.0353 -0.4155
 1646SOL    HW116574   3.951   2.636   3.901 -0.7284 -0.7015  0.3253
 1646SOL    HW216575   3.883   2.748   3.838  1.4972  1.0533 -0.2836
 1647SOL     OW16576   3.123   3.271   2.769 -0.4579 -0.0520 -0.6670
 1647SOL    HW116577   3.107   3.289   2.676 -0.0537 -1.7660 -1.0656
 1647SOL    HW216578   3.216   3.296   2.765 -0.4422  0.0644  0.4112
 1648SOL     OW16579   0.589   2.828  17.464  0.1110 -0.1119  0.1579
 1648SOL    HW116580   0.682   2.847  17.474  0.3971 -0.5137 -1.6138
 1648SOL    HW216581   0.555   2.895  17.405  1.2455  0.2405 -0.0798
 1649SOL     OW16582   3.500   2.949  14.543  0.0363 -0.1626 -0.1737
 1649SOL    HW116583   3.414   2.913  14.522 -0.1568 -0.3874  1.0235
 1649SOL    HW216584   3.522   2.965  14.451 -1.0354 -1.7283 -0.6968
 1650SOL     OW16585   1.708   3.475   5.372 -0.3118  0.1597  0.5437
 1650SOL    HW116586   1.661   3.493   5.454  0.4093 -2.0862  1.4705
 1650SOL    HW216587   1.734   3.562   5.342 -1.3324  0.8523  1.6233
 1651SOL     OW16588   3.088   2.043   6.331 -0.4724  0.1908  0.1381
 1651SOL    HW116589   2.994   2.031   6.317 -0.3266 -2.5002  1.3966
 1651SOL    HW216590   3.135   2.027   6.249  0.8181  0.7427  0.7578
 1652SOL     OW16591   0.821   4.656   9.439  0.1327 -0.4344 -0.1658
 1652SOL    HW116592   0.895   4.703   9.478 -1.7927  0.9214  1.8643
 1652SOL    HW216593   0.775   4.631   9.519  2.9364  0.3338  1.6949
 1653SOL     OW16594   4.329   3.525   8.724  0.5975 -0.7765 -0.1747
 1653SOL    HW116595   4.410   3.566   8.696  0.4204 -0.8267 -0.7592
 1653SOL    HW216596   4.264   3.591   8.699 -0.1021 -1.1398  0.6864
 1654SOL     OW16597   3.306   1.376   4.465 -0.0653  0.1851  0.3569
 1654SOL    HW116598   3.378   1.429   4.499  0.7211  0.6041 -1.9808
 1654SOL    HW216599   3.348   1.292   4.444  2.9064  1.6878  0.3471
 1655SOL     OW16600   4.723   0.352  12.403  0.3210 -0.0171  0.2342
 1655SOL    HW116601   4.724   0.258  12.421  0.5866  0.2868  1.7591
 1655SOL    HW216602   0.027   0.349  12.317 -2.2822 -1.5969 -0.9581
 1656SOL     OW16603   1.552   1.149  14.397 -0.4456 -0.0831 -0.0296
 1656SOL    HW116604   1.486   1.080  14.400 -0.0151 -0.4286  1.4276
 1656SOL    HW216605   1.547   1.175  14.489  1.4737  2.6465 -0.7026
 1657SOL     OW16606   3.790   2.013   7.452 -0.1495  0.4428  0.1029
 1657SOL    HW116607   3.801   2.042   7.543  2.4048  0.1463 -0.1120
 1657SOL    HW216608   3.786   2.099   7.411 -0.1189  0.8301  0.9079
 1658SOL     OW16609   2.626   1.947   8.320 -0.3220  0.8795 -0.1495
 1658SOL    HW116610   2.616   2.030   8.273  2.1749  1.8087  0.9491
 1658SOL    HW216611   2.721   1.931   8.325 -0.3081  0.9715 -0.1010
 1659SOL     OW16612   2.507   1.030   9.811 -0.0037  0.2452 -0.0124
 1659SOL    HW116613   2.466   0.945   9.826 -0.5037  0.6426  0.8970
 1659SOL    HW216614   2.434   1.092   9.806  1.7643  2.3182  0.0267
 1660SOL     OW16615   0.614   2.863   1.826 -0.2193 -0.1104 -0.2530
 1660SOL    HW116616   0.542   2.833   1.771 -0.4623 -1.1754  0.6412
 1660SOL    HW216617   0.604   2.787   1.883  2.1238 -0.1609  0.0977
 1661SOL     OW16618   0.409   0.547   5.275  0.1086 -0.0106  0.2293
 1661SOL    HW116619   0.491   0.534   5.323  0.1463 -3.4781 -0.7629
 1661SOL    HW216620   0.439   0.527   5.186 -0.5526 -0.8956  0.1957
 1662SOL     OW16621   1.200   4.430  16.712  0.1035  0.0972 -0.1524
 1662SOL    HW116622   1.210   4.423  16.617  1.2946  0.8151 -0.0816
 1662SOL    HW216623   1.288   4.420  16.748 -0.4725  0.0716  1.2561
 1663SOL     OW16624   4.547   4.341   6.849  0.3088 -0.5907 -0.2539
 1663SOL    HW116625   4.467   4.309   6.807 -1.4510  0.8409  2.0032
 1663SOL    HW216626   4.540   4.435   6.830  1.4317 -0.7915 -1.6046
 1664SOL     OW16627   2.826   0.514   8.859  0.0308 -0.5730  0.8125
 1664SOL    HW116628   2.773   0.565   8.798 -0.3283 -1.3906  0.4439
 1664SOL    HW216629   2.886   0.466   8.801  0.9362  0.2353  1.0728
 1665SOL     OW16630   2.877   2.306   6.227  0.1407  0.5970 -0.1634
 1665SOL    HW116631   2.943   2.328   6.161  0.0750  1.7569  0.1699
 1665SOL    HW216632   2.801   2.273   6.179  0.2854  0.9465 -0.6229
 1666SOL     OW16633   1.307   3.623   3.581  0.6125 -0.7812  0.0441
 1666SOL    HW116634   1.221   3.656   3.553 -0.6764 -0.9931  3.6472
 1666SOL    HW216635   1.352   3.707   3.573  1.1729 -1.0074  0.8874
 1667SOL     OW16636   3.579   2.948   6.886  0.1299 -0.4263  0.2340
 1667SOL    HW116637   3.630   2.868   6.874 -2.9874 -2.3372 -0.5508
 1667SOL    HW216638   3.630   2.983   6.958  0.9386 -0.2227 -0.4357
 1668SOL     OW16639   0.410   1.635   3.207 -0.0679 -0.2864 -0.0066
 1668SOL    HW116640   0.332   1.579   3.208  0.3257 -0.8448 -0.3759
 1668SOL    HW216641   0.460   1.602   3.132  1.1016  3.3644 -0.8008
 1669SOL     OW16642   2.570   3.935   0.941  0.1108 -0.1163 -0.2995
 1669SOL    HW116643   2.658   3.915   0.909  0.1685 -0.4395  0.0634
 1669SOL    HW216644   2.540   3.851   0.975 -2.7548  1.0723  0.1087
 1670SOL     OW16645   0.253   0.627   7.416 -0.1395  0.2568 -0.4276
 1670SOL    HW116646   0.296   0.547   7.448  0.6268  0.1992 -1.5983
 1670SOL    HW216647   0.301   0.651   7.337 -2.5150 -0.2120 -2.0067
 1671SOL     OW16648   4.016   1.251  11.039  0.7472  0.6985 -0.0360
 1671SOL    HW116649   4.032   1.186  10.971  0.0910  0.2040  0.2707
 1671SOL    HW216650   4.089   1.236  11.099  0.2165 -1.5640  0.0527
 1672SOL     OW16651   1.175   4.280  11.150  0.3363 -0.2097 -0.2157
 1672SOL    HW116652   1.113   4.290  11.223 -2.0650  1.0971 -2.4028
 1672SOL    HW216653   1.253   4.325  11.182 -0.7874  1.4551  0.1949
 1673SOL     OW16654   4.296   2.332   1.873  0.4762  0.2106  0.4057
 1673SOL    HW116655   4.248   2.274   1.814  2.1584 -0.0834 -0.6707
 1673SOL    HW216656   4.272   2.291   1.956 -2.1134  2.1468  0.5987
 1674SOL     OW16657   2.155   0.083   0.252 -0.0513  0.3423  0.3467
 1674SOL    HW116658   2.154   0.167   0.206 -0.5478  0.5671  0.7698
 1674SOL    HW216659   2.213   0.029   0.198 -0.2291  0.4547  0.0421
 1675SOL     OW16660   2.205   2.525   9.044 -0.2109 -0.3621 -0.0764
 1675SOL    HW116661   2.168   2.613   9.032 -1.0606 -0.4567  1.9170
 1675SOL    HW216662   2.226   2.504   8.953 -1.9538 -0.8976 -0.3660
 1676SOL     OW16663   2.495   3.033   4.689  0.6261 -0.1233 -0.5794
 1676SOL    HW116664   2.440   2.992   4.622 -1.1143 -0.1366  0.8895
 1676SOL    HW216665   2.578   2.985   4.683  0.2131 -0.8745 -0.2881
 1677SOL     OW16666   1.974   2.507   3.840  0.3938 -0.6244  0.2821
 1677SOL    HW116667   1.916   2.495   3.765  0.6423  0.6791 -0.1213
 1677SOL    HW216668   2.000   2.600   3.840  1.0185 -0.8051  2.0104
 1678SOL     OW16669   2.551   1.281   6.373 -0.5478 -0.3570  0.0542
 1678SOL    HW116670   2.472   1.279   6.427 -0.8432 -2.4857 -0.4780
 1678SOL    HW216671   2.506   1.260   6.291  3.0771 -1.8821 -1.5694
 1679SOL     OW16672   1.717   2.974   8.593  0.1248  0.7528  0.0893
 1679SOL    HW116673   1.764   2.997   8.673 -3.1380  3.5636  1.1991
 1679SOL    HW216674   1.726   3.061   8.553  2.7539  0.3577 -0.1735
 1680SOL     OW16675   4.044   2.882  16.875 -0.1884 -0.0058  0.2446
 1680SOL    HW116676   4.002   2.937  16.942  0.2027  0.0348  0.4587
 1680SOL    HW216677   4.129   2.877  16.920 -0.4076 -1.3269  0.5024
 1681SOL     OW16678   3.796   1.491   5.495  0.3724 -0.4439  0.2018
 1681SOL    HW116679   3.834   1.510   5.408 -0.6478 -0.5156 -0.2545
 1681SOL    HW216680   3.862   1.455   5.554 -1.4660  0.5328  2.7985
 1682SOL     OW16681   1.714   3.143  11.651 -0.0213 -0.8124 -0.1516
 1682SOL    HW116682   1.762   3.135  11.733  0.9978 -0.2784 -0.6975
 1682SOL    HW216683   1.656   3.067  11.643 -2.1088  0.9938 -2.2144
 1683SOL     OW16684   0.916   4.190  16.489 -0.5270 -0.3240 -0.0852
 1683SOL    HW116685   0.977   4.121  16.515  1.3918  0.9239 -1.2888
 1683SOL    HW216686   0.935   4.249  16.562  1.3302 -0.6940 -0.2647
 1684SOL     OW16687   4.438   2.795   6.744 -0.7258 -0.2105  0.1235
 1684SOL    HW116688   4.533   2.797   6.760 -0.3102 -3.0462 -1.7567
 1684SOL    HW216689   4.423   2.712   6.789  0.6862 -2.0576 -2.7790
 1685SOL     OW16690   2.905   2.356   9.763  0.1705 -0.4932  0.0459
 1685SOL    HW116691   2.963   2.317   9.698  2.4809  1.2112  1.0819
 1685SOL    HW216692   2.816   2.333   9.736 -0.6560  2.8599 -0.0834
 1686SOL     OW16693   0.295   2.168   6.966 -0.2083  0.6506 -0.5291
 1686SOL    HW116694   0.272   2.096   6.908 -1.8916  0.9031 -0.1989
 1686SOL    HW216695   0.233   2.168   7.039  1.2250  0.7387  0.6827
 1687SOL     OW16696   4.693   0.444  10.104 -0.2604 -0.2029 -0.0854
 1687SOL    HW116697   0.020   0.515  10.097 -1.0698  0.4821 -0.7251
 1687SOL    HW216698   4.655   0.468  10.189  0.9042  3.3257 -0.5292
 1688SOL     OW16699   1.254   1.285   6.193  0.5791 -0.3085 -0.1042
 1688SOL    HW116700   1.160   1.300   6.202  0.4672 -0.4083 -1.1024
 1688SOL    HW216701   1.270   1.325   6.107  0.5855 -1.4099 -0.6158
 1689SOL     OW16702   2.992   3.325   4.473  0.1777 -0.2005  0.0901
 1689SOL    HW116703   2.949   3.340   4.389 -2.2243  0.5953  1.4318
 1689SOL    HW216704   2.921   3.298   4.532  1.5468 -1.2772  1.2471
 1690SOL     OW16705   0.534   0.541   9.070  0.0908  0.3414 -0.1566
 1690SOL    HW116706   0.523   0.489   9.150 -0.0301 -1.1338 -1.1278
 1690SOL    HW216707   0.621   0.571   9.096 -0.1819  2.2418 -1.4550
 1691SOL     OW16708   2.314   1.533   3.462  0.3608 -0.1552 -0.0832
 1691SOL    HW116709   2.273   1.530   3.376 -1.7760  0.2233  0.8959
 1691SOL    HW216710   2.264   1.463   3.504 -0.7951 -0.0415 -1.2747
 1692SOL     OW16711   4.465   2.310   9.983 -0.1114 -0.1195  0.0132
 1692SOL    HW116712   4.370   2.303   9.983 -0.0354 -1.0476  0.6587
 1692SOL    HW216713   4.488   2.237  10.040  2.5832  2.1675  1.8918
 1693SOL     OW16714   2.872   4.401   3.934 -0.6950  0.4847  0.2988
 1693SOL    HW116715   2.899   4.333   3.995 -1.6179  0.1378  0.3169
 1693SOL    HW216716   2.841   4.353   3.857 -1.9058  0.9566  0.4894
 1694SOL     OW16717   4.346   3.330   9.199 -0.4206 -0.4758  0.0446
 1694SOL    HW116718   4.303   3.394   9.142  3.0034 -0.5463 -2.6175
 1694SOL    HW216719   4.365   3.390   9.272  0.5603 -1.6588  0.7527
 1695SOL     OW16720   3.326   0.579   3.145  0.9818  0.3614 -0.2285
 1695SOL    HW116721   3.245   0.593   3.194  1.0162  1.1738 -0.4057
 1695SOL    HW216722   3.290   0.509   3.091  0.5262  1.0005 -0.7547
 1696SOL     OW16723   2.701   3.013  10.778 -0.1629 -0.5617  0.4336
 1696SOL    HW116724   2.682   3.098  10.737  2.0611 -0.8520 -1.1600
 1696SOL    HW216725   2.784   3.028  10.823 -0.3783 -0.9729  0.9742
 1697SOL     OW16726   2.162   2.064   8.520 -0.6825 -0.7191 -0.3108
 1697SOL    HW116727   2.104   2.138   8.501  0.6925 -0.0877 -2.1208
 1697SOL    HW216728   2.121   1.996   8.466 -0.8900 -0.7209 -0.1486
 1698SOL     OW16729   0.678   0.064   2.829  0.3334 -0.0763  0.6332
 1698SOL    HW116730   0.722   0.084   2.746  0.3418  2.4102  1.2201
 1698SOL    HW216731   0.673   0.153   2.865 -1.0207  0.1095  0.0013
 1699SOL     OW16732   2.110   4.566   7.177  0.6654 -0.8373 -0.1919
 1699SOL    HW116733   2.184   4.512   7.149  1.0714 -0.8850  0.9663
 1699SOL    HW216734   2.070   4.571   7.091 -0.3043  0.9694  0.3701
 1700SOL     OW16735   2.194   4.219   5.102 -0.0713  0.0291  0.0292
 1700SOL    HW116736   2.150   4.302   5.119 -0.7364 -0.1188 -1.0137
 1700SOL    HW216737   2.284   4.246   5.120 -0.5463  0.7213  1.3430
 1701SOL     OW16738   0.604   1.842   8.626 -0.1062  0.4818  0.0173
 1701SOL    HW116739   0.637   1.824   8.537  1.6724  2.0480  0.3468
 1701SOL    HW216740   0.574   1.933   8.617  1.6231  0.8451 -2.2069
 1702SOL     OW16741   3.831   1.478   5.022 -0.1761 -0.3682  0.0513
 1702SOL    HW116742   3.923   1.499   5.006  0.3478 -0.7490  2.5955
 1702SOL    HW216743   3.825   1.501   5.115  0.7691  0.4355 -0.0912
 1703SOL     OW16744   0.496   0.659  15.094 -0.4334 -0.5463  0.7849
 1703SOL    HW116745   0.509   0.731  15.157 -0.9839 -0.2782  0.5872
 1703SOL    HW216746   0.401   0.650  15.095 -0.4334 -1.0821 -3.9753
 1704SOL     OW16747   4.569   3.139   6.160 -0.0833  0.2795 -0.3125
 1704SOL    HW116748   4.568   3.063   6.218 -0.0209 -0.2377 -0.9915
 1704SOL    HW216749   4.505   3.191   6.207 -1.4135  0.7425 -2.6128
 1705SOL     OW16750   4.256   4.571   5.729  0.1087  0.2849  0.7415
 1705SOL    HW116751   4.210   4.617   5.659  1.0572 -1.7404 -1.2395
 1705SOL    HW216752   4.317   4.638   5.758  0.4960  0.7271 -1.1114
 1706SOL     OW16753   0.383   2.938   9.716 -0.4209 -0.2740 -0.5758
 1706SOL    HW116754   0.427   3.008   9.765 -1.2320  1.3892 -2.2314
 1706SOL    HW216755   0.449   2.869   9.718  0.4911  0.6052 -0.0659
 1707SOL     OW16756   0.415   3.091   8.358 -0.4658  0.5414 -0.0844
 1707SOL    HW116757   0.459   3.167   8.319  2.0187 -1.1788 -0.6624
 1707SOL    HW216758   0.471   3.021   8.324 -0.0133  0.7658  0.2009
 1708SOL     OW16759   0.526   1.044   6.869 -0.0642 -0.0805 -0.6444
 1708SOL    HW116760   0.530   0.970   6.929  2.1178  0.8150  0.3054
 1708SOL    HW216761   0.503   0.995   6.790  0.6382 -0.3351 -0.6916
 1709SOL     OW16762   3.408   0.169   2.611  0.0481 -0.6139  0.4738
 1709SOL    HW116763   3.485   0.200   2.658  1.7735 -1.2858 -1.8721
 1709SOL    HW216764   3.402   0.213   2.526  0.8561  0.4354  0.9679
 1710SOL     OW16765   3.774   4.630   2.658 -0.7412 -0.0296 -0.5931
 1710SOL    HW116766   3.823   4.691   2.603  2.1091 -2.4428 -0.6707
 1710SOL    HW216767   3.811   4.545   2.635  0.3331  0.5915 -1.1568
 1711SOL     OW16768   1.370   0.503   6.520  0.0062  0.5339 -0.3973
 1711SOL    HW116769   1.463   0.525   6.515  0.0830  0.1905 -0.5148
 1711SOL    HW216770   1.357   0.518   6.613  0.7428 -2.6782  0.2309
 1712SOL     OW16771   4.555   3.401   5.008 -0.6200 -0.1160 -0.2250
 1712SOL    HW116772   4.465   3.390   5.039 -0.4607 -2.1398 -0.4943
 1712SOL    HW216773   4.560   3.494   4.987  2.0566  0.0867  1.4411
 1713SOL     OW16774   1.736   4.180   2.036 -0.3402  0.4926 -0.5504
 1713SOL    HW116775   1.660   4.170   1.978 -0.1292  0.0223 -0.7485
 1713SOL    HW216776   1.796   4.114   2.000  0.7913 -0.4547  3.1501
 1714SOL     OW16777   1.421   3.938   2.377  0.0110  0.1595  0.3945
 1714SOL    HW116778   1.362   3.873   2.416 -0.2095 -0.0732 -0.3163
 1714SOL    HW216779   1.475   3.880   2.323 -1.2510  0.8674 -1.6232
 1715SOL     OW16780   4.037   3.373   4.021 -0.3294 -0.0409 -0.3243
 1715SOL    HW116781   4.009   3.358   3.930 -0.9439 -1.6343  0.1238
 1715SOL    HW216782   3.954   3.366   4.068 -0.9496 -2.1518 -1.7274
 1716SOL     OW16783   0.281   1.943   1.447  0.0297  0.2393 -0.1500
 1716SOL    HW116784   0.370   1.970   1.470 -0.0700 -1.0631  1.8228
 1716SOL    HW216785   0.294   1.848   1.445  1.7548  0.4075  2.1905
 1717SOL     OW16786   3.700   0.297  10.306  0.0499 -0.1246  0.0674
 1717SOL    HW116787   3.641   0.283  10.380 -1.2565 -1.1519 -1.1728
 1717SOL    HW216788   3.644   0.321  10.232 -0.4894 -2.6860 -0.3593
 1718SOL     OW16789   3.725   2.643  17.298 -0.3344 -0.6136  0.0344
 1718SOL    HW116790   3.735   2.657  17.204  3.6435 -0.4520  0.4471
 1718SOL    HW216791   3.655   2.700  17.327 -0.8178 -1.3908  0.4026
 1719SOL     OW16792   3.849   2.088   1.911  0.4198 -0.0588  1.1270
 1719SOL    HW116793   3.879   2.009   1.955 -1.6532 -1.1461  0.5433
 1719SOL    HW216794   3.757   2.073   1.891  0.6575  2.1078 -1.7301
 1720SOL     OW16795   1.902   1.574   3.735  0.7591  0.4356 -0.3700
 1720SOL    HW116796   1.889   1.597   3.827  4.5876 -1.1467  0.5867
 1720SOL    HW216797   1.979   1.624   3.709  1.2851  0.4782  1.2623
 1721SOL     OW16798   1.283   2.475  10.916 -0.0936 -0.2011 -0.0368
 1721SOL    HW116799   1.248   2.486  11.005 -0.7934 -4.1087  0.1706
 1721SOL    HW216800   1.292   2.381  10.900  0.7645  0.2456 -2.0777
 1722SOL     OW16801   4.276   2.502   2.962  0.1443 -0.2104  0.1968
 1722SOL    HW116802   4.313   2.580   3.004  1.0184 -0.2988 -0.4102
 1722SOL    HW216803   4.314   2.436   3.020  0.1213  0.0794  0.5450
 1723SOL     OW16804   4.566   2.156   2.109 -0.4861 -0.3986 -0.1548
 1723SOL    HW116805   4.576   2.172   2.015  0.0863  2.0332  0.3257
 1723SOL    HW216806   4.615   2.074   2.120  1.2007  0.9844  2.6441
 1724SOL     OW16807   0.352   3.863  11.903  0.3356 -0.1825  0.7049
 1724SOL    HW116808   0.257   3.873  11.890  0.7103  1.2574 -0.8792
 1724SOL    HW216809   0.391   3.888  11.820 -0.9077  1.3477  0.5691
 1725SOL     OW16810   2.698   1.591   4.850  0.1088  0.2157 -0.2621
 1725SOL    HW116811   2.738   1.667   4.891  1.3214 -0.1645 -0.7537
 1725SOL    HW216812   2.662   1.539   4.922  0.6891 -1.0959 -0.9219
 1726SOL     OW16813   2.514   4.643  17.122 -0.0862  0.1836  0.0226
 1726SOL    HW116814   2.599   4.618  17.085  0.5970  0.8203  1.1516
 1726SOL    HW216815   2.478   4.700  17.054 -0.9763 -1.1852 -0.6296
 1727SOL     OW16816   4.511   3.551   3.665  0.1724  0.1011 -0.2192
 1727SOL    HW116817   4.515   3.552   3.570 -1.0881  1.1425 -0.2774
 1727SOL    HW216818   4.433   3.496   3.678 -0.5016  0.9904 -0.4628
 1728SOL     OW16819   0.385   3.578   5.232  0.4680  0.2361  0.4620
 1728SOL    HW116820   0.451   3.644   5.254 -0.1195  0.3797  1.8014
 1728SOL    HW216821   0.401   3.507   5.293 -1.0114 -1.4747 -1.1162
 1729SOL     OW16822   0.801   2.990   7.808  0.5360  0.3125  0.4163
 1729SOL    HW116823   0.768   3.076   7.782  0.0716 -0.3075 -1.0249
 1729SOL    HW216824   0.734   2.976   7.875  0.9612 -0.4067  0.6943
 1730SOL     OW16825   1.327   3.137   4.493 -0.6051 -0.1287  0.9822
 1730SOL    HW116826   1.330   3.128   4.398  1.9397 -0.7646  1.1216
 1730SOL    HW216827   1.268   3.212   4.504 -2.9141 -1.8595  0.5387
 1731SOL     OW16828   3.102   4.231   4.460 -0.5840 -0.2876 -0.2824
 1731SOL    HW116829   3.183   4.185   4.438 -0.9365 -0.5491 -1.0545
 1731SOL    HW216830   3.040   4.179   4.409  1.0946 -0.4345 -2.1772
 1732SOL     OW16831   4.037   4.234   3.515  0.4470  0.0383  0.3343
 1732SOL    HW116832   3.999   4.291   3.581  0.8199  1.5702 -0.7928
 1732SOL    HW216833   3.967   4.234   3.450  0.0196  0.1304  0.7921
 1733SOL     OW16834   4.716   4.126   5.321 -0.1455 -0.2612 -0.0125
 1733SOL    HW116835   0.029   4.207   5.327 -0.2085 -0.2085 -0.1751
 1733SOL    HW216836   4.658   4.134   5.396 -1.3900  2.9971 -1.3279
 1734SOL     OW16837   3.686   3.721  11.245 -0.7852 -0.9442  0.1880
 1734SOL    HW116838   3.746   3.667  11.194 -0.2316  0.7897 -1.0316
 1734SOL    HW216839   3.747   3.755  11.311 -0.6267  0.2389 -0.5649
 1735SOL     OW16840   3.795   2.423   2.629 -0.1855  0.3339 -0.5474
 1735SOL    HW116841   3.778   2.487   2.560  1.5188  0.2623 -1.0399
 1735SOL    HW216842   3.873   2.453   2.676 -0.2900  1.7051 -1.2592
 1736SOL     OW16843   2.841   4.080   6.952 -0.2019  0.2510  0.9187
 1736SOL    HW116844   2.899   4.124   6.890 -2.3775  2.3620  0.3555
 1736SOL    HW216845   2.890   3.998   6.963 -1.7365 -0.5884  1.4610
 1737SOL     OW16846   2.100   2.459  14.657  0.1752  0.5237  0.1837
 1737SOL    HW116847   2.022   2.431  14.706  0.9173  1.1705  1.7535
 1737SOL    HW216848   2.076   2.552  14.657  0.6049  0.6309 -0.3582
 1738SOL     OW16849   3.015   3.137   6.796 -0.2483  0.2727 -0.0469
 1738SOL    HW116850   3.103   3.116   6.767 -0.0023  0.8287  0.3003
 1738SOL    HW216851   2.960   3.132   6.718  2.8985 -1.0920 -2.1420
 1739SOL     OW16852   2.194   3.967  10.043  1.2107 -0.4331 -0.0643
 1739SOL    HW116853   2.186   3.966  10.139 -0.3456  0.4811 -0.1925
 1739SOL    HW216854   2.286   3.943  10.041  1.3466 -0.0623  1.4867
 1740SOL     OW16855   3.979   3.974   5.245  0.1356 -0.4271  0.3786
 1740SOL    HW116856   3.903   4.023   5.214  1.4452  0.4625 -1.3801
 1740SOL    HW216857   4.049   4.003   5.186 -0.4602  0.4347  0.0969
 1741SOL     OW16858   0.883   4.236   1.151  0.0553 -0.6184  0.0286
 1741SOL    HW116859   0.832   4.316   1.167  0.8314  0.0238 -0.6974
 1741SOL    HW216860   0.919   4.211   1.236 -0.5453 -1.2004  0.1101
 1742SOL     OW16861   1.746   2.621   2.666  0.1131  0.1075 -0.1110
 1742SOL    HW116862   1.734   2.534   2.628  1.9973 -0.2004 -0.0101
 1742SOL    HW216863   1.841   2.629   2.674  0.0557  0.3611  0.2941
 1743SOL     OW16864   2.328   0.595   7.748 -0.1740  0.4608  0.1017
 1743SOL    HW116865   2.332   0.555   7.661  1.1415 -0.0271  0.3831
 1743SOL    HW216866   2.339   0.686   7.719  1.0696  0.3903  0.3393
 1744SOL     OW16867   1.966   2.906  12.738 -0.1106  0.4001  0.0192
 1744SOL    HW116868   1.936   2.848  12.668 -0.6145 -0.9666  1.3684
 1744SOL    HW216869   1.961   2.846  12.812 -0.3675  2.0195  1.3343
 1745SOL     OW16870   3.381   2.514   5.634  0.2773  0.1633 -0.3171
 1745SOL    HW116871   3.372   2.603   5.599  3.5159  0.7234  0.3612
 1745SOL    HW216872   3.329   2.519   5.714 -0.5272  1.9749 -0.9385
 1746SOL     OW16873   2.013   1.004   7.939  0.2118  0.2748  0.5607
 1746SOL    HW116874   2.013   1.031   7.847  2.9645  1.1448  0.8359
 1746SOL    HW216875   2.062   1.077   7.977 -1.5225 -0.2367  3.7469
 1747SOL     OW16876   0.328   4.605   3.152  0.2834 -0.0179  0.0706
 1747SOL    HW116877   0.399   4.599   3.215  1.6228 -0.5124 -1.4830
 1747SOL    HW216878   0.279   4.529   3.182  1.1866  0.2847  2.2821
 1748SOL     OW16879   2.757   0.666   9.229 -0.1545  0.8888  0.1830
 1748SOL    HW116880   2.832   0.672   9.169  0.4389  0.4785  0.8923
 1748SOL    HW216881   2.741   0.572   9.219  0.9410  0.8093 -0.9250
 1749SOL     OW16882   1.378   4.290   2.377  0.2889  0.3766  0.6045
 1749SOL    HW116883   1.284   4.309   2.375  0.3934  0.8362 -0.1067
 1749SOL    HW216884   1.392   4.259   2.287 -0.9698 -0.7919  0.8085
 1750SOL     OW16885   3.182   1.505   8.087 -0.0787 -0.0557  0.1114
 1750SOL    HW116886   3.128   1.582   8.104  0.1484 -0.0013  0.5885
 1750SOL    HW216887   3.236   1.527   8.011  0.7923  0.3063  0.8315
 1751SOL     OW16888   1.791   4.419  16.158 -0.0331 -0.2822  0.5744
 1751SOL    HW116889   1.787   4.514  16.148 -1.1174 -0.4401 -0.4672
 1751SOL    HW216890   1.697   4.411  16.178 -0.3440 -1.0671 -1.2448
 1752SOL     OW16891   3.688   2.357  17.215  0.1449 -0.1401 -0.3167
 1752SOL    HW116892   3.732   2.392  17.292  0.1152 -1.1417  0.1567
 1752SOL    HW216893   3.673   2.265  17.238  1.0612 -0.7229 -2.0539
 1753SOL     OW16894   1.100   2.042   9.360  0.2359 -0.7808 -0.3238
 1753SOL    HW116895   1.091   1.984   9.285  0.6409  2.1068 -2.5841
 1753SOL    HW216896   1.011   2.075   9.378  0.0760 -0.0270 -2.5793
 1754SOL     OW16897   3.394   4.006  16.760  0.0524 -0.2448 -0.2992
 1754SOL    HW116898   3.489   4.008  16.776  0.4205 -0.1787 -2.4577
 1754SOL    HW216899   3.367   3.922  16.797 -0.6465  0.2975  0.3915
 1755SOL     OW16900   1.693   2.166   7.310  0.1789  0.5731 -0.1475
 1755SOL    HW116901   1.733   2.114   7.240 -1.3336  1.0992 -1.4092
 1755SOL    HW216902   1.721   2.130   7.394  3.2474  1.1799 -0.9038
 1756SOL     OW16903   3.457   1.928   4.154  0.3812  0.0066 -0.3560
 1756SOL    HW116904   3.518   2.001   4.154  0.2950  0.0793 -0.5292
 1756SOL    HW216905   3.417   1.954   4.237  0.3569  0.3855 -0.4863
 1757SOL     OW16906   4.284   0.242   7.464 -0.3363  0.4949  0.6321
 1757SOL    HW116907   4.200   0.198   7.480 -0.6758  1.3705  1.2972
 1757SOL    HW216908   4.250   0.316   7.414  0.6017  1.7994  1.9134
 1758SOL     OW16909   3.383   4.034   6.001  0.2987 -0.1251 -0.0608
 1758SOL    HW116910   3.431   4.028   6.083 -0.6513  3.9262  0.8010
 1758SOL    HW216911   3.304   3.989   6.031  0.1491 -1.5001 -2.4780
 1759SOL     OW16912   0.669   2.916  11.936 -0.8786 -0.1770  0.2152
 1759SOL    HW116913   0.737   2.879  11.880 -1.1381 -1.2967  0.6454
 1759SOL    HW216914   0.699   2.900  12.025  0.5956  1.9995  0.1132
 1760SOL     OW16915   1.649   0.233   5.017 -0.6979 -0.1720 -0.1231
 1760SOL    HW116916   1.628   0.289   4.943 -0.4036  0.4403  0.2560
 1760SOL    HW216917   1.619   0.146   4.989 -2.1712 -0.4087  2.0753
 1761SOL     OW16918   3.537   0.098   1.836  0.1158  0.7083  0.5144
 1761SOL    HW116919   3.600   0.146   1.783  1.7017 -2.6312 -0.6682
 1761SOL    HW216920   3.510   0.023   1.783  1.5325  0.3470  0.2978
 1762SOL     OW16921   1.788   3.492  12.158  0.0544 -0.7807  0.3822
 1762SOL    HW116922   1.770   3.427  12.090  1.7656  0.1056 -0.9050
 1762SOL    HW216923   1.883   3.499  12.154 -0.0697  0.6886  0.0357
 1763SOL     OW16924   0.935   0.598   4.104  0.0605  0.4995  0.1435
 1763SOL    HW116925   0.898   0.618   4.018 -4.2122  0.7818  2.0319
 1763SOL    HW216926   0.943   0.685   4.143  1.6244  0.3177  0.2426
 1764SOL     OW16927   3.849   1.274   6.722 -0.4097  0.4128 -0.1551
 1764SOL    HW116928   3.784   1.338   6.748 -0.0775  0.5242  0.4012
 1764SOL    HW216929   3.818   1.240   6.638 -1.3114  1.1715 -0.1191
 1765SOL     OW16930   3.344   3.739  12.841 -0.1698  0.3337  0.3027
 1765SOL    HW116931   3.315   3.830  12.847 -0.1126  0.3805 -0.1955
 1765SOL    HW216932   3.439   3.737  12.849 -0.2427 -1.0906  0.8467
 1766SOL     OW16933   3.887   4.498   6.102  0.0470 -0.8739 -0.3940
 1766SOL    HW116934   3.850   4.525   6.018  0.5296  0.1842 -0.2560
 1766SOL    HW216935   3.892   4.582   6.147  0.3166  0.0629 -2.1988
 1767SOL     OW16936   2.741   4.233  13.440 -0.1519 -0.0482 -1.1161
 1767SOL    HW116937   2.760   4.326  13.430  2.9369 -0.5997 -0.1806
 1767SOL    HW216938   2.645   4.227  13.438 -0.2221  0.5208  0.3513
 1768SOL     OW16939   3.563   2.668   2.047 -0.3218  0.4802  0.4024
 1768SOL    HW116940   3.656   2.671   2.026 -0.6547 -1.4952 -1.3950
 1768SOL    HW216941   3.571   2.690   2.140 -0.1108  0.5081  0.3767
 1769SOL     OW16942   2.916   2.264   5.286  0.2647  0.7739  0.0161
 1769SOL    HW116943   2.845   2.207   5.315  0.4684 -0.0145 -1.0332
 1769SOL    HW216944   2.990   2.204   5.277 -1.4573 -1.4308  0.4473
 1770SOL     OW16945   1.694   0.808   5.346 -0.4713 -0.2565 -0.4902
 1770SOL    HW116946   1.755   0.866   5.300 -1.0556  1.0803  0.3966
 1770SOL    HW216947   1.621   0.865   5.372 -0.3745 -0.5634  0.4433
 1771SOL     OW16948   1.310   0.699  17.389  0.1634 -0.1316 -0.1678
 1771SOL    HW116949   1.350   0.616  17.364 -0.6065 -0.6431  0.2975
 1771SOL    HW216950   1.345   0.709  17.477 -3.3080  0.2372  1.1642
 1772SOL     OW16951   2.047   0.374   5.177 -0.0562  0.6455 -0.7415
 1772SOL    HW116952   1.953   0.360   5.191  0.0029  0.4510 -0.5421
 1772SOL    HW216953   2.061   0.321   5.098 -1.5353 -1.1744  0.2232
 1773SOL     OW16954   0.409   4.719   2.777 -0.4253  0.6422 -0.3010
 1773SOL    HW116955   0.503   4.729   2.790 -0.4485 -0.1377  0.5104
 1773SOL    HW216956   0.406   4.710   2.682  0.9472 -0.5393 -0.2335
 1774SOL     OW16957   2.661   0.129   3.494  0.2338  0.4442  0.0146
 1774SOL    HW116958   2.706   0.103   3.574  0.3146 -1.4087 -0.6287
 1774SOL    HW216959   2.574   0.152   3.527  1.1070  0.6718  2.1434
 1775SOL     OW16960   2.202   4.647   4.183 -0.8099 -0.5309 -0.0973
 1775SOL    HW116961   2.209   4.554   4.164 -2.5864 -0.4503 -1.1143
 1775SOL    HW216962   2.286   4.678   4.216 -0.6966  0.2325 -1.0945
 1776SOL     OW16963   3.274   4.116   5.398  0.0131  0.0012 -0.2359
 1776SOL    HW116964   3.321   4.075   5.326  1.7599  0.9376  0.3726
 1776SOL    HW216965   3.302   4.208   5.401 -3.5981  1.0433  1.8975
 1777SOL     OW16966   2.192   3.482   7.406 -0.6247  0.2017 -0.7210
 1777SOL    HW116967   2.264   3.517   7.354  0.1147 -1.9447 -1.1116
 1777SOL    HW216968   2.230   3.430   7.477 -0.6318  0.9072 -0.1942
 1778SOL     OW16969   3.499   2.987   5.592  0.3540  0.1127  0.5680
 1778SOL    HW116970   3.433   3.044   5.632  1.5608  2.5151 -0.8345
 1778SOL    HW216971   3.546   3.043   5.530 -2.9595  1.7468 -0.4678
 1779SOL     OW16972   3.351   0.307   2.131  0.4547 -0.2026  0.0880
 1779SOL    HW116973   3.373   0.390   2.088 -3.0766  0.3721 -0.5963
 1779SOL    HW216974   3.321   0.251   2.059  0.2012 -0.2340  0.2168
 1780SOL     OW16975   4.038   1.559   8.730  0.1221 -0.1593  0.0432
 1780SOL    HW116976   4.063   1.467   8.740  0.2247  0.0389  1.7613
 1780SOL    HW216977   3.949   1.546   8.764 -0.7336  1.6807 -1.4922
 1781SOL     OW16978   2.332   1.496   5.239  0.3472  0.9959 -0.1185
 1781SOL    HW116979   2.311   1.508   5.332 -1.3226  3.7043 -0.8495
 1781SOL    HW216980   2.256   1.534   5.194 -0.6950 -1.2604 -0.2384
 1782SOL     OW16981   4.054   3.993   4.730 -0.5313 -0.1787  0.0919
 1782SOL    HW116982   4.138   4.014   4.690  0.9004 -1.1893  2.5589
 1782SOL    HW216983   3.997   4.038   4.668 -0.3033 -0.4181 -0.2916
 1783SOL     OW16984   3.482   1.221   8.640 -0.4275 -0.1811  0.5959
 1783SOL    HW116985   3.461   1.312   8.662  0.3995  0.9087 -3.1547
 1783SOL    HW216986   3.511   1.237   8.551 -0.5350 -1.4720  0.3237
 1784SOL     OW16987   4.410   2.597  12.740 -0.4341  0.3977 -0.3080
 1784SOL    HW116988   4.403   2.548  12.658  2.7226  0.9811 -0.9544
 1784SOL    HW216989   4.363   2.676  12.716 -2.3640 -0.4329  0.7405
 1785SOL     OW16990   3.830   2.807  12.471 -0.4156  0.5937  0.1366
 1785SOL    HW116991   3.820   2.743  12.541  1.7144 -1.6805 -1.6604
 1785SOL    HW216992   3.739   2.811  12.440  0.1868 -0.6597 -1.7633
 1786SOL     OW16993   0.184   1.760  16.316 -0.6129 -0.1703 -0.4026
 1786SOL    HW116994   0.263   1.775  16.369 -0.7529 -0.1278 -0.2076
 1786SOL    HW216995   0.216   1.680  16.274  1.4004 -0.2308  1.2478
 1787SOL     OW16996   1.064   1.599   0.509 -0.0505 -0.0348 -0.4532
 1787SOL    HW116997   1.111   1.681   0.521  0.6287 -0.4512 -0.2552
 1787SOL    HW216998   0.974   1.630   0.496  0.5444  1.4720 -0.9546
 1788SOL     OW16999   0.342   0.983  16.455  0.1660  0.0307 -0.1088
 1788SOL    HW117000   0.250   0.976  16.430 -0.3715 -0.2469  1.8763
 1788SOL    HW217001   0.357   0.918  16.525  1.9577  0.5286 -0.0240
 1789SOL     OW17002   0.769   4.266   3.386 -0.1953  0.2908  0.3762
 1789SOL    HW117003   0.718   4.195   3.346 -1.7178  1.3081  0.5001
 1789SOL    HW217004   0.811   4.294   3.305  1.2839  0.3098  1.1577
 1790SOL     OW17005   0.975   4.430  10.983 -0.9663 -0.3060  0.5085
 1790SOL    HW117006   1.043   4.392  11.037 -0.7765 -0.8475 -0.1159
 1790SOL    HW217007   0.943   4.508  11.029 -1.6150 -0.2478 -0.0426
 1791SOL     OW17008   2.688   1.240  11.544  0.8212 -0.1330 -0.2005
 1791SOL    HW117009   2.747   1.278  11.479  0.4881  0.0892 -0.3704
 1791SOL    HW217010   2.737   1.159  11.560 -1.5226 -1.2280  1.4698
 1792SOL     OW17011   1.893   1.575  16.950  0.0593 -0.4738 -0.1410
 1792SOL    HW117012   1.827   1.591  16.883  0.1607 -0.1908 -0.1716
 1792SOL    HW217013   1.870   1.620  17.031 -2.3066 -0.2818 -0.9409
 1793SOL     OW17014   2.858   0.539  13.700 -0.2491 -0.5463 -0.2760
 1793SOL    HW117015   2.771   0.507  13.723 -0.4543  0.6561  0.5981
 1793SOL    HW217016   2.863   0.606  13.768  1.1337  0.4292 -1.3433
 1794SOL     OW17017   0.080   2.177   8.217  0.2617  0.1663  0.2126
 1794SOL    HW117018   0.032   2.229   8.281 -0.7351 -0.8811  0.3285
 1794SOL    HW217019   0.153   2.141   8.267  0.1615 -2.0423 -1.2218
 1795SOL     OW17020   0.627   4.643   2.383  0.2983 -0.4326 -0.0293
 1795SOL    HW117021   0.548   4.617   2.335  1.8715 -1.4295 -2.0775
 1795SOL    HW217022   0.615   4.612   2.473  0.0236  2.7443  1.0345
 1796SOL     OW17023   2.248   2.970   0.885  0.2461 -0.1935  0.4242
 1796SOL    HW117024   2.199   2.939   0.809  2.0782 -1.8392 -0.0832
 1796SOL    HW217025   2.336   2.958   0.849 -0.0908  0.2103 -0.5470
 1797SOL     OW17026   2.386   4.590   6.295 -1.0724 -0.3474 -0.0623
 1797SOL    HW117027   2.380   4.685   6.309 -0.8524 -0.4703  0.8765
 1797SOL    HW217028   2.459   4.577   6.356 -0.5681 -0.9486 -0.8111
 1798SOL     OW17029   0.524   4.422   2.897  0.1614 -0.2242  0.2973
 1798SOL    HW117030   0.469   4.496   2.871  0.6278 -1.3150 -3.7923
 1798SOL    HW217031   0.495   4.364   2.826  0.9327 -0.6760  0.3542
 1799SOL     OW17032   4.631   1.222   7.495  0.1434  0.1097 -0.4170
 1799SOL    HW117033   4.694   1.286   7.527 -0.2912  1.5798 -2.5343
 1799SOL    HW217034   4.666   1.134   7.505  1.1645  0.2839 -2.5921
 1800SOL     OW17035   4.452   1.585  10.765  0.3869 -0.3901  0.0033
 1800SOL    HW117036   4.445   1.490  10.755 -2.2877 -0.1592 -0.2978
 1800SOL    HW217037   4.499   1.615  10.687  1.6520 -2.1402  0.0981
 1801SOL     OW17038   1.236   3.070   2.601  0.1287 -0.1244  0.2531
 1801SOL    HW117039   1.269   3.113   2.522 -0.8844 -1.9488 -1.1644
 1801SOL    HW217040   1.319   3.066   2.648 -0.4219 -0.5024  1.2016
 1802SOL     OW17041   1.217   2.720   9.122  0.2942 -0.5570  0.0036
 1802SOL    HW117042   1.182   2.648   9.069 -0.0509 -1.0749  0.9289
 1802SOL    HW217043   1.243   2.677   9.204 -0.5534  1.0022  1.0916
 1803SOL     OW17044   1.012   2.693  17.622 -0.0317  0.2820 -0.1498
 1803SOL    HW117045   1.080   2.689  17.689  0.1700  0.0175 -0.3698
 1803SOL    HW217046   1.021   2.604  17.590  0.3003  1.4708 -3.4410
 1804SOL     OW17047   4.044   4.157   9.211  0.1978  0.0811 -0.3231
 1804SOL    HW117048   4.010   4.247   9.216  1.4745  0.6091 -0.9763
 1804SOL    HW217049   4.079   4.144   9.299 -0.4119 -0.3051 -0.1411
 1805SOL     OW17050   0.332   4.677   0.630 -0.2928 -0.2128 -0.2446
 1805SOL    HW117051   0.260   4.657   0.689  0.8013 -0.4898  0.9956
 1805SOL    HW217052   0.295   0.019   0.593  0.0701 -0.7195 -1.6953
 1806SOL     OW17053   4.151   1.706   1.589  0.1469 -0.7748 -0.1672
 1806SOL    HW117054   4.211   1.692   1.516 -0.5610  0.2470 -0.9459
 1806SOL    HW217055   4.205   1.739   1.661  0.9271  0.0458 -1.1241
 1807SOL     OW17056   0.762   0.284   2.263 -0.0410 -0.8335 -0.2224
 1807SOL    HW117057   0.744   0.201   2.307  1.2256 -1.8584 -1.6294
 1807SOL    HW217058   0.773   0.267   2.169 -0.3319 -1.5032 -0.1388
 1808SOL     OW17059   1.862   1.506   3.252 -0.2216  0.0665  0.3599
 1808SOL    HW117060   1.943   1.536   3.293 -0.4589  0.8790  0.2337
 1808SOL    HW217061   1.794   1.541   3.310 -0.4510  0.3512 -0.0775
 1809SOL     OW17062   3.734   4.538   8.501 -0.3793 -0.0080  0.2221
 1809SOL    HW117063   3.815   4.583   8.479  0.5526 -0.6624  2.3145
 1809SOL    HW217064   3.771   4.486   8.573 -0.5763  0.3750  0.5979
 1810SOL     OW17065   0.029   3.891  10.515  0.0347  0.0926  0.2282
 1810SOL    HW117066   0.060   3.820  10.458 -2.0072  1.1711 -2.2311
 1810SOL    HW217067   0.030   3.958  10.446  1.3277  0.4046  0.5489
 1811SOL     OW17068   0.408   4.574  13.243  0.4345  0.1458 -0.0252
 1811SOL    HW117069   0.414   4.531  13.157  0.2956  0.1798 -0.0514
 1811SOL    HW217070   0.471   4.644  13.226 -0.0572  0.3680 -0.9471
 1812SOL     OW17071   2.026   2.390   5.157  0.2136 -0.1590  0.3355
 1812SOL    HW117072   1.985   2.394   5.244 -0.1174  1.7238  0.1033
 1812SOL    HW217073   1.968   2.322   5.123 -0.1770  0.1532  0.3650
 1813SOL     OW17074   4.722   0.513   3.649  0.3498  0.4318 -0.1879
 1813SOL    HW117075   0.075   0.512   3.618 -0.5068  2.3332 -2.8083
 1813SOL    HW217076   4.702   0.606   3.637  2.9315  1.1219  0.8099
 1814SOL     OW17077   1.282   3.113   4.179  0.4161  0.1004 -0.1667
 1814SOL    HW117078   1.223   3.166   4.126 -1.1577 -1.6415 -0.1726
 1814SOL    HW217079   1.328   3.064   4.111  0.6457 -0.6625  0.5285
 1815SOL     OW17080   4.651   1.599   1.699 -0.2435  0.0549 -0.0543
 1815SOL    HW117081   0.004   1.572   1.689 -0.4796 -0.7230 -0.0888
 1815SOL    HW217082   4.669   1.647   1.779  2.9504 -1.2909  0.0320
 1816SOL     OW17083   2.164   1.652   9.072  0.3417  0.2605  0.3427
 1816SOL    HW117084   2.080   1.634   9.115 -1.1477  0.3555 -2.5067
 1816SOL    HW217085   2.138   1.656   8.980  0.2402 -1.5509  0.2865
 1817SOL     OW17086   1.734   4.470   8.121  0.3389 -0.4600  0.1800
 1817SOL    HW117087   1.673   4.469   8.047  1.5619 -1.6576 -0.7793
 1817SOL    HW217088   1.798   4.403   8.101  1.7152  0.5442  1.2107
 1818SOL     OW17089   0.882   4.501   4.531  0.0962 -0.2168 -0.1752
 1818SOL    HW117090   0.959   4.472   4.482 -1.6711 -1.6848 -2.1041
 1818SOL    HW217091   0.922   4.521   4.615 -2.1876 -3.4319  1.6731
 1819SOL     OW17092   2.985   0.507  17.525  0.2892  0.1782 -0.4457
 1819SOL    HW117093   3.021   0.532  17.610  2.8569 -1.0496 -1.1721
 1819SOL    HW217094   2.979   0.590  17.478  0.9000 -0.5434 -1.7904
 1820SOL     OW17095   0.580   4.579   0.698 -0.6071  0.0103  0.2142
 1820SOL    HW117096   0.651   4.609   0.640  0.6523 -0.5489  1.4624
 1820SOL    HW217097   0.497   4.596   0.653  0.9313  0.3317 -2.5348
 1821SOL     OW17098   3.836   2.826   5.529 -0.0495  0.4738  0.2582
 1821SOL    HW117099   3.752   2.822   5.483 -1.1724 -1.5193  2.4542
 1821SOL    HW217100   3.834   2.750   5.588  0.3229  0.5552  0.3721
 1822SOL     OW17101   1.952   4.286  15.980 -0.3156  0.0025 -0.8524
 1822SOL    HW117102   1.888   4.325  16.040  1.8596 -0.3715  1.7015
 1822SOL    HW217103   1.996   4.363  15.943  1.3773 -0.4044  0.3642
 1823SOL     OW17104   2.851   0.635   8.257  0.8812 -0.5009  0.3748
 1823SOL    HW117105   2.836   0.556   8.206  3.0362 -1.1900  0.7969
 1823SOL    HW217106   2.910   0.685   8.200 -0.1784  1.6256  1.1424
 1824SOL     OW17107   2.372   3.636   7.056 -0.3679  0.4044  0.2027
 1824SOL    HW117108   2.451   3.592   7.026  0.4224  1.4013  0.8225
 1824SOL    HW217109   2.314   3.623   6.981 -0.0901 -1.5734  0.3362
 1825SOL     OW17110   3.344   4.514   8.038 -0.2968 -0.2082  0.6164
 1825SOL    HW117111   3.323   4.453   8.109  0.3881  2.3131  3.0062
 1825SOL    HW217112   3.371   4.448   7.974 -1.4905 -0.3811  0.2948
 1826SOL     OW17113   0.957   1.115   2.328 -0.1372  0.0301 -0.3605
 1826SOL    HW117114   0.865   1.089   2.323  0.2538 -1.2667 -1.0131
 1826SOL    HW217115   0.971   1.107   2.423 -0.2868  1.0228 -0.2538
 1827SOL     OW17116   0.777   3.695   4.895  1.0223 -0.1504 -0.2715
 1827SOL    HW117117   0.760   3.688   4.989  0.2501 -1.9207 -0.5400
 1827SOL    HW217118   0.690   3.706   4.856  0.6560  2.1074  1.1283
 1828SOL     OW17119   2.197   3.575   4.444  0.2359  0.7369  0.0424
 1828SOL    HW117120   2.227   3.579   4.354  1.6652  1.5874  0.5624
 1828SOL    HW217121   2.202   3.480   4.454  0.4451  0.7608  0.1784
 1829SOL     OW17122   2.458   1.470   7.053 -0.4507 -0.4515  0.0978
 1829SOL    HW117123   2.423   1.516   7.129 -2.6082 -0.8074 -0.6502
 1829SOL    HW217124   2.383   1.417   7.026 -1.4563  0.9294  0.1580
 1830SOL     OW17125   1.378   4.077   3.962 -0.2128  0.5570  0.1544
 1830SOL    HW117126   1.309   4.125   4.006 -0.9025 -0.2183 -0.0745
 1830SOL    HW217127   1.443   4.075   4.032  0.6109 -1.7342 -0.6629
 1831SOL     OW17128   2.569   0.197   4.172  0.5889  0.1744  0.5610
 1831SOL    HW117129   2.525   0.183   4.089  3.5023  0.2287 -0.9774
 1831SOL    HW217130   2.659   0.173   4.152 -0.0614 -2.2670  0.6194
 1832SOL     OW17131   2.299   2.792   5.291 -0.8513  0.4352 -0.1423
 1832SOL    HW117132   2.225   2.734   5.272  2.3698 -4.3177  1.6822
 1832SOL    HW217133   2.291   2.868   5.234 -1.2007  0.5641  0.0789
 1833SOL     OW17134   0.201   4.118  12.846  0.0493 -0.1533  0.2066
 1833SOL    HW117135   0.223   4.090  12.757 -2.3679  2.2471 -1.1929
 1833SOL    HW217136   0.248   4.202  12.850  1.7875 -1.1258  0.1017
 1834SOL     OW17137   1.447   2.618  17.239  0.3512  0.3886  0.0037
 1834SOL    HW117138   1.495   2.535  17.238 -0.0278  0.1733 -0.4930
 1834SOL    HW217139   1.410   2.618  17.151 -1.5945  0.6569  0.8286
 1835SOL     OW17140   0.745   3.148  10.894  0.0903 -0.3394  0.5519
 1835SOL    HW117141   0.717   3.207  10.824  0.7716  1.8379  2.1077
 1835SOL    HW217142   0.730   3.064  10.852  0.1311  0.1112 -0.3713
 1836SOL     OW17143   1.840   4.196   7.326 -0.3497  0.1073 -0.0141
 1836SOL    HW117144   1.806   4.195   7.416 -4.3582  0.6214 -1.5375
 1836SOL    HW217145   1.910   4.262   7.333 -2.3417  2.3655 -1.3775
 1837SOL     OW17146   0.947   2.127   8.316  0.5320 -0.0688  0.2421
 1837SOL    HW117147   1.026   2.136   8.369  1.8161 -0.3739 -1.6240
 1837SOL    HW217148   0.958   2.204   8.260  0.3065  0.3336  0.7467
 1838SOL     OW17149   0.006   1.185  13.214  0.4314 -0.6130  0.0131
 1838SOL    HW117150   4.665   1.132  13.228  0.1504  0.1297  1.2246
 1838SOL    HW217151   0.076   1.121  13.217 -0.2904 -1.4355 -0.5155
 1839SOL     OW17152   0.042   3.765   4.323 -0.4397 -0.1028 -0.2588
 1839SOL    HW117153   0.035   3.744   4.416  1.9079 -2.5202 -0.6179
 1839SOL    HW217154   0.135   3.790   4.320 -1.2273  2.8052 -0.2599
 1840SOL     OW17155   3.457   3.961  10.881 -0.4320  0.4779  0.0516
 1840SOL    HW117156   3.510   3.952  10.960 -0.9332  0.8768  0.4407
 1840SOL    HW217157   3.386   3.899  10.900  1.2554 -1.1374  1.0627
 1841SOL     OW17158   2.993   2.776   7.492  0.0575 -0.8539  0.0048
 1841SOL    HW117159   3.069   2.813   7.448  0.0998 -1.6611 -0.5985
 1841SOL    HW217160   3.036   2.717   7.554  0.0925 -1.3911 -0.5275
 1842SOL     OW17161   3.814   2.134   7.699 -0.4959  0.3722  0.0710
 1842SOL    HW117162   3.868   2.166   7.771 -1.3493  1.4640  0.2172
 1842SOL    HW217163   3.760   2.082   7.759  1.3293  1.0940  2.3500
 1843SOL     OW17164   3.257   3.816  11.632  0.3975 -0.1234  0.4318
 1843SOL    HW117165   3.248   3.909  11.652  1.2064 -0.1085  0.7264
 1843SOL    HW217166   3.249   3.825  11.537  0.1613  2.8983  0.7341
 1844SOL     OW17167   2.035   3.453   4.141 -0.1264 -0.3228 -0.0252
 1844SOL    HW117168   2.043   3.507   4.063 -0.2791 -1.2794 -0.7034
 1844SOL    HW217169   1.986   3.510   4.200 -0.2297  0.6275 -1.0303
 1845SOL     OW17170   0.445   1.982  10.577 -0.2121 -0.1616 -0.1893
 1845SOL    HW117171   0.536   2.012  10.567  0.0060  0.0595  2.5126
 1845SOL    HW217172   0.442   1.971  10.672  1.4718 -0.4562 -0.1548
 1846SOL     OW17173   2.088   3.414   6.679  0.0766  0.2284  0.4877
 1846SOL    HW117174   2.024   3.428   6.749 -1.9119 -0.7563 -1.1379
 1846SOL    HW217175   2.035   3.414   6.599  1.6419  0.6413 -0.5464
 1847SOL     OW17176   4.110   2.500   6.022  0.1055 -0.4371 -0.3735
 1847SOL    HW117177   4.019   2.470   6.029 -0.5056  2.0632  2.3501
 1847SOL    HW217178   4.156   2.418   6.034 -1.1105 -1.0603  0.0473
 1848SOL     OW17179   1.435   0.236   7.633  0.4344  0.2001  0.1098
 1848SOL    HW117180   1.375   0.308   7.650  0.6409  0.6446 -1.1005
 1848SOL    HW217181   1.512   0.279   7.669  1.1066 -1.0668  0.1986
 1849SOL     OW17182   4.039   2.909   2.428  0.8019  0.3111 -0.0232
 1849SOL    HW117183   3.977   2.975   2.398 -0.1288 -0.2670  0.5863
 1849SOL    HW217184   4.122   2.956   2.429 -0.0765  1.8368  1.0003
 1850SOL     OW17185   2.666   2.440   1.907  0.5216 -0.0573 -0.0064
 1850SOL    HW117186   2.756   2.475   1.910  0.5152  0.0090 -0.6164
 1850SOL    HW217187   2.621   2.510   1.859 -0.7379  0.5316  2.0298
 1851SOL     OW17188   1.567   2.153   1.862  0.5380 -0.0826 -0.4752
 1851SOL    HW117189   1.515   2.114   1.791 -0.1843 -1.4975  0.8365
 1851SOL    HW217190   1.525   2.117   1.940  0.3656  0.3205 -0.3836
 1852SOL     OW17191   3.411   3.043   7.643 -0.3680  0.1630 -0.0096
 1852SOL    HW117192   3.499   3.077   7.628 -0.0878 -0.6370 -0.1646
 1852SOL    HW217193   3.365   3.062   7.561  2.9324 -1.7874 -2.3069
 1853SOL     OW17194   2.289   4.065  15.315 -0.4906  0.0992 -0.3302
 1853SOL    HW117195   2.251   4.027  15.236 -2.9090  2.0660 -0.0842
 1853SOL    HW217196   2.376   4.078  15.278 -1.1742  1.0942 -1.5804
 1854SOL     OW17197   3.222   0.162   7.323  0.1255  0.1379 -0.8393
 1854SOL    HW117198   3.165   0.090   7.298  1.1920 -1.0708  0.2017
 1854SOL    HW217199   3.309   0.122   7.325  0.2927  0.5865  1.0204
 1855SOL     OW17200   4.196   4.157   6.250 -0.2196  0.0867 -0.3130
 1855SOL    HW117201   4.152   4.073   6.261 -0.3780 -0.2104 -3.0451
 1855SOL    HW217202   4.164   4.189   6.165 -0.2757  0.5027 -0.1337
 1856SOL     OW17203   0.561   0.897   6.109  0.2880 -0.0082 -0.9612
 1856SOL    HW117204   0.625   0.956   6.070  1.0172 -0.9182 -1.1459
 1856SOL    HW217205   0.620   0.822   6.116 -0.7799 -0.8354 -0.8608
 1857SOL     OW17206   3.813   2.888  13.127  0.4839 -0.9233  0.0784
 1857SOL    HW117207   3.722   2.914  13.112 -0.1356 -1.9149  2.1860
 1857SOL    HW217208   3.858   2.895  13.042 -0.4353  1.2899 -0.2207
 1858SOL     OW17209   0.038   3.635   7.370  0.4887 -0.3696 -0.3475
 1858SOL    HW117210   0.050   3.542   7.349  0.0260 -0.2139 -1.2898
 1858SOL    HW217211   0.014   3.679   7.288  1.1405  2.2220  0.8698
 1859SOL     OW17212   3.068   2.318  17.387  0.4161 -0.5903  0.5550
 1859SOL    HW117213   2.990   2.270  17.359  1.5704 -2.5718  0.7325
 1859SOL    HW217214   3.109   2.238  17.419  1.6044  0.9773  2.9502
 1860SOL     OW17215   1.389   0.842   9.470 -0.0516  0.1201 -0.9675
 1860SOL    HW117216   1.356   0.895   9.397  0.3960  1.9543  0.1788
 1860SOL    HW217217   1.471   0.814   9.430  1.5703  1.4286  1.4586
 1861SOL     OW17218   2.646   1.574  10.614 -0.1620 -0.2535 -0.4157
 1861SOL    HW117219   2.591   1.508  10.656 -0.1130  0.4372  0.7598
 1861SOL    HW217220   2.700   1.598  10.690 -1.7568 -0.5501  0.8356
 1862SOL     OW17221   1.258   0.018   7.217 -0.1421 -0.1630  0.0365
 1862SOL    HW117222   1.184   0.068   7.252 -0.6860 -0.4766 -0.6616
 1862SOL    HW217223   1.225   4.669   7.192  1.3720 -0.7674  0.1474
 1863SOL     OW17224   0.912   2.917   7.328 -0.0626  0.4442  0.1939
 1863SOL    HW117225   0.869   2.979   7.387 -2.6569  1.6253 -2.9655
 1863SOL    HW217226   0.964   2.859   7.384 -3.9413 -0.7286  2.6714
 1864SOL     OW17227   2.718   4.197   2.221  0.4553 -0.1584  0.1980
 1864SOL    HW117228   2.769   4.119   2.240  2.2794  0.6850 -1.1708
 1864SOL    HW217229   2.784   4.264   2.239 -0.4417  0.8894 -0.4100
 1865SOL     OW17230   2.583   1.311   6.863 -0.2180  0.2072 -0.8434
 1865SOL    HW117231   2.539   1.375   6.920  2.7662  0.3399  1.3085
 1865SOL    HW217232   2.578   1.365   6.785  1.2993  0.8851 -0.4667
 1866SOL     OW17233   1.297   0.422  10.350  0.0489 -0.3603 -0.0170
 1866SOL    HW117234   1.342   0.438  10.267 -1.3316  1.2923 -0.4429
 1866SOL    HW217235   1.281   0.513  10.375 -2.6762 -0.4614 -1.3638
 1867SOL     OW17236   4.358   1.407  16.164 -0.0453 -0.3309  0.1456
 1867SOL    HW117237   4.389   1.441  16.248 -0.5462 -0.0649  0.2229
 1867SOL    HW217238   4.325   1.478  16.109  1.8910  0.8874  0.5243
 1868SOL     OW17239   1.122   3.231  12.310 -0.0699 -0.6237 -0.3313
 1868SOL    HW117240   1.174   3.308  12.334 -0.2849 -0.3637 -0.6878
 1868SOL    HW217241   1.077   3.257  12.230 -2.4982 -0.2140  1.1637
 1869SOL     OW17242   4.004   3.434   6.109  0.2625 -0.0890 -0.2091
 1869SOL    HW117243   3.992   3.503   6.044  2.4812  0.8101  0.3622
 1869SOL    HW217244   3.919   3.426   6.153  0.0611 -2.1543 -0.9623
 1870SOL     OW17245   0.070   0.694   4.518  0.1230  0.4270  0.0553
 1870SOL    HW117246   0.101   0.607   4.492 -1.7970 -0.0243 -0.7956
 1870SOL    HW217247   4.713   0.681   4.511 -0.0806  1.1658  1.5274
 1871SOL     OW17248   1.940   3.222   1.277  0.3885 -0.2408 -0.0132
 1871SOL    HW117249   1.870   3.286   1.259 -0.0697 -1.0702 -1.1469
 1871SOL    HW217250   1.946   3.174   1.194 -1.5657  0.0685 -0.3413
 1872SOL     OW17251   0.406   0.594   6.329  0.3397 -0.0293 -0.0987
 1872SOL    HW117252   0.318   0.554   6.330  0.8932 -1.2983 -2.6817
 1872SOL    HW217253   0.465   0.525   6.301 -0.6510 -0.5786 -0.8386
 1873SOL     OW17254   2.855   3.565  14.764  0.1797  0.7252 -0.0194
 1873SOL    HW117255   2.901   3.541  14.683 -0.4145 -3.3422  0.8334
 1873SOL    HW217256   2.791   3.630  14.735  0.8769  0.7793 -1.4314
 1874SOL     OW17257   3.091   0.853   3.129 -0.1351  0.0074 -0.4491
 1874SOL    HW117258   3.082   0.925   3.192  1.3350 -0.0727 -0.1450
 1874SOL    HW217259   3.122   0.783   3.186  0.5104 -0.6022 -1.5457
 1875SOL     OW17260   3.903   0.079  15.693  0.1254  0.2579 -0.4313
 1875SOL    HW117261   3.955   0.121  15.762  2.0272 -0.4194 -1.4748
 1875SOL    HW217262   3.919   0.150  15.631  1.2751 -0.2753 -0.7422
 1876SOL     OW17263   1.578   4.113   3.094 -0.3440 -0.2021 -0.1164
 1876SOL    HW117264   1.600   4.147   3.007 -1.1617  1.0771  0.1849
 1876SOL    HW217265   1.564   4.023   3.063 -0.5675 -0.1449 -0.1812
 1877SOL     OW17266   2.568   2.999   3.186  0.1895 -0.5865 -0.5387
 1877SOL    HW117267   2.539   3.014   3.096 -0.7616 -0.4539 -0.2146
 1877SOL    HW217268   2.662   3.014   3.180 -0.0394  0.3489 -1.7246
 1878SOL     OW17269   3.322   0.820  12.775  0.0066  0.4141  0.1549
 1878SOL    HW117270   3.418   0.820  12.775  0.0037 -0.1087  1.9364
 1878SOL    HW217271   3.302   0.893  12.833  1.5854 -0.0103  1.2412
 1879SOL     OW17272   2.168   3.652   8.332  0.1811 -0.4913  0.0263
 1879SOL    HW117273   2.243   3.603   8.366  0.5802  0.0876 -0.0138
 1879SOL    HW217274   2.165   3.607   8.247  0.0434 -2.2650  0.9677
 1880SOL     OW17275   1.736   2.272   1.407 -0.1683 -0.2967  0.2850
 1880SOL    HW117276   1.666   2.208   1.399  0.5169 -1.2075  1.6815
 1880SOL    HW217277   1.779   2.235   1.484  0.4166  0.5038  0.3515
 1881SOL     OW17278   1.627   0.484   3.142 -0.0475 -0.8496  0.3530
 1881SOL    HW117279   1.645   0.460   3.233  0.2890  1.1112  0.8065
 1881SOL    HW217280   1.643   0.578   3.149  2.2563 -1.1288 -1.2852
 1882SOL     OW17281   4.017   2.534  17.747  0.4350 -0.1117  0.2804
 1882SOL    HW117282   4.021   2.588  17.668 -0.7235 -0.8736 -0.2992
 1882SOL    HW217283   4.048   2.447  17.720 -1.6711 -1.7671  3.1380
 1883SOL     OW17284   1.793   3.515  16.835  0.1597 -0.1792 -0.2264
 1883SOL    HW117285   1.762   3.605  16.826  2.0691  0.5389  0.5110
 1883SOL    HW217286   1.708   3.473  16.820  0.9942 -2.2870  0.8464
 1884SOL     OW17287   3.209   1.048  17.148  0.3886 -0.0103 -0.2672
 1884SOL    HW117288   3.155   1.120  17.181  0.0681  0.4454 -1.7782
 1884SOL    HW217289   3.142   0.981  17.148  0.9774 -0.5919  0.9944
 1885SOL     OW17290   2.557   4.149   4.966 -0.0245  0.1249 -0.1456
 1885SOL    HW117291   2.519   4.187   5.045  1.1520 -1.7792  1.3232
 1885SOL    HW217292   2.524   4.217   4.907 -1.4477 -1.4195 -1.1331
 1886SOL     OW17293   4.727   2.901  17.597 -0.1165 -0.2643  0.8902
 1886SOL    HW117294   0.079   2.928  17.579 -0.1610 -1.0671 -0.5747
 1886SOL    HW217295   4.697   2.885  17.507  3.4704 -0.0726 -0.3120
 1887SOL     OW17296   4.334   0.473   5.388 -0.2325  0.6936  0.5270
 1887SOL    HW117297   4.321   0.540   5.321 -0.1349 -0.9924 -1.1705
 1887SOL    HW217298   4.368   0.522   5.463 -0.0875  2.1235 -0.4542
 1888SOL     OW17299   0.647   1.587  14.594  0.1721 -0.0035  0.0967
 1888SOL    HW117300   0.697   1.546  14.665 -0.3012 -1.4756 -0.4233
 1888SOL    HW217301   0.625   1.674  14.627 -4.0899 -1.6047  1.4783
 1889SOL     OW17302   4.526   3.725  15.660  0.3452  0.4324 -0.0294
 1889SOL    HW117303   4.460   3.795  15.657 -0.6715 -0.6098 -1.4001
 1889SOL    HW217304   4.513   3.687  15.573 -1.3905 -0.0319  0.4305
 1890SOL     OW17305   2.927   0.895   8.668  0.0061  0.1037  0.6026
 1890SOL    HW117306   2.971   0.827   8.720 -2.3748 -1.4045  0.6265
 1890SOL    HW217307   3.003   0.936   8.627 -0.4230  0.5248  0.2291
 1891SOL     OW17308   2.477   1.730   6.686 -1.2084 -0.1133 -0.1055
 1891SOL    HW117309   2.495   1.824   6.687  2.4209 -0.8323  0.5026
 1891SOL    HW217310   2.391   1.736   6.645 -0.6345  0.1003 -1.2769
 1892SOL     OW17311   3.582   3.797   0.362 -0.0854 -0.1326 -0.4168
 1892SOL    HW117312   3.634   3.739   0.418 -0.8041  0.0022  0.3818
 1892SOL    HW217313   3.548   3.855   0.429 -0.6392  0.2864 -1.0578
 1893SOL     OW17314   1.551   3.032  10.307  0.2225 -0.9381 -0.5328
 1893SOL    HW117315   1.543   3.035  10.403 -0.1610 -0.7877 -0.5714
 1893SOL    HW217316   1.645   3.053  10.307 -0.0019  0.1262  2.5361
 1894SOL     OW17317   2.274   4.480   2.223  0.3163 -0.3895 -0.8866
 1894SOL    HW117318   2.281   4.451   2.132  1.0588  1.3536 -1.3904
 1894SOL    HW217319   2.197   4.431   2.250  1.0058 -0.2327  1.4539
 1895SOL     OW17320   3.070   0.531  13.046  0.0467 -0.7476 -0.0518
 1895SOL    HW117321   3.134   0.556  12.980  1.0714 -0.3008  1.0975
 1895SOL    HW217322   2.986   0.544  13.002 -1.3007 -1.0407  2.3857
 1896SOL     OW17323   1.091   4.347   4.429  0.4552  0.5750 -0.6863
 1896SOL    HW117324   1.105   4.420   4.369 -0.1952  1.1485 -0.1403
 1896SOL    HW217325   1.118   4.269   4.381  1.3785 -0.0446  0.8188
 1897SOL     OW17326   1.645   1.425   4.629 -0.0149 -0.0913 -0.2601
 1897SOL    HW117327   1.614   1.443   4.540  1.4064  0.9113 -0.5374
 1897SOL    HW217328   1.644   1.329   4.634 -0.6060 -0.1514 -1.5859
 1898SOL     OW17329   1.192   0.047  14.289  0.2434 -0.0464  0.1153
 1898SOL    HW117330   1.188   4.706  14.344 -1.2339 -0.4129 -0.5243
 1898SOL    HW217331   1.161   0.124  14.338 -0.5274  0.1929 -0.7487
 1899SOL     OW17332   3.857   0.625   6.840 -0.3759  0.2191 -0.3556
 1899SOL    HW117333   3.893   0.702   6.884 -0.3114 -0.3248  0.5409
 1899SOL    HW217334   3.786   0.603   6.900  0.3300  1.1172  0.8180
 1900SOL     OW17335   1.392   0.096   4.572  0.2974  0.0378  0.1770
 1900SOL    HW117336   1.397   0.154   4.496  0.7911 -1.7671 -1.1782
 1900SOL    HW217337   1.485   0.074   4.583  1.0457  3.4507  0.8885
 1901SOL     OW17338   4.033   2.643   9.014 -0.0615 -0.7720  0.6519
 1901SOL    HW117339   4.037   2.553   9.047 -0.6587 -0.0035  2.8142
 1901SOL    HW217340   4.025   2.633   8.919 -3.7316  3.0450  0.5695
 1902SOL     OW17341   0.634   1.713   6.805  0.1589 -0.3639  0.9568
 1902SOL    HW117342   0.602   1.654   6.736  1.4228  0.6400 -0.4754
 1902SOL    HW217343   0.637   1.799   6.763  3.1884  0.3205  2.6076
 1903SOL     OW17344   3.669   0.674   4.326  0.5404  0.5133  0.2086
 1903SOL    HW117345   3.633   0.750   4.280 -3.0986 -0.2763  1.7462
 1903SOL    HW217346   3.619   0.605   4.283 -2.0568  1.6779  1.3480
 1904SOL     OW17347   3.143   4.585   6.245  0.1230  0.4476  0.9044
 1904SOL    HW117348   3.070   4.544   6.292 -0.6665  0.1748 -0.5716
 1904SOL    HW217349   3.141   4.540   6.161 -1.2185  0.6497  0.8346
 1905SOL     OW17350   2.665   3.485   2.575 -0.2924 -0.0710  0.0083
 1905SOL    HW117351   2.709   3.438   2.646  0.7941 -0.2799 -0.8060
 1905SOL    HW217352   2.719   3.564   2.566  0.7913 -0.7650  0.4475
 1906SOL     OW17353   0.357   1.993  12.727 -0.3243 -0.8696 -0.0809
 1906SOL    HW117354   0.309   1.973  12.808  0.1357  0.9647  0.6349
 1906SOL    HW217355   0.312   2.078  12.726  2.2690  0.5016  0.7324
 1907SOL     OW17356   4.032   2.739   8.122  0.2038 -0.3485 -0.0973
 1907SOL    HW117357   4.113   2.770   8.163 -0.0185 -0.9839  0.8303
 1907SOL    HW217358   4.011   2.660   8.173  0.9895 -0.0611  0.6716
 1908SOL     OW17359   2.190   0.125   9.150  0.0427 -0.1758  0.2486
 1908SOL    HW117360   2.271   0.075   9.139 -0.3997 -1.1052  1.2033
 1908SOL    HW217361   2.132   0.080   9.089 -0.1435 -0.8825  0.9498
 1909SOL     OW17362   3.634   3.213   5.382 -0.2098 -0.7238 -0.2119
 1909SOL    HW117363   3.705   3.193   5.320 -1.2139 -2.6362 -0.7515
 1909SOL    HW217364   3.691   3.235   5.456 -1.2898  0.0251  0.3784
 1910SOL     OW17365   4.183   3.244   3.218 -0.3284 -0.3096 -0.0838
 1910SOL    HW117366   4.137   3.238   3.302  0.1073  0.3075  0.1971
 1910SOL    HW217367   4.131   3.185   3.164 -1.0546 -0.3620  0.6733
 1911SOL     OW17368   2.423   4.580   3.644 -0.0790  0.3109 -0.4703
 1911SOL    HW117369   2.465   4.569   3.729  1.7359 -0.9443 -1.5473
 1911SOL    HW217370   2.424   4.676   3.636 -0.1451  0.4190  0.9074
 1912SOL     OW17371   3.628   0.497  13.392  0.1860 -0.9653 -0.4081
 1912SOL    HW117372   3.655   0.576  13.438  0.7139 -1.3379 -0.0822
 1912SOL    HW217373   3.595   0.527  13.307  1.1466 -2.0540 -1.1470
 1913SOL     OW17374   2.266   4.374   3.558  0.3517  0.1874  0.3763
 1913SOL    HW117375   2.319   4.378   3.478  1.6807 -1.3177  1.1735
 1913SOL    HW217376   2.314   4.438   3.611  0.7442 -1.4894  2.0609
 1914SOL     OW17377   1.492   3.839   3.509 -0.5381  0.5516 -0.2168
 1914SOL    HW117378   1.525   3.917   3.464  0.4231 -0.1973 -0.8131
 1914SOL    HW217379   1.522   3.845   3.599  1.6305 -1.4300 -0.8169
 1915SOL     OW17380   3.174   0.331   2.439 -0.3847 -0.0613  0.3224
 1915SOL    HW117381   3.239   0.402   2.441 -1.6906  1.1810 -1.4386
 1915SOL    HW217382   3.208   0.276   2.369  2.1318  1.8362  0.0458
 1916SOL     OW17383   3.880   4.155   4.212 -0.3197 -0.7709  0.3401
 1916SOL    HW117384   3.888   4.239   4.258  1.1779  1.1219 -3.4184
 1916SOL    HW217385   3.950   4.106   4.254  1.8409 -1.2532 -3.8188
 1917SOL     OW17386   2.359   0.240   8.215 -0.5958 -0.2380  0.3759
 1917SOL    HW117387   2.438   0.264   8.167 -0.6888 -1.3266 -0.3295
 1917SOL    HW217388   2.325   0.168   8.160 -2.2805  0.1335  0.9201
 1918SOL     OW17389   0.861   4.711   3.494  0.9235  0.2038  0.5851
 1918SOL    HW117390   0.943   4.727   3.541  1.4096 -1.6425  0.3411
 1918SOL    HW217391   0.884   4.637   3.438  0.0368 -0.8614  1.6441
 1919SOL     OW17392   2.234   0.278   7.014  0.1861 -0.1086  0.2553
 1919SOL    HW117393   2.211   0.229   7.093  1.5010  0.3491  0.9061
 1919SOL    HW217394   2.318   0.315   7.039  0.6799 -0.1727 -1.2794
 1920SOL     OW17395   0.372   2.858   7.305 -0.1576  0.6387  0.2565
 1920SOL    HW117396   0.414   2.934   7.345 -1.8142  2.4057 -1.3121
 1920SOL    HW217397   0.433   2.787   7.324 -1.0482 -0.0808  0.3987
 1921SOL     OW17398   3.023   0.316  14.093 -0.3034 -0.0538  0.0896
 1921SOL    HW117399   3.091   0.337  14.029 -0.7070  0.9978  0.0008
 1921SOL    HW217400   2.984   0.233  14.064  0.3449 -0.9811  1.8651
 1922SOL     OW17401   3.946   2.174   7.177 -0.0987  0.2673 -0.0473
 1922SOL    HW117402   3.858   2.185   7.214  0.6185  2.1671  1.0942
 1922SOL    HW217403   3.980   2.261   7.196  1.0612 -0.4152  1.0155
 1923SOL     OW17404   1.769   4.494  10.725  0.3479 -0.3802  0.1244
 1923SOL    HW117405   1.778   4.403  10.752 -1.4353 -0.7760 -0.6053
 1923SOL    HW217406   1.743   4.482  10.634  0.8115 -2.2971  0.2394
 1924SOL     OW17407   3.581   4.455   1.508  0.1537  0.1959 -0.1015
 1924SOL    HW117408   3.521   4.511   1.558  0.9162 -0.9676  2.1085
 1924SOL    HW217409   3.624   4.403   1.576  2.9108  2.2285 -0.2585
 1925SOL     OW17410   4.553   4.319   2.519  0.0714  0.3679  0.1915
 1925SOL    HW117411   4.617   4.338   2.587  1.7117  1.3253 -1.6173
 1925SOL    HW217412   4.509   4.403   2.510 -0.4547  0.0390 -0.3243
 1926SOL     OW17413   2.890   4.432   5.493 -0.1928  0.1532  0.2217
 1926SOL    HW117414   2.887   4.475   5.407 -1.5659  2.1009  1.2243
 1926SOL    HW217415   2.973   4.472   5.517 -0.5142  0.6794  0.4844
 1927SOL     OW17416   3.060   0.793  13.136 -0.4294  0.1490  0.2142
 1927SOL    HW117417   3.088   0.703  13.121  1.2937  0.8171 -0.5880
 1927SOL    HW217418   3.141   0.830  13.172 -1.0147  0.0310  1.6794
 1928SOL     OW17419   3.935   3.469   9.051 -0.4450 -0.1480 -0.0279
 1928SOL    HW117420   4.022   3.487   9.015 -0.7283  2.8767  0.7473
 1928SOL    HW217421   3.961   3.413   9.123  0.0196  1.9966  1.4695
 1929SOL     OW17422   4.411   3.212   4.803  0.1294 -0.2809 -0.1288
 1929SOL    HW117423   4.444   3.161   4.729 -2.6107 -1.9679 -0.1832
 1929SOL    HW217424   4.497   3.237   4.839 -2.1552  1.5058  4.1821
 1930SOL     OW17425   1.340   1.337  12.066  0.1641  0.3438 -0.2549
 1930SOL    HW117426   1.254   1.311  12.031  0.7098 -0.3822 -1.0560
 1930SOL    HW217427   1.342   1.270  12.134  1.5811  1.6025  0.9357
 1931SOL     OW17428   0.302   1.816   1.993 -0.0917  0.5903 -0.1835
 1931SOL    HW117429   0.285   1.910   1.997  2.6061  1.1691 -2.2980
 1931SOL    HW217430   0.236   1.785   2.055 -0.8997  0.6529 -1.0093
 1932SOL     OW17431   0.378   3.216   2.714  0.6221  0.3718  0.3656
 1932SOL    HW117432   0.421   3.205   2.799  0.9555 -0.1773  0.1304
 1932SOL    HW217433   0.339   3.302   2.725  1.2714  0.9669 -2.0100
 1933SOL     OW17434   1.688   1.436  14.408 -0.3213 -0.2985 -0.7013
 1933SOL    HW117435   1.626   1.451  14.337 -2.1097  0.3142  0.9808
 1933SOL    HW217436   1.698   1.341  14.403  1.0486 -0.1525 -0.7533
 1934SOL     OW17437   4.392   2.120   2.463 -0.0666  0.2384  0.2338
 1934SOL    HW117438   4.367   2.073   2.385 -0.5949  0.3818  0.3195
 1934SOL    HW217439   4.386   2.210   2.430 -3.5880  0.1730  0.7525
 1935SOL     OW17440   4.443   3.145   2.392  0.6687  0.4594  0.2043
 1935SOL    HW117441   4.511   3.196   2.348  0.1102 -0.1764 -1.4133
 1935SOL    HW217442   4.471   3.060   2.358  0.2746  1.0284 -1.5715
 1936SOL     OW17443   2.085   4.710   6.399 -0.5903  0.5846 -0.5267
 1936SOL    HW117444   2.115   4.655   6.326  0.5170 -0.0032  0.3604
 1936SOL    HW217445   1.999   4.734   6.365 -0.5358 -0.7545 -1.6189
 1937SOL     OW17446   3.561   2.766  15.667 -0.0956  0.5942  0.1360
 1937SOL    HW117447   3.525   2.809  15.745  2.9590  0.2979  1.6754
 1937SOL    HW217448   3.536   2.821  15.593 -1.1581 -0.0336  0.0315
 1938SOL     OW17449   4.354   0.987  13.989  0.1547 -0.3568 -0.3153
 1938SOL    HW117450   4.382   1.052  13.925 -1.2547  0.6988  0.1301
 1938SOL    HW217451   4.351   1.041  14.068 -0.6940  0.5874 -0.9974
 1939SOL     OW17452   0.694   1.665   4.241  0.0208 -1.0742  0.2687
 1939SOL    HW117453   0.615   1.685   4.192 -0.4387  1.2161  1.8995
 1939SOL    HW217454   0.658   1.607   4.308 -1.3480 -0.5282  0.0101
 1940SOL     OW17455   0.919   0.486   1.407  0.4186 -0.2677 -0.3196
 1940SOL    HW117456   0.929   0.576   1.439  0.0716 -0.6835  0.9510
 1940SOL    HW217457   0.834   0.469   1.447  0.7320 -1.3601 -0.1280
 1941SOL     OW17458   1.467   2.651  12.995 -0.1562  0.0882  0.9083
 1941SOL    HW117459   1.403   2.701  12.945  0.3721 -0.2098 -0.0694
 1941SOL    HW217460   1.545   2.659  12.941 -0.4217  2.3262  0.8662
 1942SOL     OW17461   0.169   4.078  17.658  0.6751  1.0570 -0.2132
 1942SOL    HW117462   0.094   4.081  17.717  1.2245  0.1172  0.5303
 1942SOL    HW217463   0.242   4.057  17.717 -1.0850 -0.7588  1.3174
 1943SOL     OW17464   1.317   1.023   5.890  0.1141  0.0628 -0.6925
 1943SOL    HW117465   1.259   0.994   5.960 -1.2691  1.3584 -1.3066
 1943SOL    HW217466   1.313   1.118   5.903 -0.6765 -0.0216 -0.3355
 1944SOL     OW17467   3.875   3.897   5.664  0.3331 -0.1369  0.4141
 1944SOL    HW117468   3.822   3.836   5.716  0.3893  0.7356  1.4976
 1944SOL    HW217469   3.829   3.890   5.581 -1.8459 -1.4987  1.7413
 1945SOL     OW17470   0.176   1.126   3.577  0.6655  0.1542 -0.2874
 1945SOL    HW117471   0.183   1.058   3.510 -0.8078  0.4891 -0.7859
 1945SOL    HW217472   0.091   1.163   3.553  1.1570  0.7155 -1.1513
 1946SOL     OW17473   3.630   2.897  12.819  0.2215  0.6598  0.0722
 1946SOL    HW117474   3.545   2.853  12.813  0.1650  0.7232  0.4217
 1946SOL    HW217475   3.606   2.946  12.898  1.3445 -0.8912  1.3671
 1947SOL     OW17476   0.389   3.868   8.138  0.9163 -0.6407 -0.0075
 1947SOL    HW117477   0.353   3.954   8.156  0.3891 -1.2477  1.8832
 1947SOL    HW217478   0.322   3.826   8.084  0.2966  0.3214  0.0130
 1948SOL     OW17479   1.954   1.977  16.682 -0.3055 -0.0727  0.5314
 1948SOL    HW117480   2.025   1.973  16.745 -0.6372 -0.5131  0.8750
 1948SOL    HW217481   1.990   1.941  16.600 -0.9335 -0.2436  0.3326
 1949SOL     OW17482   0.227   0.831  16.658 -0.2230 -0.0553  0.2228
 1949SOL    HW117483   0.168   0.840  16.733  0.3317  1.6339  0.4453
 1949SOL    HW217484   0.245   0.737  16.656 -1.2144 -0.2268 -0.9713
 1950SOL     OW17485   1.587   0.638   6.071 -0.7284 -0.5551  0.1871
 1950SOL    HW117486   1.561   0.682   5.990 -1.9398 -0.8749  0.3987
 1950SOL    HW217487   1.677   0.671   6.080 -0.5788 -0.3421 -2.0369
 1951SOL     OW17488   4.590   2.615   2.096  0.1613 -0.5356 -0.3918
 1951SOL    HW117489   4.540   2.602   2.016  1.1700  2.4303 -1.5229
 1951SOL    HW217490   4.675   2.637   2.057  0.1983 -1.2304 -0.7084
 1952SOL     OW17491   2.970   1.702  13.927 -0.2281 -0.0545  0.0263
 1952SOL    HW117492   2.967   1.681  13.834  2.0009 -1.5998  0.3137
 1952SOL    HW217493   2.901   1.641  13.956 -0.7349  1.1882  1.4305
 1953SOL     OW17494   0.094   3.469   1.211  0.3369 -0.3931 -0.4536
 1953SOL    HW117495   0.176   3.443   1.171  1.1035 -0.5926  1.2448
 1953SOL    HW217496   0.107   3.551   1.258  1.4829 -1.1859  0.6066
 1954SOL     OW17497   0.764   1.296   3.259  0.4682 -0.6042 -0.3942
 1954SOL    HW117498   0.683   1.276   3.306  0.4837  0.9307  0.2630
 1954SOL    HW217499   0.817   1.218   3.279  0.9838 -0.0642  0.3422
 1955SOL     OW17500   2.437   2.100   7.886 -0.0726 -0.4814 -0.3095
 1955SOL    HW117501   2.354   2.145   7.901  1.0464  1.7722 -0.9462
 1955SOL    HW217502   2.475   2.150   7.814  0.1486  1.1844  0.9723
 1956SOL     OW17503   3.778   4.140  16.099  0.1591  0.1069 -0.2924
 1956SOL    HW117504   3.871   4.156  16.082  1.0724 -2.5508  2.4063
 1956SOL    HW217505   3.778   4.072  16.166  0.7650 -0.1761 -0.5773
 1957SOL     OW17506   0.708   1.026   8.691 -0.5224  0.3732 -0.1054
 1957SOL    HW117507   0.782   1.020   8.751 -0.6588  1.0914  0.1377
 1957SOL    HW217508   0.710   1.116   8.657 -0.4637 -0.1854 -1.5803
 1958SOL     OW17509   0.584   2.735   9.734 -0.0030 -0.0708 -0.3200
 1958SOL    HW117510   0.677   2.719   9.754 -0.2806 -1.3725 -0.0921
 1958SOL    HW217511   0.535   2.720   9.815 -0.3468  0.8625 -0.3581
 1959SOL     OW17512   1.374   2.897   2.906 -0.1167 -0.2217  0.1765
 1959SOL    HW117513   1.333   2.974   2.947 -0.1882 -1.4911  2.5401
 1959SOL    HW217514   1.305   2.836   2.881 -0.4261  0.6009 -0.9393
 1960SOL     OW17515   2.633   0.999  10.083  0.0567 -0.2953  0.3924
 1960SOL    HW117516   2.726   1.011  10.065 -0.9584 -0.7027 -5.1954
 1960SOL    HW217517   2.604   1.044  10.003 -0.9459 -0.0606  0.8893
 1961SOL     OW17518   3.417   1.546  17.148 -0.1781  0.0490 -0.3202
 1961SOL    HW117519   3.395   1.528  17.240  1.4946  2.2394  0.5054
 1961SOL    HW217520   3.509   1.524  17.136  0.2127  1.4826  0.0677
 1962SOL     OW17521   0.425   2.315   2.895 -0.3054  0.7095  0.5720
 1962SOL    HW117522   0.495   2.271   2.945  1.2215  2.1527 -0.2945
 1962SOL    HW217523   0.374   2.366   2.958  0.1475  1.7500  0.0963
 1963SOL     OW17524   1.390   2.568   5.566 -0.7811 -0.6056  0.0758
 1963SOL    HW117525   1.474   2.609   5.587 -0.4051 -1.5285  0.4015
 1963SOL    HW217526   1.335   2.637   5.530 -0.6159  0.2397  1.4263
 1964SOL     OW17527   0.690   1.145  10.185 -0.2508 -0.1664  0.2487
 1964SOL    HW117528   0.656   1.101  10.108  0.3587 -1.9631  0.9957
 1964SOL    HW217529   0.696   1.236  10.156  1.1477 -0.2262  0.3414
 1965SOL     OW17530   0.936   2.420   3.588 -0.1363  0.4499 -0.0680
 1965SOL    HW117531   0.952   2.510   3.560 -0.5811  0.0536 -1.5780
 1965SOL    HW217532   0.977   2.413   3.674 -2.4710  1.0310  1.0834
 1966SOL     OW17533   4.616   2.750   2.704 -0.3542  0.1542 -0.4120
 1966SOL    HW117534   4.627   2.828   2.650  0.4643 -0.8617 -1.7170
 1966SOL    HW217535   4.554   2.698   2.652 -0.9397 -0.4670  0.9078
 1967SOL     OW17536   4.095   3.763   9.109 -0.0740 -0.6762  0.3509
 1967SOL    HW117537   4.132   3.679   9.082 -1.0753 -0.7330 -0.8072
 1967SOL    HW217538   4.174   3.817   9.113  0.0801 -0.8933  0.2149
 1968SOL     OW17539   3.713   4.009   8.286 -0.0853 -0.0240  0.2539
 1968SOL    HW117540   3.652   4.003   8.213  0.3383  2.1094 -0.2725
 1968SOL    HW217541   3.652   4.034   8.355  1.1469 -1.8605  2.0194
 1969SOL     OW17542   3.951   3.570   5.673 -0.1778 -0.4497 -0.6729
 1969SOL    HW117543   3.946   3.521   5.591 -0.0110 -0.4985 -0.6525
 1969SOL    HW217544   3.867   3.544   5.711 -0.0490  3.4764  2.2297
 1970SOL     OW17545   0.473   1.797  17.731  0.3006 -0.0239  0.4914
 1970SOL    HW117546   0.540   1.842  17.680 -0.1401 -0.3984 -0.4083
 1970SOL    HW217547   0.490   1.818   0.075 -0.1296 -0.5038  0.6836
 1971SOL     OW17548   0.136   4.724   2.047 -0.5853  0.0466  0.1590
 1971SOL    HW117549   0.085   0.047   2.100  0.0445  1.1943 -0.5362
 1971SOL    HW217550   0.095   4.639   2.066  1.9423 -1.4494 -1.0142
 1972SOL     OW17551   3.492   4.687   4.452  0.0714  0.5756  0.0571
 1972SOL    HW117552   3.509   4.667   4.544  0.5097  1.7449  0.2275
 1972SOL    HW217553   3.397   4.674   4.444  0.2374  0.8833 -2.4751
 1973SOL     OW17554   2.977   4.524   3.551  0.0292  0.2537  0.3172
 1973SOL    HW117555   2.953   4.556   3.464  3.1608  1.1741 -0.1972
 1973SOL    HW217556   2.889   4.517   3.588  0.2084  1.4692  0.9703
 1974SOL     OW17557   3.312   3.623  15.380 -0.5115  0.7415  0.4832
 1974SOL    HW117558   3.378   3.607  15.313 -1.8797  0.5902 -0.8331
 1974SOL    HW217559   3.289   3.532  15.394 -0.1545  0.2347 -2.2693
 1975SOL     OW17560   3.937   0.210   7.065  0.2304 -0.3049 -0.0408
 1975SOL    HW117561   3.871   0.270   7.031  0.9514  0.9708  0.8385
 1975SOL    HW217562   4.020   0.253   7.043 -0.2369 -0.1384 -1.4740
 1976SOL     OW17563   2.260   2.185   5.915  0.2279  0.1397 -0.3140
 1976SOL    HW117564   2.320   2.186   5.840  1.1455 -1.2063  0.4226
 1976SOL    HW217565   2.305   2.240   5.980 -1.5309  1.6688 -0.3874
 1977SOL     OW17566   0.467   0.608   8.819 -0.3962 -0.7891  0.1261
 1977SOL    HW117567   0.489   0.606   8.912  0.5048 -0.0689 -0.0753
 1977SOL    HW217568   0.447   0.516   8.803  0.3198 -1.0085  0.5024
 1978SOL     OW17569   3.101   0.906  15.174 -0.1868 -0.1820 -0.4378
 1978SOL    HW117570   3.110   0.813  15.150 -0.4728 -0.7165  1.5192
 1978SOL    HW217571   3.007   0.906  15.193  0.1141  0.2394  1.0804
 1979SOL     OW17572   0.995   2.280  11.219 -0.1681  0.1856  0.3218
 1979SOL    HW117573   0.918   2.330  11.245 -0.1970 -0.3452  1.2458
 1979SOL    HW217574   0.967   2.242  11.136 -0.1094  0.9365 -0.0354
 1980SOL     OW17575   4.263   4.658   2.931  0.3315 -0.2527 -0.2980
 1980SOL    HW117576   4.205   4.589   2.899  0.8454 -0.2545 -1.2202
 1980SOL    HW217577   4.320   4.681   2.857 -0.7060 -0.5147 -1.1810
 1981SOL     OW17578   1.864   1.125   2.721  0.3517  0.2129 -0.2357
 1981SOL    HW117579   1.852   1.049   2.664 -0.2677 -0.3885  0.6935
 1981SOL    HW217580   1.778   1.166   2.713 -1.5509 -3.8594 -0.6086
 1982SOL     OW17581   2.735   2.272   2.708 -0.1440 -0.1506 -0.1017
 1982SOL    HW117582   2.790   2.218   2.765  1.6262  0.5383 -1.1576
 1982SOL    HW217583   2.787   2.265   2.627 -2.0718  1.7772 -1.5064
 1983SOL     OW17584   0.604   1.992  14.888 -0.0074 -0.3493  0.3838
 1983SOL    HW117585   0.569   2.029  14.969 -2.3147 -1.7133 -0.0008
 1983SOL    HW217586   0.698   1.981  14.902  0.0739  0.0079  0.1337
 1984SOL     OW17587   2.156   2.848   9.796  0.0784  0.0516 -0.5387
 1984SOL    HW117588   2.109   2.768   9.817  2.4430 -0.9593  0.9830
 1984SOL    HW217589   2.235   2.831   9.848  0.0817  1.0669 -0.2127
 1985SOL     OW17590   0.712   0.761   2.718  0.3399  0.2038 -0.0005
 1985SOL    HW117591   0.783   0.710   2.758  0.9404  0.5400 -0.6375
 1985SOL    HW217592   0.670   0.795   2.797 -0.8825 -0.5060 -0.3407
 1986SOL     OW17593   1.509   3.983   5.788  1.0123  0.0354 -0.7186
 1986SOL    HW117594   1.497   4.039   5.865  0.8774 -1.9909  0.7413
 1986SOL    HW217595   1.441   3.917   5.801  1.2338 -0.1717 -0.5973
 1987SOL     OW17596   1.928   1.208   5.195 -0.5279 -0.0351 -0.1803
 1987SOL    HW117597   1.926   1.272   5.124  0.8509  1.6548  1.3041
 1987SOL    HW217598   2.019   1.197   5.221  0.0700  0.7302 -1.9417
 1988SOL     OW17599   0.519   0.556   3.901 -0.6760 -0.4773  0.4904
 1988SOL    HW117600   0.454   0.568   3.970 -0.3883  2.2291  0.2674
 1988SOL    HW217601   0.582   0.504   3.949 -0.3364 -1.1138 -0.6365
 1989SOL     OW17602   1.585   1.498   4.382  0.1662  0.2508 -0.0653
 1989SOL    HW117603   1.668   1.545   4.375  0.4807 -0.1627  0.9027
 1989SOL    HW217604   1.573   1.485   4.288 -2.4190  2.4211 -0.0445
 1990SOL     OW17605   0.599   2.629   5.909  0.3202 -0.1004  0.1577
 1990SOL    HW117606   0.690   2.656   5.900  0.3221 -0.5947 -1.3597
 1990SOL    HW217607   0.574   2.646   6.000  0.5875  1.0581  0.0107
 1991SOL     OW17608   3.193   3.466   5.777 -0.0342  0.1126  0.5452
 1991SOL    HW117609   3.159   3.513   5.701  2.2441 -0.5529 -0.8839
 1991SOL    HW217610   3.191   3.532   5.846 -0.4084  0.4712  0.1885
 1992SOL     OW17611   3.834   1.650   3.794 -0.1231  0.0997 -0.3535
 1992SOL    HW117612   3.806   1.672   3.706 -0.9121 -1.0141 -0.3843
 1992SOL    HW217613   3.745   1.623   3.818  0.6942  0.4333  3.0833
 1993SOL     OW17614   2.786   3.165   5.554  0.0906  0.4368 -0.2225
 1993SOL    HW117615   2.744   3.168   5.640  0.9920 -1.6025  0.3058
 1993SOL    HW217616   2.709   3.183   5.501 -0.5313 -3.3447 -0.6044
 1994SOL     OW17617   0.587   3.847   4.748 -0.3495 -0.9612  0.3874
 1994SOL    HW117618   0.526   3.902   4.699  1.2931 -1.9871 -2.7600
 1994SOL    HW217619   0.628   3.901   4.816  0.7578  0.3543 -1.3164
 1995SOL     OW17620   4.137   4.476   3.294 -0.1081 -0.0606  0.3481
 1995SOL    HW117621   4.131   4.569   3.314  2.1225  0.1202  0.1411
 1995SOL    HW217622   4.046   4.450   3.311 -0.4379  0.8212 -0.0620
 1996SOL     OW17623   1.949   2.054   6.377 -0.3766 -0.2333  0.1779
 1996SOL    HW117624   1.945   1.959   6.375 -0.9429 -0.1932 -0.9893
 1996SOL    HW217625   1.883   2.086   6.315  0.9808  0.8241 -0.7505
 1997SOL     OW17626   2.498   4.557  13.504 -0.7011  0.0217 -0.4582
 1997SOL    HW117627   2.466   4.480  13.551  0.8398  0.4883  1.4025
 1997SOL    HW217628   2.591   4.560  13.529 -0.9818  0.4667  0.5287
 1998SOL     OW17629   0.166   2.507   3.608  0.5222 -0.1246  0.3721
 1998SOL    HW117630   0.219   2.579   3.641 -0.0645  1.6476 -2.5066
 1998SOL    HW217631   0.084   2.555   3.614 -0.3930 -1.3520 -2.1466
 1999SOL     OW17632   1.191   0.539  13.888  0.1949  0.0609 -0.2695
 1999SOL    HW117633   1.204   0.447  13.910 -2.0498 -0.1333  0.1957
 1999SOL    HW217634   1.104   0.549  13.926 -0.2971  2.2651 -2.0070
 2000SOL     OW17635   1.393   2.241  14.259 -0.0023  0.7250  0.5417
 2000SOL    HW117636   1.344   2.226  14.340 -0.4211  0.3500  0.2198
 2000SOL    HW217637   1.467   2.301  14.269 -0.8842  1.3919  3.2098
 2001SOL     OW17638   2.575   2.040   3.058 -0.2940 -0.1955  0.0837
 2001SOL    HW117639   2.625   1.976   3.007  1.4525  0.9774  0.2892
 2001SOL    HW217640   2.552   1.981   3.130  0.5257 -1.7288 -0.9059
 2002SOL     OW17641   1.803   3.989   0.813 -0.1567  0.1587  0.1532
 2002SOL    HW117642   1.770   4.079   0.814 -1.3470 -0.2658 -3.0450
 2002SOL    HW217643   1.883   4.006   0.763 -1.4832  2.4356 -1.1779
 2003SOL     OW17644   0.391   3.448   1.149 -0.0209  0.0248  0.5367
 2003SOL    HW117645   0.446   3.486   1.218  2.4260 -0.1241 -1.3235
 2003SOL    HW217646   0.372   3.528   1.101 -1.7216  0.7925  2.5182
 2004SOL     OW17647   0.455   1.399   5.190  0.4575 -0.7327 -0.5954
 2004SOL    HW117648   0.466   1.474   5.248  1.2061  0.0427 -1.7408
 2004SOL    HW217649   0.412   1.334   5.246 -0.6842 -1.1126 -1.9113
 2005SOL     OW17650   0.743   3.954  11.269 -0.1263 -0.6410  0.0136
 2005SOL    HW117651   0.703   3.913  11.345  0.0871 -2.0044 -0.6100
 2005SOL    HW217652   0.677   3.943  11.200 -1.9949 -1.5651  1.9586
 2006SOL     OW17653   2.960   3.717   5.896  0.1062  0.1135 -0.4137
 2006SOL    HW117654   3.055   3.710   5.883  0.0396  2.9348 -2.2878
 2006SOL    HW217655   2.934   3.765   5.817  2.5169  1.7215 -0.2268
 2007SOL     OW17656   0.786   4.056  15.803  0.1128  0.1625 -0.2922
 2007SOL    HW117657   0.817   4.124  15.863 -0.3360 -0.8154  1.0597
 2007SOL    HW217658   0.699   4.092  15.791 -0.2947 -0.7557 -0.1464
 2008SOL     OW17659   4.174   2.791   7.915 -0.4426  0.3230  0.4266
 2008SOL    HW117660   4.178   2.886   7.912 -0.8049  0.2692 -2.7359
 2008SOL    HW217661   4.111   2.778   7.985 -0.4877  1.1737  0.5411
 2009SOL     OW17662   4.575   4.377   4.163  0.0270 -0.2177  0.0509
 2009SOL    HW117663   4.642   4.313   4.139  0.6505  1.4071 -2.4466
 2009SOL    HW217664   4.605   4.455   4.117  0.9257 -0.3165  0.4804
 2010SOL     OW17665   4.583   4.528   6.342  0.5515  0.2502  0.2696
 2010SOL    HW117666   4.530   4.586   6.396 -0.8521 -1.1890  0.4286
 2010SOL    HW217667   4.638   4.495   6.413  0.2102 -2.4326 -0.6967
 2011SOL     OW17668   2.947   0.343   4.816  0.3850  0.0689 -0.4289
 2011SOL    HW117669   3.018   0.406   4.804  1.3471 -0.3895  2.9845
 2011SOL    HW217670   2.912   0.340   4.727 -0.1914  1.4706 -0.2536
 2012SOL     OW17671   4.677   2.485  12.817 -0.5415  0.4029  0.0554
 2012SOL    HW117672   4.702   2.553  12.755 -1.8819  0.5846 -0.2946
 2012SOL    HW217673   4.584   2.494  12.795 -1.0245  0.8809  2.3418
 2013SOL     OW17674   1.410   1.313   7.490  0.3669 -0.2073  0.4337
 2013SOL    HW117675   1.478   1.365   7.448 -0.2099 -0.4493 -0.8053
 2013SOL    HW217676   1.353   1.278   7.422 -1.4525 -1.4000  2.5475
 2014SOL     OW17677   1.570   2.967   1.354 -0.3664 -0.6297  0.0433
 2014SOL    HW117678   1.479   2.944   1.337  0.0507 -0.6700 -2.0322
 2014SOL    HW217679   1.604   2.928   1.274  1.8158 -1.1894  1.2532
 2015SOL     OW17680   3.001   3.920   8.691  0.3345  0.1680  0.4154
 2015SOL    HW117681   3.004   3.928   8.786  0.1676  2.3119  0.2442
 2015SOL    HW217682   2.907   3.923   8.674  0.1799  1.0655  1.4165
 2016SOL     OW17683   0.880   2.141  14.647 -0.5279 -0.4668  0.0500
 2016SOL    HW117684   0.950   2.160  14.709 -0.3239 -1.5957  0.1656
 2016SOL    HW217685   0.854   2.228  14.619 -0.9957 -0.2971  0.9929
 2017SOL     OW17686   4.056   2.310  14.894 -0.1257 -0.8620 -0.2235
 2017SOL    HW117687   4.032   2.396  14.929  2.7659  0.3281 -1.1643
 2017SOL    HW217688   4.055   2.322  14.799  1.1811 -1.2942 -0.2938
 2018SOL     OW17689   4.513   1.045   7.804  0.2410 -0.2378 -0.1904
 2018SOL    HW117690   4.502   1.046   7.709 -3.1691  2.4665  0.2475
 2018SOL    HW217691   4.432   1.008   7.837 -0.5544 -1.5367 -3.6848
 2019SOL     OW17692   2.464   4.415  11.299  0.3497  0.1336  0.4677
 2019SOL    HW117693   2.536   4.418  11.361  0.2230  0.2258  0.6112
 2019SOL    HW217694   2.409   4.344  11.333  1.9313 -1.5127 -0.4249
 2020SOL     OW17695   1.336   0.960  15.467  0.7318 -0.0604  0.4086
 2020SOL    HW117696   1.421   0.954  15.423  0.9315 -0.0252  0.7863
 2020SOL    HW217697   1.332   0.869  15.497 -0.1942  0.3553  1.5318
 2021SOL     OW17698   3.062   0.992   5.390 -0.0117  0.6614 -0.2876
 2021SOL    HW117699   3.099   1.069   5.432 -1.0660  1.6598 -1.1946
 2021SOL    HW217700   2.983   0.981   5.443  0.8916  0.3102  0.9916
 2022SOL     OW17701   3.267   0.490  14.683 -0.4490  0.1341 -0.0332
 2022SOL    HW117702   3.245   0.506  14.591 -2.3533 -1.0036  0.2212
 2022SOL    HW217703   3.285   0.396  14.691 -0.7927 -0.0892 -1.8704
 2023SOL     OW17704   2.458   4.182   2.013 -0.2504  0.6574 -0.1592
 2023SOL    HW117705   2.495   4.189   2.101  1.6045  0.2594 -0.9001
 2023SOL    HW217706   2.467   4.086   2.009 -0.7713  0.5426  1.7021
 2024SOL     OW17707   0.865   2.787   4.881  0.0917 -0.2858 -0.3958
 2024SOL    HW117708   0.835   2.870   4.918  0.1086  0.7727 -2.7664
 2024SOL    HW217709   0.789   2.729   4.890  1.2030 -1.5352  0.9193
 2025SOL     OW17710   1.848   0.421  16.122 -0.0799 -0.7904 -0.2483
 2025SOL    HW117711   1.803   0.458  16.198 -0.7032  0.2183 -1.1011
 2025SOL    HW217712   1.793   0.465  16.056 -0.4642 -2.0930 -0.8067
 2026SOL     OW17713   2.539   1.472   2.471 -0.2539  0.3621 -0.0963
 2026SOL    HW117714   2.459   1.428   2.501 -0.3948  1.3544  0.9857
 2026SOL    HW217715   2.557   1.419   2.393 -0.0279 -0.9675  0.8459
 2027SOL     OW17716   0.866   2.033  11.722 -0.1370  0.8567  0.7752
 2027SOL    HW117717   0.950   2.078  11.726 -0.0802  0.4972  3.9565
 2027SOL    HW217718   0.824   2.072  11.646  1.3942 -2.3158 -1.7138
 2028SOL     OW17719   1.828   1.274   3.380  0.0129  0.0295 -0.4494
 2028SOL    HW117720   1.828   1.343   3.313  0.5630  0.4356 -0.0320
 2028SOL    HW217721   1.814   1.198   3.323 -3.0460 -0.5080  1.0330
 2029SOL     OW17722   4.299   4.084   2.094 -0.0200 -0.9692  0.4605
 2029SOL    HW117723   4.257   4.096   2.179 -0.5911  0.6115 -0.0379
 2029SOL    HW217724   4.214   4.091   2.049  1.5825  2.0758 -2.0832
 2030SOL     OW17725   0.338   0.574  15.710 -0.1480  0.1765  0.3552
 2030SOL    HW117726   0.336   0.642  15.778 -2.8063 -0.7108  1.1585
 2030SOL    HW217727   0.433   0.565  15.699  0.0710 -0.4813  2.6304
 2031SOL     OW17728   2.363   4.389   8.162 -0.0493  0.7451 -0.3178
 2031SOL    HW117729   2.449   4.402   8.124 -0.3787 -0.8874 -1.6053
 2031SOL    HW217730   2.380   4.420   8.251 -0.0630  0.1196 -0.1030
 2032SOL     OW17731   0.657   1.633   1.893 -0.1659 -0.1734  0.0110
 2032SOL    HW117732   0.667   1.727   1.879  0.0311  0.2244  2.9093
 2032SOL    HW217733   0.619   1.629   1.981 -1.6233 -1.2408 -0.6686
 2033SOL     OW17734   3.407   1.627   5.489  0.2218 -0.3500  0.4221
 2033SOL    HW117735   3.475   1.584   5.438  0.2162  1.1113 -0.8107
 2033SOL    HW217736   3.353   1.549   5.501  1.1568 -0.8318  1.5091
 2034SOL     OW17737   2.837   2.591   3.033  0.4439  0.3888  0.5019
 2034SOL    HW117738   2.762   2.560   2.984  0.8688  2.1042 -1.2425
 2034SOL    HW217739   2.844   2.679   2.996 -1.6887  1.1378  1.8662
 2035SOL     OW17740   3.925   3.794   3.817  0.4517 -0.2340 -0.3837
 2035SOL    HW117741   3.975   3.771   3.895 -0.0130 -1.0741 -0.3420
 2035SOL    HW217742   3.987   3.774   3.747 -1.1576 -2.4553 -1.1798
 2036SOL     OW17743   0.236   0.276   7.266  0.3223  0.5528  0.0334
 2036SOL    HW117744   0.277   0.204   7.314  0.2942  0.1344 -0.5640
 2036SOL    HW217745   0.174   0.318   7.325  0.8227  0.7567  0.4136
 2037SOL     OW17746   1.730   2.420   6.579 -0.0144 -0.4585 -0.1336
 2037SOL    HW117747   1.687   2.439   6.496  0.7254  1.0466 -0.1807
 2037SOL    HW217748   1.803   2.482   6.575 -0.0352 -0.5021 -1.0733
 2038SOL     OW17749   1.623   4.717   4.876 -0.3419 -0.5520  0.1155
 2038SOL    HW117750   1.678   4.727   4.798 -1.0072  1.3745 -0.0914
 2038SOL    HW217751   1.556   4.658   4.841 -0.1405 -1.2303  0.8772
 2039SOL     OW17752   1.245   3.977  17.600 -0.6755 -0.6720  0.5898
 2039SOL    HW117753   1.316   3.971  17.536 -0.1219  0.1784  1.1049
 2039SOL    HW217754   1.212   3.888  17.612  0.4113 -1.1172  0.3003
 2040SOL     OW17755   0.544   2.012   2.364 -0.1702  0.0382  0.0709
 2040SOL    HW117756   0.564   2.091   2.313  3.6295 -0.3927  0.8658
 2040SOL    HW217757   0.525   2.057   2.446 -0.8971 -0.5037  0.2011
 2041SOL     OW17758   1.216   4.083  14.670 -0.2416 -0.5296 -0.0198
 2041SOL    HW117759   1.130   4.077  14.628 -1.1806  0.1733  1.8049
 2041SOL    HW217760   1.233   3.995  14.704 -0.2759  0.3773  2.2805
 2042SOL     OW17761   3.266   2.286   1.722  0.0987 -0.0015 -0.1745
 2042SOL    HW117762   3.359   2.310   1.719 -0.1165  0.8535  0.0304
 2042SOL    HW217763   3.260   2.194   1.748  0.3044 -0.0250 -0.2127
 2043SOL     OW17764   3.595   2.938  15.949 -0.0656  0.0218  0.2523
 2043SOL    HW117765   3.512   2.908  15.910 -0.9673  0.9889  1.4370
 2043SOL    HW217766   3.590   3.028  15.918 -0.1582 -1.1734 -3.1813
 2044SOL     OW17767   3.018   0.108   5.570 -0.0752  0.0150  0.3369
 2044SOL    HW117768   3.045   0.128   5.480  2.2030 -2.3029  0.5387
 2044SOL    HW217769   2.929   0.075   5.555 -0.8935  1.9169  0.9779
 2045SOL     OW17770   4.020   2.782  17.267  0.2242 -0.3709 -0.8846
 2045SOL    HW117771   4.107   2.811  17.296 -0.9778  2.4293 -0.0976
 2045SOL    HW217772   3.988   2.853  17.211 -2.1496 -2.0596 -1.6656
 2046SOL     OW17773   0.405   1.021   9.560 -0.0256 -0.4486 -0.0130
 2046SOL    HW117774   0.384   1.113   9.570 -0.8391 -0.4871 -1.3281
 2046SOL    HW217775   0.433   1.015   9.468  1.1808  0.2173  0.3181
 2047SOL     OW17776   3.265   4.609   7.574  0.4713  0.1795  0.5335
 2047SOL    HW117777   3.193   4.632   7.514  1.5350  1.5302 -0.2201
 2047SOL    HW217778   3.237   4.522   7.602 -0.7385  0.1627 -0.6957
 2048SOL     OW17779   1.361   2.271   2.241 -0.0602  0.2145  0.6610
 2048SOL    HW117780   1.427   2.311   2.297  0.1352  1.1859 -0.2627
 2048SOL    HW217781   1.325   2.351   2.202  0.2817  0.8793  1.7290
 2049SOL     OW17782   0.676   3.262   8.036  0.2951 -0.3314 -0.1950
 2049SOL    HW117783   0.667   3.173   8.000  1.6826 -0.2972 -0.6291
 2049SOL    HW217784   0.587   3.294   8.020  1.0039  0.8391 -1.7639
 2050SOL     OW17785   3.059   3.074   3.706  0.3841  0.1737 -0.3851
 2050SOL    HW117786   3.051   2.983   3.732  0.4007  0.3907  0.4044
 2050SOL    HW217787   2.985   3.102   3.761  1.1901  1.1693  0.2011
 2051SOL     OW17788   2.162   1.886   7.267 -0.0795 -0.3328 -0.5273
 2051SOL    HW117789   2.075   1.912   7.297 -0.2599 -0.7659 -0.6789
 2051SOL    HW217790   2.196   1.830   7.338 -0.8413  0.1364  0.2063
 2052SOL     OW17791   0.733   1.458  14.820  0.1398  0.5884  0.0778
 2052SOL    HW117792   0.797   1.400  14.778  1.5607  2.4078 -0.2416
 2052SOL    HW217793   0.764   1.426  14.904 -0.0699  1.2701  0.4166
 2053SOL     OW17794   0.961   2.983   9.313  0.3193  0.5285  0.2154
 2053SOL    HW117795   1.051   2.956   9.329 -0.1740 -1.2782 -0.0981
 2053SOL    HW217796   0.931   3.000   9.403  2.5499 -0.9124  1.2237
 2054SOL     OW17797   0.540   1.479  10.266  0.8902 -0.4819  0.6583
 2054SOL    HW117798   0.486   1.526  10.202  2.8568  0.8796  0.0237
 2054SOL    HW217799   0.612   1.447  10.212 -2.0078 -3.1926 -1.6040
 2055SOL     OW17800   4.051   1.362   3.740 -0.2871  0.0798 -0.0442
 2055SOL    HW117801   4.097   1.301   3.683 -1.6376 -0.1648 -0.8679
 2055SOL    HW217802   4.069   1.322   3.826 -1.2303  1.8875  0.9994
 2056SOL     OW17803   2.283   1.163   8.032  0.1108 -0.0180  0.5689
 2056SOL    HW117804   2.350   1.211   7.984 -0.9769  0.5026 -0.4173
 2056SOL    HW217805   2.208   1.221   8.017  0.6396  0.7062  0.7485
 2057SOL     OW17806   2.446   0.114   6.402  0.7183  0.3635  0.2770
 2057SOL    HW117807   2.469   0.181   6.338 -0.5870  0.8295  0.3027
 2057SOL    HW217808   2.535   0.092   6.431  0.6029 -0.3964  0.0633
 2058SOL     OW17809   4.635   4.649   2.875 -0.0211 -0.1502  0.2794
 2058SOL    HW117810   4.730   4.637   2.884  0.3682 -0.5192 -4.2222
 2058SOL    HW217811   4.613   4.588   2.805 -0.0574 -0.2358  0.3650
 2059SOL     OW17812   3.681   2.966  15.423 -0.1014  0.8578  0.3248
 2059SOL    HW117813   3.681   3.021  15.502 -0.2832 -0.3798  1.1847
 2059SOL    HW217814   3.666   3.026  15.350 -0.2213 -2.3905 -2.3127
 2060SOL     OW17815   2.463   3.956   4.104  0.4020  0.1273  0.1316
 2060SOL    HW117816   2.472   3.954   4.009 -2.2242 -1.0398 -0.0712
 2060SOL    HW217817   2.542   3.908   4.130 -2.3441 -2.1059  4.2891
 2061SOL     OW17818   3.555   0.791  17.580  0.3278  0.4653 -0.8341
 2061SOL    HW117819   3.510   0.869  17.547 -1.0578  0.2416  0.5394
 2061SOL    HW217820   3.595   0.754  17.502  1.1516 -1.2972  0.4109
 2062SOL     OW17821   0.932   1.968   3.202  0.3552  0.1364 -0.3405
 2062SOL    HW117822   0.885   1.982   3.284  1.7418  0.4189  0.4105
 2062SOL    HW217823   0.902   1.880   3.181 -1.5352  0.3495  1.4247
 2063SOL     OW17824   1.412   2.286   5.602  0.2778 -0.0549  0.1060
 2063SOL    HW117825   1.505   2.298   5.584  0.1268  0.0136 -0.6306
 2063SOL    HW217826   1.373   2.358   5.553 -1.4364 -0.5289  0.7546
 2064SOL     OW17827   3.947   3.797   3.191 -0.5408 -0.2491  0.3672
 2064SOL    HW117828   3.868   3.755   3.156 -0.2820 -0.6785  0.3051
 2064SOL    HW217829   3.985   3.720   3.233  0.6173  0.5154  0.7160
 2065SOL     OW17830   3.457   4.715   7.770  0.0895  0.6554 -0.0311
 2065SOL    HW117831   3.531   4.656   7.753 -1.0865 -1.0515  0.8347
 2065SOL    HW217832   3.381   4.668   7.736  0.0648 -0.3063  1.3864
 2066SOL     OW17833   1.630   2.566   7.870 -0.1522 -0.2259  0.2687
 2066SOL    HW117834   1.693   2.541   7.938  0.5361  0.3401 -0.1563
 2066SOL    HW217835   1.690   2.609   7.809  0.6613 -1.6959  0.0167
 2067SOL     OW17836   1.977   2.950   5.357 -0.2018  0.2080  0.4281
 2067SOL    HW117837   2.009   2.987   5.439  3.9335 -0.6946 -0.8105
 2067SOL    HW217838   1.968   2.857   5.380 -0.9760 -0.0488 -0.8919
 2068SOL     OW17839   0.229   0.558   3.545 -0.2194  0.8936  0.7752
 2068SOL    HW117840   0.286   0.494   3.502 -1.9228 -0.0089 -0.1585
 2068SOL    HW217841   0.294   0.607   3.595  1.3970 -0.9407  0.4426
 2069SOL     OW17842   0.442   0.300   0.072 -0.4853  0.6672 -0.1746
 2069SOL    HW117843   0.456   0.337  17.733  1.6018  2.0295  0.7694
 2069SOL    HW217844   0.346   0.300   0.078 -0.4627  1.3687  0.1962
 2070SOL     OW17845   1.165   1.652   6.991  0.3053 -0.3933 -0.3897
 2070SOL    HW117846   1.219   1.573   6.987  2.7800  1.2543  0.5198
 2070SOL    HW217847   1.120   1.644   6.907  0.2192  1.3038 -0.4978
 2071SOL     OW17848   1.159   2.986   4.772 -0.3897 -0.4029  0.2442
 2071SOL    HW117849   1.215   2.980   4.694  0.5288  1.6278  0.7589
 2071SOL    HW217850   1.192   2.904   4.809  0.2447 -0.4492 -0.4163
 2072SOL     OW17851   3.899   4.590  12.614  0.2273 -0.3953  0.2440
 2072SOL    HW117852   3.815   4.546  12.604 -0.2296  0.5497 -0.0638
 2072SOL    HW217853   3.889   4.635  12.698 -0.8519  1.7231 -1.0051
 2073SOL     OW17854   2.698   2.421   5.899 -0.1775 -0.4401  0.1640
 2073SOL    HW117855   2.675   2.473   5.821  3.0812  2.6465  1.2485
 2073SOL    HW217856   2.789   2.409   5.872  0.4241  0.0679  1.9553
 2074SOL     OW17857   3.754   0.872  10.849 -0.3501 -0.1127 -0.6017
 2074SOL    HW117858   3.701   0.951  10.838 -0.0421 -0.1281 -2.1130
 2074SOL    HW217859   3.827   0.907  10.899  0.3674 -0.4270 -1.4340
 2075SOL     OW17860   3.964   1.363  15.885 -0.4079 -0.5792 -0.6485
 2075SOL    HW117861   4.006   1.282  15.855  0.1867  0.3335 -2.2700
 2075SOL    HW217862   3.997   1.368  15.974 -0.9844 -2.4733 -0.3221
 2076SOL     OW17863   1.933   1.334  11.394  0.2309 -0.3801  0.1320
 2076SOL    HW117864   1.936   1.290  11.309 -2.2121 -0.9737  0.3452
 2076SOL    HW217865   1.839   1.351  11.398  0.4169  0.7490 -0.4557
 2077SOL     OW17866   1.886   2.740   5.702  0.7298  0.2039 -0.4021
 2077SOL    HW117867   1.935   2.667   5.737 -1.8191 -1.7532 -0.8704
 2077SOL    HW217868   1.922   2.808   5.758  0.5147 -0.9438  1.1320
 2078SOL     OW17869   0.932   0.745  11.513  0.1862  0.7383  0.5602
 2078SOL    HW117870   0.900   0.783  11.431 -2.3484 -0.9949  0.7456
 2078SOL    HW217871   1.008   0.701  11.474  1.7879  1.9934  2.2366
 2079SOL     OW17872   1.231   1.317   5.914 -0.0652 -0.0765 -0.4268
 2079SOL    HW117873   1.247   1.355   5.828 -2.1833 -2.2359 -1.7467
 2079SOL    HW217874   1.163   1.376   5.946  0.2432 -0.8026  1.5960
 2080SOL     OW17875   2.518   1.936  15.093  0.0813  0.2537 -0.2600
 2080SOL    HW117876   2.604   1.961  15.057  0.5983 -2.5838 -0.9493
 2080SOL    HW217877   2.472   2.015  15.064  1.3626  0.3006 -2.1673
 2081SOL     OW17878   0.191   0.475   2.735  0.8079  0.4451 -0.4986
 2081SOL    HW117879   0.112   0.424   2.751  0.2198  0.6384 -2.8226
 2081SOL    HW217880   0.253   0.405   2.717  1.9061  0.9680  1.2029
 2082SOL     OW17881   3.965   2.285   2.352  0.2574  0.7532  0.0726
 2082SOL    HW117882   3.998   2.266   2.265  0.4321  0.2282  0.2548
 2082SOL    HW217883   4.041   2.326   2.395 -1.2849  1.2043  2.4067
 2083SOL     OW17884   4.485   2.847   2.257 -0.0610 -0.6556  0.0724
 2083SOL    HW117885   4.421   2.887   2.199 -0.6886 -3.0830 -0.8803
 2083SOL    HW217886   4.516   2.768   2.214 -2.3528 -0.7084 -1.4441
 2084SOL     OW17887   2.157   1.840  14.359  0.4533 -0.2395 -0.7016
 2084SOL    HW117888   2.150   1.805  14.271 -0.4420  2.2867 -1.6530
 2084SOL    HW217889   2.111   1.773  14.410 -3.5099  2.7227 -0.3553
 2085SOL     OW17890   0.986   3.409   2.538 -0.4862 -0.6594 -0.1180
 2085SOL    HW117891   1.074   3.402   2.574 -0.3823  1.4722  0.0391
 2085SOL    HW217892   0.997   3.357   2.459 -0.5236  1.2682 -1.3918
 2086SOL     OW17893   4.114   1.163   7.060 -0.5536 -0.5160  0.4564
 2086SOL    HW117894   4.100   1.203   7.146  0.6684  0.7061  0.0774
 2086SOL    HW217895   4.144   1.074   7.078 -1.2507 -0.6283  1.0703
 2087SOL     OW17896   2.488   1.429   3.829  0.1605  0.1297 -0.0156
 2087SOL    HW117897   2.535   1.468   3.903 -1.4856  0.8716  0.6256
 2087SOL    HW217898   2.561   1.381   3.789 -0.4055 -0.3919 -0.4313
 2088SOL     OW17899   4.678   0.115  11.322 -0.6620  0.2583  0.0919
 2088SOL    HW117900   0.002   0.079  11.257  2.5392  2.2292  2.0373
 2088SOL    HW217901   4.592   0.081  11.296  0.2205 -1.7148 -0.2836
 2089SOL     OW17902   1.837   3.557   5.955  0.1530  0.0704  0.4155
 2089SOL    HW117903   1.815   3.524   5.868 -3.8899  0.1259  1.4157
 2089SOL    HW217904   1.929   3.583   5.945  0.2986  0.3647  2.5693
 2090SOL     OW17905   3.387   3.725   3.928  0.0638 -0.2077 -0.0188
 2090SOL    HW117906   3.445   3.761   3.862  1.0888 -0.7419  0.5912
 2090SOL    HW217907   3.304   3.757   3.891  0.3470  1.9474  1.2074
 2091SOL     OW17908   4.170   1.629   2.015  0.1229 -0.1315 -0.2411
 2091SOL    HW117909   4.100   1.661   1.958 -0.2462  0.3901  0.5005
 2091SOL    HW217910   4.138   1.672   2.095 -0.0716  0.7079 -0.7768
 2092SOL     OW17911   1.164   0.157  11.380 -0.1848 -0.3927  0.3247
 2092SOL    HW117912   1.164   0.063  11.360 -0.5941 -0.4790  0.7351
 2092SOL    HW217913   1.070   0.171  11.394 -0.1238 -1.7334  1.9974
 2093SOL     OW17914   4.686   0.811   3.793 -0.1458 -0.3731  0.0640
 2093SOL    HW117915   4.672   0.903   3.814 -0.6914 -0.5557  0.5165
 2093SOL    HW217916   0.015   0.787   3.858 -0.9845  0.7618  1.3386
 2094SOL     OW17917   0.318   0.776   7.823  0.6931  0.4578  0.6676
 2094SOL    HW117918   0.236   0.727   7.834  0.3637  0.8112 -0.2832
 2094SOL    HW217919   0.304   0.835   7.749 -1.3885 -0.8665  0.0182
 2095SOL     OW17920   2.703   3.523   5.927  0.0485 -0.1808  0.4127
 2095SOL    HW117921   2.655   3.602   5.953  1.7969  1.0390 -0.0438
 2095SOL    HW217922   2.777   3.569   5.887  0.2178  1.4041  2.5412
 2096SOL     OW17923   3.574   0.129   4.270 -0.3632  0.5589 -0.1039
 2096SOL    HW117924   3.541   0.081   4.346 -2.0670  0.2061 -1.0716
 2096SOL    HW217925   3.662   0.155   4.299  0.1147 -1.1416 -0.0387
 2097SOL     OW17926   4.430   3.274   7.861 -0.2124  0.1750  0.1976
 2097SOL    HW117927   4.423   3.256   7.768  2.2913 -1.1774  0.2767
 2097SOL    HW217928   4.344   3.311   7.880 -1.6339 -2.7322 -0.6224
 2098SOL     OW17929   2.328   3.884  15.081 -0.4996 -0.0466 -0.2293
 2098SOL    HW117930   2.336   3.793  15.109 -0.4437  0.0918  0.1942
 2098SOL    HW217931   2.251   3.887  15.023  0.6572 -0.9176 -1.8218
 2099SOL     OW17932   2.275   1.815   1.534 -0.0147  0.3249 -0.4198
 2099SOL    HW117933   2.221   1.807   1.455  0.8867  1.9180 -1.2021
 2099SOL    HW217934   2.272   1.729   1.576  1.0846  1.1725  1.3746
 2100SOL     OW17935   2.962   1.260  11.836 -0.0070 -0.7243  0.1223
 2100SOL    HW117936   2.872   1.291  11.824  0.0716 -0.6041 -0.1843
 2100SOL    HW217937   3.007   1.334  11.794 -2.0083 -0.4093 -1.4914
 2101SOL     OW17938   1.652   2.729   7.140  0.3288 -0.4565  0.3573
 2101SOL    HW117939   1.643   2.687   7.054  0.2832  0.4247 -0.0673
 2101SOL    HW217940   1.623   2.817   7.114 -3.2282 -1.4033  1.2116
 2102SOL     OW17941   2.876   2.970   4.510 -0.3663 -0.4431  0.1561
 2102SOL    HW117942   2.826   2.925   4.579  1.3128 -0.2573  1.5108
 2102SOL    HW217943   2.851   3.060   4.529  1.1481 -0.5468  2.6710
 2103SOL     OW17944   3.019   1.432   3.393  0.3325  0.2856 -0.1262
 2103SOL    HW117945   3.101   1.388   3.368  0.6983  1.6176 -1.3001
 2103SOL    HW217946   3.047   1.520   3.367  0.8633  0.8745  2.4340
 2104SOL     OW17947   1.844   1.597   9.994 -0.2929 -0.0685 -0.0380
 2104SOL    HW117948   1.923   1.587  10.048  0.4990  2.0597 -0.7995
 2104SOL    HW217949   1.805   1.510   9.998 -0.1880 -0.2791 -4.0239
 2105SOL     OW17950   0.700   1.520   5.870  0.3558  0.2202  0.3311
 2105SOL    HW117951   0.755   1.474   5.806 -1.9228 -1.9747 -0.0513
 2105SOL    HW217952   0.756   1.530   5.947 -1.1413  1.7911  1.2240
 2106SOL     OW17953   3.742   1.750   6.099 -0.0059 -0.6602  0.2175
 2106SOL    HW117954   3.720   1.701   6.019  0.5363 -0.7821  0.1426
 2106SOL    HW217955   3.763   1.674   6.154  0.1652 -2.3736 -2.1927
 2107SOL     OW17956   1.888   1.854   7.913 -0.8303 -0.3425 -0.1594
 2107SOL    HW117957   1.901   1.765   7.882 -1.5837  0.0207 -1.5030
 2107SOL    HW217958   1.911   1.901   7.833 -0.2420 -0.6005 -0.1386
 2108SOL     OW17959   4.527   0.647   8.097 -0.6103 -0.1500 -0.1308
 2108SOL    HW117960   4.509   0.625   8.005 -0.3445 -0.7900 -0.0359
 2108SOL    HW217961   4.441   0.666   8.134 -0.2251  0.2210  0.5564
 2109SOL     OW17962   0.013   2.247   4.780 -0.3158  0.5476  0.5338
 2109SOL    HW117963   4.692   2.242   4.704  0.5623  0.6750 -0.1366
 2109SOL    HW217964   4.723   2.170   4.831  0.2974 -0.3874 -0.5360
 2110SOL     OW17965   3.063   0.263  16.125 -0.4021 -0.1040  0.4286
 2110SOL    HW117966   3.097   0.174  16.136 -1.1096 -0.7074 -2.1095
 2110SOL    HW217967   3.089   0.278  16.034 -0.1285 -2.4556  0.1070
 2111SOL     OW17968   2.100   1.419   6.691  0.0605  0.8680 -0.0302
 2111SOL    HW117969   2.009   1.441   6.710 -0.1719 -0.4389  0.3787
 2111SOL    HW217970   2.094   1.338   6.640 -0.4183  1.7885 -1.4375
 2112SOL     OW17971   0.171   2.408   3.221 -0.0881 -0.1425  0.0048
 2112SOL    HW117972   0.168   2.316   3.193  0.9883 -0.6911  1.6959
 2112SOL    HW217973   0.215   2.444   3.144 -1.2512  2.3564  0.5320
 2113SOL     OW17974   0.679   1.983   4.137 -0.2979  0.4840  0.1364
 2113SOL    HW117975   0.751   2.037   4.102 -0.0838  0.2067  0.1464
 2113SOL    HW217976   0.722   1.898   4.149 -0.1067  0.5781  0.1280
 2114SOL     OW17977   4.136   1.231  16.914 -0.1560 -0.1850  0.1152
 2114SOL    HW117978   4.060   1.209  16.969 -1.3846  1.0416 -1.0778
 2114SOL    HW217979   4.142   1.142  16.879 -0.1612  0.3267 -1.2033
 2115SOL     OW17980   1.590   3.267  15.183 -0.2073  0.1053  0.3351
 2115SOL    HW117981   1.647   3.320  15.127  0.4379 -0.3815  0.5324
 2115SOL    HW217982   1.506   3.299  15.149  1.1575  0.9686 -2.2125
 2116SOL     OW17983   3.906   0.903  11.138 -0.2983 -0.0409  1.1160
 2116SOL    HW117984   3.938   0.949  11.216 -4.0565  5.3029 -0.4826
 2116SOL    HW217985   3.939   0.814  11.150 -1.7775 -0.5326  1.6474
 2117SOL     OW17986   0.859   2.307   2.880  0.7618  0.3025  0.3214
 2117SOL    HW117987   0.868   2.218   2.846 -0.1461 -0.4095  1.9747
 2117SOL    HW217988   0.856   2.286   2.973 -4.2191 -2.7242 -0.5017
 2118SOL     OW17989   1.192   3.134   3.540 -0.7912 -0.2660 -0.1042
 2118SOL    HW117990   1.217   3.078   3.613  0.0907  0.2180 -0.0294
 2118SOL    HW217991   1.254   3.208   3.542  0.7357 -1.5223 -0.8646
 2119SOL     OW17992   1.471   1.581   3.275  0.0686 -0.3185  0.0374
 2119SOL    HW117993   1.520   1.650   3.229 -1.4583  0.1909 -0.8187
 2119SOL    HW217994   1.415   1.623   3.341 -2.6112 -1.1035 -1.7291
 2120SOL     OW17995   3.744   3.540   7.491 -0.5195  0.7858  0.4437
 2120SOL    HW117996   3.818   3.579   7.445 -0.5830  0.6914  0.2575
 2120SOL    HW217997   3.701   3.608   7.543  1.0601  0.7732  1.7562
 2121SOL     OW17998   1.487   0.206  10.390  0.0784 -0.0521 -0.4148
 2121SOL    HW117999   1.429   0.282  10.386  0.5200  0.1784 -2.3677
 2121SOL    HW218000   1.473   0.175  10.479 -2.2779  0.9408 -0.4314
 2122SOL     OW18001   2.610   1.787   2.929 -0.2602 -0.3008  0.2115
 2122SOL    HW118002   2.554   1.714   2.900 -0.7959  0.6309 -1.0731
 2122SOL    HW218003   2.662   1.734   2.989  0.1472 -0.4337 -0.2658
 2123SOL     OW18004   3.199   0.243   6.520  0.0923 -0.2575  0.0114
 2123SOL    HW118005   3.136   0.302   6.480  1.0650  0.0106 -1.1291
 2123SOL    HW218006   3.158   0.158   6.508  0.0462 -0.0637 -1.1887
 2124SOL     OW18007   2.859   4.343   7.370  0.5349  0.4965 -0.2847
 2124SOL    HW118008   2.765   4.361   7.358  0.6560  1.5621  0.4038
 2124SOL    HW218009   2.866   4.253   7.338 -0.7194  0.1977  0.2658
 2125SOL     OW18010   0.523   4.186   4.211 -0.7645 -0.0270 -0.0267
 2125SOL    HW118011   0.580   4.261   4.195 -1.3354  0.5438  0.5801
 2125SOL    HW218012   0.588   4.121   4.239 -1.5629 -0.5282  0.6966
 2126SOL     OW18013   1.536   0.261   7.379 -0.3053  0.1564  0.7191
 2126SOL    HW118014   1.619   0.229   7.414 -0.5288 -1.4761 -0.2330
 2126SOL    HW218015   1.474   0.239   7.448  0.0265  0.9661  1.2669
 2127SOL     OW18016   2.161   4.572  13.133 -0.0224 -0.6649  0.0154
 2127SOL    HW118017   2.188   4.656  13.169 -1.3489 -1.0241  1.8579
 2127SOL    HW218018   2.071   4.573  13.164  0.0142  0.1067  0.0979
 2128SOL     OW18019   2.701   0.134  14.839 -0.1024 -0.2017  0.0391
 2128SOL    HW118020   2.764   0.206  14.843  0.9261 -1.1045  0.0298
 2128SOL    HW218021   2.759   0.059  14.851 -0.7984 -1.5252 -4.9424
 2129SOL     OW18022   2.267   1.956   3.615 -0.0678  0.7535 -0.6050
 2129SOL    HW118023   2.266   1.962   3.710  0.6345  1.2398 -0.6293
 2129SOL    HW218024   2.337   2.018   3.595 -2.0621  3.6618  1.2660
 2130SOL     OW18025   3.383   2.132  16.843 -0.0032  0.4454 -0.0388
 2130SOL    HW118026   3.304   2.079  16.848 -0.3060  1.0858  1.7259
 2130SOL    HW218027   3.430   2.078  16.778  0.8085  0.4057  0.5765
 2131SOL     OW18028   3.693   0.722   5.092  0.1514  0.0763 -0.1500
 2131SOL    HW118029   3.657   0.805   5.123  0.5207  0.5231 -0.9487
 2131SOL    HW218030   3.748   0.752   5.020 -0.8365 -1.0399 -1.3752
 2132SOL     OW18031   2.882   3.232   1.928 -0.4002 -0.1344 -0.4474
 2132SOL    HW118032   2.861   3.283   1.850  1.9180  0.0544 -0.9593
 2132SOL    HW218033   2.794   3.233   1.966  1.2917  1.9402  3.3893
 2133SOL     OW18034   4.548   0.754  11.660 -0.7605  0.5841  0.4372
 2133SOL    HW118035   4.580   0.664  11.651 -1.0791  0.3879  1.2561
 2133SOL    HW218036   4.526   0.781  11.571 -0.9060 -1.0359 -0.0202
 2134SOL     OW18037   2.017   0.942   9.236 -0.1668  0.0089 -0.2879
 2134SOL    HW118038   1.979   0.870   9.286 -0.1198 -0.8983 -1.5688
 2134SOL    HW218039   2.106   0.915   9.214  0.3303  1.5866 -0.2666
 2135SOL     OW18040   0.770   2.665  12.080 -0.1185 -0.2460 -0.5998
 2135SOL    HW118041   0.843   2.630  12.028  1.2897 -1.4121  2.1706
 2135SOL    HW218042   0.821   2.721  12.139  0.3900  0.0379 -1.3017
 2136SOL     OW18043   2.376   4.098   0.841  0.0658  0.0090  0.1647
 2136SOL    HW118044   2.370   4.170   0.904  0.7730  0.2304 -0.0156
 2136SOL    HW218045   2.420   4.032   0.894  0.0607  0.2879  0.5171
 2137SOL     OW18046   0.773   1.612  14.338  0.3940 -0.4629  0.2747
 2137SOL    HW118047   0.727   1.589  14.418 -0.3367  0.8236  0.2221
 2137SOL    HW218048   0.717   1.683  14.305  0.9786 -0.1544 -0.0718
 2138SOL     OW18049   4.113   3.282   6.902 -0.0158  0.0449 -0.1046
 2138SOL    HW118050   4.172   3.248   6.834 -0.4655 -0.1496 -0.4012
 2138SOL    HW218051   4.133   3.232   6.981 -0.6543  2.5693  1.6205
 2139SOL     OW18052   0.745   0.516   3.035  0.5605 -0.3991  0.5703
 2139SOL    HW118053   0.762   0.448   3.100 -0.5758 -0.9188  0.3226
 2139SOL    HW218054   0.834   0.552   3.038  0.6996 -0.6549 -0.7342
 2140SOL     OW18055   3.646   1.793   7.472 -0.0733 -0.1323  0.2568
 2140SOL    HW118056   3.716   1.857   7.459  1.6761 -1.9903  0.5109
 2140SOL    HW218057   3.698   1.722   7.434 -2.9734 -1.4625 -1.2553
 2141SOL     OW18058   0.317   2.188  16.883  0.7997 -0.0682  0.1445
 2141SOL    HW118059   0.248   2.253  16.898 -0.7240 -1.6460 -0.0141
 2141SOL    HW218060   0.383   2.234  16.832  2.1078 -2.4335 -0.2738
 2142SOL     OW18061   1.033   2.785   5.117  0.1054 -0.1868 -0.1027
 2142SOL    HW118062   1.051   2.692   5.129  2.1247  0.2060 -0.0420
 2142SOL    HW218063   0.960   2.778   5.056 -1.0413  2.3424  0.9877
 2143SOL     OW18064   0.982   2.174   8.654 -0.3678  0.8648  0.3254
 2143SOL    HW118065   1.045   2.102   8.649 -0.2057  1.0235  0.0747
 2143SOL    HW218066   1.005   2.225   8.576 -0.4458  0.4093  0.0084
 2144SOL     OW18067   3.475   1.796   6.887 -0.1723  0.2105 -0.0400
 2144SOL    HW118068   3.565   1.789   6.855  0.7867  0.7829  2.5154
 2144SOL    HW218069   3.490   1.825   6.977  0.1743 -2.8295  0.8728
 2145SOL     OW18070   1.190   0.056   5.381 -0.4246 -0.6637  0.3709
 2145SOL    HW118071   1.272   0.013   5.362  0.2537 -0.0296  1.8201
 2145SOL    HW218072   1.150   0.070   5.295 -0.9087  0.4064  0.7643
 2146SOL     OW18073   0.894   1.941  14.945 -0.0519 -0.0993  0.5778
 2146SOL    HW118074   0.933   2.017  14.900 -2.2412 -0.3117 -1.6513
 2146SOL    HW218075   0.936   1.958  15.030  1.7890 -0.7779 -0.1883
 2147SOL     OW18076   3.479   3.869   2.487 -0.3603  0.0150  0.4656
 2147SOL    HW118077   3.477   3.957   2.523  0.5324 -0.4805  1.7151
 2147SOL    HW218078   3.485   3.895   2.396 -0.2584  2.6809  1.2473
 2148SOL     OW18079   3.191   0.447   3.833 -0.5711  0.3543  0.3937
 2148SOL    HW118080   3.166   0.364   3.873 -0.4211  0.7958  1.3849
 2148SOL    HW218081   3.269   0.427   3.780  0.0315 -0.5099  1.6192
 2149SOL     OW18082   1.277   4.084   5.929 -0.2215 -0.4752 -0.3603
 2149SOL    HW118083   1.218   4.079   5.853 -0.3300  0.5894 -0.3505
 2149SOL    HW218084   1.279   4.180   5.937  0.0181 -0.4759 -0.3987
 2150SOL     OW18085   1.827   2.483   8.033 -0.1175  0.6475  0.2084
 2150SOL    HW118086   1.811   2.512   8.122  0.2234  0.3387  0.3692
 2150SOL    HW218087   1.905   2.428   8.045 -1.6002 -0.9958  2.3121
 2151SOL     OW18088   0.665   2.353   6.039  0.0055  0.4004 -0.1948
 2151SOL    HW118089   0.592   2.412   6.021  1.1181  1.8024 -0.0964
 2151SOL    HW218090   0.716   2.368   5.959  1.5282 -0.7872  0.5643
 2152SOL     OW18091   0.819   1.533   6.149 -0.1136  0.1807 -0.2922
 2152SOL    HW118092   0.798   1.620   6.181 -1.9712 -0.0749 -0.8230
 2152SOL    HW218093   0.756   1.476   6.194 -0.4196  0.5581 -0.2443
 2153SOL     OW18094   0.932   3.424  17.436  0.1337 -0.4095  0.9389
 2153SOL    HW118095   0.854   3.380  17.472 -0.5763  3.2227  3.8230
 2153SOL    HW218096   0.952   3.472  17.516  2.5266  1.4470 -0.7756
 2154SOL     OW18097   0.661   3.045  10.462  0.7774 -0.0307 -0.1345
 2154SOL    HW118098   0.728   3.000  10.515  0.8814  1.7713  1.2834
 2154SOL    HW218099   0.579   3.002  10.485  1.1514 -0.2287  0.8527
 2155SOL     OW18100   2.908   4.173   3.573  0.0137  0.3161  0.2728
 2155SOL    HW118101   2.924   4.267   3.565  0.6799  0.0790 -1.2919
 2155SOL    HW218102   2.860   4.162   3.654 -2.2414 -2.4288 -1.4393
 2156SOL     OW18103   3.280   2.218   4.007 -0.1386  0.3689 -0.0213
 2156SOL    HW118104   3.329   2.169   3.942 -1.8627  0.8780 -1.7029
 2156SOL    HW218105   3.189   2.201   3.981 -0.1836 -1.5255  1.3844
 2157SOL     OW18106   0.569   2.709  14.016 -0.1331 -0.2445 -0.3490
 2157SOL    HW118107   0.547   2.760  13.937 -4.0647 -0.2035  0.7440
 2157SOL    HW218108   0.571   2.782  14.079  1.4069  0.2330 -0.9520
 2158SOL     OW18109   1.053   1.040   6.359  0.6701  0.4366  0.1834
 2158SOL    HW118110   0.999   1.118   6.344  1.0935  0.7392  0.2190
 2158SOL    HW218111   1.133   1.076   6.398  0.5881  0.9251 -0.0936
 2159SOL     OW18112   3.134   3.316   9.578  0.2967 -0.5027  0.2715
 2159SOL    HW118113   3.044   3.284   9.587  0.5041 -1.2118 -0.1670
 2159SOL    HW218114   3.186   3.236   9.574 -2.0304 -1.9842 -0.5901
 2160SOL     OW18115   0.751   1.971  10.588 -0.0464 -0.4399 -0.0637
 2160SOL    HW118116   0.828   2.016  10.622 -2.2897  2.1362  1.6593
 2160SOL    HW218117   0.718   1.930  10.668  2.2319  0.9098  1.5538
 2161SOL     OW18118   4.198   1.455   5.350 -0.1765 -0.3124 -0.8618
 2161SOL    HW118119   4.228   1.519   5.415  1.4195 -0.9498 -0.9574
 2161SOL    HW218120   4.281   1.409   5.334  0.8947  1.0346  0.8980
 2162SOL     OW18121   2.160   4.072   4.852  0.2693  0.2168 -0.0788
 2162SOL    HW118122   2.190   4.109   4.935  0.2400  0.5847 -0.2321
 2162SOL    HW218123   2.139   4.150   4.800 -0.8342  0.6564  1.0084
 2163SOL     OW18124   1.565   4.225   2.828  0.7188 -0.1375 -0.8293
 2163SOL    HW118125   1.525   4.193   2.747 -1.2862  0.0582  0.0899
 2163SOL    HW218126   1.541   4.317   2.823 -0.0431 -0.4123 -2.2411
 2164SOL     OW18127   4.144   0.104   8.540  0.5321  0.0717  0.2097
 2164SOL    HW118128   4.089   0.060   8.605  0.5192  0.6470  0.5901
 2164SOL    HW218129   4.187   0.022   8.516  0.6729  0.3730 -0.5677
 2165SOL     OW18130   1.278   3.221   5.197 -0.1657  0.0631  0.0554
 2165SOL    HW118131   1.314   3.142   5.236  0.4260  0.1754 -0.2626
 2165SOL    HW218132   1.232   3.182   5.123 -1.9524 -1.3206  1.8949
 2166SOL     OW18133   3.456   0.635   0.366  0.3558 -0.6647 -0.3342
 2166SOL    HW118134   3.544   0.618   0.400 -0.5808 -1.4617  1.7413
 2166SOL    HW218135   3.475   0.685   0.288  0.3384 -1.7622 -1.0464
 2167SOL     OW18136   2.074   3.673   6.383  0.2979 -0.6017 -0.0347
 2167SOL    HW118137   2.029   3.720   6.314  0.7214  0.3702  0.3399
 2167SOL    HW218138   2.017   3.686   6.459 -1.9936  0.8230 -2.0044
 2168SOL     OW18139   0.486   0.770  13.808 -0.1534 -0.9558  0.3523
 2168SOL    HW118140   0.455   0.780  13.898 -0.9552 -2.1189  0.1927
 2168SOL    HW218141   0.541   0.693  13.815  0.9877 -0.2776 -1.1700
 2169SOL     OW18142   3.203   1.265  13.473 -0.3977 -0.7077  0.2430
 2169SOL    HW118143   3.194   1.351  13.514 -2.8439 -1.0049  0.3163
 2169SOL    HW218144   3.180   1.276  13.381 -0.6935 -0.1574  0.3851
 2170SOL     OW18145   1.576   3.673  11.780  0.2270 -0.0807 -0.6279
 2170SOL    HW118146   1.671   3.672  11.783  0.1613  0.3187  1.4542
 2170SOL    HW218147   1.562   3.582  11.806  0.6461  1.2201  4.1824
 2171SOL     OW18148   0.104   0.950   5.384  0.5345  0.3681  0.1229
 2171SOL    HW118149   0.166   0.891   5.342 -0.0944 -0.4125  0.3085
 2171SOL    HW218150   0.063   0.894   5.450  0.1429  0.9502  0.3812
 2172SOL     OW18151   3.764   1.500   8.507  0.1049  0.0036 -0.3278
 2172SOL    HW118152   3.846   1.531   8.469 -0.4088 -0.7813 -2.0444
 2172SOL    HW218153   3.701   1.556   8.463  0.5494  0.0688 -0.8786
 2173SOL     OW18154   2.509   1.171  17.670 -0.7314 -0.7607  0.1259
 2173SOL    HW118155   2.592   1.217  17.672 -1.5514  0.6570  1.6893
 2173SOL    HW218156   2.458   1.245  17.702 -1.3731 -0.0832 -2.4537
 2174SOL     OW18157   4.018   0.754  14.427  0.2593  0.6471 -0.0858
 2174SOL    HW118158   4.097   0.701  14.415  1.0377  1.3727  1.7247
 2174SOL    HW218159   4.016   0.786  14.337  3.6421 -1.1707 -0.7948
 2175SOL     OW18160   1.735   2.531   2.170 -0.0510 -0.1068  0.1833
 2175SOL    HW118161   1.666   2.581   2.214 -2.1140 -2.8297  0.0871
 2175SOL    HW218162   1.807   2.593   2.175  0.6796 -0.8660 -1.2357
 2176SOL     OW18163   1.172   3.158   9.621  0.2500 -0.7705 -0.6313
 2176SOL    HW118164   1.191   3.112   9.539 -2.2750  0.6526 -2.0106
 2176SOL    HW218165   1.242   3.132   9.680  0.4034  1.9181  0.3297
 2177SOL     OW18166   2.401   0.751   9.400  0.1828  0.4122  0.2156
 2177SOL    HW118167   2.399   0.655   9.394  1.7595  0.3537  0.7108
 2177SOL    HW218168   2.492   0.764   9.428  0.0045 -2.7673  2.3853
 2178SOL     OW18169   0.362   1.977   6.015 -0.4161  0.1062  0.7741
 2178SOL    HW118170   0.375   2.052   5.957  3.0772  0.0648  1.4721
 2178SOL    HW218171   0.453   1.950   6.028 -0.4419 -0.5043 -0.3077
 2179SOL     OW18172   0.280   0.523   2.383 -0.2074  0.2290 -0.0651
 2179SOL    HW118173   0.365   0.494   2.415  0.2967  1.2244 -0.5128
 2179SOL    HW218174   0.250   0.587   2.448  1.0016  1.1809 -0.4454
 2180SOL     OW18175   1.823   3.252   6.836  0.0342  0.1855  0.2966
 2180SOL    HW118176   1.877   3.242   6.758  0.3734  0.4236  0.4992
 2180SOL    HW218177   1.743   3.215   6.799  0.8822 -1.3364 -0.0320
 2181SOL     OW18178   3.257   1.561   0.547  0.6850  0.4304  0.0319
 2181SOL    HW118179   3.255   1.530   0.456  0.4704  0.5881 -0.0177
 2181SOL    HW218180   3.201   1.638   0.542 -0.0093  0.1380  3.1093
 2182SOL     OW18181   0.461   3.689   6.253  0.1146  0.3005  0.0239
 2182SOL    HW118182   0.497   3.775   6.272  0.9127 -0.0594  0.1233
 2182SOL    HW218183   0.372   3.708   6.222  1.2386 -0.7530 -3.8822
 2183SOL     OW18184   2.679   4.517   4.332  0.5644 -0.1587 -0.0970
 2183SOL    HW118185   2.669   4.422   4.320 -2.0856  0.1128  0.0969
 2183SOL    HW218186   2.774   4.525   4.327  0.4016  1.4775 -0.3742
 2184SOL     OW18187   2.650   2.060   1.672 -0.2944 -0.6251 -0.6143
 2184SOL    HW118188   2.656   1.975   1.716 -1.3279 -1.0177 -1.2425
 2184SOL    HW218189   2.573   2.047   1.618 -0.1543  2.1387 -1.4711
 2185SOL     OW18190   0.748   0.409   2.646  0.7908  0.5537  0.3335
 2185SOL    HW118191   0.828   0.434   2.693  0.8622  0.0333  0.4873
 2185SOL    HW218192   0.764   0.320   2.613  2.2402  0.3033  1.7136
 2186SOL     OW18193   0.173   4.459   5.990 -0.4231 -0.2151  0.1836
 2186SOL    HW118194   0.118   4.527   6.030  0.4348  1.8257 -2.0628
 2186SOL    HW218195   0.119   4.381   6.000 -0.3349 -0.4496 -1.1466
 2187SOL     OW18196   1.359   4.080   4.477 -0.2209 -0.0578  0.3863
 2187SOL    HW118197   1.331   4.152   4.420 -0.1981 -0.7988 -0.5415
 2187SOL    HW218198   1.415   4.028   4.420 -2.6949  0.6166 -2.6758
 2188SOL     OW18199   1.713   3.837   8.298 -0.0499  0.0526 -0.2061
 2188SOL    HW118200   1.645   3.769   8.300  0.6014 -0.4888  2.9319
 2188SOL    HW218201   1.777   3.798   8.357  1.2228  0.7523 -1.1435
 2189SOL     OW18202   3.508   1.428   5.680  0.6849 -0.7418  0.0174
 2189SOL    HW118203   3.573   1.366   5.713 -1.4256 -1.6140  2.5073
 2189SOL    HW218204   3.486   1.388   5.595  0.7740 -0.5145 -0.1127
 2190SOL     OW18205   0.872   2.663   5.679 -0.4576 -0.6350 -0.0749
 2190SOL    HW118206   0.952   2.677   5.627 -1.5087  2.2070 -0.9017
 2190SOL    HW218207   0.904   2.625   5.761  2.6433  0.1574 -0.8965
 2191SOL     OW18208   2.731   3.409  15.291 -0.1763  0.3164  0.4612
 2191SOL    HW118209   2.816   3.452  15.277  1.6297 -2.7986  1.6343
 2191SOL    HW218210   2.664   3.450  15.237 -0.4433 -0.3288  0.3019
 2192SOL     OW18211   3.380   1.205   5.066  0.2666  0.9734  0.1334
 2192SOL    HW118212   3.397   1.118   5.102  1.0981  1.5344  1.1280
 2192SOL    HW218213   3.350   1.188   4.977 -1.2315  0.7030  0.7023
 2193SOL     OW18214   3.167   0.058  13.863  0.1388 -0.2797 -0.1964
 2193SOL    HW118215   3.240   0.021  13.813  1.2766  0.4723  0.9067
 2193SOL    HW218216   3.096   4.731  13.856 -1.7921  1.9669 -1.0359
 2194SOL     OW18217   2.281   2.777   7.026  0.0763 -0.0204  0.2885
 2194SOL    HW118218   2.339   2.714   6.982 -1.2177  0.5108 -2.1273
 2194SOL    HW218219   2.338   2.853   7.013 -0.5850  0.5181  0.5751
 2195SOL     OW18220   2.894   1.332  11.390  0.3029 -0.7253  0.0851
 2195SOL    HW118221   2.972   1.387  11.382 -0.8202  0.9973  1.0322
 2195SOL    HW218222   2.908   1.296  11.302 -0.1926 -0.7640  0.0212
 2196SOL     OW18223   3.219   2.006   1.977  0.3337 -0.0780 -0.4500
 2196SOL    HW118224   3.263   2.087   2.001 -1.7318  0.7253  0.7022
 2196SOL    HW218225   3.229   2.016   1.883  0.6090  1.3398 -0.2573
 2197SOL     OW18226   1.963   3.998   9.011  0.2199  0.2124  0.1066
 2197SOL    HW118227   1.966   3.903   9.022 -3.4202  0.3719  2.4358
 2197SOL    HW218228   2.034   4.020   9.071  2.2251  0.7621 -2.4613
 2198SOL     OW18229   3.967   3.947   8.308  0.8538  0.1015 -0.7354
 2198SOL    HW118230   3.872   3.951   8.296  0.9541  1.9743 -0.9851
 2198SOL    HW218231   3.992   4.018   8.368 -1.1899  1.2636 -1.2562
 2199SOL     OW18232   4.671   4.419   7.111 -0.7161  0.7000 -0.8250
 2199SOL    HW118233   4.727   4.353   7.152 -1.8007  0.0313 -0.4130
 2199SOL    HW218234   4.659   4.380   7.024 -0.5816 -1.3805  0.0798
 2200SOL     OW18235   1.810   2.825   6.803 -0.4343 -0.0176 -0.0095
 2200SOL    HW118236   1.766   2.745   6.830 -1.4730  0.7776  0.6430
 2200SOL    HW218237   1.900   2.813   6.832 -0.3967  0.2615 -0.0083
 2201SOL     OW18238   1.939   4.307  16.389 -0.0175 -0.3829  0.2144
 2201SOL    HW118239   1.929   4.401  16.407 -0.3737 -0.1926 -0.9396
 2201SOL    HW218240   1.879   4.309  16.314 -1.6815  0.8538  1.5712
 2202SOL     OW18241   3.987   2.272   0.260  0.6088  0.1248 -0.1374
 2202SOL    HW118242   3.894   2.295   0.258  0.7005  0.7596  2.9655
 2202SOL    HW218243   4.002   2.232   0.346 -1.3878 -2.3831 -0.9371
 2203SOL     OW18244   4.540   4.658   9.097 -0.2382  0.1593  0.4348
 2203SOL    HW118245   4.583   4.708   9.165 -0.3779  1.6609 -0.5787
 2203SOL    HW218246   4.583   4.700   9.023 -1.1499 -0.0956 -0.2452
 2204SOL     OW18247   4.508   3.810   9.660  0.2432 -0.1058 -0.4109
 2204SOL    HW118248   4.454   3.733   9.644  2.5520 -1.7778 -0.1344
 2204SOL    HW218249   4.576   3.780   9.600 -0.4075  1.5571 -1.9953
 2205SOL     OW18250   1.042   0.261  16.215  0.1842 -0.8645 -0.1231
 2205SOL    HW118251   1.089   0.225  16.140  2.3707 -1.4493  1.5302
 2205SOL    HW218252   1.046   0.196  16.285 -0.9162  1.5567  2.1865
 2206SOL     OW18253   4.090   4.645   2.348 -0.3837 -0.1735  0.4953
 2206SOL    HW118254   4.104   4.729   2.304 -1.0804 -1.2146 -1.7060
 2206SOL    HW218255   4.126   4.578   2.291  0.7664  0.9882 -0.1536
 2207SOL     OW18256   1.867   1.076   4.833 -0.3566  0.2557  0.1929
 2207SOL    HW118257   1.911   1.036   4.758 -1.1431 -0.5633  0.1708
 2207SOL    HW218258   1.871   1.003   4.894  0.1370 -1.3054 -1.7010
 2208SOL     OW18259   1.461   1.831   5.123 -0.0561  0.1954 -0.4553
 2208SOL    HW118260   1.438   1.894   5.192  0.7286  1.2841 -1.1797
 2208SOL    HW218261   1.373   1.813   5.089 -0.2506  1.7623 -0.8170
 2209SOL     OW18262   2.355   0.266  16.231 -0.8023 -0.0028 -0.5785
 2209SOL    HW118263   2.308   0.296  16.309 -3.1400 -0.7340 -1.7025
 2209SOL    HW218264   2.443   0.301  16.244 -0.1825 -1.8600  0.2633
 2210SOL     OW18265   2.497   4.222   9.682  0.9402  0.0360  0.3048
 2210SOL    HW118266   2.494   4.311   9.647  2.9580 -0.3505 -0.8656
 2210SOL    HW218267   2.532   4.161   9.617  1.1682  1.1004 -0.5712
 2211SOL     OW18268   4.448   4.710   5.027 -0.2093  0.2293 -0.2988
 2211SOL    HW118269   4.403   4.681   5.106 -0.6602 -0.8025 -0.9398
 2211SOL    HW218270   4.441   4.637   4.966  1.4765 -1.0188  1.0110
 2212SOL     OW18271   1.253   4.529  11.015  0.4505  0.1739  0.1978
 2212SOL    HW118272   1.201   4.606  10.992  0.3323 -0.4699 -1.7529
 2212SOL    HW218273   1.173   4.475  11.017  0.8563 -0.4426 -0.0722
 2213SOL     OW18274   3.047   0.285  13.133 -0.1929  0.0671  0.2616
 2213SOL    HW118275   3.113   0.304  13.066 -0.0679 -1.1371  0.0560
 2213SOL    HW218276   3.023   0.378  13.141  0.4124  0.3880 -1.6700
 2214SOL     OW18277   2.945   0.175   8.851  0.1350 -0.5533  0.0969
 2214SOL    HW118278   3.034   0.139   8.849  0.8631  1.2974 -1.0946
 2214SOL    HW218279   2.926   0.185   8.944 -0.0421 -2.5900  0.2881
 2215SOL     OW18280   0.412   3.142   4.580  0.2621 -0.0827  0.4497
 2215SOL    HW118281   0.476   3.083   4.543 -0.3355  0.5637 -1.6069
 2215SOL    HW218282   0.332   3.090   4.593 -0.9221  1.2269 -1.5855
 2216SOL     OW18283   4.509   4.708  10.973 -0.8288 -0.3194 -0.2151
 2216SOL    HW118284   4.507   0.064  10.953  1.5619 -0.0324  0.9029
 2216SOL    HW218285   4.419   4.678  10.988 -1.0259  1.1419  1.6189
 2217SOL     OW18286   2.041   1.065  15.037 -0.3632 -0.0532 -0.4148
 2217SOL    HW118287   2.133   1.063  15.013  0.2870  0.8677  2.0708
 2217SOL    HW218288   2.047   1.061  15.133  1.8960  1.8719 -0.4823
 2218SOL     OW18289   3.020   2.259  15.238  0.2524 -0.2268 -0.0889
 2218SOL    HW118290   3.009   2.307  15.320 -0.4775 -1.8817  0.7762
 2218SOL    HW218291   3.008   2.170  15.272  1.7237 -0.2814  0.3069
 2219SOL     OW18292   1.968   1.569   2.576  0.3347  0.1250 -0.2696
 2219SOL    HW118293   1.949   1.636   2.510  0.0462  0.3600  0.0488
 2219SOL    HW218294   1.912   1.504   2.533 -0.2879  0.0673  0.6152
 2220SOL     OW18295   3.960   2.001   1.362 -0.6396  0.1870 -0.6927
 2220SOL    HW118296   4.055   2.005   1.376 -1.0483  0.3469  2.0109
 2220SOL    HW218297   3.941   2.034   1.450  1.7283  0.1063 -0.1310
 2221SOL     OW18298   1.939   0.084   7.579 -0.1425 -0.3303 -0.7136
 2221SOL    HW118299   1.862   0.028   7.571  1.2634 -2.2982 -0.3488
 2221SOL    HW218300   2.003   0.017   7.554  1.4156  0.7278  0.4017
 2222SOL     OW18301   2.988   0.622  13.398 -0.6797 -0.3478 -0.1887
 2222SOL    HW118302   2.978   0.657  13.310 -2.5663  0.3376  0.3057
 2222SOL    HW218303   2.897   0.596  13.408 -1.0825  1.7543  1.6848
 2223SOL     OW18304   1.501   3.619   0.346 -0.0160 -0.1721  0.2840
 2223SOL    HW118305   1.534   3.651   0.431 -3.1212  1.0446  1.0558
 2223SOL    HW218306   1.508   3.524   0.346  0.0699 -0.1456 -3.4635
 2224SOL     OW18307   0.361   4.193   6.303 -0.0887 -0.5909 -0.3367
 2224SOL    HW118308   0.306   4.162   6.375  0.7071 -0.3252  0.3869
 2224SOL    HW218309   0.328   4.282   6.309 -1.8069 -1.0990 -2.1239
 2225SOL     OW18310   2.319   0.197   7.857 -0.3853 -0.3444 -0.0323
 2225SOL    HW118311   2.244   0.226   7.805  0.2671  1.6757  0.1470
 2225SOL    HW218312   2.383   0.169   7.792 -1.0143 -3.0256  0.5239
 2226SOL     OW18313   0.800   3.761   6.453  0.0261  0.3496 -0.2711
 2226SOL    HW118314   0.798   3.703   6.378  1.9009 -0.9464  0.6758
 2226SOL    HW218315   0.882   3.732   6.494 -1.0374 -3.8638 -1.1408
 2227SOL     OW18316   2.423   4.526   2.888  0.1765  0.0092  0.5586
 2227SOL    HW118317   2.518   4.528   2.890  0.1775 -0.2078  0.7593
 2227SOL    HW218318   2.402   4.439   2.853  0.6116  0.2306 -0.2368
 2228SOL     OW18319   2.017   0.462   9.720  0.2971 -0.0525 -0.0880
 2228SOL    HW118320   2.051   0.547   9.691 -1.0788  0.0705 -1.3121
 2228SOL    HW218321   2.100   0.413   9.723 -0.3664 -1.2704 -1.6310
 2229SOL     OW18322   2.877   3.363   7.450  0.3774  0.0703 -0.3336
 2229SOL    HW118323   2.932   3.435   7.420 -0.1503  0.9345  0.7654
 2229SOL    HW218324   2.925   3.339   7.530 -0.5064 -1.3822 -0.2308
 2230SOL     OW18325   2.085   4.252   3.987  0.3420 -0.5979 -0.0087
 2230SOL    HW118326   2.108   4.192   4.058  2.7438 -0.8510 -1.0208
 2230SOL    HW218327   2.007   4.280   4.036  1.0666  0.8161  0.3426
 2231SOL     OW18328   3.876   0.494   4.954  0.1461  0.9322 -0.3201
 2231SOL    HW118329   3.820   0.557   5.000 -0.7494 -1.6457  2.1188
 2231SOL    HW218330   3.962   0.509   4.992  0.1159  0.1871  0.0384
 2232SOL     OW18331   0.547   2.281   0.289 -0.2233  0.5721 -0.4624
 2232SOL    HW118332   0.533   2.373   0.309  0.6298  0.2773  1.4498
 2232SOL    HW218333   0.583   2.287   0.200 -1.0197 -0.7713 -0.8747
 2233SOL     OW18334   0.386   0.693   9.345  0.5324  0.1230 -0.5710
 2233SOL    HW118335   0.367   0.697   9.439 -0.0694 -1.8441 -0.6096
 2233SOL    HW218336   0.380   0.599   9.326  0.0403  0.0009  0.2208
 2234SOL     OW18337   2.350   0.190   9.345  0.5472  0.4941  0.1076
 2234SOL    HW118338   2.289   0.169   9.275  2.1860 -0.5103 -1.0420
 2234SOL    HW218339   2.302   0.160   9.422  0.2193  0.2747 -0.1874
 2235SOL     OW18340   0.680   3.672   7.150 -0.4834  0.1598 -0.5128
 2235SOL    HW118341   0.595   3.695   7.187 -1.3583 -1.6657 -1.3515
 2235SOL    HW218342   0.655   3.582   7.126 -0.9935  0.4134 -0.9407
 2236SOL     OW18343   1.114   1.801   2.794  0.6374  0.0159 -0.0788
 2236SOL    HW118344   1.031   1.753   2.790 -0.0525  1.2977 -1.0808
 2236SOL    HW218345   1.154   1.766   2.873 -0.9598  1.4251  1.3489
 2237SOL     OW18346   1.038   2.701   2.610  0.0573 -0.8265 -0.1310
 2237SOL    HW118347   1.018   2.788   2.645  1.0578  0.6608 -3.3674
 2237SOL    HW218348   0.951   2.663   2.601 -0.0863 -0.6227  0.3388
 2238SOL     OW18349   1.499   1.689   2.896 -0.1389 -0.3305 -0.9355
 2238SOL    HW118350   1.518   1.767   2.948 -0.2388 -0.6653 -0.3942
 2238SOL    HW218351   1.413   1.705   2.857 -0.0526 -2.0159 -1.8119
 2239SOL     OW18352   3.474   0.216   7.051  0.2919  0.7313  0.1392
 2239SOL    HW118353   3.405   0.151   7.042  1.3156 -0.2242 -0.7177
 2239SOL    HW218354   3.556   0.175   7.076  0.3805  1.5535  1.2452
 2240SOL     OW18355   1.814   3.071  13.742  0.3815  0.1753 -0.2380
 2240SOL    HW118356   1.743   3.128  13.770  0.6240 -0.2644  1.2584
 2240SOL    HW218357   1.886   3.087  13.803  0.8027 -0.7185 -0.5015
 2241SOL     OW18358   0.078   3.766   5.608  0.4953  0.4228  0.5481
 2241SOL    HW118359   0.126   3.823   5.548  0.6061 -0.5703 -0.2909
 2241SOL    HW218360   0.013   3.822   5.651 -0.9127 -0.4287 -0.4698
 2242SOL     OW18361   4.589   0.332   3.480  0.4667  0.4483 -0.2798
 2242SOL    HW118362   4.637   0.393   3.536  0.8383  0.7663 -0.9317
 2242SOL    HW218363   4.662   0.280   3.445  0.2155 -0.1916  0.1704
 2243SOL     OW18364   3.631   3.464   3.970 -0.2893  0.4406  0.5439
 2243SOL    HW118365   3.616   3.383   4.018 -0.8079  0.0922 -0.1880
 2243SOL    HW218366   3.603   3.454   3.879 -1.0992 -0.9024  0.9456
 2244SOL     OW18367   0.951   0.040  17.405 -0.5683 -0.5840  0.7102
 2244SOL    HW118368   1.029   0.073  17.449 -2.1548  1.6563  1.8456
 2244SOL    HW218369   0.900   0.012  17.481  1.6528 -0.6126  2.1755
 2245SOL     OW18370   3.023   2.001  15.328  0.1732 -0.1797  0.2235
 2245SOL    HW118371   3.066   1.926  15.288 -0.3051 -0.5427  0.3923
 2245SOL    HW218372   3.069   1.999  15.412 -2.1029 -0.2488  1.4717
 2246SOL     OW18373   4.001   2.005   5.974  0.3287  0.4011 -0.0765
 2246SOL    HW118374   3.965   2.056   6.047 -0.5072 -2.9018  1.8496
 2246SOL    HW218375   3.924   2.003   5.917  0.7280  1.3950 -0.6500
 2247SOL     OW18376   3.497   0.907   4.242  0.1099 -0.2287 -0.6313
 2247SOL    HW118377   3.431   0.841   4.261  0.4821 -0.2819  0.4411
 2247SOL    HW218378   3.456   0.989   4.268 -0.9780 -1.5709  1.8482
 2248SOL     OW18379   1.580   3.828   6.491  0.0924 -0.0837  0.4090
 2248SOL    HW118380   1.490   3.809   6.518 -0.7560  1.8114 -1.0866
 2248SOL    HW218381   1.584   3.824   6.395 -2.1422 -0.8061  0.3278
 2249SOL     OW18382   4.283   3.977  10.634  0.4198 -0.0241 -0.5999
 2249SOL    HW118383   4.277   4.002  10.542  0.7534  0.1354 -0.5799
 2249SOL    HW218384   4.252   3.889  10.616 -2.5584  1.1554 -1.3107
 2250SOL     OW18385   3.531   3.335   3.693  0.0795 -0.3604 -0.1522
 2250SOL    HW118386   3.436   3.324   3.690  0.2105 -1.5165  0.1940
 2250SOL    HW218387   3.543   3.360   3.601  1.4646  3.5443  1.0607
 2251SOL     OW18388   2.794   1.401   4.682 -0.0940 -0.1258  0.2974
 2251SOL    HW118389   2.781   1.328   4.742 -0.5493  1.4954  2.1552
 2251SOL    HW218390   2.747   1.469   4.731  1.7706  0.6140  1.0354
 2252SOL     OW18391   3.517   3.791   7.268 -0.5758  1.0906  0.2791
 2252SOL    HW118392   3.575   3.823   7.337 -0.0480  2.4590 -0.7761
 2252SOL    HW218393   3.546   3.843   7.192  4.3635  0.6425  1.8624
 2253SOL     OW18394   0.058   0.116  15.309 -0.2215  0.1569 -0.0253
 2253SOL    HW118395   0.069   0.191  15.250  2.1480  0.1631  0.4069
 2253SOL    HW218396   0.034   0.156  15.393 -2.2202 -2.4139  0.6210
 2254SOL     OW18397   3.720   0.959   3.371  0.1101  0.7082  0.2383
 2254SOL    HW118398   3.745   0.919   3.288 -1.0550 -0.0401  0.2567
 2254SOL    HW218399   3.655   0.895   3.399 -1.5098  1.4821 -1.7770
 2255SOL     OW18400   0.336   2.148   9.482 -0.0224 -0.1157 -0.1673
 2255SOL    HW118401   0.384   2.196   9.549 -1.2156 -1.5360  1.7289
 2255SOL    HW218402   0.251   2.191   9.476  0.3514  0.5737 -0.4454
 2256SOL     OW18403   1.294   1.255   1.578  0.0584  0.4812  0.1780
 2256SOL    HW118404   1.204   1.282   1.593  0.8345  3.5011 -0.5127
 2256SOL    HW218405   1.282   1.161   1.566 -1.6711  0.6307  0.7954
 2257SOL     OW18406   1.541   2.124   6.538 -0.2118  0.1102  0.4064
 2257SOL    HW118407   1.550   2.172   6.455  1.9160 -1.9996 -0.5560
 2257SOL    HW218408   1.487   2.182   6.592  0.1601  1.5389 -0.7547
 2258SOL     OW18409   1.483   3.782  13.899 -0.3811  0.5710  0.3388
 2258SOL    HW118410   1.486   3.776  13.995  1.2094  1.8498  0.3678
 2258SOL    HW218411   1.572   3.803  13.872  0.2066 -0.8595  1.1238
 2259SOL     OW18412   4.597   0.403   7.611 -0.1305  0.5725 -0.3166
 2259SOL    HW118413   4.535   0.473   7.596 -0.7626  0.0139 -0.2935
 2259SOL    HW218414   4.539   0.332   7.638  0.7976 -0.2968 -0.5716
 2260SOL     OW18415   3.824   2.098  15.243  0.1594  0.1549  0.5445
 2260SOL    HW118416   3.768   2.023  15.261 -2.0226  0.8023 -3.4476
 2260SOL    HW218417   3.818   2.102  15.147 -0.0172  1.0878  0.5976
 2261SOL     OW18418   2.068   2.832   7.920 -0.2947 -0.2319  0.3814
 2261SOL    HW118419   2.132   2.899   7.895 -1.3793  0.0973 -1.5481
 2261SOL    HW218420   1.984   2.877   7.907  0.8579  1.5880 -0.8330
 2262SOL     OW18421   4.325   3.455   4.726 -0.3034  0.0966 -0.3459
 2262SOL    HW118422   4.367   3.373   4.752 -0.9254 -0.3669 -0.8226
 2262SOL    HW218423   4.237   3.422   4.743 -0.3860  0.9663  0.9839
 2263SOL     OW18424   4.659   0.926   2.989 -0.3857  0.4193  0.7987
 2263SOL    HW118425   4.579   0.900   3.034  0.1863 -0.4447  1.3052
 2263SOL    HW218426   4.701   0.846   2.959 -1.3296  0.3521 -0.3278
 2264SOL     OW18427   3.871   2.804  16.684 -0.1114 -0.2238  0.7518
 2264SOL    HW118428   3.913   2.841  16.762  0.7946  2.2893 -0.9248
 2264SOL    HW218429   3.945   2.798  16.623  0.1046 -2.7786  1.2874
 2265SOL     OW18430   2.474   4.657   2.221  0.5136  0.2690  0.2998
 2265SOL    HW118431   2.396   4.609   2.247  0.9085 -0.3699  0.3115
 2265SOL    HW218432   2.523   4.586   2.181  0.8431 -0.8317  2.6318
 2266SOL     OW18433   0.067   4.639   6.195 -0.4636  0.3893  0.3390
 2266SOL    HW118434   4.719   4.600   6.212 -0.0140 -1.2309 -1.1281
 2266SOL    HW218435   0.042   4.730   6.179  2.3027  1.3458  1.3324
 2267SOL     OW18436   0.534   0.017   1.736  0.2000  0.1670  0.2527
 2267SOL    HW118437   0.628   0.022   1.714  0.0615  0.5957 -0.2441
 2267SOL    HW218438   0.518   0.102   1.777  0.6425 -1.1203  3.0473
 2268SOL     OW18439   0.743   1.781  10.138 -0.0090 -0.0342 -0.7479
 2268SOL    HW118440   0.812   1.714  10.143  1.0148  1.0140 -0.8514
 2268SOL    HW218441   0.792   1.860  10.159  0.9074 -1.0867  1.0932
 2269SOL     OW18442   1.499   2.358   6.037 -0.3846 -0.2235  0.6401
 2269SOL    HW118443   1.551   2.376   5.958 -0.6186  2.8749  1.1970
 2269SOL    HW218444   1.418   2.377   5.988  0.4886  2.7356  0.3275
 2270SOL     OW18445   1.827   0.518   1.605  0.1380  0.1868  0.6894
 2270SOL    HW118446   1.840   0.445   1.545  0.0146  0.6251  0.1307
 2270SOL    HW218447   1.920   0.519   1.626  0.1848  2.3756  0.4023
 2271SOL     OW18448   2.474   0.722   3.547  0.1384 -0.0862 -0.3526
 2271SOL    HW118449   2.564   0.703   3.576 -1.5455 -3.6943  2.5444
 2271SOL    HW218450   2.441   0.779   3.616  1.1495  0.2898 -0.1776
 2272SOL     OW18451   0.093   3.244   8.968 -0.4022  0.2692 -0.0984
 2272SOL    HW118452   0.143   3.269   8.891 -1.0889  1.7768 -0.0367
 2272SOL    HW218453   0.040   3.169   8.939 -1.2400  0.8415 -0.0404
 2273SOL     OW18454   2.818   0.122   4.107 -0.2830  0.5782  0.0956
 2273SOL    HW118455   2.912   0.108   4.102  0.0626  2.8826  0.0762
 2273SOL    HW218456   2.805   0.078   4.023 -2.0180 -1.7227  1.5616
 2274SOL     OW18457   4.247   4.199   5.454 -0.6049  0.2485  0.2723
 2274SOL    HW118458   4.263   4.148   5.375 -0.3170 -1.5329  1.4811
 2274SOL    HW218459   4.263   4.291   5.430  0.8266  0.0053  0.3530
 2275SOL     OW18460   0.631   1.262   8.582 -0.3409  0.7448 -0.0619
 2275SOL    HW118461   0.618   1.354   8.608  1.6118  0.3501  2.3140
 2275SOL    HW218462   0.541   1.233   8.565 -0.2351 -0.1565  0.9476
 2276SOL     OW18463   1.105   1.646   8.234  0.2854  0.0905  0.0391
 2276SOL    HW118464   1.186   1.682   8.272 -0.1042  1.2502 -0.2348
 2276SOL    HW218465   1.078   1.712   8.171 -0.9037 -0.4083  0.0247
 2277SOL     OW18466   4.538   4.606   6.793  0.8025  0.0390  0.3776
 2277SOL    HW118467   4.522   4.694   6.826  4.3313  1.2696 -1.1382
 2277SOL    HW218468   4.522   4.623   6.701 -0.1314  1.0526  0.7316
 2278SOL     OW18469   4.033   1.593  10.008 -0.2091  0.6675  0.0844
 2278SOL    HW118470   4.051   1.550  10.092  0.5345 -2.1644 -1.4992
 2278SOL    HW218471   4.003   1.675  10.046  0.0973  0.3327  1.0448
 2279SOL     OW18472   3.112   3.956   6.082  0.2640 -0.4332  0.2361
 2279SOL    HW118473   3.104   4.011   6.004 -0.9808 -1.4798 -0.3680
 2279SOL    HW218474   3.048   3.888   6.060  0.9439 -0.9337 -0.1630
 2280SOL     OW18475   1.627   2.713   4.409  0.7235  0.0163 -0.0129
 2280SOL    HW118476   1.565   2.648   4.441 -1.3173  1.0757 -1.8706
 2280SOL    HW218477   1.584   2.786   4.454  1.7690  1.7459 -1.7911
 2281SOL     OW18478   1.667   1.145   1.883  0.5222 -0.3052 -0.2697
 2281SOL    HW118479   1.691   1.084   1.953 -2.1626 -1.2132 -0.1021
 2281SOL    HW218480   1.708   1.103   1.807  1.5931 -0.9799  0.6847
 2282SOL     OW18481   0.235   2.206   7.955  0.0482 -0.0469  0.3900
 2282SOL    HW118482   0.196   2.287   7.988 -1.5982 -0.8304  0.3422
 2282SOL    HW218483   0.246   2.157   8.037 -0.7905 -1.9041 -0.6189
 2283SOL     OW18484   0.900   3.104   0.299  0.4370  0.3601 -0.8193
 2283SOL    HW118485   0.859   3.175   0.349 -0.7440 -0.9513  0.0895
 2283SOL    HW218486   0.982   3.102   0.347 -0.5987 -2.4664  0.8306
 2284SOL     OW18487   4.177   3.611   4.939  0.3778  0.1615 -0.2501
 2284SOL    HW118488   4.087   3.642   4.945 -0.0096 -1.1966  1.0066
 2284SOL    HW218489   4.169   3.515   4.937  1.8974  0.0910 -2.3001
 2285SOL     OW18490   1.693   0.149  13.380  0.1665  0.2180 -0.1893
 2285SOL    HW118491   1.775   0.109  13.351 -0.3426 -0.3594 -0.8231
 2285SOL    HW218492   1.648   0.153  13.295 -1.2021  1.4196  0.5979
 2286SOL     OW18493   4.045   3.887   4.313  0.3014 -0.1191 -0.1970
 2286SOL    HW118494   4.066   3.871   4.221 -1.7173  1.0456 -0.8746
 2286SOL    HW218495   4.134   3.877   4.345  0.6084  1.6504 -0.4874
 2287SOL     OW18496   3.323   0.996  17.720 -0.0182  0.0415  0.5001
 2287SOL    HW118497   3.345   0.936  17.649 -2.2051 -0.6755  0.4231
 2287SOL    HW218498   3.232   0.966  17.729  0.6066 -2.3083 -1.1286
 2288SOL     OW18499   4.455   0.941  12.204  0.4732 -0.1502  0.3552
 2288SOL    HW118500   4.490   0.896  12.282 -2.0275 -0.7351  1.1282
 2288SOL    HW218501   4.373   0.983  12.228 -0.8924 -1.7837 -1.4881
 2289SOL     OW18502   3.751   4.459  11.123  0.2491 -0.0666 -0.4984
 2289SOL    HW118503   3.790   4.434  11.207 -0.7192  2.2147  0.6365
 2289SOL    HW218504   3.810   4.532  11.103  0.6365  0.3257  2.0008
 2290SOL     OW18505   0.210   1.669   9.195  0.7281 -0.1256  0.8149
 2290SOL    HW118506   0.167   1.730   9.255 -1.0816 -1.7179  1.1466
 2290SOL    HW218507   0.179   1.704   9.111  1.4001 -1.7657 -0.1064
 2291SOL     OW18508   2.600   1.390   1.306 -0.0125 -0.3836  0.0257
 2291SOL    HW118509   2.606   1.321   1.241  1.8870 -1.0847  0.9325
 2291SOL    HW218510   2.680   1.438   1.284 -0.4433  0.0042 -0.6706
 2292SOL     OW18511   3.341   0.478   7.035 -0.5598  0.0841 -0.4550
 2292SOL    HW118512   3.273   0.460   7.099  1.2526 -1.8935  0.8878
 2292SOL    HW218513   3.360   0.389   7.005  0.5181  0.7789 -1.8394
 2293SOL     OW18514   4.444   2.106  13.158  0.0803  0.5905  0.1008
 2293SOL    HW118515   4.358   2.084  13.124 -0.0338  0.1299  0.6757
 2293SOL    HW218516   4.492   2.128  13.078  1.2462  0.9836  0.8968
 2294SOL     OW18517   0.887   4.628   8.688  0.5523 -0.0176  0.0925
 2294SOL    HW118518   0.841   4.630   8.604  0.8877 -1.2905 -0.1099
 2294SOL    HW218519   0.823   4.600   8.753 -0.5821 -1.2763 -1.5738
 2295SOL     OW18520   1.669   2.808  12.838 -0.2750 -0.2650  0.1957
 2295SOL    HW118521   1.757   2.799  12.874 -0.4198  0.6513  0.7729
 2295SOL    HW218522   1.672   2.749  12.763 -0.9575 -1.5485  1.1749
 2296SOL     OW18523   1.747   4.016  16.281  0.0983 -0.1567 -0.4048
 2296SOL    HW118524   1.788   4.037  16.197  0.0080 -1.2772 -0.7328
 2296SOL    HW218525   1.711   3.929  16.264 -0.8566 -0.0217  0.9074
 2297SOL     OW18526   0.277   4.425  11.083  0.4539 -0.4981 -0.2552
 2297SOL    HW118527   0.300   4.486  11.153 -1.4596  0.4326 -0.4357
 2297SOL    HW218528   0.193   4.388  11.111  0.9808 -1.0816  0.5364
 2298SOL     OW18529   3.942   1.305  16.194 -0.3074  0.4103 -0.0524
 2298SOL    HW118530   3.999   1.274  16.265 -0.2455 -1.4074 -0.9139
 2298SOL    HW218531   3.877   1.235  16.201  1.6826 -1.3641  0.6342
 2299SOL     OW18532   1.956   1.302   7.462  0.1645 -0.1593  0.1269
 2299SOL    HW118533   1.921   1.270   7.378 -0.1342 -0.7117  0.4621
 2299SOL    HW218534   1.936   1.394   7.443  1.8150 -0.3362 -2.5368
 2300SOL     OW18535   3.627   0.449  14.723  0.5276  0.0461  0.7000
 2300SOL    HW118536   3.686   0.454  14.648 -0.4417 -1.8590 -0.1804
 2300SOL    HW218537   3.537   0.451  14.690  0.4091  0.8084  1.0614
 2301SOL     OW18538   0.548   3.720   7.961  0.3578 -0.8246 -0.1493
 2301SOL    HW118539   0.626   3.686   8.005 -0.6790 -2.0305  0.7669
 2301SOL    HW218540   0.511   3.778   8.028  0.8849  2.1402 -2.4409
 2302SOL     OW18541   3.511   1.908   7.138  0.2807  0.6352 -0.2742
 2302SOL    HW118542   3.602   1.910   7.168  0.4102  1.4211 -0.7039
 2302SOL    HW218543   3.465   1.886   7.219 -0.3111  0.8290 -0.5541
 2303SOL     OW18544   0.451   3.266  12.728  0.4671 -0.2672  0.0535
 2303SOL    HW118545   0.396   3.323  12.675  0.4194 -0.6329 -0.2895
 2303SOL    HW218546   0.515   3.244  12.661  1.1400  0.9713  0.3077
 2304SOL     OW18547   0.048   3.388   6.676 -0.8385 -0.0255  0.1606
 2304SOL    HW118548   0.025   3.325   6.744  1.6260 -0.4299  0.6130
 2304SOL    HW218549   0.027   3.330   6.602 -0.5144  0.7326 -0.5240
 2305SOL     OW18550   3.231   2.719   4.247 -0.6642  0.3169  0.4950
 2305SOL    HW118551   3.193   2.632   4.236  1.3209 -0.5853  0.7270
 2305SOL    HW218552   3.302   2.718   4.183 -1.5230 -0.3670 -0.4407
 2306SOL     OW18553   1.298   0.559   2.134  0.2767 -0.3744  0.0740
 2306SOL    HW118554   1.236   0.574   2.205 -0.0126 -0.1084 -0.2332
 2306SOL    HW218555   1.315   0.650   2.110 -0.6446 -0.2000  0.0795
 2307SOL     OW18556   0.647   0.367   6.419  0.1178 -0.0909 -0.9873
 2307SOL    HW118557   0.716   0.380   6.354 -0.0149  0.2971 -1.0487
 2307SOL    HW218558   0.671   0.436   6.481 -0.2989 -0.2055 -0.7031
 2308SOL     OW18559   0.067   0.956  12.618 -0.1524  0.7910 -0.0621
 2308SOL    HW118560   0.052   1.030  12.676  0.2612  0.5464  0.3567
 2308SOL    HW218561   0.136   0.910  12.667 -0.0524  1.8746  0.7934
 2309SOL     OW18562   3.650   1.423  14.671 -0.2901 -0.0505  0.0601
 2309SOL    HW118563   3.622   1.423  14.580 -0.1398 -3.1835  0.0218
 2309SOL    HW218564   3.674   1.514  14.690 -0.6660 -0.3328  1.8931
 2310SOL     OW18565   2.631   0.917   7.849 -0.5026 -0.7175  0.2595
 2310SOL    HW118566   2.634   0.853   7.778  1.9150 -0.0961 -0.1794
 2310SOL    HW218567   2.654   0.994   7.797  0.5540 -1.1981  0.0166
 2311SOL     OW18568   3.187   2.443   8.265 -0.2268 -0.1195 -0.3269
 2311SOL    HW118569   3.204   2.499   8.189 -1.5630  1.2827  0.4254
 2311SOL    HW218570   3.241   2.364   8.260 -0.7978 -0.6527  2.3445
 2312SOL     OW18571   1.684   4.362   4.011  0.0935 -0.3042  0.0706
 2312SOL    HW118572   1.612   4.300   4.005 -0.0204 -0.3567  2.2028
 2312SOL    HW218573   1.691   4.395   3.921  0.7157 -3.6142 -1.1001
 2313SOL     OW18574   0.020   3.761   4.603 -0.3410 -0.3987 -0.6352
 2313SOL    HW118575   4.690   3.827   4.618  0.6210 -0.2977  3.3681
 2313SOL    HW218576   0.079   3.787   4.674 -0.5285  3.2764 -1.8395
 2314SOL     OW18577   0.241   2.891   7.766  0.3763 -0.0811  0.2129
 2314SOL    HW118578   0.220   2.901   7.859  1.5223 -1.2084  0.5811
 2314SOL    HW218579   0.245   2.983   7.738  1.3106 -0.1350  0.1905
 2315SOL     OW18580   3.975   4.668   8.739 -0.0373  0.0572 -0.3928
 2315SOL    HW118581   3.912   4.677   8.811 -0.1641  0.6605 -0.5797
 2315SOL    HW218582   3.978   4.573   8.729 -2.3487 -0.2089  1.6123
 2316SOL     OW18583   2.034   3.127   8.576  0.1259  0.2903 -0.1605
 2316SOL    HW118584   2.004   3.134   8.485 -0.4865  0.0403  0.0249
 2316SOL    HW218585   1.965   3.069   8.610 -0.9404  1.4580 -0.3362
 2317SOL     OW18586   4.127   3.464  16.189  0.3679 -0.6602  0.5627
 2317SOL    HW118587   4.087   3.417  16.261 -2.2161  1.7858  0.6979
 2317SOL    HW218588   4.192   3.511  16.240 -0.0313 -3.0560  3.2616
 2318SOL     OW18589   2.872   2.128   8.055  0.2664 -0.0299 -0.3690
 2318SOL    HW118590   2.790   2.143   8.102  0.1834  0.2016 -0.5936
 2318SOL    HW218591   2.854   2.078   7.975 -1.0372  0.8431 -0.6185
 2319SOL     OW18592   4.433   3.345   5.858  0.1906 -0.5175 -0.0803
 2319SOL    HW118593   4.479   3.261   5.865  1.4812  0.2499  0.9063
 2319SOL    HW218594   4.368   3.337   5.928  0.7246  0.0647  0.4931
 2320SOL     OW18595   1.562   0.504   8.229 -0.8515 -0.2452  0.3299
 2320SOL    HW118596   1.563   0.576   8.292 -0.2155 -0.8088  0.9706
 2320SOL    HW218597   1.515   0.539   8.154  1.7036  0.3723 -0.9430
 2321SOL     OW18598   3.604   2.458   6.818 -0.4831  0.5601 -0.0997
 2321SOL    HW118599   3.643   2.485   6.734 -0.2373 -2.0329 -0.8306
 2321SOL    HW218600   3.621   2.534   6.873  0.1761  1.6812 -1.8280
 2322SOL     OW18601   1.647   0.091   5.452 -0.3971 -0.1676 -0.1018
 2322SOL    HW118602   1.585   0.159   5.426 -0.1266  0.2635  0.3850
 2322SOL    HW218603   1.709   0.149   5.497  0.8714 -1.8146  0.2797
 2323SOL     OW18604   3.265   1.898   8.900 -0.2865 -0.6931  0.1600
 2323SOL    HW118605   3.271   1.971   8.962 -2.8000 -1.1487  0.9332
 2323SOL    HW218606   3.333   1.919   8.835 -2.1148  1.3423 -1.1099
 2324SOL     OW18607   0.452   4.466   5.212 -0.3140  0.3933 -0.4096
 2324SOL    HW118608   0.531   4.460   5.266 -1.2900 -0.8784  0.9179
 2324SOL    HW218609   0.470   4.538   5.152 -2.2450  1.3390  0.1345
 2325SOL     OW18610   2.511   3.726   5.979  0.0997 -0.6144  0.1281
 2325SOL    HW118611   2.506   3.814   5.940 -2.1474 -1.8121 -2.2204
 2325SOL    HW218612   2.485   3.749   6.069  0.2088  0.6991 -0.1733
 2326SOL     OW18613   2.626   2.061   4.066  0.0291 -0.5336  0.5653
 2326SOL    HW118614   2.654   2.095   4.150 -0.7253 -2.2908  1.5168
 2326SOL    HW218615   2.542   2.107   4.056  0.0791 -0.8121 -1.2619
 2327SOL     OW18616   0.707   3.330   6.220 -0.4978  0.2063  0.1797
 2327SOL    HW118617   0.663   3.365   6.298  0.1861 -0.7325  0.9987
 2327SOL    HW218618   0.655   3.370   6.151 -0.0278  1.5283  0.5949
 2328SOL     OW18619   2.804   3.825   0.826 -0.1446  0.2272  0.6826
 2328SOL    HW118620   2.809   3.749   0.768 -3.2625  0.8915 -0.4982
 2328SOL    HW218621   2.849   3.790   0.903 -0.4884 -0.0054  0.7809
 2329SOL     OW18622   2.544   4.390   5.782 -0.7665  0.6917  0.6389
 2329SOL    HW118623   2.493   4.449   5.726 -1.1793 -0.1992  0.0762
 2329SOL    HW218624   2.538   4.435   5.866  1.8607 -0.3819  1.3970
 2330SOL     OW18625   2.624   1.826   1.374 -0.2800 -0.6500  0.3231
 2330SOL    HW118626   2.605   1.789   1.460 -1.7501 -2.1052 -0.6197
 2330SOL    HW218627   2.698   1.768   1.355 -0.8863 -1.3100 -0.0481
 2331SOL     OW18628   2.087   3.864   2.031  0.2757 -0.2188 -0.3365
 2331SOL    HW118629   2.133   3.934   2.077  0.0526  0.0295 -0.4963
 2331SOL    HW218630   2.067   3.802   2.100 -1.8927  1.5280  0.5925
 2332SOL     OW18631   0.436   4.429   8.955  0.7226 -0.8178 -0.9876
 2332SOL    HW118632   0.360   4.480   8.982  0.7762 -0.7382 -0.9861
 2332SOL    HW218633   0.428   4.355   9.016 -0.2899  2.3678  2.6992
 2333SOL     OW18634   2.879   4.684   3.927 -0.2226  0.3829  0.0198
 2333SOL    HW118635   2.955   4.713   3.876 -0.9042  0.0809 -1.1636
 2333SOL    HW218636   2.896   4.591   3.943  1.8263  0.8497  0.6225
 2334SOL     OW18637   1.507   2.701   2.199 -0.3080  0.1737  0.5632
 2334SOL    HW118638   1.500   2.782   2.150  0.4953  0.2622  0.5997
 2334SOL    HW218639   1.454   2.633   2.157  2.2818 -1.6001  0.1880
 2335SOL     OW18640   0.215   1.443   6.452 -0.1262  0.1881  0.1218
 2335SOL    HW118641   0.208   1.457   6.358 -2.0753  1.7984  0.5130
 2335SOL    HW218642   0.206   1.529   6.492 -2.6068 -0.3256  0.6513
 2336SOL     OW18643   1.906   0.281   2.950  0.5668 -0.4171  0.5786
 2336SOL    HW118644   1.902   0.359   2.895  0.8670 -0.5150  0.4136
 2336SOL    HW218645   2.000   0.287   2.970  0.1384  1.2480  2.0381
 2337SOL     OW18646   0.298   0.609   2.083 -0.3365  0.0827  0.0872
 2337SOL    HW118647   0.358   0.581   2.152 -0.3103  0.3300  0.1642
 2337SOL    HW218648   0.343   0.688   2.053  0.5145 -0.1146  0.8328
 2338SOL     OW18649   3.416   4.506  15.286 -0.7320 -0.1221 -0.0765
 2338SOL    HW118650   3.492   4.548  15.248 -1.7110  0.4996 -1.3399
 2338SOL    HW218651   3.360   4.582  15.304  0.5706  1.0646 -1.0716
 2339SOL     OW18652   1.485   1.965   3.354  0.4527  0.1776 -0.2557
 2339SOL    HW118653   1.562   2.009   3.319  0.0823  1.9011  1.1253
 2339SOL    HW218654   1.438   2.027   3.409 -0.0960 -0.2346 -0.2621
 2340SOL     OW18655   0.812   0.201   1.070 -0.5489 -0.0779 -0.1543
 2340SOL    HW118656   0.858   0.174   0.990 -0.0859 -1.2104  0.4872
 2340SOL    HW218657   0.804   0.295   1.053 -0.3467 -0.1629 -0.7213
 2341SOL     OW18658   1.416   1.596   6.859  0.2583  0.1664 -0.0780
 2341SOL    HW118659   1.373   1.680   6.874  0.4171  0.3295 -0.5676
 2341SOL    HW218660   1.383   1.568   6.774 -0.8636 -1.6202  0.9477
 2342SOL     OW18661   4.422   3.607   4.091  0.2089  0.1363  0.6892
 2342SOL    HW118662   4.473   3.688   4.083  0.9553 -0.3331  0.6271
 2342SOL    HW218663   4.494   3.543   4.086  0.7079  0.5071  3.3474
 2343SOL     OW18664   0.357   1.677   8.208  0.0138  0.2400 -0.4048
 2343SOL    HW118665   0.339   1.585   8.191 -0.7192  0.5538 -1.3187
 2343SOL    HW218666   0.298   1.720   8.146 -0.9899  1.5155  1.4116
 2344SOL     OW18667   0.497   3.910   6.606 -0.5411 -0.2437  0.2773
 2344SOL    HW118668   0.565   3.862   6.559 -0.1501  0.0358  0.5636
 2344SOL    HW218669   0.525   4.001   6.599  1.8314 -1.0080 -0.0680
 2345SOL     OW18670   1.707   1.930   6.978  0.1674  0.3465  0.1054
 2345SOL    HW118671   1.741   1.981   6.904 -2.1131  1.2606 -0.3138
 2345SOL    HW218672   1.623   1.977   6.978  0.5127  0.9629  0.6920
 2346SOL     OW18673   1.562   3.604   7.710  0.1451  0.0163 -0.1475
 2346SOL    HW118674   1.572   3.566   7.622 -0.4543 -0.9884  0.2193
 2346SOL    HW218675   1.601   3.534   7.762  1.9313  0.3577 -0.9976
 2347SOL     OW18676   3.338   0.945  10.231  0.5890  0.1602  0.1100
 2347SOL    HW118677   3.294   0.949  10.317  1.3075 -4.0076  0.6765
 2347SOL    HW218678   3.396   1.019  10.245 -0.7596  1.6021 -1.9676
 2348SOL     OW18679   0.668   3.848   0.015 -0.5649 -0.0912  0.0158
 2348SOL    HW118680   0.660   3.783  17.693  0.0632 -0.1429 -0.0035
 2348SOL    HW218681   0.753   3.829   0.055  0.1711  0.1945 -1.4169
 2349SOL     OW18682   0.882   1.101   8.907 -0.5526 -0.4040 -0.0240
 2349SOL    HW118683   0.900   1.009   8.926 -0.5769 -0.4668 -0.2944
 2349SOL    HW218684   0.852   1.132   8.992 -2.3809  0.7554 -1.0958
 2350SOL     OW18685   0.379   0.854  13.099 -0.3769  0.0716 -0.0011
 2350SOL    HW118686   0.398   0.864  13.192  0.3547 -0.2592 -0.1169
 2350SOL    HW218687   0.306   0.793  13.108  0.4426 -0.8834  0.1760
 2351SOL     OW18688   1.948   2.551  11.280  0.0162 -0.5251  0.0775
 2351SOL    HW118689   2.007   2.619  11.313  0.2164 -1.0051  0.7106
 2351SOL    HW218690   2.007   2.475  11.282 -0.4322 -0.8778  0.0434
 2352SOL     OW18691   0.907   3.350   6.559 -0.4778  0.2055  0.4671
 2352SOL    HW118692   0.981   3.300   6.525 -1.3820  0.5639 -2.0418
 2352SOL    HW218693   0.839   3.316   6.501 -0.8826 -0.4733  1.3552
 2353SOL     OW18694   2.898   3.551   6.768 -0.0996 -0.5410  0.1746
 2353SOL    HW118695   2.957   3.484   6.801  0.3058  0.1323  0.8311
 2353SOL    HW218696   2.884   3.601   6.849  0.7259 -1.0447  0.6297
 2354SOL     OW18697   1.850   1.311   8.886 -0.0006 -0.0500 -0.0095
 2354SOL    HW118698   1.846   1.261   8.967 -0.4987  0.6340  0.3876
 2354SOL    HW218699   1.770   1.363   8.893  1.4079  2.2468 -1.2056
 2355SOL     OW18700   2.875   4.252   2.587  0.2761 -0.7045 -0.1965
 2355SOL    HW118701   2.794   4.301   2.599  0.3837 -1.0855  2.0509
 2355SOL    HW218702   2.853   4.162   2.611 -0.7972 -0.4964 -0.4211
 2356SOL     OW18703   2.634   3.404   3.940 -0.1577 -0.5364 -0.1016
 2356SOL    HW118704   2.728   3.400   3.919  0.1607  3.6433  0.4122
 2356SOL    HW218705   2.633   3.337   4.007 -0.6408  0.2739  0.7040
 2357SOL     OW18706   1.794   0.326   5.476 -0.1466  0.1573 -0.0270
 2357SOL    HW118707   1.805   0.343   5.383 -0.1740  0.7548  0.0743
 2357SOL    HW218708   1.729   0.392   5.502 -1.8575 -0.8374 -1.7616
 2358SOL     OW18709   3.879   4.099  17.248 -0.1868 -0.8240 -0.2490
 2358SOL    HW118710   3.933   4.179  17.245  1.1763 -1.7603 -0.6489
 2358SOL    HW218711   3.864   4.089  17.154  1.3680  0.8073 -0.6921
 2359SOL     OW18712   1.528   3.423  11.923 -0.4463  0.0778  0.2608
 2359SOL    HW118713   1.497   3.410  12.013  0.2035  0.3327  0.5237
 2359SOL    HW218714   1.604   3.366  11.920 -2.3629 -2.4881  0.5230
 2360SOL     OW18715   4.018   3.647   5.929 -0.2485 -1.1525 -0.2281
 2360SOL    HW118716   3.977   3.632   5.844  0.2117  0.9215 -0.8262
 2360SOL    HW218717   4.108   3.639   5.900 -0.6161 -2.8490 -0.8744
 2361SOL     OW18718   1.959   3.141   6.588  0.0242 -0.2437 -0.8374
 2361SOL    HW118719   2.003   3.213   6.543  0.5765  0.2238  0.4406
 2361SOL    HW218720   1.886   3.121   6.530 -1.2365 -0.9021  0.9646
 2362SOL     OW18721   1.622   2.774  16.976 -0.1587 -0.3665  0.6688
 2362SOL    HW118722   1.617   2.867  16.996 -1.7358  0.0475 -1.6802
 2362SOL    HW218723   1.706   2.761  17.020  0.6699 -1.8958 -1.3408
 2363SOL     OW18724   1.918   3.799  16.171  0.0312  0.1564 -0.1264
 2363SOL    HW118725   1.887   3.877  16.125 -2.6069 -1.4349 -1.0228
 2363SOL    HW218726   2.002   3.835  16.200 -0.3375  1.1077 -0.2430
 2364SOL     OW18727   0.313   3.774   4.374  0.1268  0.1591  0.4155
 2364SOL    HW118728   0.370   3.707   4.336 -0.6973 -1.4048  1.9368
 2364SOL    HW218729   0.318   3.750   4.467 -3.4159  0.8702  0.8087
 2365SOL     OW18730   2.423   0.741  15.959 -0.1259  0.5301  0.3423
 2365SOL    HW118731   2.362   0.721  15.888  0.8493 -0.0644 -0.3300
 2365SOL    HW218732   2.442   0.832  15.936 -1.9600  0.6910 -0.4867
 2366SOL     OW18733   4.091   0.268   2.666 -0.7611  0.2813  0.4810
 2366SOL    HW118734   4.138   0.187   2.645  2.4496  2.5046 -0.9789
 2366SOL    HW218735   4.155   0.319   2.715 -2.0466 -0.6624  3.1266
 2367SOL     OW18736   3.850   0.702  15.198 -0.0599  0.9207 -0.0621
 2367SOL    HW118737   3.795   0.776  15.224  0.3128  0.6603  1.4488
 2367SOL    HW218738   3.790   0.656  15.140 -0.3689 -0.2432  1.1659
 2368SOL     OW18739   2.337   2.687   9.953  0.0307 -0.0760  0.0615
 2368SOL    HW118740   2.363   2.747  10.023  0.0974  1.3053 -1.1584
 2368SOL    HW218741   2.297   2.619  10.007 -0.2375  1.4424  1.7878
 2369SOL     OW18742   1.318   1.882   2.279  0.2079  0.0767  0.2666
 2369SOL    HW118743   1.252   1.859   2.345  0.5590  0.0497  0.6071
 2369SOL    HW218744   1.365   1.952   2.325 -0.6139  1.5324 -1.1264
 2370SOL     OW18745   0.408   2.522   9.289 -0.2298  0.3761  0.6348
 2370SOL    HW118746   0.418   2.430   9.314  1.4501  0.7248  1.2132
 2370SOL    HW218747   0.326   2.529   9.240 -0.8640 -1.6180  1.4026
 2371SOL     OW18748   4.542   2.100  10.134 -0.5931 -0.2685  0.0409
 2371SOL    HW118749   4.625   2.065  10.167 -0.6750  1.6317  2.3012
 2371SOL    HW218750   4.494   2.025  10.100 -0.0424 -0.6791  0.1591
 2372SOL     OW18751   0.840   0.818   9.787 -0.2125 -0.2324 -1.0163
 2372SOL    HW118752   0.931   0.848   9.794 -0.3684  0.4048 -1.7246
 2372SOL    HW218753   0.843   0.772   9.703 -0.9051 -0.9421 -0.6471
 2373SOL     OW18754   3.027   1.509  11.749 -0.9146  0.2303 -0.4198
 2373SOL    HW118755   3.095   1.576  11.751 -1.3223  0.5357  2.2634
 2373SOL    HW218756   2.978   1.527  11.668 -0.3650  0.1170 -0.7756
 2374SOL     OW18757   1.185   1.467   4.184 -0.2771 -0.1980 -0.6906
 2374SOL    HW118758   1.214   1.508   4.102  2.1906 -0.8179 -0.1235
 2374SOL    HW218759   1.121   1.533   4.210 -0.3387 -0.7980  0.6457
 2375SOL     OW18760   3.879   3.094   7.401 -0.3963  0.1133 -0.7411
 2375SOL    HW118761   3.925   3.095   7.485 -1.0937  0.5273 -0.3618
 2375SOL    HW218762   3.866   3.002   7.377 -2.6820 -0.2797  1.9669
 2376SOL     OW18763   1.920   2.177  10.590 -0.0469  0.5363 -0.0415
 2376SOL    HW118764   1.948   2.268  10.586 -0.7393  0.7074 -1.3080
 2376SOL    HW218765   1.826   2.190  10.574 -0.0781 -1.5291 -1.6020
 2377SOL     OW18766   0.872   3.214   6.777 -0.4485 -0.1385  0.1324
 2377SOL    HW118767   0.900   3.262   6.699  1.2353 -0.2136  0.6851
 2377SOL    HW218768   0.956   3.180   6.809  0.5861  0.6721 -1.7543
 2378SOL     OW18769   1.457   2.079   7.802  0.2812 -0.2791 -0.0096
 2378SOL    HW118770   1.477   2.034   7.719 -2.5422 -2.9927  0.7989
 2378SOL    HW218771   1.363   2.091   7.793  0.4657  0.6193 -0.8074
 2379SOL     OW18772   2.517   4.080  10.255 -0.3598 -0.1746 -0.5449
 2379SOL    HW118773   2.473   4.156  10.292  1.6402  0.7919 -0.1140
 2379SOL    HW218774   2.596   4.074  10.309  0.3670  1.5801 -1.3947
 2380SOL     OW18775   1.957   0.730   7.391 -0.9820  0.4474  0.3000
 2380SOL    HW118776   2.013   0.659   7.423  1.4421  3.0331  1.8182
 2380SOL    HW218777   2.017   0.773   7.330  1.2780  1.0022  2.9057
 2381SOL     OW18778   3.255   2.597   4.525  0.5873 -0.0479  0.8408
 2381SOL    HW118779   3.243   2.647   4.444  0.3879 -1.8032 -0.2132
 2381SOL    HW218780   3.186   2.629   4.583  1.2330  1.8021  0.6006
 2382SOL     OW18781   4.233   3.277   5.374 -0.4849 -0.7485  0.1861
 2382SOL    HW118782   4.323   3.264   5.344  0.1687  1.0367  1.3982
 2382SOL    HW218783   4.228   3.359   5.423  0.7497 -0.7883  0.3779
 2383SOL     OW18784   1.978   4.160   2.968  0.2588  0.4733 -0.4072
 2383SOL    HW118785   2.061   4.148   2.922 -0.3675  2.7033 -2.1138
 2383SOL    HW218786   1.930   4.080   2.946  1.9947 -0.5601 -0.4117
 2384SOL     OW18787   4.066   0.803   9.046 -0.1483  0.0421 -0.0462
 2384SOL    HW118788   4.054   0.721   8.998  1.4006 -0.7466  0.9089
 2384SOL    HW218789   4.128   0.851   8.990 -1.2796 -0.1442 -1.4543
 2385SOL     OW18790   2.121   2.988   8.169 -0.2262  0.1398  0.1252
 2385SOL    HW118791   2.058   3.003   8.099 -0.4876 -1.4688  0.0187
 2385SOL    HW218792   2.129   3.072   8.215 -0.4639 -0.6940  1.6984
 2386SOL     OW18793   2.556   4.577  15.845  0.0240 -0.0614 -0.4544
 2386SOL    HW118794   2.627   4.635  15.872 -0.6095  1.2428 -1.5896
 2386SOL    HW218795   2.595   4.491  15.828  0.4667  0.0438  0.0142
 2387SOL     OW18796   4.017   1.017   3.932 -0.0032 -0.1252  0.1356
 2387SOL    HW118797   4.022   1.071   4.012  1.5632 -0.0574 -0.0036
 2387SOL    HW218798   4.048   1.082   3.868  0.6128 -1.1811 -0.6228
 2388SOL     OW18799   1.113   3.021  11.038  0.2162  0.4664  0.1211
 2388SOL    HW118800   1.119   3.037  11.132  0.0078 -0.2713  0.2573
 2388SOL    HW218801   1.077   2.932  11.035 -1.3549  1.1204 -0.5790
 2389SOL     OW18802   2.827   1.833   8.686 -0.0522 -0.0229 -0.2923
 2389SOL    HW118803   2.807   1.767   8.620 -1.6557  1.2066 -1.0344
 2389SOL    HW218804   2.777   1.787   8.752  2.1947  2.1131  2.9287
 2390SOL     OW18805   0.921   0.405  14.133  0.2840 -0.1040 -0.0498
 2390SOL    HW118806   0.931   0.405  14.228 -1.6432 -2.9699  0.1886
 2390SOL    HW218807   0.928   0.310  14.125 -1.4691 -0.2211 -0.2884
 2391SOL     OW18808   4.660   1.301   8.538  0.2060 -0.1726 -0.0414
 2391SOL    HW118809   4.677   1.219   8.491 -2.5836 -0.6002 -0.3256
 2391SOL    HW218810   4.704   1.276   8.619  1.3585 -1.8422 -1.1682
 2392SOL     OW18811   4.054   3.312   9.255 -0.4440 -0.2657 -0.8450
 2392SOL    HW118812   4.099   3.363   9.322 -0.3210  1.1204 -1.9816
 2392SOL    HW218813   4.124   3.275   9.202  2.0664  0.6594  1.8183
 2393SOL     OW18814   3.126   0.376   5.785 -0.4750  0.1053 -0.4322
 2393SOL    HW118815   3.206   0.367   5.732  1.3437  0.0046  2.3589
 2393SOL    HW218816   3.076   0.446   5.744 -0.8894  0.4386  0.6632
 2394SOL     OW18817   2.008   3.176  12.607  0.2614  0.3587  0.2200
 2394SOL    HW118818   2.018   3.090  12.568  0.9372  0.0307  1.1252
 2394SOL    HW218819   1.997   3.150  12.698 -0.0049 -1.0527 -0.2189
 2395SOL     OW18820   4.588   3.819  14.921  0.3036 -0.2537  0.1383
 2395SOL    HW118821   4.582   3.763  14.998 -2.1923  0.8786  0.7683
 2395SOL    HW218822   4.495   3.840  14.930  0.6671  0.8686  1.3157
 2396SOL     OW18823   1.876   0.361   7.522 -0.0148  0.3376  0.0134
 2396SOL    HW118824   1.803   0.381   7.580 -1.9459 -0.9841 -1.9671
 2396SOL    HW218825   1.881   0.267   7.538  0.5430  0.4247  0.3644
 2397SOL     OW18826   3.101   1.042   2.561 -0.7579  0.2840 -0.4713
 2397SOL    HW118827   3.026   0.991   2.593 -1.1791  0.1026 -1.7719
 2397SOL    HW218828   3.062   1.104   2.500 -0.3535  0.0827 -0.9267
 2398SOL     OW18829   3.811   3.125   9.446 -0.1198 -0.2068 -0.2288
 2398SOL    HW118830   3.805   3.029   9.451 -0.4804 -0.3259 -3.0024
 2398SOL    HW218831   3.864   3.145   9.369  1.0397  0.1562  0.6612
 2399SOL     OW18832   0.073   4.173  17.411  0.1881  0.0866 -0.5076
 2399SOL    HW118833   4.729   4.126  17.395 -1.0504  2.1383 -0.3092
 2399SOL    HW218834   0.082   4.166  17.506  0.3847 -1.3827 -0.6304
 2400SOL     OW18835   0.669   0.077   5.549 -0.4543 -0.0648 -0.0452
 2400SOL    HW118836   0.756   0.060   5.512 -0.3872 -1.3350  0.6908
 2400SOL    HW218837   0.646   4.726   5.577 -1.2090 -0.3198 -1.5197
 2401SOL     OW18838   4.242   1.630   8.891 -0.5776 -0.3483 -0.5711
 2401SOL    HW118839   4.160   1.618   8.844  0.1727 -1.3383 -1.6372
 2401SOL    HW218840   4.234   1.577   8.970  0.3874 -0.0587 -0.2775
 2402SOL     OW18841   1.392   1.632  11.185 -0.4214 -0.2878 -0.6533
 2402SOL    HW118842   1.302   1.600  11.176  0.3836 -2.3893 -1.1995
 2402SOL    HW218843   1.389   1.690  11.109  1.0340  0.5257 -0.1015
 2403SOL     OW18844   0.716   3.794   9.105  0.4779 -0.3987  0.5945
 2403SOL    HW118845   0.763   3.724   9.150  0.7845  1.1752  2.7019
 2403SOL    HW218846   0.704   3.853   9.179 -2.0099 -0.1369 -0.0329
 2404SOL     OW18847   0.083   4.691   4.452 -0.4178  0.0566  0.6477
 2404SOL    HW118848   0.097   4.688   4.547  0.8096 -0.9729  0.4313
 2404SOL    HW218849   0.140   4.617   4.431 -1.2300 -0.3305 -0.2011
 2405SOL     OW18850   1.811   3.983   5.823  0.1759 -0.4485  0.1949
 2405SOL    HW118851   1.719   4.007   5.806  0.8281  0.8277 -1.5329
 2405SOL    HW218852   1.820   3.903   5.772  2.6541  0.1482 -0.2964
 2406SOL     OW18853   4.152   0.444   3.343  0.1098  0.1022  0.0609
 2406SOL    HW118854   4.107   0.451   3.259  0.1847 -0.6696 -0.0433
 2406SOL    HW218855   4.241   0.424   3.314 -0.1972 -0.1382 -0.7226
 2407SOL     OW18856   1.379   1.429  16.986  0.1786 -0.1365 -0.0835
 2407SOL    HW118857   1.329   1.379  16.922 -1.0469  0.6344  0.2885
 2407SOL    HW218858   1.371   1.518  16.950 -0.3819  1.1052  3.1460
 2408SOL     OW18859   2.960   4.027   4.336  0.7129 -0.4259  0.1971
 2408SOL    HW118860   2.879   3.984   4.364 -0.5874  1.3757 -0.8207
 2408SOL    HW218861   3.020   3.954   4.317  2.2444  1.2498 -1.4112
 2409SOL     OW18862   1.573   2.456  11.414 -0.3189  0.0015  0.1266
 2409SOL    HW118863   1.632   2.475  11.488 -1.7344  0.0874  1.2389
 2409SOL    HW218864   1.538   2.372  11.442  0.0376 -0.4283 -0.7397
 2410SOL     OW18865   1.916   1.246   6.266  0.1041 -0.3551  0.0583
 2410SOL    HW118866   1.924   1.200   6.350 -1.7316  0.0806  0.4752
 2410SOL    HW218867   1.876   1.184   6.205 -3.2554  0.4016  1.5162
 2411SOL     OW18868   3.710   2.205   2.449 -0.0989  0.0646  0.4119
 2411SOL    HW118869   3.794   2.220   2.405 -0.8563  1.2875 -0.6458
 2411SOL    HW218870   3.732   2.252   2.529 -0.0390  1.6764 -0.5400
 2412SOL     OW18871   3.543   2.002  14.768  0.1887  0.5275 -0.2622
 2412SOL    HW118872   3.601   2.010  14.843 -1.2509 -0.0499  0.9122
 2412SOL    HW218873   3.462   2.046  14.794 -1.8661 -1.9202 -2.5232
 2413SOL     OW18874   0.474   4.664  16.776 -0.3245  0.8426  0.5927
 2413SOL    HW118875   0.511   0.004  16.734  0.8300  1.5144  2.8532
 2413SOL    HW218876   0.385   4.675  16.742  0.0649 -1.4083 -1.0868
 2414SOL     OW18877   2.458   1.950   5.627  0.1084 -0.6408 -0.0876
 2414SOL    HW118878   2.472   2.043   5.647 -0.6276 -0.0906 -2.0815
 2414SOL    HW218879   2.409   1.959   5.545  1.3630 -0.5353 -0.8163
 2415SOL     OW18880   1.149   0.396  10.616  0.3059 -0.5140 -0.2628
 2415SOL    HW118881   1.055   0.390  10.599 -0.2932 -1.5600  3.3363
 2415SOL    HW218882   1.193   0.364  10.537 -0.5622  0.6351 -1.2084
 2416SOL     OW18883   3.221   1.556   4.769  0.3308  0.1188  0.2626
 2416SOL    HW118884   3.300   1.570   4.717  1.0104  0.8518  1.4715
 2416SOL    HW218885   3.270   1.542   4.850  1.3904 -1.3474 -0.6449
 2417SOL     OW18886   3.849   0.047   6.144  0.6792 -0.3996 -0.0373
 2417SOL    HW118887   3.763   0.041   6.185  2.5104  2.2406  4.2187
 2417SOL    HW218888   3.905   0.049   6.222  0.1088  0.5670  0.3503
 2418SOL     OW18889   1.004   3.824   7.510  0.1224  0.8514 -0.5942
 2418SOL    HW118890   0.990   3.903   7.561 -1.1948  1.0832 -1.3128
 2418SOL    HW218891   0.924   3.828   7.457  0.3139  0.9191 -0.8835
 2419SOL     OW18892   1.320   4.488   4.987  0.4752  0.6475  0.1216
 2419SOL    HW118893   1.306   4.566   4.933 -0.2230  0.6169  0.2572
 2419SOL    HW218894   1.412   4.462   4.984  1.4082  3.7087  1.9796
 2420SOL     OW18895   0.695   2.536   6.430 -0.1998  0.2314 -0.3723
 2420SOL    HW118896   0.695   2.570   6.519 -3.2435 -1.1772  0.1512
 2420SOL    HW218897   0.647   2.456   6.449  0.0627 -0.0757 -0.9937
 2421SOL     OW18898   2.949   1.763   7.465  0.5726 -0.0203 -0.0736
 2421SOL    HW118899   2.913   1.851   7.450  1.3874  0.6371  1.7535
 2421SOL    HW218900   2.943   1.738   7.373  0.0634  1.9416 -0.5880
 2422SOL     OW18901   4.526   3.497   5.584  0.7751 -0.1344 -0.3158
 2422SOL    HW118902   4.442   3.530   5.551 -0.2942 -0.7966  1.7216
 2422SOL    HW218903   4.486   3.471   5.667 -0.2266 -0.4390 -0.8913
 2423SOL     OW18904   3.992   3.357   7.571  0.3786 -0.0080 -0.6104
 2423SOL    HW118905   3.950   3.278   7.603 -1.3684  0.9752 -0.4845
 2423SOL    HW218906   3.919   3.398   7.524 -1.2294 -0.4267  1.5067
 2424SOL     OW18907   4.367   2.711   3.139  0.4411 -0.0012 -0.2360
 2424SOL    HW118908   4.352   2.794   3.185  0.6134  1.2861 -2.5240
 2424SOL    HW218909   4.444   2.736   3.088  2.5751 -4.1947  0.9210
 2425SOL     OW18910   4.045   3.203  13.157  0.1877  0.0473  0.4458
 2425SOL    HW118911   4.124   3.172  13.113 -2.7669 -0.5399 -4.4776
 2425SOL    HW218912   3.994   3.192  13.076 -0.1816 -1.9174  0.9433
 2426SOL     OW18913   4.151   0.904   0.947  0.4209 -0.5516 -0.1731
 2426SOL    HW118914   4.111   0.982   0.985  0.0125 -1.8526  2.0279
 2426SOL    HW218915   4.234   0.936   0.914  0.5006  0.4115  0.9708
 2427SOL     OW18916   4.311   0.034   3.457 -0.3233 -0.3643  0.9080
 2427SOL    HW118917   4.354   4.699   3.503  0.2397  0.4685  1.6840
 2427SOL    HW218918   4.322   4.737   3.368 -1.1028 -1.0790  1.0860
 2428SOL     OW18919   0.790   3.447   3.923  0.5250 -0.3452 -0.5036
 2428SOL    HW118920   0.807   3.527   3.972  0.8951  0.2155 -1.5562
 2428SOL    HW218921   0.863   3.396   3.959 -0.3640 -1.1546  0.1551
 2429SOL     OW18922   2.959   3.517   9.968 -0.5239 -0.4348 -0.0623
 2429SOL    HW118923   2.887   3.455   9.983  0.4402 -1.8457 -1.2935
 2429SOL    HW218924   2.914   3.596   9.938 -0.2248  0.1031  0.9106
 2430SOL     OW18925   0.930   1.473   3.526 -0.1697  0.1123  0.1183
 2430SOL    HW118926   0.972   1.389   3.545 -0.0469  0.7455  2.6878
 2430SOL    HW218927   0.842   1.463   3.562 -0.8905  3.0078 -0.8422
 2431SOL     OW18928   3.240   0.199   3.950 -0.7409 -0.4845 -0.5443
 2431SOL    HW118929   3.334   0.183   3.959 -1.0151 -1.8113 -0.1420
 2431SOL    HW218930   3.198   0.155   4.024 -0.4484  0.0826 -0.0411
 2432SOL     OW18931   3.631   1.307   9.804 -0.0184 -0.0083 -0.5072
 2432SOL    HW118932   3.644   1.402   9.798  1.3524 -0.2413 -1.1627
 2432SOL    HW218933   3.719   1.274   9.787 -0.5608 -0.8923 -1.5595
 2433SOL     OW18934   0.245   1.493   4.713 -0.0692 -0.2024  0.2177
 2433SOL    HW118935   0.257   1.530   4.800 -0.2769  2.4803 -0.9047
 2433SOL    HW218936   0.149   1.494   4.708 -0.0085 -0.5893 -1.1117
 2434SOL     OW18937   4.641   2.236   3.427 -0.1566  0.1031 -0.4341
 2434SOL    HW118938   4.576   2.286   3.477  0.3954  0.6025 -0.2055
 2434SOL    HW218939   4.714   2.227   3.489 -1.4266  0.8712  1.1499
 2435SOL     OW18940   2.863   3.608   5.607  0.1086  0.1879 -0.5692
 2435SOL    HW118941   2.848   3.701   5.627  0.8032  0.1342  0.1797
 2435SOL    HW218942   2.956   3.616   5.583  1.0118 -0.3134  2.7982
 2436SOL     OW18943   0.631   1.288  10.539 -0.0964 -0.4408  0.1049
 2436SOL    HW118944   0.571   1.214  10.540  1.3310 -1.5881  0.4625
 2436SOL    HW218945   0.594   1.331  10.462  2.6278  1.0783 -0.3561
 2437SOL     OW18946   4.074   4.471   4.005 -0.0069  0.0326 -0.1672
 2437SOL    HW118947   4.086   4.565   4.001 -0.0028  0.1229  1.5878
 2437SOL    HW218948   4.165   4.446   4.022 -0.3825  0.3245  2.3003
 2438SOL     OW18949   2.052   1.756   4.595  0.0823  0.4925 -0.2937
 2438SOL    HW118950   2.137   1.771   4.637 -1.4927  1.6891  2.4880
 2438SOL    HW218951   2.012   1.840   4.572 -0.4257  0.8983  2.0098
 2439SOL     OW18952   2.866   3.871   5.693  0.1075  0.4426  0.1846
 2439SOL    HW118953   2.910   3.936   5.638  0.9428  1.5089  2.1111
 2439SOL    HW218954   2.808   3.929   5.742  0.9423  0.6016  0.9888
 2440SOL     OW18955   3.582   3.010  13.061  0.2499  0.1966  0.2663
 2440SOL    HW118956   3.504   3.008  13.116 -0.9389 -0.3424 -1.4332
 2440SOL    HW218957   3.583   3.104  13.044 -3.0157  0.2044  0.1500
 2441SOL     OW18958   4.639   1.991   2.550 -0.2513  0.4160 -0.2623
 2441SOL    HW118959   4.720   2.027   2.515  0.0909 -0.0113  0.0881
 2441SOL    HW218960   4.570   2.038   2.502 -1.6876 -0.5700  0.8294
 2442SOL     OW18961   2.409   4.261   6.975 -0.0787 -0.1734  0.0775
 2442SOL    HW118962   2.498   4.290   6.955  0.1470  0.5835  2.1494
 2442SOL    HW218963   2.357   4.319   6.919  0.8038 -0.7127 -1.2827
 2443SOL     OW18964   0.185   1.933   9.373 -0.6996  0.3888  0.6542
 2443SOL    HW118965   0.179   1.888   9.458  0.4075 -2.1997 -0.6390
 2443SOL    HW218966   0.242   2.008   9.392 -0.3141  0.2728 -0.0398
 2444SOL     OW18967   0.228   3.894   0.413 -0.1126 -0.0003  0.3306
 2444SOL    HW118968   0.273   3.906   0.330 -1.8322 -0.6419 -0.6925
 2444SOL    HW218969   0.282   3.943   0.475  0.5417  0.2574 -0.4461
 2445SOL     OW18970   0.678   1.634  11.837  0.1291  0.7765 -0.1942
 2445SOL    HW118971   0.742   1.617  11.907 -1.6334  0.4118  1.3347
 2445SOL    HW218972   0.726   1.581  11.774 -2.0654  0.7295 -1.7966
 2446SOL     OW18973   1.813   3.333   9.835 -0.0664  0.0727  0.4403
 2446SOL    HW118974   1.909   3.342   9.829  0.0025 -1.1186 -0.2655
 2446SOL    HW218975   1.793   3.258   9.890  0.5393  0.8269  1.7072
 2447SOL     OW18976   2.912   1.922   3.611  0.5061 -0.1563 -0.2427
 2447SOL    HW118977   2.887   1.950   3.699 -1.6420 -0.9851 -0.6047
 2447SOL    HW218978   2.835   1.877   3.579  0.2393 -0.9455  1.5104
 2448SOL     OW18979   2.671   2.422   3.428 -0.1285  0.2658  0.0399
 2448SOL    HW118980   2.591   2.382   3.462  0.8407 -0.5105  1.3985
 2448SOL    HW218981   2.654   2.402   3.336 -0.2255  0.1444  0.0840
 2449SOL     OW18982   0.701   1.733   9.881 -0.2265 -0.2693  0.7166
 2449SOL    HW118983   0.795   1.716   9.876 -0.3090 -0.2469 -0.7356
 2449SOL    HW218984   0.692   1.769   9.969 -1.3117 -0.5333  0.7117
 2450SOL     OW18985   0.149   0.641  10.432  0.1594 -0.4257 -0.2724
 2450SOL    HW118986   0.073   0.699  10.437 -1.7999 -3.0127  0.3806
 2450SOL    HW218987   0.135   0.595  10.349  0.4832 -1.4794  0.2606
 2451SOL     OW18988   1.395   1.117   4.738  0.2612 -1.0192 -0.5122
 2451SOL    HW118989   1.378   1.033   4.694 -0.2538 -0.6772 -0.9629
 2451SOL    HW218990   1.488   1.133   4.726 -0.4150  1.4637 -2.3404
 2452SOL     OW18991   4.372   1.620   2.627 -0.7020  0.5891 -0.5913
 2452SOL    HW118992   4.430   1.677   2.576  0.2344 -2.8179 -3.3491
 2452SOL    HW218993   4.299   1.678   2.648 -0.6780  0.7345 -0.9006
 2453SOL     OW18994   1.720   0.058  13.055  0.1946 -0.0697  0.5546
 2453SOL    HW118995   1.791   0.048  12.992 -1.3746  2.3686 -1.5790
 2453SOL    HW218996   1.673   0.133  13.019 -0.3157 -0.5633  0.1771
 2454SOL     OW18997   4.551   3.265  14.067 -0.0972  0.1916  0.1807
 2454SOL    HW118998   4.601   3.188  14.040 -1.4168  0.0469 -1.8489
 2454SOL    HW218999   4.585   3.282  14.155  1.6193  0.1877 -0.4874
 2455SOL     OW19000   2.506   0.226   5.185 -0.6043  0.3472  0.3081
 2455SOL    HW119001   2.437   0.267   5.133  0.7385  1.3958 -0.6563
 2455SOL    HW219002   2.554   0.184   5.114  1.4138  1.5128  0.9843
 2456SOL     OW19003   0.627   0.058   8.986 -0.2557 -0.0233  0.1782
 2456SOL    HW119004   0.608   0.142   8.944 -2.1227 -0.1353  0.7886
 2456SOL    HW219005   0.652   0.082   9.075  1.2832 -0.1990 -0.2083
 2457SOL     OW19006   2.299   4.611   7.865  0.0400  0.4907  0.1385
 2457SOL    HW119007   2.388   4.609   7.902  0.6301 -0.4166 -1.3178
 2457SOL    HW219008   2.309   4.648   7.778 -3.0156  0.9614  0.0071
 2458SOL     OW19009   0.471   3.157  14.383 -0.0800 -0.0425 -0.1755
 2458SOL    HW119010   0.567   3.165  14.388 -0.1733  1.1851 -0.3411
 2458SOL    HW219011   0.440   3.126  14.468 -0.0386  1.2417  0.3191
 2459SOL     OW19012   3.809   3.864  16.484 -0.0563 -0.1809  0.6480
 2459SOL    HW119013   3.874   3.918  16.530 -0.4048  0.6831  0.1278
 2459SOL    HW219014   3.821   3.907  16.399  0.1271 -0.0263  0.7522
 2460SOL     OW19015   2.109   4.306   5.492  0.2874  0.0323 -0.1149
 2460SOL    HW119016   2.026   4.258   5.494  0.4685 -0.3590 -2.0457
 2460SOL    HW219017   2.085   4.382   5.439 -0.0390  0.7805  1.1014
 2461SOL     OW19018   1.949   0.595  14.255  0.2442  0.8116  0.3317
 2461SOL    HW119019   1.875   0.592  14.195 -1.8626  1.5051  2.9070
 2461SOL    HW219020   1.969   0.689  14.254 -0.5400  0.9297 -2.6663
 2462SOL     OW19021   0.254   0.457  15.433  0.2136 -0.4485  0.2007
 2462SOL    HW119022   0.203   0.473  15.353 -0.3770 -0.6138  0.5461
 2462SOL    HW219023   0.319   0.528  15.436  0.8142 -1.1282  2.5720
 2463SOL     OW19024   3.199   4.087   3.964 -0.1282 -0.4951 -0.4066
 2463SOL    HW119025   3.277   4.081   3.909 -0.9483 -0.1469 -1.6158
 2463SOL    HW219026   3.156   4.012   3.923  0.7385 -0.4232 -1.4472
 2464SOL     OW19027   4.141   2.523  13.726  0.5842  0.7428 -0.5609
 2464SOL    HW119028   4.107   2.545  13.639 -0.0441  0.2998 -0.4224
 2464SOL    HW219029   4.235   2.542  13.719  0.9704 -1.1151 -0.3829
 2465SOL     OW19030   1.032   3.654   1.664  0.1681  0.4413 -0.5581
 2465SOL    HW119031   1.108   3.680   1.716 -0.0449  2.5742 -1.3335
 2465SOL    HW219032   1.070   3.580   1.617  0.1595 -1.0027  1.6915
 2466SOL     OW19033   1.712   4.063  15.811  0.0117  0.0840 -0.6066
 2466SOL    HW119034   1.623   4.076  15.842  0.5114  0.1842  0.7560
 2466SOL    HW219035   1.734   4.123  15.740  0.3281  1.8290  0.9695
 2467SOL     OW19036   1.333   4.607  11.276  0.3685 -0.2320  0.3051
 2467SOL    HW119037   1.424   4.582  11.287  0.2896 -1.4724 -1.8240
 2467SOL    HW219038   1.327   4.617  11.181 -1.7705  0.4190  0.5056
 2468SOL     OW19039   2.689   1.025   5.147 -0.4487 -0.0019 -0.4588
 2468SOL    HW119040   2.781   1.046   5.134  0.1014 -2.3603 -0.3413
 2468SOL    HW219041   2.681   0.959   5.078  0.7276  0.9695 -1.5253
 2469SOL     OW19042   1.427   4.623   6.428  0.4808  0.0976  0.1760
 2469SOL    HW119043   1.518   4.592   6.430  0.3423 -0.3103  0.1590
 2469SOL    HW219044   1.431   4.713   6.458  0.0257  0.5049 -1.0024
 2470SOL     OW19045   1.922   0.030   5.276  0.2596  0.0864 -0.0296
 2470SOL    HW119046   2.007   0.057   5.309  0.5247  0.2275 -0.8329
 2470SOL    HW219047   1.864   0.103   5.299 -0.5578 -1.4719  2.8805
 2471SOL     OW19048   3.571   1.629   3.903  0.4239  0.9181 -0.1269
 2471SOL    HW119049   3.534   1.598   3.986  3.2993  0.5942  1.0183
 2471SOL    HW219050   3.506   1.697   3.882  1.9454  2.5866  0.5662
 2472SOL     OW19051   4.344   0.248   9.255 -0.3764  0.1789 -0.1031
 2472SOL    HW119052   4.300   0.234   9.171  0.3735 -3.4306  0.1095
 2472SOL    HW219053   4.358   0.157   9.283 -0.6975  0.0469 -0.3742
 2473SOL     OW19054   1.064   3.704   1.180 -0.1565  0.1930  0.9800
 2473SOL    HW119055   1.140   3.729   1.233  0.4820 -2.5053  1.3322
 2473SOL    HW219056   1.019   3.649   1.244 -3.5623 -2.1444 -3.4729
 2474SOL     OW19057   0.841   0.263   3.189 -0.2644 -0.2470 -0.2740
 2474SOL    HW119058   0.919   0.214   3.165 -0.8492 -1.1949 -0.2471
 2474SOL    HW219059   0.771   0.203   3.162 -2.0379 -0.4577  4.7289
 2475SOL     OW19060   2.527   1.631  15.029 -0.3597 -0.6373  0.3809
 2475SOL    HW119061   2.553   1.687  15.102 -2.0983 -0.7546  1.0946
 2475SOL    HW219062   2.615   1.620  14.992 -0.2055 -1.7668  1.0856
 2476SOL     OW19063   2.965   1.213   8.535 -0.3351 -0.3549 -0.2722
 2476SOL    HW119064   3.025   1.142   8.514  1.5890  0.9973  0.6538
 2476SOL    HW219065   2.948   1.242   8.445 -0.3874  0.3248 -0.0461
 2477SOL     OW19066   2.379   4.638  12.228 -0.6553 -0.3241  0.1634
 2477SOL    HW119067   2.313   4.658  12.161 -1.0321 -0.4171  0.5033
 2477SOL    HW219068   2.351   4.550  12.253 -1.9434  0.1618  0.4774
 2478SOL     OW19069   4.393   4.152   8.387 -0.3831 -0.0307  0.1974
 2478SOL    HW119070   4.463   4.087   8.386  0.1410  0.6091 -2.7901
 2478SOL    HW219071   4.429   4.209   8.455 -0.1405 -2.1004  1.8046
 2479SOL     OW19072   1.236   0.205   4.202 -0.3126  0.2236  0.0214
 2479SOL    HW119073   1.225   0.121   4.157 -0.3581  0.1158  0.2311
 2479SOL    HW219074   1.170   0.258   4.158 -0.1295  0.5785  0.1741
 2480SOL     OW19075   1.002   3.929   3.052  0.2764  0.2528 -0.1718
 2480SOL    HW119076   0.920   3.896   3.089  0.6611 -2.7752 -2.0685
 2480SOL    HW219077   1.009   4.012   3.100 -1.9569  0.4052 -0.0862
 2481SOL     OW19078   3.270   1.876   2.568  0.1759 -0.4145  0.2270
 2481SOL    HW119079   3.274   1.963   2.530 -0.9275  0.3391  1.8243
 2481SOL    HW219080   3.211   1.888   2.642 -1.6174 -0.0244 -1.2716
 2482SOL     OW19081   2.591   0.552   7.717  0.3013 -0.0780 -0.2751
 2482SOL    HW119082   2.539   0.591   7.648 -0.8715 -1.8954 -0.4116
 2482SOL    HW219083   2.529   0.535   7.788  1.1954  1.4353  0.8930
 2483SOL     OW19084   2.674   2.517   2.834  0.1527  0.1906  0.0256
 2483SOL    HW119085   2.712   2.456   2.771 -1.8108 -0.9014 -0.1014
 2483SOL    HW219086   2.584   2.485   2.833 -0.6786  2.5737  0.1672
 2484SOL     OW19087   2.227   1.277   7.436  1.0200 -0.2409  0.4096
 2484SOL    HW119088   2.229   1.341   7.365 -1.7876 -0.8164 -0.2069
 2484SOL    HW219089   2.132   1.265   7.437  1.3515 -2.8262  0.7826
 2485SOL     OW19090   1.958   0.025   3.703 -0.0804 -0.2974  0.1138
 2485SOL    HW119091   1.926   4.673   3.692 -0.1288 -0.2097 -0.4819
 2485SOL    HW219092   1.972   0.048   3.611  0.4436  0.3610  0.3617
 2486SOL     OW19093   3.627   2.171   4.092  0.0236 -0.0793  0.2542
 2486SOL    HW119094   3.573   2.213   4.159  2.0487  1.5685  0.8510
 2486SOL    HW219095   3.709   2.214   4.114  0.3832 -0.0649 -1.1708
 2487SOL     OW19096   2.369   3.783   0.611 -0.2763  0.3356  0.5033
 2487SOL    HW119097   2.342   3.872   0.632 -1.5718  0.0120  0.1840
 2487SOL    HW219098   2.410   3.781   0.525 -1.0713 -0.3333  0.1498
 2488SOL     OW19099   3.360   1.914   0.793 -0.0165  0.0897  0.1645
 2488SOL    HW119100   3.302   1.990   0.789  1.7069  1.3563 -0.8656
 2488SOL    HW219101   3.417   1.954   0.860  1.3615  0.3741 -1.1775
 2489SOL     OW19102   2.179   0.318   3.385  0.6222  0.2502 -0.0800
 2489SOL    HW119103   2.180   0.370   3.466 -2.5246  0.6456 -0.2791
 2489SOL    HW219104   2.094   0.339   3.345 -1.1530 -3.0652  1.9415
 2490SOL     OW19105   2.697   0.076   8.764  0.3646  0.1786  1.0266
 2490SOL    HW119106   2.641   0.148   8.735  1.0016 -0.5347 -2.0098
 2490SOL    HW219107   2.787   0.109   8.756  0.8812 -1.5260 -0.2265
 2491SOL     OW19108   1.251   3.349   3.261 -0.1616 -0.3197  0.4109
 2491SOL    HW119109   1.193   3.424   3.274 -0.4603 -0.4846  0.0528
 2491SOL    HW219110   1.299   3.364   3.342  1.6744  1.2081 -0.9446
 2492SOL     OW19111   3.528   3.786   8.917 -0.0339 -0.4445 -0.0689
 2492SOL    HW119112   3.543   3.789   8.822 -1.4029 -3.8256 -0.4077
 2492SOL    HW219113   3.593   3.722   8.948 -0.2766 -0.4709  0.3875
 2493SOL     OW19114   0.437   2.440   0.512 -0.0348  0.2167  0.5374
 2493SOL    HW119115   0.525   2.458   0.546 -0.0789 -0.7092  1.1726
 2493SOL    HW219116   0.443   2.345   0.501 -0.4167  0.6215 -2.9186
 2494SOL     OW19117   4.188   4.317  14.981  0.1562  0.2988 -0.2444
 2494SOL    HW119118   4.155   4.330  14.892  0.0974 -1.6797 -0.5142
 2494SOL    HW219119   4.122   4.360  15.034 -0.3808 -0.7401 -0.0623
 2495SOL     OW19120   1.218   0.365   1.843 -0.1356 -0.4539 -0.4603
 2495SOL    HW119121   1.139   0.394   1.797 -2.0289 -0.5643  2.7007
 2495SOL    HW219122   1.207   0.271   1.852  0.8406 -0.3876  1.5254
 2496SOL     OW19123   0.285   4.643   1.522  0.3646 -0.2024 -0.4365
 2496SOL    HW119124   0.344   4.592   1.576 -2.0998 -0.3878  2.0657
 2496SOL    HW219125   0.282   4.576   1.454  0.2491 -1.2699  0.6258
 2497SOL     OW19126   4.719   4.333   4.592  0.0432 -0.5043  0.1280
 2497SOL    HW119127   0.026   4.261   4.636 -1.1034 -1.3050 -0.0322
 2497SOL    HW219128   4.684   4.279   4.521 -0.7723 -0.0596  0.1960
 2498SOL     OW19129   3.396   1.384   6.819 -0.2121 -0.3158 -0.2073
 2498SOL    HW119130   3.422   1.310   6.764  0.8588 -0.6888  0.8139
 2498SOL    HW219131   3.301   1.372   6.814 -0.2981 -0.1539  1.0055
 2499SOL     OW19132   2.673   0.036   6.743  0.2951 -0.0515 -0.4266
 2499SOL    HW119133   2.611   0.109   6.744  0.4668  0.1054 -1.2361
 2499SOL    HW219134   2.733   0.054   6.816 -1.3218  2.7261  0.2188
 2500SOL     OW19135   3.784   2.460   8.955  0.2265 -0.6729  0.1138
 2500SOL    HW119136   3.706   2.427   8.999  0.5918 -0.1862  1.1266
 2500SOL    HW219137   3.757   2.551   8.969 -0.6956 -0.6811 -1.6307
 2501SOL     OW19138   4.391   1.336   6.498  0.1582 -0.6121  0.0850
 2501SOL    HW119139   4.367   1.302   6.584  0.3864 -1.0367 -0.0186
 2501SOL    HW219140   4.305   1.334   6.456  0.1049 -1.4042  0.2339
 2502SOL     OW19141   0.743   1.945  16.236 -0.1988  0.0540  0.3332
 2502SOL    HW119142   0.716   1.870  16.288  4.2059 -2.2416 -0.6701
 2502SOL    HW219143   0.658   1.961  16.195 -0.7059 -2.3616  0.4815
 2503SOL     OW19144   4.722   3.711   9.524 -0.1854 -0.5722 -0.3866
 2503SOL    HW119145   4.714   3.619   9.548 -0.5924 -0.6477 -0.8188
 2503SOL    HW219146   4.679   3.700   9.439 -1.0966  0.6164 -0.0790
 2504SOL     OW19147   2.172   4.186   9.595  0.2940 -0.0877  0.8658
 2504SOL    HW119148   2.083   4.219   9.605  0.4120  0.9602 -1.6564
 2504SOL    HW219149   2.215   4.272   9.594  0.3398 -0.2101 -4.5264
 2505SOL     OW19150   0.737   3.235   3.383  0.2936  0.6042 -0.6320
 2505SOL    HW119151   0.662   3.282   3.419 -0.3173 -0.9188  0.0696
 2505SOL    HW219152   0.800   3.230   3.454 -0.5789 -0.0280  0.0925
 2506SOL     OW19153   1.849   3.710   6.533  0.1261  0.1137 -0.0723
 2506SOL    HW119154   1.785   3.780   6.548  0.0662  0.1943 -0.7023
 2506SOL    HW219155   1.798   3.634   6.505 -1.8555 -0.3258  4.6760
 2507SOL     OW19156   0.579   4.216   0.369  0.1167 -0.0382  0.0341
 2507SOL    HW119157   0.505   4.245   0.316  1.5688  2.0167 -0.8643
 2507SOL    HW219158   0.579   4.294   0.424 -0.5666 -1.0634  1.4947
 2508SOL     OW19159   0.601   0.365   8.630 -0.2233 -0.6729  0.0311
 2508SOL    HW119160   0.569   0.309   8.701 -1.6625  1.2323  0.8506
 2508SOL    HW219161   0.688   0.324   8.619  0.0583 -0.1636  0.3729
 2509SOL     OW19162   3.105   2.896   8.728 -0.3547  0.3144 -0.3760
 2509SOL    HW119163   3.112   2.859   8.640 -0.4423  0.4546 -0.4434
 2509SOL    HW219164   3.059   2.972   8.692 -0.9794 -0.0704 -0.3893
 2510SOL     OW19165   0.503   0.950   5.246 -1.0553 -0.4381  0.1956
 2510SOL    HW119166   0.522   1.019   5.182 -2.4540 -1.1076 -0.9389
 2510SOL    HW219167   0.592   0.916   5.251 -0.9116 -0.2633 -1.0077
 2511SOL     OW19168   4.100   1.701   7.486  0.3053  0.0764  0.3460
 2511SOL    HW119169   4.051   1.647   7.425 -0.6645  1.4293 -0.0592
 2511SOL    HW219170   4.138   1.640   7.549  0.0386 -1.2066 -0.7407
 2512SOL     OW19171   1.365   0.763   9.733  0.0729 -0.0458 -0.5234
 2512SOL    HW119172   1.428   0.691   9.735  0.2207  0.1186  0.8763
 2512SOL    HW219173   1.378   0.793   9.643  0.8111  0.6669 -0.1832
 2513SOL     OW19174   1.318   2.441   2.984 -0.0216  0.1441  0.5561
 2513SOL    HW119175   1.352   2.496   3.054  1.9065  1.7843 -1.6796
 2513SOL    HW219176   1.340   2.487   2.903  1.9831 -1.5112  0.1741
 2514SOL     OW19177   3.172   2.574   9.329  0.1246  0.5963  0.3444
 2514SOL    HW119178   3.223   2.650   9.305  3.6044 -1.9153 -0.1527
 2514SOL    HW219179   3.130   2.600   9.411 -2.3532 -2.2792  0.0017
 2515SOL     OW19180   4.662   2.214   7.963 -0.3505 -0.5425 -0.4000
 2515SOL    HW119181   4.723   2.141   7.977 -0.4877 -0.9388 -1.7936
 2515SOL    HW219182   4.715   2.292   7.981  1.8731 -1.4884 -2.6900
 2516SOL     OW19183   3.401   4.209   3.555 -0.3679 -0.1035 -0.0369
 2516SOL    HW119184   3.309   4.237   3.553 -0.2531  0.0933 -2.7258
 2516SOL    HW219185   3.448   4.289   3.530 -1.7069  0.4085 -0.9360
 2517SOL     OW19186   0.222   0.600   3.193 -0.8562 -0.5413  0.5014
 2517SOL    HW119187   0.200   0.601   3.286 -1.4825  1.2302  0.3201
 2517SOL    HW219188   0.206   0.688   3.160 -0.0634  0.2895  2.3364
 2518SOL     OW19189   1.309   1.957   0.019  0.7828 -0.2850 -0.0914
 2518SOL    HW119190   1.350   1.871   0.012  1.3960 -0.1818  2.0063
 2518SOL    HW219191   1.229   1.929   0.064  0.1009  2.7580  0.6373
 2519SOL     OW19192   0.596   1.792  12.584  0.1521 -0.0873  0.0831
 2519SOL    HW119193   0.575   1.698  12.586  2.3822 -0.5435  2.3109
 2519SOL    HW219194   0.587   1.815  12.492  1.6078 -0.8979 -0.2714
 2520SOL     OW19195   2.068   0.181   4.957 -0.4002 -0.1677 -0.7078
 2520SOL    HW119196   2.028   0.204   4.873 -0.6794 -0.0042 -0.5269
 2520SOL    HW219197   2.005   0.115   4.985 -1.9333  1.3205 -0.6786
 2521SOL     OW19198   1.231   3.385   4.902  0.1951 -0.0046  0.5630
 2521SOL    HW119199   1.246   3.471   4.862 -2.1036  0.6206  1.0280
 2521SOL    HW219200   1.259   3.403   4.992  0.4412  1.2690  0.2301
 2522SOL     OW19201   3.064   3.391   6.875  0.2610 -0.0645 -0.0951
 2522SOL    HW119202   3.148   3.379   6.921 -0.2049  0.7431  0.9644
 2522SOL    HW219203   3.055   3.302   6.841 -1.6423  1.0926 -2.5568
 2523SOL     OW19204   2.513   1.703   5.757  0.1323 -0.1599 -0.0942
 2523SOL    HW119205   2.483   1.778   5.706 -0.8242  0.2346  1.0874
 2523SOL    HW219206   2.547   1.746   5.835  0.0505 -1.8003  0.8423
 2524SOL     OW19207   0.371   3.291   2.299 -0.0167  0.3435  0.0443
 2524SOL    HW119208   0.305   3.330   2.241  0.6631 -0.1876 -1.1068
 2524SOL    HW219209   0.325   3.276   2.381  0.3391 -1.2104 -0.0404
 2525SOL     OW19210   0.923   1.504   3.254  0.5284 -0.8358 -0.2234
 2525SOL    HW119211   0.863   1.430   3.257  1.0976 -1.3327 -0.9302
 2525SOL    HW219212   0.921   1.526   3.347  1.5695 -5.4528  0.8879
 2526SOL     OW19213   1.243   1.013   2.746  0.6783 -0.3248 -0.1350
 2526SOL    HW119214   1.324   1.026   2.697  1.2852 -2.5084  0.2919
 2526SOL    HW219215   1.274   0.961   2.820  0.5881  1.2151  0.9921
 2527SOL     OW19216   2.554   3.811   7.110 -0.2752  0.0664  0.0145
 2527SOL    HW119217   2.468   3.771   7.097 -1.3962  1.7020  2.4750
 2527SOL    HW219218   2.571   3.831   7.018  0.1576 -0.2904  0.0199
 2528SOL     OW19219   2.177   4.185   2.766  0.0941  0.4889  0.2391
 2528SOL    HW119220   2.227   4.148   2.693  0.8187 -0.9207  1.4681
 2528SOL    HW219221   2.098   4.224   2.728 -0.6068 -0.0883  1.1016
 2529SOL     OW19222   4.613   2.323   1.704  0.1049 -0.1503 -0.0864
 2529SOL    HW119223   4.619   2.307   1.798  0.8841  2.3403  0.3001
 2529SOL    HW219224   4.670   2.253   1.674 -0.5760 -0.2733 -1.1031
 2530SOL     OW19225   3.384   1.933   1.246 -0.2844 -0.1255  0.9915
 2530SOL    HW119226   3.305   1.987   1.236 -0.0509  0.0106 -0.1265
 2530SOL    HW219227   3.426   1.972   1.322 -0.5859 -1.0162  1.6185
 2531SOL     OW19228   3.545   2.816   4.293  0.7805 -0.0986 -0.3935
 2531SOL    HW119229   3.544   2.732   4.248 -1.0261 -0.5026  0.4360
 2531SOL    HW219230   3.639   2.836   4.281  0.2561  1.9582 -1.1778
 2532SOL     OW19231   2.886   0.187   2.439  0.3103  0.6809 -0.0162
 2532SOL    HW119232   2.903   0.240   2.516 -1.1287  0.6496  0.3210
 2532SOL    HW219233   2.913   0.099   2.466 -0.5032 -0.0524 -1.5280
 2533SOL     OW19234   1.176   1.427   1.047 -0.2919  0.3114 -0.0124
 2533SOL    HW119235   1.205   1.494   0.984  0.7539  0.2133  0.3502
 2533SOL    HW219236   1.232   1.351   1.030  1.2324  1.3950  0.0778
 2534SOL     OW19237   2.597   2.792   1.026  0.1764  0.1874  1.0460
 2534SOL    HW119238   2.685   2.829   1.033 -0.0646  1.3514 -2.1051
 2534SOL    HW219239   2.566   2.849   0.955 -1.5645 -1.5047  0.4575
 2535SOL     OW19240   4.563   3.482   3.375  0.1314  0.1009  0.6671
 2535SOL    HW119241   4.538   3.423   3.305  0.8953  1.0256 -0.3821
 2535SOL    HW219242   4.604   3.552   3.323  0.8988 -0.8197  0.0401
 2536SOL     OW19243   0.058   1.120   5.086  0.1918 -0.0224  0.6614
 2536SOL    HW119244   0.087   1.060   5.018 -0.4855 -1.4335  1.6059
 2536SOL    HW219245   0.080   1.081   5.171 -2.8201 -1.1199  0.9685
 2537SOL     OW19246   2.728   2.589   2.468  0.3561  0.3794 -0.0055
 2537SOL    HW119247   2.667   2.606   2.540 -0.3961  0.1947 -0.6041
 2537SOL    HW219248   2.795   2.657   2.474 -0.0913  0.7669  0.6251
 2538SOL     OW19249   1.084   2.888   7.786  0.1790  0.5459 -0.8001
 2538SOL    HW119250   1.033   2.953   7.738  0.3489 -0.0137 -1.7552
 2538SOL    HW219251   1.165   2.938   7.800 -0.5196  1.2115  0.7657
 2539SOL     OW19252   0.676   4.538   2.631 -0.2299 -0.1453 -0.6526
 2539SOL    HW119253   0.755   4.545   2.684 -0.2705 -2.1677 -0.3360
 2539SOL    HW219254   0.649   4.446   2.640 -3.0427  0.6819 -0.6050
 2540SOL     OW19255   2.576   3.904   3.856 -0.5510  0.1132  0.5899
 2540SOL    HW119256   2.650   3.844   3.854  1.1796  2.1703  2.9878
 2540SOL    HW219257   2.574   3.954   3.774 -0.2457 -1.1311 -0.1831
 2541SOL     OW19258   3.641   3.862   4.803 -0.1213 -0.1388  0.1996
 2541SOL    HW119259   3.714   3.842   4.861  0.6710 -1.1124 -1.1362
 2541SOL    HW219260   3.694   3.901   4.733 -0.1433 -2.0468 -0.8937
 2542SOL     OW19261   1.885   1.914   7.227 -0.0688  0.4351  0.5745
 2542SOL    HW119262   1.899   1.994   7.177  0.6662  0.6506  1.1303
 2542SOL    HW219263   1.833   1.863   7.165  0.1751 -1.4328  1.8995
 2543SOL     OW19264   4.010   2.306   5.702  0.5839 -0.3620 -0.0993
 2543SOL    HW119265   4.005   2.262   5.617 -1.8027  1.5658 -0.9578
 2543SOL    HW219266   3.923   2.297   5.741  1.2463 -0.8010  1.3004
 2544SOL     OW19267   1.280   0.400  11.342  0.0862  0.3553 -0.2091
 2544SOL    HW119268   1.357   0.378  11.290 -0.3975  1.5730 -1.4613
 2544SOL    HW219269   1.245   0.315  11.369 -0.9642  1.0747  0.6957
 2545SOL     OW19270   3.942   0.178   9.049 -0.2974  0.7151 -0.1805
 2545SOL    HW119271   3.914   0.102   8.998 -0.2520 -0.0073  0.8818
 2545SOL    HW219272   3.870   0.242   9.049 -2.1216 -1.3563  1.9762
 2546SOL     OW19273   4.652   1.022   6.489  0.0431  0.4220  0.9470
 2546SOL    HW119274   4.680   1.007   6.579  0.2170 -1.9498  0.4945
 2546SOL    HW219275   4.674   1.115   6.476 -1.7665  0.9583  1.6392
 2547SOL     OW19276   3.413   4.628   4.942 -0.1544  0.6732 -0.5621
 2547SOL    HW119277   3.341   4.595   4.996  1.2196 -1.6213 -0.1324
 2547SOL    HW219278   3.470   4.553   4.926 -0.5642  0.2759 -0.1588
 2548SOL     OW19279   1.744   3.815  13.819  0.4303  0.2164  0.4311
 2548SOL    HW119280   1.826   3.790  13.775  1.9128  0.4550  3.0168
 2548SOL    HW219281   1.781   3.847  13.902 -0.1100 -0.9179  1.1128
 2549SOL     OW19282   2.117   1.674   3.340 -0.3974 -1.1356  0.3098
 2549SOL    HW119283   2.077   1.755   3.310  2.2027 -0.0857 -0.3148
 2549SOL    HW219284   2.100   1.686   3.433  0.4093 -1.4334  0.5009
 2550SOL     OW19285   2.207   0.394  16.417  0.4163 -0.1174  0.0599
 2550SOL    HW119286   2.190   0.481  16.382 -0.3061 -0.4429 -0.4137
 2550SOL    HW219287   2.288   0.403  16.467 -0.0910  2.3652  0.4316
 2551SOL     OW19288   1.144   4.497   2.097 -0.2050 -0.1122 -0.3043
 2551SOL    HW119289   1.188   4.579   2.075 -2.7470  1.9605  2.3509
 2551SOL    HW219290   1.184   4.423   2.051  1.8413  0.6761  0.2009
 2552SOL     OW19291   3.563   0.238  10.027  0.0686 -0.1695  0.3115
 2552SOL    HW119292   3.511   0.167  10.066 -0.8980  0.0637 -0.5499
 2552SOL    HW219293   3.583   0.198   9.942 -0.4380 -0.0738  0.1442
 2553SOL     OW19294   0.595   0.605   6.982  0.6091 -0.7565  0.1168
 2553SOL    HW119295   0.630   0.656   6.910  1.8949 -1.9720 -0.1219
 2553SOL    HW219296   0.541   0.674   7.020 -1.6950 -1.5944 -1.6554
 2554SOL     OW19297   3.227   3.196   4.279 -0.0335  1.0925  0.1736
 2554SOL    HW119298   3.256   3.110   4.310 -1.3233  0.2219 -1.0835
 2554SOL    HW219299   3.183   3.239   4.353  1.2064  2.1341  0.3101
 2555SOL     OW19300   1.655   1.164   4.647  0.0691 -0.1252 -0.5178
 2555SOL    HW119301   1.665   1.102   4.575  0.8748  1.1651 -1.5183
 2555SOL    HW219302   1.727   1.135   4.703  0.5149  1.9342 -0.0172
 2556SOL     OW19303   1.105   0.489   7.278  0.3138  0.1835  0.0580
 2556SOL    HW119304   1.186   0.462   7.234  0.6210 -1.5979  1.7209
 2556SOL    HW219305   1.151   0.529   7.351 -1.2638  0.7761  0.7436
 2557SOL     OW19306   4.612   0.087   1.621 -0.0458 -0.0615 -0.1769
 2557SOL    HW119307   4.706   0.089   1.634  0.2371 -0.6165 -2.1315
 2557SOL    HW219308   4.610   0.131   1.537  2.5622 -2.0335 -1.2772
 2558SOL     OW19309   3.771   0.799   6.179  0.2415 -0.2797  0.4625
 2558SOL    HW119310   3.805   0.773   6.093 -0.0187  1.5872 -0.2068
 2558SOL    HW219311   3.706   0.731   6.197 -1.2613  0.4932 -2.0194
 2559SOL     OW19312   3.070   4.078  10.543  0.0769 -0.2101 -0.2577
 2559SOL    HW119313   3.036   4.167  10.532 -1.4649 -0.5313  1.8826
 2559SOL    HW219314   3.138   4.105  10.605 -1.0022 -2.2855  1.8336
 2560SOL     OW19315   3.541   3.125   6.232 -0.3101  0.1359 -0.2678
 2560SOL    HW119316   3.575   3.137   6.143  1.2316 -0.9921  0.1717
 2560SOL    HW219317   3.465   3.183   6.229  2.2093  3.4189  1.0514
 2561SOL     OW19318   0.992   3.123   9.811  0.9208  0.5095  0.4179
 2561SOL    HW119319   1.049   3.106   9.736  0.4527 -0.9218  0.3758
 2561SOL    HW219320   1.051   3.179   9.860  0.6644  1.1635 -0.0271
 2562SOL     OW19321   3.358   4.581  11.835  0.6187  0.1456 -0.1288
 2562SOL    HW119322   3.287   4.590  11.899 -0.1896  1.4406 -1.2165
 2562SOL    HW219323   3.372   4.674  11.816  1.7576  0.0648  0.3099
 2563SOL     OW19324   0.006   2.112   3.796 -0.4551 -0.0357  0.0975
 2563SOL    HW119325   0.030   2.170   3.723  1.7322 -0.1487  0.7276
 2563SOL    HW219326   4.697   2.048   3.743 -1.2455  1.1572 -0.6550
 2564SOL     OW19327   0.086   3.554  11.192  0.2728 -0.1273 -0.5773
 2564SOL    HW119328   0.029   3.631  11.182 -0.2695 -0.0997  2.7638
 2564SOL    HW219329   0.115   3.545  11.102 -0.6459  0.7579 -0.9652
 2565SOL     OW19330   3.160   2.065   1.323  0.1423  0.5473 -0.2498
 2565SOL    HW119331   3.076   2.062   1.368 -0.9474  4.0984 -2.0710
 2565SOL    HW219332   3.185   2.147   1.366 -1.4765  0.6679  0.4729
 2566SOL     OW19333   3.851   0.962  12.653  0.4283  0.0657  0.2484
 2566SOL    HW119334   3.903   1.042  12.667  1.3954 -0.6636  0.8253
 2566SOL    HW219335   3.904   0.914  12.589 -0.3004 -0.7570  0.2701
 2567SOL     OW19336   4.095   3.884  10.411 -0.1164  0.0489 -0.4464
 2567SOL    HW119337   4.094   3.835  10.328  1.0577 -1.3648  0.3795
 2567SOL    HW219338   4.117   3.809  10.466  0.4648 -1.7279 -3.0783
 2568SOL     OW19339   3.265   2.147   2.285  0.4888  0.2409 -0.3963
 2568SOL    HW119340   3.311   2.146   2.201  0.9096  2.0074 -0.1931
 2568SOL    HW219341   3.177   2.123   2.257  0.3525  1.1103 -0.7198
 2569SOL     OW19342   1.729   4.240  17.098 -0.1352  0.1460  0.3412
 2569SOL    HW119343   1.718   4.271  17.008  0.4619 -2.9826 -0.8032
 2569SOL    HW219344   1.804   4.285  17.138 -1.0440  1.6463  0.3910
 2570SOL     OW19345   4.659   1.381   0.550 -0.3325 -0.4398 -0.3085
 2570SOL    HW119346   4.586   1.431   0.587 -0.7701 -1.5105  0.2590
 2570SOL    HW219347   4.711   1.368   0.629 -0.2334 -1.5358 -0.5632
 2571SOL     OW19348   3.030   2.023   7.733  0.2198  0.3675  0.3120
 2571SOL    HW119349   3.038   2.118   7.742 -3.1701  0.5739  1.2145
 2571SOL    HW219350   2.935   2.027   7.723  0.4658  0.0773 -2.0705
 2572SOL     OW19351   0.775   1.175   4.519 -0.0984 -0.0648  0.3901
 2572SOL    HW119352   0.832   1.197   4.445  1.0464  0.5361  1.4514
 2572SOL    HW219353   0.685   1.186   4.491 -0.0093 -0.9251 -0.2623
 2573SOL     OW19354   2.187   3.946   5.606 -0.4758 -0.4439 -0.9674
 2573SOL    HW119355   2.148   3.952   5.518 -0.2234  2.6694 -0.8924
 2573SOL    HW219356   2.178   4.033   5.645  0.0767 -0.1293 -1.5369
 2574SOL     OW19357   0.217   1.858  15.533  0.4743  0.1419  0.0522
 2574SOL    HW119358   0.282   1.791  15.554 -0.9218 -1.9099 -2.2768
 2574SOL    HW219359   0.134   1.812  15.543 -0.1464  0.7671 -2.2760
 2575SOL     OW19360   0.753   2.086   3.363 -0.5615  0.3829  0.3705
 2575SOL    HW119361   0.835   2.104   3.407 -1.1249 -0.1694  1.6340
 2575SOL    HW219362   0.691   2.145   3.405  1.9228  0.9164  3.1924
 2576SOL     OW19363   1.828   4.253  15.609 -0.3974  0.3418  0.1527
 2576SOL    HW119364   1.823   4.337  15.655 -0.2593 -0.3234  1.3502
 2576SOL    HW219365   1.890   4.273  15.539  0.5899 -1.8810  0.4057
 2577SOL     OW19366   1.417   2.207   4.211 -0.6522  0.3241 -0.1856
 2577SOL    HW119367   1.503   2.221   4.251  0.1807 -3.1917 -0.7381
 2577SOL    HW219368   1.446   2.144   4.145 -1.2627 -0.1704  0.0103
 2578SOL     OW19369   0.994   0.634   3.070 -0.0152  0.3473  0.6554
 2578SOL    HW119370   1.045   0.573   3.123  1.3086 -0.0046 -1.0055
 2578SOL    HW219371   1.062   0.700   3.056  1.2479 -1.2815 -0.9197
 2579SOL     OW19372   4.012   4.574  13.126  0.0103  0.0018 -0.0592
 2579SOL    HW119373   4.030   4.587  13.033  0.8713 -1.4919 -0.1010
 2579SOL    HW219374   3.939   4.512  13.124 -1.1217  1.3464 -0.4146
 2580SOL     OW19375   0.179   3.623   3.229 -0.0655  0.8616 -0.4317
 2580SOL    HW119376   0.132   3.555   3.181  0.2135 -1.3451  2.3771
 2580SOL    HW219377   0.107   3.673   3.267 -1.2116 -0.2885 -1.1027
 2581SOL     OW19378   2.347   2.915   8.791  0.2357  0.2198  0.2301
 2581SOL    HW119379   2.378   2.914   8.881 -1.3703 -0.2642  0.7874
 2581SOL    HW219380   2.346   3.010   8.781  1.6959  0.1489 -0.5920
 2582SOL     OW19381   3.214   2.254  17.720  0.4612  0.6029 -0.4332
 2582SOL    HW119382   3.174   2.167  17.713 -0.3996  0.9376  0.2638
 2582SOL    HW219383   3.301   2.242  17.682  0.5826  1.4510 -0.4232
 2583SOL     OW19384   0.719   4.343   8.104  0.1713 -0.8242 -0.4747
 2583SOL    HW119385   0.774   4.394   8.045  0.4934  3.7480  3.7394
 2583SOL    HW219386   0.719   4.406   8.176  2.0769 -1.4749  0.1061
 2584SOL     OW19387   0.759   2.312  10.662 -1.0636 -0.1584  0.1357
 2584SOL    HW119388   0.755   2.357  10.578 -0.4426  1.3168  0.8832
 2584SOL    HW219389   0.843   2.266  10.657 -0.4034  1.0020  0.4348
 2585SOL     OW19390   1.065   1.267   5.653  0.1511  0.5560 -0.3926
 2585SOL    HW119391   1.106   1.353   5.643 -0.8207  0.9214 -1.3131
 2585SOL    HW219392   1.122   1.226   5.588  1.0949  1.3538 -0.0665
 2586SOL     OW19393   2.453   1.870   9.296 -0.1990 -0.2384 -0.1726
 2586SOL    HW119394   2.471   1.797   9.237  1.0745 -2.4253  2.9628
 2586SOL    HW219395   2.423   1.833   9.379 -0.9604 -0.6222 -0.6118
 2587SOL     OW19396   3.718   2.098   0.818 -0.3528  0.0367 -0.5061
 2587SOL    HW119397   3.676   2.180   0.791 -0.8778  0.4683  1.6624
 2587SOL    HW219398   3.651   2.065   0.879  0.2490  0.0032  0.1338
 2588SOL     OW19399   2.240   0.824   8.451  0.1192 -0.0447 -0.4244
 2588SOL    HW119400   2.264   0.826   8.358  1.8413 -0.8308  0.0117
 2588SOL    HW219401   2.170   0.889   8.459 -0.8274 -1.3007  1.5594
 2589SOL     OW19402   0.795   2.406  15.682 -0.3436 -0.0720 -0.5577
 2589SOL    HW119403   0.851   2.394  15.606  0.5497  2.9958 -0.3614
 2589SOL    HW219404   0.705   2.397  15.648 -0.3962 -0.2470 -0.3698
 2590SOL     OW19405   3.124   2.462   1.878  0.0457  0.3824 -0.0607
 2590SOL    HW119406   3.153   2.553   1.871 -1.0035  0.7423  0.3071
 2590SOL    HW219407   3.182   2.418   1.815 -0.7463  0.6806 -0.9890
 2591SOL     OW19408   1.955   2.370   6.209  0.0958 -0.1376  0.9153
 2591SOL    HW119409   1.885   2.433   6.223 -0.5634 -0.2855 -1.7226
 2591SOL    HW219410   1.903   2.290   6.214  0.1768 -0.3499 -1.3478
 2592SOL     OW19411   3.613   4.377   6.360 -0.0457 -0.2521  0.1710
 2592SOL    HW119412   3.602   4.383   6.265  0.1398 -1.0777  0.0993
 2592SOL    HW219413   3.572   4.460   6.384 -0.6090 -0.0970 -1.3216
 2593SOL     OW19414   1.435   4.062   6.141 -0.0715  0.5466  0.1990
 2593SOL    HW119415   1.389   4.069   6.058 -0.9112  0.2194  0.6364
 2593SOL    HW219416   1.469   4.151   6.149  0.7298  0.1574  1.2201
 2594SOL     OW19417   1.770   0.351   6.434 -0.2439  0.3321 -0.5083
 2594SOL    HW119418   1.729   0.435   6.455  1.6637  1.1490 -0.0696
 2594SOL    HW219419   1.804   0.326   6.520  1.5759  1.5034 -0.8921
 2595SOL     OW19420   3.244   2.941   3.364  0.3908 -0.3701 -0.5425
 2595SOL    HW119421   3.150   2.928   3.363  0.2786  0.4266  0.2128
 2595SOL    HW219422   3.269   2.850   3.347 -0.8133 -0.8680  0.3254
 2596SOL     OW19423   0.780   2.476   4.307 -0.5463 -0.4396 -0.2917
 2596SOL    HW119424   0.814   2.445   4.391 -1.7815  0.8811  0.6883
 2596SOL    HW219425   0.718   2.543   4.337  1.2528  2.1245 -2.2306
 2597SOL     OW19426   4.257   4.120   0.700 -0.3258  0.1462 -0.1475
 2597SOL    HW119427   4.175   4.151   0.739  0.2537  1.0500  0.3619
 2597SOL    HW219428   4.278   4.034   0.735  2.6249  0.1633 -1.9365
 2598SOL     OW19429   3.529   2.755   2.306 -0.4856  0.1737  0.0848
 2598SOL    HW119430   3.440   2.728   2.331 -0.0305 -1.5912 -0.1967
 2598SOL    HW219431   3.574   2.726   2.386 -1.8856  0.0644  0.8422
 2599SOL     OW19432   0.687   4.343  16.593 -0.3321  0.6236  0.4714
 2599SOL    HW119433   0.665   4.258  16.555  1.1734  0.5033 -0.1167
 2599SOL    HW219434   0.781   4.329  16.608 -0.6042  0.5089  2.0756
 2600SOL     OW19435   4.280   0.453  14.879  0.1901  0.2233  0.6643
 2600SOL    HW119436   4.254   0.507  14.953  1.6495 -1.7484  2.6486
 2600SOL    HW219437   4.233   0.493  14.807 -0.1939  0.6171  1.1306
 2601SOL     OW19438   4.444   2.047   8.187 -0.4521  0.4368  0.0682
 2601SOL    HW119439   4.349   2.060   8.197 -0.5432  1.4888 -2.1946
 2601SOL    HW219440   4.476   2.128   8.226 -0.1196  1.4236 -2.2422
 2602SOL     OW19441   0.832   3.630   2.428 -1.1291 -0.2100 -0.1358
 2602SOL    HW119442   0.899   3.696   2.413 -1.2086  0.0694  0.7182
 2602SOL    HW219443   0.889   3.570   2.477  0.6093  1.2884 -0.3401
 2603SOL     OW19444   2.727   0.163   7.960 -0.3512  0.1589 -0.0723
 2603SOL    HW119445   2.711   0.146   8.053  0.0985  0.9986  0.1588
 2603SOL    HW219446   2.750   0.077   7.924 -1.8982 -0.7131  0.9974
 2604SOL     OW19447   4.651   2.277   0.494 -0.2552  0.2239  0.2349
 2604SOL    HW119448   4.603   2.200   0.464  0.7194 -0.6574  0.9237
 2604SOL    HW219449   4.610   2.352   0.451 -0.8821 -1.5793 -2.2967
 2605SOL     OW19450   4.599   1.733   0.680 -0.4534 -0.0667  0.2635
 2605SOL    HW119451   4.512   1.768   0.702 -0.5437  0.1018 -0.3433
 2605SOL    HW219452   4.597   1.750   0.586  0.9016 -1.2050  0.0378
 2606SOL     OW19453   4.280   2.218   3.261 -0.2517 -0.1577  0.1546
 2606SOL    HW119454   4.328   2.287   3.307 -1.8235  0.8377  0.2684
 2606SOL    HW219455   4.291   2.247   3.170 -1.8085 -1.6878 -0.5085
 2607SOL     OW19456   2.461   0.057   7.012  0.0581 -0.4511  0.0663
 2607SOL    HW119457   2.439   0.110   6.935  0.8045  0.2930  0.3691
 2607SOL    HW219458   2.384   0.000   7.013  0.1635 -0.5848  1.2166
 2608SOL     OW19459   2.360   1.639   2.881 -0.4083  0.2433 -0.7928
 2608SOL    HW119460   2.302   1.699   2.835  1.4025  1.4141 -1.5214
 2608SOL    HW219461   2.293   1.612   2.945  1.0294  0.6403  0.8588
 2609SOL     OW19462   0.781   1.674   4.858 -0.6996  0.5473 -0.3361
 2609SOL    HW119463   0.747   1.598   4.811  5.2813 -1.8474 -0.7333
 2609SOL    HW219464   0.716   1.686   4.927  0.3334  0.6470  0.6273
 2610SOL     OW19465   0.935   1.489  15.625 -0.1140  0.6175  0.4948
 2610SOL    HW119466   1.010   1.473  15.568 -1.3296 -0.9367 -0.6646
 2610SOL    HW219467   0.981   1.543  15.689  1.7522 -2.3353  1.5978
 2611SOL     OW19468   1.483   0.858   8.653  0.5808  0.0891 -0.1149
 2611SOL    HW119469   1.561   0.907   8.629  0.4830  0.2564 -0.0902
 2611SOL    HW219470   1.464   0.918   8.725 -0.5263 -1.1637  0.6342
 2612SOL     OW19471   0.696   3.303   7.309 -0.3077 -0.9024  0.2316
 2612SOL    HW119472   0.788   3.294   7.336 -0.6026 -0.7670  1.2823
 2612SOL    HW219473   0.706   3.352   7.228 -2.8399  1.4913  1.3763
 2613SOL     OW19474   0.224   0.567  16.687 -0.1579  0.6611 -0.1824
 2613SOL    HW119475   0.136   0.541  16.660  0.3604 -1.6539  0.4352
 2613SOL    HW219476   0.239   0.508  16.760  0.0148  1.5667  0.5172
 2614SOL     OW19477   0.528   0.907   3.472  0.6030 -0.4397 -0.2055
 2614SOL    HW119478   0.504   0.824   3.513  0.3263 -0.8976 -1.2739
 2614SOL    HW219479   0.554   0.877   3.384 -0.8194  0.1897 -0.8427
 2615SOL     OW19480   1.702   4.566   6.376  0.3090  0.0216 -0.0041
 2615SOL    HW119481   1.746   4.640   6.334  0.3769 -0.4140 -0.7079
 2615SOL    HW219482   1.767   4.498   6.362 -1.8671 -1.8582 -0.8819
 2616SOL     OW19483   0.808   0.262  16.456  0.2111  0.4086 -0.1925
 2616SOL    HW119484   0.801   0.294  16.546  1.3576  0.4448 -0.1155
 2616SOL    HW219485   0.728   0.209  16.452  0.5726 -0.1382 -0.1554
 2617SOL     OW19486   0.924   0.486   3.804 -0.5554 -0.5049 -0.6979
 2617SOL    HW119487   0.885   0.552   3.747 -1.7972 -0.3899  0.2881
 2617SOL    HW219488   0.912   0.405   3.754 -1.0440  0.4159 -2.0706
 2618SOL     OW19489   2.872   1.202  13.099 -0.9612 -0.3731 -0.0778
 2618SOL    HW119490   2.903   1.164  13.017 -0.0326  0.1220  0.0549
 2618SOL    HW219491   2.869   1.126  13.158  1.1382 -0.2075  0.2357
 2619SOL     OW19492   1.014   2.552  12.003 -0.1836  0.0821 -0.1388
 2619SOL    HW119493   1.063   2.627  11.969 -0.5982  0.0746 -0.7604
 2619SOL    HW219494   1.082   2.501  12.048 -0.5862  0.8477  1.3194
 2620SOL     OW19495   4.063   2.266   5.128 -0.2827  1.0857 -0.2142
 2620SOL    HW119496   4.097   2.347   5.090 -0.1124  0.4803 -1.3402
 2620SOL    HW219497   4.084   2.197   5.066  0.3583  0.6180  0.5212
 2621SOL     OW19498   3.909   2.859  12.845  0.1047  0.4671 -0.3237
 2621SOL    HW119499   3.814   2.874  12.845 -0.2856 -2.0077  0.1758
 2621SOL    HW219500   3.917   2.764  12.852 -1.3256  0.3117 -0.8213
 2622SOL     OW19501   2.538   1.781  16.690  0.0651 -0.2175  0.2172
 2622SOL    HW119502   2.512   1.723  16.761 -0.4975  0.2549  0.3971
 2622SOL    HW219503   2.459   1.793  16.638  1.1990  1.8068 -1.0494
 2623SOL     OW19504   1.343   4.528   0.126  0.3573 -0.0277 -0.1810
 2623SOL    HW119505   1.411   4.573   0.075  0.6393  1.9531  1.9571
 2623SOL    HW219506   1.273   4.588   0.101  0.1301 -0.1436  0.1823
 2624SOL     OW19507   0.579   1.124   4.747  0.2577  0.1942 -0.1693
 2624SOL    HW119508   0.656   1.143   4.694  0.8677  0.5463  0.8417
 2624SOL    HW219509   0.526   1.196   4.712  1.1803  0.6178 -0.6915
 2625SOL     OW19510   2.345   2.007   7.111  0.0652  0.3007  0.3059
 2625SOL    HW119511   2.279   1.970   7.170 -0.2730 -0.0645 -0.2991
 2625SOL    HW219512   2.296   2.034   7.033  0.0260  1.0691  0.5975
 2626SOL     OW19513   4.034   3.011  12.654  0.1357 -0.1210 -0.0037
 2626SOL    HW119514   4.021   3.101  12.685 -1.9836 -0.2338 -0.5984
 2626SOL    HW219515   4.004   2.960  12.729 -0.5358  0.0259 -0.1746
 2627SOL     OW19516   0.606   1.118   3.879  0.6136 -0.2188 -0.2202
 2627SOL    HW119517   0.605   1.198   3.932  0.4550 -0.3317 -0.0511
 2627SOL    HW219518   0.514   1.112   3.856  0.4039 -2.8348  1.3647
 2628SOL     OW19519   0.129   2.891   6.478  0.3382 -0.1104 -0.4297
 2628SOL    HW119520   0.215   2.877   6.517 -0.0856 -0.3266  0.4218
 2628SOL    HW219521   0.161   2.936   6.400 -2.1730  2.6636  0.1436
 2629SOL     OW19522   3.560   2.697  13.827  0.1253 -0.1774  0.0345
 2629SOL    HW119523   3.568   2.604  13.847 -0.4604  0.0540  1.3633
 2629SOL    HW219524   3.633   2.713  13.767 -0.8763 -0.8829 -1.3608
 2630SOL     OW19525   2.440   3.623  17.662 -0.6040 -0.1797 -0.8941
 2630SOL    HW119526   2.353   3.639  17.627 -1.2825 -4.0204 -1.0532
 2630SOL    HW219527   2.492   3.661  17.592  0.5896  1.4088  0.8500
 2631SOL     OW19528   4.390   1.333  15.816  0.4002  0.1170 -0.2278
 2631SOL    HW119529   4.350   1.412  15.851 -0.0177 -0.1132 -0.1800
 2631SOL    HW219530   4.330   1.323  15.742  0.1625 -1.2685  0.1463
 2632SOL     OW19531   1.438   2.395   7.519  0.5074  0.4860  0.0865
 2632SOL    HW119532   1.525   2.357   7.532  1.0603  1.4505 -0.6986
 2632SOL    HW219533   1.407   2.358   7.436 -1.4485  2.4156 -0.0540
 2633SOL     OW19534   3.314   4.349  13.769  0.0748 -0.6792  0.0514
 2633SOL    HW119535   3.306   4.255  13.785  1.9366 -0.7593  0.4458
 2633SOL    HW219536   3.385   4.370  13.829 -0.3962 -1.1403  0.7704
 2634SOL     OW19537   0.646   4.303   3.893  0.0372 -0.2074  0.1477
 2634SOL    HW119538   0.675   4.212   3.890  1.7404  0.4497 -2.9863
 2634SOL    HW219539   0.613   4.312   3.804 -0.0882  1.1320  0.3261
 2635SOL     OW19540   4.721   3.904   2.862 -0.0776 -0.6575 -0.4692
 2635SOL    HW119541   4.693   3.990   2.831  1.0598 -0.4858 -1.0190
 2635SOL    HW219542   4.652   3.839   2.852  0.3293 -0.5627 -3.7832
 2636SOL     OW19543   0.116   1.611   6.847  0.3339 -0.2438 -0.0129
 2636SOL    HW119544   0.192   1.668   6.830  2.0091 -2.9710 -1.8067
 2636SOL    HW219545   0.150   1.543   6.905 -0.3625 -1.9289 -1.5700
 2637SOL     OW19546   1.731   3.874  11.669 -0.6948 -0.1131  0.0280
 2637SOL    HW119547   1.654   3.819  11.684 -0.4941 -1.0360 -2.3533
 2637SOL    HW219548   1.699   3.949  11.719 -0.6038  0.4200 -0.7187
 2638SOL     OW19549   2.699   2.969   7.043 -0.4551  0.0938  0.4879
 2638SOL    HW119550   2.788   2.949   7.013 -0.6464 -0.1065  0.0554
 2638SOL    HW219551   2.694   2.885   7.089 -0.5619  0.6373  1.4565
 2639SOL     OW19552   1.158   0.615   3.862 -0.8054 -0.5314 -0.0279
 2639SOL    HW119553   1.159   0.656   3.775  0.9395 -1.0545 -0.2740
 2639SOL    HW219554   1.089   0.550   3.845 -1.3012 -0.1598  0.6002
 2640SOL     OW19555   0.085   0.189  12.144 -0.1373 -0.0277 -0.3234
 2640SOL    HW119556   0.149   0.137  12.193 -1.7169 -0.6557  1.0915
 2640SOL    HW219557   0.149   0.238  12.092  0.5009 -0.2261  0.2787
 2641SOL     OW19558   4.052   2.605  12.376 -0.5722 -0.0425 -0.4060
 2641SOL    HW119559   4.087   2.594  12.464  0.8723 -2.6658 -1.3005
 2641SOL    HW219560   4.128   2.616  12.318  0.5063  0.1407  1.0416
 2642SOL     OW19561   2.680   2.175   5.417 -0.1626  0.1421  0.4788
 2642SOL    HW119562   2.608   2.208   5.363  0.4418  1.6173  0.5680
 2642SOL    HW219563   2.664   2.081   5.403 -0.7387  0.4623 -0.9740
 2643SOL     OW19564   1.305   0.744   5.353  0.1380  0.1921 -0.2312
 2643SOL    HW119565   1.246   0.751   5.427 -0.1348 -2.9324 -0.1677
 2643SOL    HW219566   1.294   0.826   5.304 -0.7813  0.2564  0.0862
 2644SOL     OW19567   3.445   4.225   4.643 -0.1707 -0.4565  0.0782
 2644SOL    HW119568   3.438   4.164   4.569 -1.0650  1.0285 -1.0466
 2644SOL    HW219569   3.355   4.223   4.675 -0.5335 -2.1891 -1.0524
 2645SOL     OW19570   0.703   4.239  14.365 -0.2250 -0.2443  0.6723
 2645SOL    HW119571   0.654   4.251  14.446  1.4900  0.5346  1.6112
 2645SOL    HW219572   0.682   4.150  14.337 -0.8216 -0.6408  2.4204
 2646SOL     OW19573   1.982   0.277   3.824  0.0927 -0.3300 -0.6211
 2646SOL    HW119574   1.942   0.257   3.909 -0.3009  1.5119 -0.3682
 2646SOL    HW219575   1.941   0.200   3.785  1.2535 -1.2682  0.0101
 2647SOL     OW19576   0.618   1.435   4.961 -0.4346  0.0049  0.5179
 2647SOL    HW119577   0.547   1.416   5.022 -1.5999  2.1037 -0.1401
 2647SOL    HW219578   0.682   1.480   5.015 -2.5458 -0.0324  3.0514
 2648SOL     OW19579   0.930   3.317   3.189 -0.0030  0.0575  0.8407
 2648SOL    HW119580   0.939   3.412   3.187 -0.3630  0.0898  0.6701
 2648SOL    HW219581   0.859   3.305   3.252  0.1763 -2.3653  0.5753
 2649SOL     OW19582   0.425   4.267  17.561 -0.6047  0.2053 -0.2848
 2649SOL    HW119583   0.445   4.174  17.573  2.4341  0.8128 -0.4837
 2649SOL    HW219584   0.337   4.265  17.597 -1.0728 -0.4393 -1.4763
 2650SOL     OW19585   1.888   0.951  16.506 -0.2856  0.3464  0.2945
 2650SOL    HW119586   1.867   0.972  16.415  2.7174  3.9113  0.4087
 2650SOL    HW219587   1.815   0.991  16.553  0.6520  1.6556  0.6342
 2651SOL     OW19588   3.905   3.282   5.249  0.0523  0.2225  0.1609
 2651SOL    HW119589   3.849   3.250   5.178  1.2810 -2.8514  0.5843
 2651SOL    HW219590   3.930   3.197   5.285 -0.1025 -0.5412 -1.5161
 2652SOL     OW19591   0.921   1.670  14.790  0.3544 -0.4407 -0.1059
 2652SOL    HW119592   0.936   1.748  14.843 -0.1519  0.8472 -1.8343
 2652SOL    HW219593   0.841   1.631  14.825  0.1011 -0.9818 -1.2698
 2653SOL     OW19594   2.224   2.627  11.358 -0.0990  0.4927  0.4474
 2653SOL    HW119595   2.227   2.548  11.303  0.8726  1.2846 -0.6369
 2653SOL    HW219596   2.304   2.674  11.335 -0.9364  1.3225 -0.7820
 2654SOL     OW19597   3.321   1.777   5.283 -0.4623  0.0764 -0.0128
 2654SOL    HW119598   3.384   1.826   5.231 -0.8559  0.4292 -0.1590
 2654SOL    HW219599   3.364   1.748   5.363  1.9301 -1.1875 -1.7707
 2655SOL     OW19600   4.384   0.781   9.540  0.1689  0.4289  0.3651
 2655SOL    HW119601   4.446   0.773   9.468 -1.2813  0.2915 -0.8498
 2655SOL    HW219602   4.305   0.807   9.494  1.1711  0.9951 -1.0158
 2656SOL     OW19603   0.383   0.564  11.693 -0.1316 -0.6081 -0.0519
 2656SOL    HW119604   0.333   0.569  11.612  0.7426 -1.4054 -0.6413
 2656SOL    HW219605   0.310   0.567  11.755  0.0277 -1.4431  0.1808
 2657SOL     OW19606   2.483   1.998   9.071 -0.4663 -0.4750 -0.4257
 2657SOL    HW119607   2.469   1.946   8.992  1.0939 -0.0818 -0.9672
 2657SOL    HW219608   2.454   1.945   9.145  2.5232 -2.3562 -0.6041
 2658SOL     OW19609   4.531   2.395   7.138  0.3857 -0.2956 -0.3438
 2658SOL    HW119610   4.477   2.317   7.154  2.3344 -1.5740 -0.0183
 2658SOL    HW219611   4.584   2.401   7.218 -0.0459 -1.7309  0.0567
 2659SOL     OW19612   2.125   2.489   2.048  0.0543 -0.3294  0.9476
 2659SOL    HW119613   2.074   2.491   1.967  0.5285  0.3933  0.6708
 2659SOL    HW219614   2.067   2.544   2.102 -1.8440  1.7856 -3.2294
 2660SOL     OW19615   0.167   4.188   7.588 -0.4163 -0.1956  0.2869
 2660SOL    HW119616   0.199   4.257   7.530 -0.7376  1.2752  1.8865
 2660SOL    HW219617   0.083   4.170   7.545  0.3841 -3.3256  0.0111
 2661SOL     OW19618   4.571   1.735   2.471 -0.0492  0.2419 -0.2862
 2661SOL    HW119619   4.588   1.829   2.483 -3.0154  0.6228  0.8798
 2661SOL    HW219620   4.520   1.730   2.390  1.8484  1.3310 -1.5413
 2662SOL     OW19621   0.296   4.301  12.487  0.6951 -0.1549  0.7272
 2662SOL    HW119622   0.320   4.210  12.506  0.9561 -0.0371  0.9578
 2662SOL    HW219623   0.201   4.303  12.500  0.4955 -0.8550 -0.5586
 2663SOL     OW19624   0.442   0.360  13.613 -0.1730 -0.7676  0.1221
 2663SOL    HW119625   0.438   0.418  13.689  0.4158  0.3618 -0.7129
 2663SOL    HW219626   0.379   0.295  13.643 -1.4263  0.0980 -0.6707
 2664SOL     OW19627   0.603   0.716   4.873  0.2084  0.3493 -0.0540
 2664SOL    HW119628   0.668   0.697   4.806 -1.4114 -2.2340 -0.8738
 2664SOL    HW219629   0.584   0.636   4.923  0.9181  0.1703 -0.0618
 2665SOL     OW19630   3.355   0.592   2.856 -0.6980 -0.3962  0.5425
 2665SOL    HW119631   3.420   0.658   2.832 -1.3129 -0.3465 -0.9986
 2665SOL    HW219632   3.275   0.645   2.861 -0.2944  0.2908 -0.3551
 2666SOL     OW19633   0.198   3.333   8.732 -0.3230  0.0676 -0.2780
 2666SOL    HW119634   0.218   3.265   8.668 -0.9302 -0.1504 -0.2327
 2666SOL    HW219635   0.289   3.351   8.754  0.2342  0.4512 -2.9577
 2667SOL     OW19636   3.822   2.208  14.639 -0.2413  0.5492  0.0120
 2667SOL    HW119637   3.748   2.256  14.677 -1.6184 -2.7516  1.4698
 2667SOL    HW219638   3.890   2.270  14.612 -0.4718  0.0037 -1.8538
 2668SOL     OW19639   2.570   3.512  16.323  0.6566 -0.1350  0.2800
 2668SOL    HW119640   2.626   3.442  16.356  0.3608  0.1107  1.3258
 2668SOL    HW219641   2.569   3.554  16.409  0.2560  0.5471 -0.0579
 2669SOL     OW19642   1.675   0.478   2.097 -0.1248  0.3207  0.0057
 2669SOL    HW119643   1.643   0.563   2.129 -1.9138 -0.0938 -0.6772
 2669SOL    HW219644   1.615   0.417   2.139  2.0039 -0.4035  2.0240
 2670SOL     OW19645   4.123   2.967   8.710  0.1818 -0.0850 -0.4652
 2670SOL    HW119646   4.085   3.016   8.784 -0.6642 -1.2051 -0.1623
 2670SOL    HW219647   4.094   3.016   8.633 -2.2525 -1.1866 -0.2633
 2671SOL     OW19648   3.317   1.174   6.486 -0.3723 -0.5646  0.0439
 2671SOL    HW119649   3.222   1.172   6.471 -0.6852  2.4500  1.5562
 2671SOL    HW219650   3.343   1.129   6.406  0.6857  0.2918 -0.0856
 2672SOL     OW19651   2.058   2.730   8.426 -1.2248  0.0921  0.4074
 2672SOL    HW119652   1.967   2.711   8.405 -1.8516  2.1335  1.3598
 2672SOL    HW219653   2.085   2.798   8.364  3.5700 -0.7988  1.4661
 2673SOL     OW19654   0.468   2.307   7.807 -0.5535  0.3837 -0.5743
 2673SOL    HW119655   0.545   2.321   7.862 -1.5429  1.4259  0.5309
 2673SOL    HW219656   0.402   2.303   7.876 -0.2522  0.2133 -0.2948
 2674SOL     OW19657   3.189   0.433   4.639  0.5644 -0.7733  0.0374
 2674SOL    HW119658   3.232   0.452   4.555 -0.6995  0.5285 -0.3194
 2674SOL    HW219659   3.212   0.341   4.650 -0.1753 -1.0717 -0.9133
 2675SOL     OW19660   1.204   0.589  13.582  0.1990  0.2728 -0.4225
 2675SOL    HW119661   1.197   0.599  13.677  1.7451  0.1745 -0.3011
 2675SOL    HW219662   1.185   0.680  13.562 -1.5375  0.3617  1.6917
 2676SOL     OW19663   1.944   2.298  12.643 -0.0672 -0.5117  0.1450
 2676SOL    HW119664   1.944   2.203  12.636  0.0019 -0.4748 -0.3738
 2676SOL    HW219665   1.864   2.307  12.696 -0.9001 -1.0295 -1.0318
 2677SOL     OW19666   0.122   2.397  11.341  0.3698 -0.4904  0.1949
 2677SOL    HW119667   0.152   2.454  11.412 -1.6608  0.5968  0.1759
 2677SOL    HW219668   0.054   2.343  11.381  2.7402 -2.4591  1.5442
 2678SOL     OW19669   1.544   0.251   8.291 -0.6455  0.0979  0.5511
 2678SOL    HW119670   1.568   0.206   8.210  0.2700 -1.1511  1.5157
 2678SOL    HW219671   1.544   0.343   8.264 -1.2325  0.0937  0.5238
 2679SOL     OW19672   3.674   1.279   0.359  0.4094  0.0818 -0.0968
 2679SOL    HW119673   3.679   1.357   0.304  2.5018  1.0436  1.4424
 2679SOL    HW219674   3.626   1.323   0.428 -0.4393 -0.0793 -0.5930
 2680SOL     OW19675   3.295   1.977   4.704 -0.2806 -0.5308 -0.3225
 2680SOL    HW119676   3.377   2.024   4.723 -0.5647 -0.7804  1.5520
 2680SOL    HW219677   3.277   1.910   4.770  0.2969 -0.8602 -0.5023
 2681SOL     OW19678   3.307   1.460   6.432 -0.1245  0.2013  0.3502
 2681SOL    HW119679   3.289   1.366   6.440 -0.1916  0.0870 -1.0448
 2681SOL    HW219680   3.217   1.493   6.438 -0.3464  0.1732 -2.3907
 2682SOL     OW19681   2.493   3.209   5.588  0.6316  0.3187 -0.3834
 2682SOL    HW119682   2.491   3.299   5.620  1.7830 -0.1688  1.0655
 2682SOL    HW219683   2.488   3.150   5.664  1.1308  4.4999  2.9144
 2683SOL     OW19684   2.764   0.618   2.337 -0.1270 -0.2485 -0.8301
 2683SOL    HW119685   2.811   0.539   2.364 -0.1751 -0.1888 -0.5704
 2683SOL    HW219686   2.694   0.615   2.402  1.5670  0.3175  0.9918
 2684SOL     OW19687   2.548   3.657   4.347  0.1044 -0.1810  0.3071
 2684SOL    HW119688   2.579   3.567   4.359 -0.5166 -0.2719  1.2130
 2684SOL    HW219689   2.465   3.640   4.302  1.1170 -1.2973 -1.1317
 2685SOL     OW19690   2.441   1.312   7.877  0.7501 -0.0849  0.9740
 2685SOL    HW119691   2.498   1.297   7.802 -0.9791 -1.0054 -0.1640
 2685SOL    HW219692   2.486   1.389   7.913 -0.1620  0.7797  0.2749
 2686SOL     OW19693   3.123   3.603   5.556  0.0410 -0.3571  0.3509
 2686SOL    HW119694   3.130   3.559   5.471 -0.9569 -1.1459  0.6756
 2686SOL    HW219695   3.208   3.646   5.553  0.3715 -1.0308  0.0835
 2687SOL     OW19696   2.081   2.222   7.705  0.0519 -0.2087  0.2693
 2687SOL    HW119697   2.129   2.259   7.780 -0.4849 -0.5799  0.8012
 2687SOL    HW219698   1.990   2.232   7.734 -0.0905 -1.0834  0.1448
 2688SOL     OW19699   2.153   0.360   0.157 -0.4573 -0.0362  0.0916
 2688SOL    HW119700   2.128   0.425   0.091 -0.0382 -0.9281 -0.9402
 2688SOL    HW219701   2.117   0.406   0.233  0.9356  0.1044  0.6636
 2689SOL     OW19702   3.044   2.738   5.255 -0.3283 -0.5119  1.0696
 2689SOL    HW119703   3.025   2.649   5.284 -2.5887  0.0130  1.1296
 2689SOL    HW219704   3.091   2.730   5.171  0.4239 -1.3862  1.5793
 2690SOL     OW19705   1.446   3.425  12.185  0.3412 -0.8231 -0.4624
 2690SOL    HW119706   1.516   3.419  12.251 -0.1230  0.6282  0.1498
 2690SOL    HW219707   1.375   3.460  12.237  0.1987  0.0281 -1.2229
 2691SOL     OW19708   4.109   3.497  13.075  0.2004 -0.2503  0.6563
 2691SOL    HW119709   4.160   3.429  13.119  1.1788  0.7769  1.1044
 2691SOL    HW219710   4.019   3.481  13.104  0.1165  1.4023  1.3171
 2692SOL     OW19711   0.541   1.458  12.495  0.4458  0.1184  0.2194
 2692SOL    HW119712   0.553   1.417  12.580 -3.4778 -0.4905  0.4777
 2692SOL    HW219713   0.565   1.389  12.433  2.8610  0.8926  0.2888
 2693SOL     OW19714   4.718   4.014  13.038  0.0070 -0.4604 -0.8849
 2693SOL    HW119715   4.690   4.080  13.101  2.4072 -0.1054 -0.1969
 2693SOL    HW219716   4.724   4.064  12.957  2.0612  2.4708  1.0594
 2694SOL     OW19717   0.171   4.578   2.826  0.1769 -0.1018 -0.0563
 2694SOL    HW119718   0.234   4.646   2.850  0.7547 -0.6521 -0.0039
 2694SOL    HW219719   0.180   4.511   2.893  0.0725 -1.2816 -1.2200
 2695SOL     OW19720   1.705   1.610  11.640  0.0374 -0.5421  0.0390
 2695SOL    HW119721   1.773   1.558  11.683 -0.4392 -1.1588  0.0530
 2695SOL    HW219722   1.697   1.563  11.557  0.0347  0.6231 -0.6157
 2696SOL     OW19723   4.435   1.650   7.629 -0.0618 -0.2650  0.1274
 2696SOL    HW119724   4.426   1.625   7.537 -1.0556  0.3660  0.0508
 2696SOL    HW219725   4.386   1.732   7.624 -1.8241 -1.1821  2.1480
 2697SOL     OW19726   1.641   0.749   3.253 -0.4484 -0.4125 -0.3628
 2697SOL    HW119727   1.691   0.816   3.299  2.3569 -1.7189 -1.5135
 2697SOL    HW219728   1.579   0.730   3.323 -1.5578  2.6472 -0.5214
 2698SOL     OW19729   0.929   1.578   6.829 -0.3556  0.4296 -0.0888
 2698SOL    HW119730   0.985   1.640   6.782 -1.0279  2.3736  1.6817
 2698SOL    HW219731   0.913   1.507   6.766  1.1185  0.4526 -0.4864
 2699SOL     OW19732   3.384   2.787  12.792 -0.2500 -0.4888  0.2811
 2699SOL    HW119733   3.306   2.791  12.847 -1.7306 -0.3623 -1.8112
 2699SOL    HW219734   3.380   2.696  12.762  0.4713 -0.0670 -1.1020
 2700SOL     OW19735   0.784   3.343   5.873  0.0503  0.0332 -0.5824
 2700SOL    HW119736   0.743   3.396   5.805  1.1467  0.4653 -0.9149
 2700SOL    HW219737   0.729   3.265   5.875  1.1276 -0.7525 -1.7975
 2701SOL     OW19738   4.236   1.039   3.303 -0.3432  0.3438  0.5894
 2701SOL    HW119739   4.254   0.947   3.285  1.3080  1.0601 -1.4763
 2701SOL    HW219740   4.190   1.073   3.226 -1.2073 -1.5785  0.2814
 2702SOL     OW19741   3.114   2.869   2.977 -0.6209  0.5126  0.0152
 2702SOL    HW119742   3.123   2.958   2.945  2.2182  0.0105 -0.6214
 2702SOL    HW219743   3.031   2.829   2.951 -2.0802  2.8294  1.1012
 2703SOL     OW19744   2.210   3.359  10.650 -0.3091 -0.7464  0.1336
 2703SOL    HW119745   2.246   3.351  10.561  1.9413  0.2409  0.9492
 2703SOL    HW219746   2.250   3.284  10.692 -2.3099 -1.4875  0.7115
 2704SOL     OW19747   1.525   0.023  16.973  0.5152  0.1614  0.2461
 2704SOL    HW119748   1.601   4.714  16.937  1.0509  1.2500 -0.0289
 2704SOL    HW219749   1.482   0.043  16.890 -0.3370  1.5527  1.0240
 2705SOL     OW19750   1.221   1.819   4.322 -0.5555  0.4962 -0.3792
 2705SOL    HW119751   1.154   1.794   4.386 -0.0887  0.5231  0.1176
 2705SOL    HW219752   1.294   1.821   4.384 -1.1277 -1.3344  0.3419
 2706SOL     OW19753   2.748   1.169   6.550 -0.4197  0.4782  0.0071
 2706SOL    HW119754   2.798   1.104   6.500  2.4691  1.7621  1.2684
 2706SOL    HW219755   2.689   1.210   6.487 -1.5194 -2.0040 -0.5801
 2707SOL     OW19756   2.279   1.840   7.769  0.1232 -0.5298 -0.0334
 2707SOL    HW119757   2.274   1.795   7.854 -0.5039 -0.6584 -0.1377
 2707SOL    HW219758   2.358   1.891   7.784  0.7086 -0.5254 -3.2613
 2708SOL     OW19759   3.883   2.742  17.540 -0.2247 -0.2225 -0.5257
 2708SOL    HW119760   3.909   2.834  17.545  0.2730 -0.3271 -1.1174
 2708SOL    HW219761   3.788   2.750  17.541 -0.2112 -0.2496  0.3745
 2709SOL     OW19762   0.920   2.433   4.086 -0.5991 -0.1776  0.0357
 2709SOL    HW119763   0.859   2.448   4.158 -0.3694  0.4746  0.0910
 2709SOL    HW219764   1.002   2.462   4.125 -1.6303  1.1595  1.2006
 2710SOL     OW19765   4.328   2.488   1.560 -0.1276  0.1157 -0.2211
 2710SOL    HW119766   4.394   2.419   1.558  0.4620  0.5498  3.1052
 2710SOL    HW219767   4.383   2.564   1.579 -1.1984  0.8439 -0.0555
 2711SOL     OW19768   3.139   0.504   8.223 -0.0320  0.0386  0.2596
 2711SOL    HW119769   3.195   0.465   8.156 -0.0749  1.0926 -0.3885
 2711SOL    HW219770   3.060   0.450   8.218  0.2015 -0.1445 -1.3647
 2712SOL     OW19771   4.087   4.236   8.572  0.3867  0.1742  0.0060
 2712SOL    HW119772   4.008   4.189   8.600  0.2480  1.5077  1.8500
 2712SOL    HW219773   4.098   4.309   8.632 -0.4174 -1.2209  1.8591
 2713SOL     OW19774   4.555   3.635  13.337 -0.1896  0.0055  0.2639
 2713SOL    HW119775   4.629   3.668  13.389 -0.2331  2.4838 -1.2300
 2713SOL    HW219776   4.577   3.691  13.262 -0.8507 -1.7427 -1.2169
 2714SOL     OW19777   0.222   1.618   8.876 -0.1158 -0.2598 -0.3694
 2714SOL    HW119778   0.307   1.660   8.865 -0.6130  1.0912  0.8437
 2714SOL    HW219779   0.213   1.586   8.786 -2.6898 -1.3624  0.2629
 2715SOL     OW19780   3.360   0.274  12.158  0.3656  0.1984 -0.7162
 2715SOL    HW119781   3.322   0.242  12.076 -1.7646  0.6619  0.0755
 2715SOL    HW219782   3.362   0.195  12.212  0.0860  0.2112 -0.6842
 2716SOL     OW19783   1.278   1.433  12.636 -0.0158 -0.3928 -0.1979
 2716SOL    HW119784   1.299   1.379  12.560  1.6356  2.8561 -2.0133
 2716SOL    HW219785   1.225   1.506  12.602  0.2435 -0.9497 -1.7936
 2717SOL     OW19786   0.139   2.400   5.957  0.1293 -0.2913 -0.2630
 2717SOL    HW119787   0.151   2.495   5.957  2.0975 -0.5494  0.6652
 2717SOL    HW219788   0.139   2.382   5.863 -1.1747  1.3644 -0.5785
 2718SOL     OW19789   3.185   3.845   3.771 -0.3341 -0.4947 -0.0113
 2718SOL    HW119790   3.200   3.893   3.690 -0.1584  2.1139  1.5741
 2718SOL    HW219791   3.123   3.777   3.745 -0.5420  0.5925 -2.3993
 2719SOL     OW19792   2.925   2.714   3.991 -0.4478  0.6133 -0.2971
 2719SOL    HW119793   2.955   2.636   4.037  0.8712  2.0447  1.2735
 2719SOL    HW219794   2.891   2.776   4.056 -0.1508 -0.2192  0.6353
 2720SOL     OW19795   1.236   4.369   3.335 -0.0448 -0.4292 -0.2029
 2720SOL    HW119796   1.193   4.340   3.415  0.6399 -1.4006 -0.1969
 2720SOL    HW219797   1.274   4.283   3.319  1.8877  0.7536 -2.0229
 2721SOL     OW19798   0.851   1.070   5.666  0.2669 -0.6888  0.0393
 2721SOL    HW119799   0.873   1.099   5.577 -0.4587  0.7578  0.3304
 2721SOL    HW219800   0.895   1.132   5.725 -0.9853  0.8085 -0.6051
 2722SOL     OW19801   3.596   4.325   9.097  0.3818 -0.4410 -0.3670
 2722SOL    HW119802   3.591   4.230   9.106  0.9622 -0.3401  0.9901
 2722SOL    HW219803   3.533   4.328   9.025  2.7085 -1.6310 -2.4533
 2723SOL     OW19804   0.811   3.761   3.844  0.4528  0.0164 -0.3589
 2723SOL    HW119805   0.818   3.739   3.936 -2.0001 -1.1564 -0.4639
 2723SOL    HW219806   0.858   3.694   3.794 -1.1446 -0.0653 -1.7567
 2724SOL     OW19807   2.330   1.903   1.846 -1.0592 -1.2478  0.6464
 2724SOL    HW119808   2.358   1.931   1.758 -1.5986 -0.4172  0.7387
 2724SOL    HW219809   2.327   1.989   1.887 -1.0554  0.0047 -1.9291
 2725SOL     OW19810   1.526   0.734   2.722 -0.4865 -0.1945 -0.2823
 2725SOL    HW119811   1.572   0.764   2.801 -0.1401  1.4140 -1.0988
 2725SOL    HW219812   1.580   0.656   2.719 -0.6046 -0.4143  3.0149
 2726SOL     OW19813   3.784   1.437   1.918  0.0592 -0.5547 -0.2506
 2726SOL    HW119814   3.706   1.383   1.898 -1.0148  0.9306 -0.0718
 2726SOL    HW219815   3.850   1.369   1.905  1.2971  0.5131  0.6175
 2727SOL     OW19816   1.948   4.645   6.954 -0.2213 -0.3858  0.4434
 2727SOL    HW119817   1.902   4.561   6.945  0.4186 -0.7167  0.3042
 2727SOL    HW219818   1.902   4.704   6.894 -0.3073  1.1562  2.0386
 2728SOL     OW19819   2.877   1.226   1.376 -0.3546  0.5483 -0.1711
 2728SOL    HW119820   2.864   1.300   1.436 -3.5607 -1.0305  1.0841
 2728SOL    HW219821   2.897   1.265   1.291 -0.9409  0.8758 -0.1575
 2729SOL     OW19822   2.978   4.132   7.691 -0.7993 -0.1062 -0.4222
 2729SOL    HW119823   2.917   4.062   7.715  0.0182 -0.7913 -0.3318
 2729SOL    HW219824   2.965   4.142   7.597 -0.4448 -2.6315 -0.7362
 2730SOL     OW19825   0.734   0.706   0.500  0.1679 -0.8348 -0.0270
 2730SOL    HW119826   0.716   0.613   0.513  0.2662 -1.2303 -2.8025
 2730SOL    HW219827   0.647   0.745   0.513  0.8433  1.5816 -2.7593
 2731SOL     OW19828   0.519   1.498  11.006  0.5352  0.0953 -0.1914
 2731SOL    HW119829   0.514   1.461  10.918 -2.6066 -0.5208  0.2269
 2731SOL    HW219830   0.580   1.572  11.002  1.2112 -0.4473  0.2053
 2732SOL     OW19831   3.367   0.770   4.863 -0.2925 -0.3072 -0.1709
 2732SOL    HW119832   3.359   0.859   4.831 -2.1537 -0.6434 -0.6783
 2732SOL    HW219833   3.396   0.792   4.951  1.0789 -1.0066 -0.4420
 2733SOL     OW19834   4.550   0.783   5.799  0.1312  0.3034  0.6752
 2733SOL    HW119835   4.530   0.782   5.893  0.3101 -1.8859  0.6934
 2733SOL    HW219836   4.645   0.790   5.807  0.2296  3.0162 -2.9656
 2734SOL     OW19837   1.578   0.328   3.678  0.1900 -0.1714  0.1565
 2734SOL    HW119838   1.595   0.348   3.770  0.3089  0.0756  0.0794
 2734SOL    HW219839   1.483   0.337   3.672  0.4010  0.3358 -2.1392
 2735SOL     OW19840   2.057   4.310   3.720 -0.4069  0.5874  0.1587
 2735SOL    HW119841   2.136   4.317   3.666 -2.2287 -1.5542 -2.8167
 2735SOL    HW219842   2.100   4.307   3.805  0.0603 -0.0282 -0.0868
 2736SOL     OW19843   4.158   1.465   5.863 -0.8379 -0.1498 -0.1911
 2736SOL    HW119844   4.108   1.442   5.942 -1.0249  0.1808 -0.2141
 2736SOL    HW219845   4.246   1.434   5.885 -0.9780 -1.2395 -1.1653
 2737SOL     OW19846   2.216   4.684   6.874  0.2844  0.2121  0.0206
 2737SOL    HW119847   2.130   4.700   6.913  0.0482  1.1851 -0.9057
 2737SOL    HW219848   2.206   4.728   6.790  0.2808 -2.8202 -1.5623
 2738SOL     OW19849   3.154   2.028   5.081  0.1577  0.1090  0.3729
 2738SOL    HW119850   3.111   1.982   5.153  1.6993 -2.7040 -0.5205
 2738SOL    HW219851   3.186   1.956   5.028 -3.1000 -1.4300  0.4846
 2739SOL     OW19852   4.410   1.439   1.664 -0.1399  0.1055  0.2111
 2739SOL    HW119853   4.477   1.506   1.660 -0.2645  0.2036 -0.2870
 2739SOL    HW219854   4.449   1.368   1.714  0.0178  0.1008  0.0814
 2740SOL     OW19855   2.836   1.865  12.291  0.0051  0.6690  0.0690
 2740SOL    HW119856   2.764   1.817  12.332  0.3491  0.4987  0.4743
 2740SOL    HW219857   2.793   1.941  12.252  1.0424  1.3074  0.1668
 2741SOL     OW19858   2.816   2.531   8.672 -0.2158 -0.5910 -0.3193
 2741SOL    HW119859   2.726   2.558   8.654  0.2480 -1.5210 -3.9779
 2741SOL    HW219860   2.860   2.572   8.598 -2.7367  0.5579 -1.1736
 2742SOL     OW19861   2.928   3.448   6.496 -0.6333 -0.1151  0.7058
 2742SOL    HW119862   2.891   3.512   6.435 -0.6779 -0.7842  0.0321
 2742SOL    HW219863   2.863   3.455   6.565 -1.4702 -1.8657  0.0807
 2743SOL     OW19864   0.891   1.825   7.944  0.1915  0.2768  0.2816
 2743SOL    HW119865   0.810   1.873   7.931 -0.6326 -1.6624 -1.7435
 2743SOL    HW219866   0.875   1.741   7.901  0.6615  0.8092 -0.9185
 2744SOL     OW19867   3.777   2.641  15.790  0.3499  0.0726 -0.7709
 2744SOL    HW119868   3.847   2.706  15.804  0.5546 -0.8730  2.4639
 2744SOL    HW219869   3.736   2.686  15.716  0.1487  0.2736 -0.5367
 2745SOL     OW19870   4.525   2.517  10.118 -0.1468 -0.1571  0.2629
 2745SOL    HW119871   4.519   2.445  10.055 -1.7615  1.5545 -1.5312
 2745SOL    HW219872   4.436   2.553  10.119 -0.3443 -0.6352  0.5317
 2746SOL     OW19873   3.507   0.434   4.256 -0.3852  0.6066 -0.2119
 2746SOL    HW119874   3.602   0.432   4.249 -0.5969 -1.7202 -2.5845
 2746SOL    HW219875   3.485   0.363   4.195  1.3699 -0.3861  0.2952
 2747SOL     OW19876   2.840   3.973   8.043  0.0334 -0.8010 -0.2625
 2747SOL    HW119877   2.882   4.057   8.027 -0.8112 -0.0496  1.4978
 2747SOL    HW219878   2.851   3.971   8.138  0.3666  3.6711 -0.2265
 2748SOL     OW19879   0.013   2.608  10.796  0.0535  0.2923 -0.2704
 2748SOL    HW119880   0.019   2.576  10.706  0.0971  0.1505 -0.2167
 2748SOL    HW219881   0.049   2.535  10.845  2.5947  1.8665  0.2046
 2749SOL     OW19882   4.470   0.097   6.188 -0.3157  0.3041 -0.4090
 2749SOL    HW119883   4.390   0.098   6.241  0.8484 -1.8350  1.3486
 2749SOL    HW219884   4.521   0.156   6.243  0.0289  0.0819 -0.4894
 2750SOL     OW19885   3.083   2.003   3.396  0.0241  0.4897 -0.1270
 2750SOL    HW119886   3.156   1.942   3.407  0.0085  0.5616  0.3616
 2750SOL    HW219887   3.025   1.969   3.463 -0.0762  0.3498 -0.2853
 2751SOL     OW19888   1.181   3.087   3.253  0.1298 -0.3044 -0.3626
 2751SOL    HW119889   1.189   3.182   3.247  1.4112 -0.2098  2.8207
 2751SOL    HW219890   1.212   3.068   3.342 -0.0611  0.4149 -0.1476
 2752SOL     OW19891   2.681   0.090   8.222  0.0805 -0.1902 -0.1919
 2752SOL    HW119892   2.694   0.016   8.281 -1.1148 -0.5234 -0.3405
 2752SOL    HW219893   2.682   0.161   8.286 -0.0662 -1.5488  1.3078
 2753SOL     OW19894   2.077   3.349   9.564  0.8318 -0.1753  0.5342
 2753SOL    HW119895   2.079   3.352   9.659 -0.7486 -1.0777  0.6123
 2753SOL    HW219896   2.027   3.429   9.545  1.2234 -0.1885 -0.5877
 2754SOL     OW19897   3.953   3.323   9.615 -0.0289 -0.4318 -0.1631
 2754SOL    HW119898   3.968   3.260   9.686  0.4340  0.3999  0.4783
 2754SOL    HW219899   3.896   3.265   9.565  0.5209  0.3233 -1.6678
 2755SOL     OW19900   2.288   1.798  16.594  0.0856 -0.2936  0.2311
 2755SOL    HW119901   2.216   1.843  16.549  0.5917 -0.0535 -0.3328
 2755SOL    HW219902   2.250   1.710  16.598 -0.3400 -0.2572 -2.7704
 2756SOL     OW19903   2.425   4.297   9.950  0.3594  0.5268 -0.1173
 2756SOL    HW119904   2.451   4.294   9.858  1.1586  0.2212  0.1166
 2756SOL    HW219905   2.490   4.359   9.982 -0.1216  1.3312 -0.7028
 2757SOL     OW19906   3.707   3.671   3.113 -0.1169 -0.3219  0.5610
 2757SOL    HW119907   3.635   3.645   3.171 -1.0617  0.8798 -0.0673
 2757SOL    HW219908   3.677   3.621   3.038  1.4771  0.2369 -0.4435
 2758SOL     OW19909   2.328   2.986   2.982  0.5831 -0.0392 -0.0184
 2758SOL    HW119910   2.310   3.063   2.929 -2.8916  0.5574  1.9770
 2758SOL    HW219911   2.295   3.011   3.069  1.4773  1.3131 -0.0741
 2759SOL     OW19912   0.998   4.436   0.960 -0.0501 -0.7605  0.4636
 2759SOL    HW119913   0.964   4.439   1.050  0.8600 -1.0810  0.8197
 2759SOL    HW219914   0.943   4.372   0.915  1.7238 -1.0110 -1.3404
 2760SOL     OW19915   0.148   0.485   6.807 -0.2126  0.0018  0.7981
 2760SOL    HW119916   0.145   0.458   6.899 -2.1026  0.8643  0.9954
 2760SOL    HW219917   0.122   0.399   6.774  0.2500  0.3751 -0.5100
 2761SOL     OW19918   0.649   4.524  15.655 -0.3577  0.7556  0.4249
 2761SOL    HW119919   0.589   4.500  15.584  0.7753  1.2068 -0.6932
 2761SOL    HW219920   0.643   4.450  15.715  2.2390 -0.4643 -0.8245
 2762SOL     OW19921   2.715   2.084   1.347  0.1168  0.0886 -0.0926
 2762SOL    HW119922   2.689   1.993   1.363 -0.5097  0.0887 -1.1541
 2762SOL    HW219923   2.795   2.079   1.400 -0.3266 -0.7443  0.4982
 2763SOL     OW19924   4.448   1.588   6.445 -0.1519 -0.6275 -0.3202
 2763SOL    HW119925   4.478   1.548   6.363  0.6788 -0.5255 -0.0571
 2763SOL    HW219926   4.413   1.509   6.486  2.1625  0.1876  3.2022
 2764SOL     OW19927   0.441   0.501   7.200 -0.0566 -0.1092  0.1418
 2764SOL    HW119928   0.505   0.519   7.131 -1.2289  1.8801 -0.4431
 2764SOL    HW219929   0.394   0.424   7.169 -0.0890 -0.1227  0.2233
 2765SOL     OW19930   2.385   2.534   3.962  0.1299  0.4854  0.4004
 2765SOL    HW119931   2.382   2.547   3.868  0.5672 -1.2848  0.1329
 2765SOL    HW219932   2.290   2.519   3.971  0.1877 -0.3796 -0.3993
 2766SOL     OW19933   0.236   0.111  10.942 -0.0347 -0.1281  0.1595
 2766SOL    HW119934   0.319   0.158  10.945 -0.4982  0.7593 -0.6911
 2766SOL    HW219935   0.233   0.078  11.032 -0.0013  0.1873  0.2765
 2767SOL     OW19936   0.397   4.413   9.342  0.5103 -0.1131 -0.3099
 2767SOL    HW119937   0.469   4.470   9.316 -1.0464  1.3206 -1.5075
 2767SOL    HW219938   0.366   4.456   9.422 -3.1143 -1.0386 -1.1939
 2768SOL     OW19939   3.751   0.731   8.252  0.1523 -0.3178 -0.1658
 2768SOL    HW119940   3.779   0.644   8.224 -1.1791 -0.0791 -2.2230
 2768SOL    HW219941   3.689   0.708   8.321 -0.1079 -1.3258 -0.7385
 2769SOL     OW19942   1.926   4.408   2.076  0.5148  0.4200  0.1392
 2769SOL    HW119943   1.840   4.382   2.110 -0.2355  1.7511 -0.7202
 2769SOL    HW219944   1.933   4.357   1.995  0.6628 -0.2798  0.5973
 2770SOL     OW19945   1.829   3.993   4.543  0.8820  0.1081 -0.4434
 2770SOL    HW119946   1.842   3.982   4.638 -0.4039 -0.0410 -0.2765
 2770SOL    HW219947   1.902   4.050   4.520  0.3386  0.0484 -2.3076
 2771SOL     OW19948   4.681   4.251  10.472  0.6597 -0.5403 -0.0612
 2771SOL    HW119949   4.735   4.313  10.521  2.3258 -0.4540 -2.0243
 2771SOL    HW219950   4.630   4.321  10.429  1.4675  1.2728  1.9198
 2772SOL     OW19951   2.248   3.889   6.740 -0.0029 -0.6632  0.0784
 2772SOL    HW119952   2.313   3.886   6.670  0.5196  0.7454  0.4880
 2772SOL    HW219953   2.217   3.799   6.748 -1.0076 -0.4149 -1.0153
 2773SOL     OW19954   2.037   2.174   0.424  0.5442  0.4138 -0.0599
 2773SOL    HW119955   2.101   2.244   0.438 -0.1991  1.1274 -0.2904
 2773SOL    HW219956   1.966   2.229   0.393  0.1789 -0.0824 -0.0946
 2774SOL     OW19957   3.116   3.859   3.128 -0.0954 -0.0647 -1.1260
 2774SOL    HW119958   3.159   3.793   3.074 -0.3634 -1.1939  0.0330
 2774SOL    HW219959   3.025   3.831   3.138 -0.2694  0.2418 -1.8507
 2775SOL     OW19960   2.050   0.848   7.158 -0.0470 -0.2810 -0.1965
 2775SOL    HW119961   2.051   0.940   7.131  0.2053 -0.6252 -1.3356
 2775SOL    HW219962   2.125   0.808   7.114  0.0357  1.0540 -1.2664
 2776SOL     OW19963   2.939   3.719   3.436 -0.4408  0.5100  0.1979
 2776SOL    HW119964   2.917   3.683   3.350  0.7179  1.7477 -0.6196
 2776SOL    HW219965   2.957   3.811   3.419 -0.5598  0.4197 -0.4265
 2777SOL     OW19966   2.720   0.753   6.342 -0.5330 -0.2169 -0.1307
 2777SOL    HW119967   2.704   0.845   6.322  2.5109  1.3001  4.5058
 2777SOL    HW219968   2.788   0.745   6.408  0.0439 -0.4501 -0.7585
 2778SOL     OW19969   3.720   2.702   9.055  1.0592 -0.0385 -0.6056
 2778SOL    HW119970   3.655   2.751   9.004 -1.5463 -2.0977  0.6853
 2778SOL    HW219971   3.784   2.769   9.078 -0.0846  1.3198 -1.3479
 2779SOL     OW19972   3.611   1.702   6.631  0.9256 -0.0241 -0.3769
 2779SOL    HW119973   3.574   1.632   6.576  1.8081 -1.0023  0.2675
 2779SOL    HW219974   3.547   1.772   6.620  0.1309 -0.8456 -0.9974
 2780SOL     OW19975   0.427   2.841   8.917  0.0920 -0.1773 -0.2418
 2780SOL    HW119976   0.362   2.849   8.847 -1.6687  0.0490  1.4038
 2780SOL    HW219977   0.407   2.926   8.957 -0.1276  0.2037 -1.1533
 2781SOL     OW19978   1.239   0.714   4.103 -0.1022  0.0296  0.0557
 2781SOL    HW119979   1.192   0.674   4.030 -0.2968 -0.8946  0.6937
 2781SOL    HW219980   1.163   0.765   4.131 -0.5139 -1.4261  1.5182
 2782SOL     OW19981   1.562   4.076   5.145  0.2635  0.3650 -0.6429
 2782SOL    HW119982   1.519   4.000   5.105  0.2673  0.8950 -1.6660
 2782SOL    HW219983   1.484   4.104   5.193  0.9234 -1.7185  1.6400
 2783SOL     OW19984   2.904   2.942   5.688 -0.0594 -0.0310  0.3957
 2783SOL    HW119985   2.901   3.004   5.615  0.9879 -1.8640 -1.1920
 2783SOL    HW219986   2.991   2.902   5.682  0.1908  0.6418 -0.3797
 2784SOL     OW19987   0.018   1.346  10.618 -0.2327  0.4578  0.3361
 2784SOL    HW119988   4.724   1.325  10.706 -0.1743 -0.7353  0.0796
 2784SOL    HW219989   4.677   1.340  10.564 -1.1969  1.7614  1.6001
 2785SOL     OW19990   4.027   4.019   6.750  0.3844 -0.1566  0.3645
 2785SOL    HW119991   4.090   4.029   6.678  0.2139 -0.9986  0.0983
 2785SOL    HW219992   4.077   3.964   6.810 -0.4017  1.4198  2.4804
 2786SOL     OW19993   2.868   4.157   5.218 -0.6918  0.2689  0.0478
 2786SOL    HW119994   2.924   4.116   5.284 -0.9323 -0.8887 -0.4717
 2786SOL    HW219995   2.921   4.148   5.139  0.9002 -2.7634  1.4825
 2787SOL     OW19996   1.455   0.992   6.200  0.4444  0.6084  0.9131
 2787SOL    HW119997   1.451   0.898   6.187 -1.0360  0.9837 -1.3504
 2787SOL    HW219998   1.369   1.029   6.181  1.3607  2.6550  0.6374
 2788SOL     OW19999   3.158   2.855  12.931  0.2807  0.8490 -0.3086
 2788SOL    HW120000   3.106   2.808  12.997  1.3718  1.7468  1.1798
 2788SOL    HW220001   3.090   2.916  12.904  0.3896  0.3105 -1.8211
 2789SOL     OW20002   2.017   0.325   8.464 -0.6629  0.1534 -0.2213
 2789SOL    HW120003   1.962   0.278   8.401  1.0696 -0.5995 -1.1587
 2789SOL    HW220004   1.968   0.397   8.505 -0.6849 -0.6415  1.1391
 2790SOL     OW20005   2.114   2.584   7.810  0.1795  0.4768 -0.5056
 2790SOL    HW120006   2.117   2.669   7.854  2.5435  0.6550 -0.9769
 2790SOL    HW220007   2.070   2.604   7.728  0.2182 -1.9322 -1.1266
 2791SOL     OW20008   2.517   3.103   4.366 -0.4454  0.1592 -0.1150
 2791SOL    HW120009   2.573   3.039   4.323 -0.0319 -0.6324  1.6060
 2791SOL    HW220010   2.465   3.051   4.427 -2.0943  1.4529 -0.4034
 2792SOL     OW20011   3.383   1.063   3.350 -0.4534  0.4337 -0.0574
 2792SOL    HW120012   3.345   1.021   3.427  1.2203 -0.9488  0.0086
 2792SOL    HW220013   3.435   0.992   3.313 -0.0258  1.7605 -2.0435
 2793SOL     OW20014   3.601   2.584   9.279  0.4485  0.1173  0.3967
 2793SOL    HW120015   3.635   2.634   9.206 -0.5244 -2.8009 -2.0626
 2793SOL    HW220016   3.525   2.543   9.238  0.0722 -0.7978  2.0016
 2794SOL     OW20017   2.270   3.714  15.767  0.5895  0.5255 -0.2114
 2794SOL    HW120018   2.184   3.678  15.743  0.3317  0.7013  0.4501
 2794SOL    HW220019   2.254   3.745  15.856 -2.3333  1.1336 -0.9504
 2795SOL     OW20020   2.717   2.888   6.698 -0.1504  0.3734 -0.0824
 2795SOL    HW120021   2.632   2.876   6.654  0.7928  0.6768 -1.9677
 2795SOL    HW220022   2.722   2.983   6.705  0.3225  0.3823 -0.5424
 2796SOL     OW20023   1.001   0.718  17.392  0.2663  0.1119 -0.1124
 2796SOL    HW120024   1.037   0.778  17.457  0.4668 -0.8492  0.6658
 2796SOL    HW220025   1.072   0.708  17.329  0.1631  2.9857 -0.6717
 2797SOL     OW20026   0.759   3.246   7.722 -0.6553  0.3624  0.3647
 2797SOL    HW120027   0.839   3.292   7.748 -0.1148 -1.8463  2.6891
 2797SOL    HW220028   0.686   3.304   7.744  0.2843  1.4850  0.5392
 2798SOL     OW20029   3.658   1.043   1.056  0.4367  0.3559  0.5760
 2798SOL    HW120030   3.735   1.085   1.016  0.6620 -1.1040 -0.5371
 2798SOL    HW220031   3.693   0.955   1.070  0.0402  0.0773 -0.1679
 2799SOL     OW20032   4.477   3.966   7.162  0.5320 -0.0266 -0.2130
 2799SOL    HW120033   4.501   3.875   7.179  0.9529  0.1819  0.3149
 2799SOL    HW220034   4.473   3.960   7.067 -0.5734  0.6935 -0.2044
 2800SOL     OW20035   4.358   3.998   8.068  0.2983  0.2705 -0.2294
 2800SOL    HW120036   4.432   3.937   8.072  0.3743  0.2987 -1.0526
 2800SOL    HW220037   4.406   4.081   8.073  2.3549 -1.1030  3.1761
 2801SOL     OW20038   0.834   3.036   6.223  0.6134 -0.5314 -0.0268
 2801SOL    HW120039   0.906   3.098   6.212 -0.9273  1.0684 -1.1086
 2801SOL    HW220040   0.820   3.030   6.129  0.0388  0.9757 -0.0389
 2802SOL     OW20041   2.156   3.989   9.403 -0.1700  0.4870 -0.2769
 2802SOL    HW120042   2.169   4.067   9.457  1.4460  0.6632 -0.9004
 2802SOL    HW220043   2.189   4.025   9.320  0.4607  0.1488 -0.1694
 2803SOL     OW20044   2.489   3.895  15.711  0.3873  0.0118  0.3025
 2803SOL    HW120045   2.444   3.811  15.721  0.0668 -0.0031 -1.3298
 2803SOL    HW220046   2.428   3.958  15.675 -0.2254  1.1223  3.2686
 2804SOL     OW20047   2.617   0.785   3.929 -0.3036 -0.0899 -0.4573
 2804SOL    HW120048   2.612   0.772   4.023 -0.2821 -0.4107 -0.4991
 2804SOL    HW220049   2.528   0.797   3.895  0.3317  0.9447 -1.7887
 2805SOL     OW20050   4.234   3.114   2.830  0.3404  0.6213 -0.6193
 2805SOL    HW120051   4.286   3.058   2.889 -2.5184 -0.1054  1.2287
 2805SOL    HW220052   4.242   3.201   2.870  1.1130  1.5587 -2.8133
 2806SOL     OW20053   3.665   0.824   4.029  0.4723 -0.6430  0.0273
 2806SOL    HW120054   3.641   0.733   4.012 -0.0393 -0.8068  1.6582
 2806SOL    HW220055   3.592   0.846   4.085  0.6910  1.5414 -0.5400
 2807SOL     OW20056   0.837   2.874   1.448 -0.1118 -0.5111  0.1111
 2807SOL    HW120057   0.775   2.809   1.481  0.5473 -2.0586 -1.6735
 2807SOL    HW220058   0.811   2.876   1.355 -0.9455 -2.7009  0.2747
 2808SOL     OW20059   2.902   0.586   4.182  0.1617  0.5200  0.0586
 2808SOL    HW120060   2.984   0.541   4.164 -0.5512 -1.7244  2.3899
 2808SOL    HW220061   2.858   0.552   4.104 -0.8206  0.6817  0.5345
 2809SOL     OW20062   4.378   0.424  16.251 -0.3677  0.7262  0.4729
 2809SOL    HW120063   4.383   0.333  16.220  0.0822  0.4973  1.2180
 2809SOL    HW220064   4.441   0.463  16.191 -0.2454  2.6731  1.8659
 2810SOL     OW20065   1.670   1.619   1.465 -0.2269 -0.5963  0.2737
 2810SOL    HW120066   1.659   1.529   1.496  1.1754 -0.6684  0.5627
 2810SOL    HW220067   1.663   1.667   1.548 -0.7764  0.9234 -0.6649
 2811SOL     OW20068   4.356   3.285   3.008 -0.2220 -0.2836 -0.1550
 2811SOL    HW120069   4.411   3.207   3.011  0.0289  0.0181  3.1074
 2811SOL    HW220070   4.305   3.274   3.089  0.3063  1.4393  0.4079
 2812SOL     OW20071   4.695   4.243  13.926 -0.5309 -0.0133  0.3851
 2812SOL    HW120072   4.609   4.223  13.889 -0.4012 -1.9388  1.1189
 2812SOL    HW220073   4.665   4.296  13.999 -2.1822 -0.8042  0.2791
 2813SOL     OW20074   1.785   3.118   7.226  0.8591 -0.6626  0.4843
 2813SOL    HW120075   1.840   3.168   7.286  0.8070 -2.9326  2.4245
 2813SOL    HW220076   1.738   3.191   7.186  0.7784 -1.1501 -0.3166
 2814SOL     OW20077   2.863   1.229   6.801 -0.6739 -0.3887  0.1897
 2814SOL    HW120078   2.807   1.246   6.877  0.8356 -0.9100  1.4465
 2814SOL    HW220079   2.800   1.206   6.733 -0.2178  1.3661 -0.8012
 2815SOL     OW20080   4.049   2.929  12.386  0.1031  0.9133 -0.1028
 2815SOL    HW120081   4.058   2.993  12.456 -1.6486  1.7847 -0.6686
 2815SOL    HW220082   3.985   2.866  12.420 -1.2136  1.4753 -1.5125
 2816SOL     OW20083   3.592   0.053   6.265  0.1104  0.4671 -0.0241
 2816SOL    HW120084   3.554   4.707   6.238 -0.4463 -0.3026  3.1269
 2816SOL    HW220085   3.547   0.077   6.346  2.3714 -0.1171  1.4089
 2817SOL     OW20086   3.187   0.020  16.122  0.0331 -0.2811 -0.0529
 2817SOL    HW120087   3.152   4.694  16.059  0.1287  0.1208 -0.5040
 2817SOL    HW220088   3.239   4.708  16.185  1.0117  1.8580  0.8136
 2818SOL     OW20089   3.914   0.250   7.403  0.1315 -0.1311  0.8566
 2818SOL    HW120090   3.889   0.264   7.495 -0.0407  2.6618  0.3999
 2818SOL    HW220091   3.873   0.329   7.367 -0.1980 -1.9908 -2.7938
 2819SOL     OW20092   4.634   2.389  13.132 -0.1982 -0.6470  0.3571
 2819SOL    HW120093   4.677   2.437  13.202 -1.6576  0.1454  0.6984
 2819SOL    HW220094   4.692   2.387  13.056 -0.1562 -1.7897  0.4106
 2820SOL     OW20095   2.615   0.569   6.573  0.0947 -0.0679 -0.1781
 2820SOL    HW120096   2.635   0.658   6.601 -0.4639  0.0003 -0.0078
 2820SOL    HW220097   2.704   0.533   6.575  0.0102 -0.2908 -0.3960
 2821SOL     OW20098   4.663   2.142  16.414  0.2535  0.4307 -0.2142
 2821SOL    HW120099   4.574   2.140  16.448  0.3907  2.0576  0.2560
 2821SOL    HW220100   4.673   2.056  16.373 -2.5777 -0.2836  0.5934
 2822SOL     OW20101   1.009   2.168   7.634 -0.2556  0.1952 -0.1752
 2822SOL    HW120102   0.953   2.200   7.564 -0.8178  0.5814  0.4506
 2822SOL    HW220103   1.011   2.079   7.598 -1.4813 -0.2972  0.9672
 2823SOL     OW20104   2.451   0.070   5.607 -0.5239 -0.2646 -0.1283
 2823SOL    HW120105   2.471   0.152   5.651 -0.3866 -0.5537  0.3614
 2823SOL    HW220106   2.366   0.092   5.569 -0.5550  0.0422  0.1159
 2824SOL     OW20107   4.107   0.294  17.459  0.2052  0.4379  0.2023
 2824SOL    HW120108   4.100   0.285  17.554 -0.5221  0.7078  0.1787
 2824SOL    HW220109   4.192   0.337  17.451  1.2521 -2.1476 -2.5757
 2825SOL     OW20110   4.535   0.361   7.311 -0.4949  0.7764 -0.2152
 2825SOL    HW120111   4.573   0.398   7.391  0.8419 -0.6653 -0.1806
 2825SOL    HW220112   4.450   0.406   7.315 -1.8688 -1.9162  0.5663
 2826SOL     OW20113   2.101   0.929   5.362  0.8082  0.0684  0.0194
 2826SOL    HW120114   2.023   0.969   5.400  0.5966  2.0454 -2.5188
 2826SOL    HW220115   2.169   0.970   5.417  0.1408 -0.4309  1.2207
 2827SOL     OW20116   2.028   0.715   9.383 -0.1589  0.1015 -0.5564
 2827SOL    HW120117   1.945   0.721   9.431  0.3226  1.6569  0.0859
 2827SOL    HW220118   2.017   0.632   9.335  0.9850  0.2653 -1.0867
 2828SOL     OW20119   3.733   2.465   4.576  0.1527  0.0085 -0.3158
 2828SOL    HW120120   3.804   2.508   4.529 -0.2225  3.1193  1.9612
 2828SOL    HW220121   3.669   2.463   4.505  0.1749 -2.0045 -0.2700
 2829SOL     OW20122   2.807   3.790  13.290  0.2823  0.8300  0.4528
 2829SOL    HW120123   2.768   3.713  13.332 -0.4864  0.4856 -0.9090
 2829SOL    HW220124   2.785   3.861  13.350 -2.3820  0.6092 -0.2755
 2830SOL     OW20125   3.854   1.752   1.853 -0.4742 -0.8346  0.0097
 2830SOL    HW120126   3.847   1.782   1.944  0.9513 -1.2792  0.2639
 2830SOL    HW220127   3.836   1.660   1.873  0.6183 -0.5680  2.2299
 2831SOL     OW20128   3.273   2.710  17.267  0.2912  0.2167  0.5504
 2831SOL    HW120129   3.328   2.633  17.256 -2.6703 -1.6963 -0.8375
 2831SOL    HW220130   3.339   2.777  17.286 -1.4346  2.1995 -0.4635
 2832SOL     OW20131   1.012   1.512   4.621  0.1399  0.0079 -0.6480
 2832SOL    HW120132   1.080   1.447   4.639 -2.0722 -2.1150  0.0069
 2832SOL    HW220133   0.929   1.465   4.622  1.5064 -2.3461  2.1520
 2833SOL     OW20134   3.379   2.677   4.013 -0.3831  0.0182  0.1478
 2833SOL    HW120135   3.413   2.589   3.999  1.2337  0.9961 -2.0572
 2833SOL    HW220136   3.333   2.682   3.929 -1.2183 -5.7533  0.2829
 2834SOL     OW20137   3.414   1.141  11.230  0.1532  0.1764  0.8128
 2834SOL    HW120138   3.393   1.231  11.208  0.7484 -0.0892 -0.9024
 2834SOL    HW220139   3.439   1.148  11.322 -1.2476 -0.9205  1.2843
 2835SOL     OW20140   4.652   1.880  16.612 -0.2746  0.1517 -0.3989
 2835SOL    HW120141   4.673   1.883  16.519  2.3768 -1.6678  0.1682
 2835SOL    HW220142   4.735   1.911  16.647 -0.4316  1.2336 -0.9904
 2836SOL     OW20143   0.777   3.282   8.777 -0.3148  0.6239  0.2805
 2836SOL    HW120144   0.823   3.312   8.856 -1.0586 -0.5037  1.1391
 2836SOL    HW220145   0.792   3.354   8.715  0.2937  1.3526  1.2653
 2837SOL     OW20146   0.503   1.633  13.992  0.2257 -0.3180 -0.3647
 2837SOL    HW120147   0.515   1.599  13.903  1.1728 -1.3601  0.1695
 2837SOL    HW220148   0.408   1.647  13.999  0.1133 -1.1009 -0.2613
 2838SOL     OW20149   1.007   0.942   1.546  0.6790 -0.3506 -0.0808
 2838SOL    HW120150   0.973   0.931   1.457  0.6637 -1.8489  0.1112
 2838SOL    HW220151   1.100   0.960   1.534 -0.0329  2.8588 -0.7549
 2839SOL     OW20152   1.476   4.012  13.361  0.1177  0.3757 -0.6579
 2839SOL    HW120153   1.507   3.965  13.439 -0.1776  2.4253  0.7090
 2839SOL    HW220154   1.514   4.099  13.375  1.1461 -0.1221 -0.3488
 2840SOL     OW20155   2.439   3.651   3.875  0.3503  0.3212 -0.7980
 2840SOL    HW120156   2.448   3.744   3.896 -0.8684  0.4769 -0.9290
 2840SOL    HW220157   2.525   3.628   3.842  0.5919  0.9957 -0.6412
 2841SOL     OW20158   3.507   3.587   9.191  0.7743 -0.1199 -0.1274
 2841SOL    HW120159   3.579   3.567   9.251  0.6246  0.0423  0.1030
 2841SOL    HW220160   3.562   3.571   9.114  1.2935 -0.6206  0.3408
 2842SOL     OW20161   2.947   1.404   3.661 -0.2149  0.1655 -0.4385
 2842SOL    HW120162   2.987   1.406   3.574 -1.6400  1.3681 -1.0671
 2842SOL    HW220163   2.950   1.498   3.681 -1.5841  0.2844 -0.8280
 2843SOL     OW20164   4.692   4.611   7.317 -0.1759  0.2903  0.2294
 2843SOL    HW120165   4.681   4.546   7.247 -1.5244  2.0149 -1.1607
 2843SOL    HW220166   4.619   4.668   7.294  2.1760  2.3411 -2.1614
 2844SOL     OW20167   1.799   3.810   4.982 -0.0895  0.2136 -0.2364
 2844SOL    HW120168   1.882   3.790   5.026 -1.5117 -3.8083  0.6329
 2844SOL    HW220169   1.844   3.823   4.899  0.3590 -0.2610 -0.0700
 2845SOL     OW20170   3.747   1.018  11.460  0.3212  0.1112 -0.0020
 2845SOL    HW120171   3.780   1.079  11.394  2.0201 -1.3355 -0.5015
 2845SOL    HW220172   3.830   0.978  11.488  1.2383  2.1438  0.2471
 2846SOL     OW20173   3.756   1.846  15.341  0.1678 -1.0487  0.0321
 2846SOL    HW120174   3.683   1.874  15.396  0.1145 -0.8532 -0.1376
 2846SOL    HW220175   3.748   1.751  15.344 -1.3768 -0.9296 -0.3097
 2847SOL     OW20176   2.466   3.985   4.430 -0.1442  0.1675 -0.5687
 2847SOL    HW120177   2.445   3.991   4.524 -0.0231  2.1587 -0.6635
 2847SOL    HW220178   2.387   3.947   4.392 -0.0081  0.4537 -1.1361
 2848SOL     OW20179   3.407   3.321   5.315  0.1918  0.2787  0.0269
 2848SOL    HW120180   3.485   3.270   5.337 -0.0242 -1.3040 -2.8334
 2848SOL    HW220181   3.359   3.318   5.397 -1.1638 -0.5125 -0.7909
 2849SOL     OW20182   1.179   3.317   1.849 -0.0404  0.0799 -0.0016
 2849SOL    HW120183   1.088   3.334   1.824 -0.2069 -0.0492  0.5207
 2849SOL    HW220184   1.224   3.315   1.764 -0.5161  0.7956 -0.2647
 2850SOL     OW20185   0.932   3.367   1.860  0.1753  0.7098  0.1742
 2850SOL    HW120186   0.883   3.321   1.928 -2.0932  1.2304 -1.1012
 2850SOL    HW220187   0.884   3.352   1.779 -1.0837  0.8260  0.9095
 2851SOL     OW20188   1.740   0.501  10.324 -0.2446 -0.0348  0.3680
 2851SOL    HW120189   1.746   0.417  10.369 -1.0554  0.4182  1.3411
 2851SOL    HW220190   1.696   0.557  10.388  0.5870  1.3730 -0.3019
 2852SOL     OW20191   2.978   1.493   0.303 -0.2728  0.0917  0.0450
 2852SOL    HW120192   2.942   1.450   0.381 -0.5491  0.5141  0.1513
 2852SOL    HW220193   3.005   1.582   0.327  1.6282 -1.5776  4.0608
 2853SOL     OW20194   0.846   2.736   9.260 -0.4430 -0.8725  0.1508
 2853SOL    HW120195   0.791   2.745   9.338 -0.4330 -1.9074  0.2777
 2853SOL    HW220196   0.875   2.827   9.248  1.4102 -1.3941  0.5755
 2854SOL     OW20197   4.115   2.949   5.184  0.2303 -0.4691 -0.6916
 2854SOL    HW120198   4.190   2.909   5.226  0.3368  0.6030  0.1361
 2854SOL    HW220199   4.155   3.015   5.128 -0.0286  0.7117  0.5100
 2855SOL     OW20200   2.653   1.244   2.174 -0.0504  0.8871 -0.1004
 2855SOL    HW120201   2.712   1.176   2.206  0.4964  1.3408 -0.1420
 2855SOL    HW220202   2.573   1.240   2.226  0.8266 -0.8867  1.1309
 2856SOL     OW20203   2.751   1.210   6.077 -0.3950  0.1709  0.1563
 2856SOL    HW120204   2.763   1.261   5.998 -0.6971  1.6668  1.0734
 2856SOL    HW220205   2.818   1.255   6.129  0.8036 -0.2539 -1.0166
 2857SOL     OW20206   4.213   0.508   0.202 -0.2123 -0.7207 -0.4543
 2857SOL    HW120207   4.293   0.561   0.200 -0.5944 -0.1889 -1.9200
 2857SOL    HW220208   4.178   0.534   0.117 -0.0985  0.4513 -0.1429
 2858SOL     OW20209   3.967   2.159   3.271 -0.3847 -0.2355 -0.2210
 2858SOL    HW120210   4.043   2.215   3.285  0.5735 -1.4815 -0.4071
 2858SOL    HW220211   3.962   2.169   3.176 -1.7004  0.3561 -0.0881
 2859SOL     OW20212   2.391   4.671   1.828  0.1694 -0.6664 -0.3549
 2859SOL    HW120213   2.415   4.596   1.882 -1.7590 -1.6554 -0.8807
 2859SOL    HW220214   2.295   4.675   1.830  0.2447  1.2654 -0.5700
 2860SOL     OW20215   1.483   1.588   3.725 -0.0092 -0.0043  0.1694
 2860SOL    HW120216   1.499   1.672   3.683 -0.5188 -1.2407 -2.4672
 2860SOL    HW220217   1.423   1.546   3.663  0.4456 -0.0373 -0.2381
 2861SOL     OW20218   1.308   4.501   8.660 -0.2069 -0.4538  0.8023
 2861SOL    HW120219   1.229   4.459   8.627  0.8544 -1.3338 -0.6518
 2861SOL    HW220220   1.266   4.585   8.682  3.6941  1.2693  1.7025
 2862SOL     OW20221   2.413   2.324   3.489  0.2860 -0.6343 -0.3563
 2862SOL    HW120222   2.404   2.402   3.435  0.5861 -0.0443  0.4452
 2862SOL    HW220223   2.340   2.320   3.551  0.8823 -0.5346  0.3665
 2863SOL     OW20224   0.730   4.362   4.151  0.2478  0.0566  0.3016
 2863SOL    HW120225   0.726   4.336   4.059  2.2496 -0.5115  0.3675
 2863SOL    HW220226   0.819   4.338   4.177  0.0848 -1.3091 -0.3808
 2864SOL     OW20227   0.945   0.782   2.146  0.3337  0.0298  0.5521
 2864SOL    HW120228   0.929   0.877   2.141  0.5698  0.0459  0.1246
 2864SOL    HW220229   0.863   0.759   2.102 -1.1704  1.5910  2.5541
 2865SOL     OW20230   1.473   3.121   2.797 -0.4971 -0.1214 -0.3354
 2865SOL    HW120231   1.455   3.027   2.800 -2.6685  0.2577 -1.9837
 2865SOL    HW220232   1.479   3.135   2.892 -1.0488  1.4707 -0.5367
 2866SOL     OW20233   1.085   1.359  11.982 -0.1556  0.3097  0.8757
 2866SOL    HW120234   1.036   1.302  11.923 -0.8122 -0.0766  1.7920
 2866SOL    HW220235   1.010   1.414  12.005  0.6271  1.0588  1.6208
 2867SOL     OW20236   0.272   2.422   5.214  0.5257  0.1018  0.4239
 2867SOL    HW120237   0.233   2.445   5.299  1.4142 -2.1912  1.4356
 2867SOL    HW220238   0.201   2.383   5.164  0.9449  0.0793 -0.1523
 2868SOL     OW20239   2.738   2.573   7.346 -0.2648 -0.2652  0.1601
 2868SOL    HW120240   2.711   2.590   7.436  1.1927 -1.5675  0.8528
 2868SOL    HW220241   2.755   2.657   7.303  0.7595 -0.8796 -0.6374
 2869SOL     OW20242   0.736   3.911   2.353 -0.1671 -0.0524 -0.4917
 2869SOL    HW120243   0.677   3.845   2.388 -3.5331  2.0361 -2.1538
 2869SOL    HW220244   0.810   3.854   2.335  0.0212  0.1337 -0.3055
 2870SOL     OW20245   4.685   3.519   2.485  0.3390 -0.5300  0.1962
 2870SOL    HW120246   4.605   3.476   2.517 -0.5178  1.4992  0.8243
 2870SOL    HW220247   4.721   3.448   2.433 -0.6034 -0.6993 -0.2328
 2871SOL     OW20248   2.965   4.494   4.416 -0.5857 -0.1775  0.0518
 2871SOL    HW120249   3.020   4.417   4.412  0.1009  0.2866  0.6090
 2871SOL    HW220250   2.946   4.494   4.510 -1.5193 -0.2865 -0.1383
 2872SOL     OW20251   1.710   3.550   2.337 -0.3416  0.1916 -0.1660
 2872SOL    HW120252   1.705   3.455   2.340 -0.2635  0.2955  2.6571
 2872SOL    HW220253   1.739   3.573   2.425 -0.1462 -2.6562  0.5217
 2873SOL     OW20254   1.006   3.610   5.406 -0.2297 -0.6301 -0.3239
 2873SOL    HW120255   0.986   3.561   5.326 -0.4785 -0.3234 -0.4478
 2873SOL    HW220256   1.096   3.580   5.418  1.1894  2.8007 -2.5402
 2874SOL     OW20257   4.174   3.150   6.528 -0.1299  0.0072  0.1649
 2874SOL    HW120258   4.092   3.199   6.518 -0.9588 -0.9645  2.0586
 2874SOL    HW220259   4.150   3.067   6.569 -0.0500  0.1017  0.4077
 2875SOL     OW20260   1.525   2.426  11.746 -0.5950 -0.0381  0.3793
 2875SOL    HW120261   1.486   2.373  11.676  0.0640 -0.9764  0.7169
 2875SOL    HW220262   1.617   2.409  11.725 -1.2548 -0.0621 -2.5628
 2876SOL     OW20263   2.969   1.826  16.495 -0.1236  0.2251  0.4919
 2876SOL    HW120264   3.050   1.821  16.546  0.8836  1.7512 -0.9660
 2876SOL    HW220265   2.945   1.918  16.500 -1.3763 -0.0913  0.2872
 2877SOL     OW20266   0.511   2.283  16.717  0.2263  0.0901  0.2336
 2877SOL    HW120267   0.506   2.361  16.661  1.1818 -0.1078 -0.1287
 2877SOL    HW220268   0.553   2.230  16.649 -0.4575 -0.5626  0.3240
 2878SOL     OW20269   3.499   2.210   0.627  0.0023 -0.4299  0.3158
 2878SOL    HW120270   3.434   2.194   0.695 -0.1520 -1.5494 -0.0954
 2878SOL    HW220271   3.483   2.301   0.602 -2.0792 -0.9186 -0.1433
 2879SOL     OW20272   3.495   1.803  13.882  0.3290  0.2356 -0.3783
 2879SOL    HW120273   3.427   1.748  13.921  1.3989  0.1108  1.3118
 2879SOL    HW220274   3.485   1.868  13.951  0.7546  0.9527 -0.9932
 2880SOL     OW20275   2.120   2.313   7.213 -0.0995 -0.0353  0.2254
 2880SOL    HW120276   2.135   2.316   7.308 -1.4218  1.1888  0.3939
 2880SOL    HW220277   2.091   2.404   7.203  2.5953  0.3620 -3.7376
 2881SOL     OW20278   0.279   2.996   4.035  0.7730 -0.3264 -0.1890
 2881SOL    HW120279   0.201   3.051   4.028  0.9510  0.1624  1.6583
 2881SOL    HW220280   0.238   2.911   4.024 -0.3008 -0.0452  1.5987
 2882SOL     OW20281   2.846   3.385   4.256 -0.1742  0.2480  0.0972
 2882SOL    HW120282   2.757   3.410   4.282 -1.2003 -0.1723 -2.9716
 2882SOL    HW220283   2.886   3.470   4.237  1.3933 -0.8560 -1.4474
 2883SOL     OW20284   3.368   2.767  13.682  0.2306 -0.0903  0.6116
 2883SOL    HW120285   3.443   2.746  13.738  0.6936  0.2454  0.1171
 2883SOL    HW220286   3.309   2.696  13.707 -0.8205 -0.1201 -1.9653
 2884SOL     OW20287   4.318   2.791  11.968 -0.0405  0.1677  0.1927
 2884SOL    HW120288   4.238   2.834  11.937 -0.7393 -0.2320  1.4648
 2884SOL    HW220289   4.388   2.854  11.949  1.3126 -1.1101  0.9549
 2885SOL     OW20290   3.229   4.196   2.367  0.2176 -0.4014 -0.6622
 2885SOL    HW120291   3.216   4.136   2.440  0.9268  0.0104 -0.1981
 2885SOL    HW220292   3.309   4.238   2.398 -1.6669  2.0535  0.9003
 2886SOL     OW20293   2.674   3.942   4.674  0.2374 -0.5869 -1.0003
 2886SOL    HW120294   2.580   3.925   4.667  0.1747 -0.4357 -0.4954
 2886SOL    HW220295   2.680   3.903   4.761  0.1692 -2.0496 -1.6422
 2887SOL     OW20296   3.358   4.181  14.292  0.0072  0.1275  0.6240
 2887SOL    HW120297   3.324   4.161  14.205 -2.4938  0.5029  1.5311
 2887SOL    HW220298   3.387   4.094  14.318 -1.2540 -0.7425 -0.9266
 2888SOL     OW20299   1.922   0.657   2.557 -0.4407  0.3421 -0.2379
 2888SOL    HW120300   1.919   0.572   2.601  0.5855  1.0132  1.1554
 2888SOL    HW220301   1.985   0.648   2.486  0.7280 -2.0009  1.0797
 2889SOL     OW20302   1.091   3.260   4.079  0.8102  0.0177 -0.0598
 2889SOL    HW120303   1.114   3.352   4.093  3.8247 -0.4367 -2.0203
 2889SOL    HW220304   1.014   3.232   4.128 -1.1915  1.2054 -2.5323
 2890SOL     OW20305   0.706   2.369  11.236  0.6890  0.1637  0.4354
 2890SOL    HW120306   0.626   2.319  11.255  1.7627 -1.1243  1.5769
 2890SOL    HW220307   0.687   2.410  11.152  0.8617  0.5198  0.5719
 2891SOL     OW20308   0.622   2.245   2.275  0.3059  0.1182 -0.4357
 2891SOL    HW120309   0.711   2.271   2.251  0.0818  0.9045 -0.3896
 2891SOL    HW220310   0.611   2.278   2.364 -0.1190  2.5495 -1.3960
 2892SOL     OW20311   1.775   2.077   7.575 -0.1288  0.0674  0.1479
 2892SOL    HW120312   1.709   2.008   7.569 -0.0802  0.3055 -3.1409
 2892SOL    HW220313   1.836   2.044   7.641 -3.7481 -2.1514  2.3766
 2893SOL     OW20314   4.306   0.556   7.345  0.1813  0.0447 -0.4473
 2893SOL    HW120315   4.325   0.585   7.434 -0.8541 -1.3149  0.2284
 2893SOL    HW220316   4.233   0.616   7.329  0.8630  0.4572 -1.9846
 2894SOL     OW20317   2.496   2.714   0.467 -0.3314  0.2822  0.6297
 2894SOL    HW120318   2.568   2.701   0.405 -0.0286 -0.7965  1.2078
 2894SOL    HW220319   2.548   2.758   0.535  2.6608  0.7014 -1.9740
 2895SOL     OW20320   2.683   4.519   2.073  0.2122 -0.5021 -0.0372
 2895SOL    HW120321   2.773   4.496   2.096  1.0310  2.0285 -0.6182
 2895SOL    HW220322   2.699   4.595   2.016 -0.3692 -0.3711 -0.0227
 2896SOL     OW20323   1.036   1.709   5.482 -0.5523  0.2221  0.2028
 2896SOL    HW120324   1.078   1.779   5.433 -1.7449  0.1206 -0.9602
 2896SOL    HW220325   1.088   1.722   5.561  2.4118 -0.2777 -1.6585
 2897SOL     OW20326   2.170   1.431   7.231  0.0470 -0.1928 -0.1738
 2897SOL    HW120327   2.116   1.507   7.255  1.9432  0.9062  0.5652
 2897SOL    HW220328   2.167   1.427   7.136 -0.3471 -1.2928 -0.1232
 2898SOL     OW20329   3.740   1.829   6.911  0.3339  0.2398  0.0649
 2898SOL    HW120330   3.750   1.858   7.001 -1.1240 -0.8607  0.5742
 2898SOL    HW220331   3.822   1.779   6.908 -0.5575 -1.1758 -0.9286
 2899SOL     OW20332   4.344   2.779   6.469 -0.0415 -1.2537  0.3076
 2899SOL    HW120333   4.353   2.790   6.563 -3.3723 -1.5349  0.6313
 2899SOL    HW220334   4.309   2.690   6.465 -2.6818 -0.3329  3.1669
 2900SOL     OW20335   4.154   4.454   2.560  0.3387 -0.5965  0.1420
 2900SOL    HW120336   4.210   4.400   2.504 -1.7765 -1.7014 -0.8685
 2900SOL    HW220337   4.158   4.537   2.513 -2.2503 -0.2618  0.5239
 2901SOL     OW20338   2.858   3.804  12.528  0.0125 -0.2551 -0.3881
 2901SOL    HW120339   2.856   3.778  12.620  0.6324 -1.3369 -0.6769
 2901SOL    HW220340   2.949   3.785  12.505  0.6063  2.5315 -0.3952
 2902SOL     OW20341   3.305   1.062   4.825 -0.2894 -0.0174  0.0206
 2902SOL    HW120342   3.226   1.051   4.773 -2.1969 -2.2923  3.3796
 2902SOL    HW220343   3.368   1.083   4.755  0.3969 -2.6891 -0.1452
 2903SOL     OW20344   0.501   3.081   7.448 -0.0268 -0.2729  0.2866
 2903SOL    HW120345   0.448   3.137   7.506  0.0713 -0.1086  0.2184
 2903SOL    HW220346   0.516   3.140   7.374  0.2817 -1.1272 -0.3255
 2904SOL     OW20347   2.563   4.225  10.915 -0.1251 -0.0065  0.2732
 2904SOL    HW120348   2.590   4.208  10.824 -0.4408  1.2768 -0.0710
 2904SOL    HW220349   2.488   4.167  10.923 -1.8909  2.2083 -0.0400
 2905SOL     OW20350   3.656   0.275   8.160  0.2016  0.0988  0.1652
 2905SOL    HW120351   3.599   0.332   8.108  0.5837 -1.1972 -1.6874
 2905SOL    HW220352   3.641   0.322   8.242  2.1372  1.3229 -0.1741
 2906SOL     OW20353   3.600   0.195   3.736  0.1985 -0.2354  0.0172
 2906SOL    HW120354   3.552   0.217   3.817  1.4433  2.3627  0.0532
 2906SOL    HW220355   3.632   0.106   3.748 -0.4153 -0.5922 -1.0657
 2907SOL     OW20356   1.242   4.618   2.771 -0.0248  0.7720 -0.2823
 2907SOL    HW120357   1.259   4.681   2.701  0.9779 -0.1131 -0.8230
 2907SOL    HW220358   1.289   4.664   2.840  1.1049 -1.4148  0.3939
 2908SOL     OW20359   3.259   1.561   3.814  0.1184 -0.7323  0.1399
 2908SOL    HW120360   3.309   1.634   3.851 -2.6842  0.6460  1.2147
 2908SOL    HW220361   3.259   1.490   3.878  1.6501 -2.4308 -1.7484
 2909SOL     OW20362   1.551   1.417  17.204  0.1819 -0.2661 -0.2405
 2909SOL    HW120363   1.497   1.422  17.125  0.2931 -2.0419 -0.4254
 2909SOL    HW220364   1.486   1.394  17.270  0.5440  1.0249  0.5544
 2910SOL     OW20365   0.222   3.027  15.641 -0.6698 -0.6940 -0.5972
 2910SOL    HW120366   0.175   3.003  15.721 -0.8813 -1.3636 -0.9268
 2910SOL    HW220367   0.280   2.951  15.634  1.2723  0.4936  2.5386
 2911SOL     OW20368   0.090   0.823   6.946  0.3905 -0.5216 -0.2352
 2911SOL    HW120369   0.128   0.820   7.034 -1.2582 -1.6561  0.4581
 2911SOL    HW220370   0.175   0.813   6.903 -0.0194  1.8398 -1.5518
 2912SOL     OW20371   4.612   3.854   2.202 -0.0102 -0.0302  0.3406
 2912SOL    HW120372   4.662   3.909   2.141  0.6093 -1.2612 -0.2690
 2912SOL    HW220373   4.621   3.908   2.280 -1.0920  0.4224  0.1561
 2913SOL     OW20374   3.167   3.559  12.347 -0.4277 -0.5363 -0.7321
 2913SOL    HW120375   3.162   3.580  12.253  0.4379 -0.1286 -0.6858
 2913SOL    HW220376   3.174   3.463  12.355  1.9335  0.0617  4.0423
 2914SOL     OW20377   0.380   3.511   4.344 -0.8108 -1.2609  0.2349
 2914SOL    HW120378   0.443   3.468   4.286  0.9141 -0.7213  1.7188
 2914SOL    HW220379   0.389   3.465   4.427  2.8653 -0.6399  0.1917
 2915SOL     OW20380   0.107   0.931   4.865  0.3145 -0.0070  1.1402
 2915SOL    HW120381   0.180   0.871   4.871 -0.6785 -1.2642  0.6840
 2915SOL    HW220382   0.041   0.865   4.843  0.1138 -0.3030  2.6260
 2916SOL     OW20383   4.413   0.446   8.279 -0.4016  0.0828  0.6294
 2916SOL    HW120384   4.322   0.452   8.250  0.3279  0.4164 -1.6063
 2916SOL    HW220385   4.459   0.413   8.203  3.1603  0.7039  2.5255
 2917SOL     OW20386   2.142   1.437   0.242  0.1168  0.2323  1.0352
 2917SOL    HW120387   2.113   1.357   0.199  2.0482 -0.7832  1.6046
 2917SOL    HW220388   2.090   1.504   0.199 -2.8663 -2.2182  0.8363
 2918SOL     OW20389   0.058   2.912   6.084  0.1423 -0.6040  0.0376
 2918SOL    HW120390   0.088   2.937   6.171 -2.7945  2.0284  0.2546
 2918SOL    HW220391   4.702   2.899   6.098 -0.2968 -0.7137 -2.8999
 2919SOL     OW20392   3.391   0.364  13.465  0.6540 -0.5465  0.4266
 2919SOL    HW120393   3.474   0.412  13.464 -0.8225  1.9869  2.1110
 2919SOL    HW220394   3.414   0.300  13.397  1.4885 -0.7270  0.8731
 2920SOL     OW20395   2.831   4.059  12.507 -0.2360  0.7142  0.2170
 2920SOL    HW120396   2.926   4.073  12.511 -0.4134  1.5996  1.3649
 2920SOL    HW220397   2.831   3.965  12.523  1.2502  0.8494  0.9879
 2921SOL     OW20398   3.476   1.081   5.700  0.2923 -0.7790  0.1690
 2921SOL    HW120399   3.389   1.066   5.737  0.1605 -0.0636  0.1495
 2921SOL    HW220400   3.486   0.997   5.656  0.4707 -0.7909  0.2297
 2922SOL     OW20401   3.110   0.155   8.141  0.1151 -0.5822  0.0256
 2922SOL    HW120402   3.141   0.155   8.231 -0.4155  2.1951  0.2127
 2922SOL    HW220403   3.194   0.148   8.096  0.1549  0.7481 -0.0981
 2923SOL     OW20404   3.100   1.389   7.105 -0.2720 -1.1565 -0.2699
 2923SOL    HW120405   3.185   1.411   7.145 -0.4987  1.1029 -1.0655
 2923SOL    HW220406   3.114   1.368   7.013  2.3814  0.4687 -0.2332
 2924SOL     OW20407   3.160   4.303   5.652  0.5222  0.0494 -0.4579
 2924SOL    HW120408   3.254   4.299   5.671  0.3463 -0.0666  0.4040
 2924SOL    HW220409   3.139   4.377   5.595  1.1259  0.6161  0.0614
 2925SOL     OW20410   0.304   1.593   0.628  0.6260 -0.3750 -0.1091
 2925SOL    HW120411   0.236   1.640   0.677 -0.2902 -2.5939  0.7047
 2925SOL    HW220412   0.316   1.659   0.559 -1.0419  0.3785  0.3322
 2926SOL     OW20413   0.363   4.324   0.220 -0.4735  0.3754  0.1314
 2926SOL    HW120414   0.271   4.308   0.242 -0.2977  0.3836  0.8856
 2926SOL    HW220415   0.364   4.400   0.162 -1.8292 -0.0715 -0.4620
 2927SOL     OW20416   2.758   3.460  16.563 -0.3735 -0.1871 -0.2787
 2927SOL    HW120417   2.765   3.551  16.592 -0.9532 -0.3773  0.4713
 2927SOL    HW220418   2.810   3.453  16.484  0.9548 -1.7444  0.7378
 2928SOL     OW20419   2.385   4.330  15.685 -0.3439 -0.2319 -0.1091
 2928SOL    HW120420   2.372   4.235  15.673  0.7471 -0.1684 -1.9355
 2928SOL    HW220421   2.480   4.335  15.694 -0.4645 -0.6210  1.3561
 2929SOL     OW20422   1.931   4.498   5.363  0.1304 -0.0288  0.1266
 2929SOL    HW120423   1.904   4.589   5.355  1.3661  0.0606 -2.8607
 2929SOL    HW220424   1.845   4.472   5.397  0.0803 -0.6594 -0.4915
 2930SOL     OW20425   4.276   3.106   5.052 -0.2371 -0.1851  0.4752
 2930SOL    HW120426   4.345   3.124   4.988 -1.9001  1.5370 -0.8103
 2930SOL    HW220427   4.234   3.190   5.069 -1.8502 -1.4038  2.5184
 2931SOL     OW20428   1.961   3.193  10.881  0.1656 -0.4862 -0.3763
 2931SOL    HW120429   1.908   3.116  10.862  0.6369 -1.4902  2.3582
 2931SOL    HW220430   1.997   3.161  10.964  0.6625  0.9698 -0.0331
 2932SOL     OW20431   0.371   4.621   2.187 -0.5645  0.4520 -0.9738
 2932SOL    HW120432   0.436   4.589   2.124 -1.6694 -0.9507 -1.4142
 2932SOL    HW220433   0.299   4.656   2.135  0.3962  1.5118 -1.5780
 2933SOL     OW20434   2.824   2.008   9.664 -0.1800  0.0019 -0.1531
 2933SOL    HW120435   2.790   1.922   9.639  1.3770 -1.1134  1.5769
 2933SOL    HW220436   2.871   2.031   9.584  3.1962 -1.0693  1.5106
 2934SOL     OW20437   1.009   2.397  12.847 -0.0005  0.4268 -0.1851
 2934SOL    HW120438   1.042   2.338  12.779 -1.1341  0.6363 -0.9213
 2934SOL    HW220439   1.086   2.393  12.903  0.2207 -0.2222 -0.5354
 2935SOL     OW20440   3.294   4.136  10.687  0.1955  0.2395 -0.3343
 2935SOL    HW120441   3.306   4.212  10.744  1.5046  0.3020 -0.6909
 2935SOL    HW220442   3.350   4.069  10.726 -1.1303 -0.0871  0.9904
 2936SOL     OW20443   3.807   0.279  15.545  0.1658  0.1470 -0.6969
 2936SOL    HW120444   3.717   0.284  15.514  0.8686 -0.5967 -2.8588
 2936SOL    HW220445   3.848   0.361  15.518  2.1960 -1.1729 -1.6268
 2937SOL     OW20446   0.178   2.652   2.375 -0.3361  0.1738  0.0137
 2937SOL    HW120447   0.225   2.695   2.447  0.2043 -1.8994  0.9047
 2937SOL    HW220448   0.109   2.719   2.369 -0.0061  0.3498 -1.7827
 2938SOL     OW20449   0.907   4.612   2.033  0.2738  0.5473  0.5517
 2938SOL    HW120450   0.988   4.562   2.044 -0.4106 -0.8907 -0.9826
 2938SOL    HW220451   0.841   4.544   2.044  0.8435 -0.0650  0.2416
 2939SOL     OW20452   0.989   1.613   5.036  0.2767 -0.0510  0.9065
 2939SOL    HW120453   0.919   1.562   5.077  0.1785 -0.8392 -0.2223
 2939SOL    HW220454   0.946   1.660   4.965  2.0583 -0.8337 -0.6831
 2940SOL     OW20455   0.475   0.481  14.847  0.2665 -0.4682 -0.1836
 2940SOL    HW120456   0.392   0.529  14.847  0.1122 -0.7135  1.7010
 2940SOL    HW220457   0.526   0.547  14.894  0.8543 -1.9065  1.2145
 2941SOL     OW20458   4.602   3.112   1.440 -0.3530  0.1344 -0.1946
 2941SOL    HW120459   4.591   3.148   1.528  0.1485  0.5695 -0.3085
 2941SOL    HW220460   4.695   3.131   1.427 -0.2212  0.2391  0.9760
 2942SOL     OW20461   4.063   0.087   3.723 -0.4042 -0.5802 -0.1013
 2942SOL    HW120462   3.977   0.094   3.682 -0.4680  0.4208  0.2016
 2942SOL    HW220463   4.082   0.179   3.706  1.5966 -0.7087  1.4413
 2943SOL     OW20464   0.322   3.893   2.886 -0.2304 -0.3500 -0.2245
 2943SOL    HW120465   0.306   3.929   2.799 -1.2244 -1.3897 -0.4670
 2943SOL    HW220466   0.292   3.956   2.950 -0.7552 -1.1183  0.2833
 2944SOL     OW20467   1.041   4.389   8.602 -0.1505  0.1838  0.0381
 2944SOL    HW120468   1.037   4.299   8.635 -0.9986 -0.3922 -1.6540
 2944SOL    HW220469   0.960   4.425   8.638  0.8253  0.8488  1.5843
 2945SOL     OW20470   0.439   4.160   9.060 -0.2166 -0.2101 -0.2281
 2945SOL    HW120471   0.446   4.074   9.018 -0.0817 -0.0515 -0.5350
 2945SOL    HW220472   0.521   4.163   9.109 -1.4806 -1.0406  1.9191
 2946SOL     OW20473   0.873   1.690   8.712  0.1466 -0.2067 -0.4853
 2946SOL    HW120474   0.892   1.662   8.623 -1.4349 -4.4982  0.5633
 2946SOL    HW220475   0.813   1.623   8.745 -1.1129  0.8038 -0.7248
 2947SOL     OW20476   3.251   1.277   9.182 -0.1124  0.6280 -0.2021
 2947SOL    HW120477   3.310   1.326   9.240 -1.7784  0.4052  1.6744
 2947SOL    HW220478   3.183   1.245   9.241  1.9252 -0.8450  1.3721
 2948SOL     OW20479   2.647   0.922   7.363 -0.2884  0.0574  0.1021
 2948SOL    HW120480   2.618   1.009   7.390 -1.5793 -0.1254 -0.6753
 2948SOL    HW220481   2.683   0.891   7.446 -0.4072 -2.9436 -0.9470
 2949SOL     OW20482   3.685   4.492   1.942  0.3103 -0.3169  0.1686
 2949SOL    HW120483   3.622   4.558   1.911 -1.1661 -1.5476  0.5556
 2949SOL    HW220484   3.752   4.495   1.874  1.1055  0.2054  0.9798
 2950SOL     OW20485   2.115   1.109  13.435  0.0719 -0.0984 -0.2099
 2950SOL    HW120486   2.193   1.163  13.443 -1.6569  2.5688 -1.2673
 2950SOL    HW220487   2.161   1.030  13.409  1.7865  0.8438 -0.0349
 2951SOL     OW20488   4.548   3.996   1.720  0.2698 -0.4349  0.5473
 2951SOL    HW120489   4.572   4.060   1.787  0.2585 -1.3525  1.4133
 2951SOL    HW220490   4.571   3.920   1.772 -1.5860 -0.7808  0.8604
 2952SOL     OW20491   3.141   1.656   2.294  0.5146 -0.0825  0.0150
 2952SOL    HW120492   3.224   1.691   2.324  0.0852 -0.8765  2.0965
 2952SOL    HW220493   3.100   1.741   2.280 -0.0105 -0.5631 -1.3866
 2953SOL     OW20494   1.004   0.846   4.214 -0.0122  0.2595  0.1029
 2953SOL    HW120495   1.035   0.860   4.304 -1.5788  0.0302  0.6677
 2953SOL    HW220496   1.006   0.936   4.181  0.5433  0.8003  1.6302
 2954SOL     OW20497   2.687   4.495   3.599 -0.5477 -0.2132  0.0158
 2954SOL    HW120498   2.669   4.407   3.564 -2.1060 -0.6532  1.8930
 2954SOL    HW220499   2.619   4.553   3.566 -0.1849  1.5273  2.3648
 2955SOL     OW20500   2.616   3.472   6.990  0.8736  0.5806  0.4206
 2955SOL    HW120501   2.656   3.385   6.996 -0.9035 -0.1914  1.0934
 2955SOL    HW220502   2.694   3.526   6.997  2.6903 -1.9386 -0.5133
 2956SOL     OW20503   1.578   4.722  17.241  0.1355 -0.6185  0.3778
 2956SOL    HW120504   1.642   4.653  17.254 -0.4076 -1.3446 -0.7935
 2956SOL    HW220505   1.578   4.735  17.146 -1.1612  1.4881  0.6536
 2957SOL     OW20506   2.034   4.303   5.968  0.1498 -0.5986 -0.8917
 2957SOL    HW120507   2.081   4.306   5.885  0.3412 -0.6674 -0.7852
 2957SOL    HW220508   2.098   4.334   6.032  0.2310 -0.7702 -0.8914
 2958SOL     OW20509   3.843   1.070   5.575  0.4558 -0.6548  0.8703
 2958SOL    HW120510   3.867   0.978   5.564  2.1744 -0.2094  0.8730
 2958SOL    HW220511   3.927   1.114   5.590 -0.3102  1.3940 -0.9015
 2959SOL     OW20512   1.985   1.640   4.823 -0.0090  0.0358 -0.1524
 2959SOL    HW120513   2.006   1.551   4.798  0.3765  0.0994 -0.0542
 2959SOL    HW220514   1.997   1.691   4.743  1.4454 -0.7290 -0.4188
 2960SOL     OW20515   1.913   1.149   4.061  0.2509 -0.0506 -0.1925
 2960SOL    HW120516   1.914   1.243   4.044 -0.7853  0.3041  1.7655
 2960SOL    HW220517   1.819   1.128   4.065  0.3981 -0.5305  0.6940
 2961SOL     OW20518   1.511   0.660   7.767  0.1148 -0.2849  0.1009
 2961SOL    HW120519   1.532   0.717   7.842  1.5607 -0.9370  0.1767
 2961SOL    HW220520   1.446   0.607   7.813 -0.3123 -0.6979 -0.9806
 2962SOL     OW20521   1.477   1.939   6.097  0.4287  0.3555 -0.1096
 2962SOL    HW120522   1.529   2.004   6.050  0.7739 -0.0496 -0.2824
 2962SOL    HW220523   1.520   1.934   6.183  0.0169 -0.5665  0.0409
 2963SOL     OW20524   1.048   1.878  13.595 -0.7492  0.1033 -0.8642
 2963SOL    HW120525   1.100   1.902  13.519  0.5633 -0.6436 -0.2150
 2963SOL    HW220526   0.991   1.953  13.615 -0.7342 -0.4173  1.1292
 2964SOL     OW20527   2.454   4.721   4.296  0.1397  0.6912  0.0038
 2964SOL    HW120528   2.530   4.664   4.305  0.6165  1.2963 -0.1440
 2964SOL    HW220529   2.497   0.068   4.279  0.6095  0.3017 -0.7149
 2965SOL     OW20530   2.108   4.582   8.216  1.1507 -0.1800  0.0880
 2965SOL    HW120531   2.131   4.655   8.159 -1.2485  0.3858 -0.1577
 2965SOL    HW220532   2.190   4.564   8.262  1.5401  0.5401 -0.3376
 2966SOL     OW20533   0.012   4.606   8.822 -0.1491 -0.0131 -0.6868
 2966SOL    HW120534   0.031   4.580   8.732 -3.4070 -0.5374 -1.2368
 2966SOL    HW220535   0.086   4.565   8.865 -0.5563 -0.3597 -0.3181
 2967SOL     OW20536   0.986   1.150  12.141  0.4216 -0.1614  0.5159
 2967SOL    HW120537   1.012   1.242  12.145  2.6399 -0.7692 -0.0982
 2967SOL    HW220538   1.063   1.112  12.100  0.0164 -0.9888  0.5286
 2968SOL     OW20539   0.844   3.341   8.307 -0.4761 -0.5002  1.0724
 2968SOL    HW120540   0.804   3.296   8.232 -1.7829  1.0867  0.8204
 2968SOL    HW220541   0.767   3.385   8.344 -0.1496 -1.0591  2.4191
 2969SOL     OW20542   1.125   2.529   6.389  0.4350 -0.0031  0.5107
 2969SOL    HW120543   1.052   2.504   6.332  1.5729 -4.0489  0.8711
 2969SOL    HW220544   1.111   2.624   6.385 -0.5262 -0.2283 -1.7139
 2970SOL     OW20545   3.924   1.395   0.196 -0.0785  0.1794  0.1528
 2970SOL    HW120546   3.906   1.406   0.290  2.0825  1.0525  0.4610
 2970SOL    HW220547   3.839   1.410   0.154  0.1625  0.6219 -0.1782
 2971SOL     OW20548   3.617   2.510   4.874  0.2946  0.1333 -0.3776
 2971SOL    HW120549   3.548   2.484   4.813  0.5255  3.4894 -2.0748
 2971SOL    HW220550   3.646   2.586   4.824 -0.7602 -1.4552 -3.4313
 2972SOL     OW20551   2.443   0.676   3.025 -0.6722  0.7169 -0.1511
 2972SOL    HW120552   2.465   0.768   3.018  2.6966 -0.1436 -0.8338
 2972SOL    HW220553   2.421   0.668   3.118  1.3337 -0.8724  0.2111
 2973SOL     OW20554   4.566   0.881  10.152  0.5406  0.3680  0.5970
 2973SOL    HW120555   4.590   0.873  10.244 -0.1074  3.4724  1.0121
 2973SOL    HW220556   4.610   0.802  10.120  0.4762  0.9431 -0.9129
 2974SOL     OW20557   0.675   1.519   9.373 -0.6780 -0.2734 -0.2796
 2974SOL    HW120558   0.608   1.494   9.310 -1.3553 -0.3774  0.4878
 2974SOL    HW220559   0.749   1.458   9.360 -0.8089 -0.1020 -1.8198
 2975SOL     OW20560   3.948   1.481  11.799 -0.4371  0.3479  0.5916
 2975SOL    HW120561   3.946   1.567  11.757  2.0007  0.7629  1.3577
 2975SOL    HW220562   3.898   1.434  11.732 -0.9268  0.1288  1.1112
 2976SOL     OW20563   1.868   3.295   4.816  0.3183  0.0152  0.1174
 2976SOL    HW120564   1.811   3.310   4.891  0.4604  0.2185  0.1845
 2976SOL    HW220565   1.933   3.365   4.813  0.5254 -0.2175 -0.9507
 2977SOL     OW20566   4.032   0.412  16.799 -0.0668 -0.3540  0.2631
 2977SOL    HW120567   4.011   0.339  16.741 -2.5131  1.7805 -1.5799
 2977SOL    HW220568   3.949   0.460  16.803  1.7525  2.7109  1.4994
 2978SOL     OW20569   1.262   2.787   4.937  0.1147 -0.0752 -0.4113
 2978SOL    HW120570   1.254   2.692   4.926  3.2242 -0.4666  0.5585
 2978SOL    HW220571   1.211   2.802   5.016  0.5389 -1.6734  0.1738
 2979SOL     OW20572   4.041   1.906  16.216 -0.8873  0.4639 -0.4431
 2979SOL    HW120573   3.990   1.972  16.169  1.4979  1.8360 -1.1547
 2979SOL    HW220574   4.025   1.932  16.307 -0.2833  1.1385 -0.5241
 2980SOL     OW20575   4.364   3.276   8.684  0.4486 -0.0872  0.2819
 2980SOL    HW120576   4.321   3.264   8.600  0.2685  3.1742 -0.0656
 2980SOL    HW220577   4.341   3.366   8.709  1.7197  0.3017  0.0309
 2981SOL     OW20578   2.408   3.168   6.030  0.1916 -0.2275 -0.0633
 2981SOL    HW120579   2.439   3.191   6.118 -0.7874  1.1235 -0.0740
 2981SOL    HW220580   2.421   3.251   5.984  1.4512  0.6068  1.7974
 2982SOL     OW20581   3.893   2.710   2.123  0.3701 -0.3038 -0.1470
 2982SOL    HW120582   3.867   2.635   2.176 -2.0454 -0.3329 -1.3497
 2982SOL    HW220583   3.987   2.702   2.112  0.7051  2.5650  0.5197
 2983SOL     OW20584   3.856   0.386   2.584 -0.1611 -1.1084 -0.6321
 2983SOL    HW120585   3.932   0.328   2.595  1.3445  1.4536  2.2726
 2983SOL    HW220586   3.897   0.471   2.598 -0.2585 -0.8324 -2.0078
 2984SOL     OW20587   4.414   0.319   6.014  0.2810 -0.2598 -0.0069
 2984SOL    HW120588   4.450   0.240   6.054  1.3781 -0.7294 -1.9166
 2984SOL    HW220589   4.496   0.343   5.969  1.0637 -1.9491  0.5054
 2985SOL     OW20590   2.072   0.706   6.843 -0.0727  0.3359  0.0356
 2985SOL    HW120591   2.081   0.611   6.832  1.6574  0.4800  0.1944
 2985SOL    HW220592   2.121   0.734   6.921  0.7176 -3.7615  1.0053
 2986SOL     OW20593   1.856   3.406   2.972  0.1831  0.1726  0.1415
 2986SOL    HW120594   1.763   3.382   2.978  0.9478 -2.3751  1.5625
 2986SOL    HW220595   1.849   3.481   2.912 -1.3176 -0.2712 -0.2440
 2987SOL     OW20596   2.951   0.704   9.025 -0.3312 -0.0511 -0.4676
 2987SOL    HW120597   2.898   0.661   8.958 -1.3559  1.1401 -0.4074
 2987SOL    HW220598   2.949   0.794   8.994  1.8224 -0.0675 -0.6893
 2988SOL     OW20599   3.017   4.457   7.553  0.1848 -0.0275  0.2196
 2988SOL    HW120600   3.056   4.378   7.592  0.6127  0.5408  0.9293
 2988SOL    HW220601   2.958   4.412   7.492 -1.4506  0.9776  1.0885
 2989SOL     OW20602   2.822   2.230  17.262 -0.1688 -0.4162  0.4758
 2989SOL    HW120603   2.798   2.179  17.339 -1.4526  0.0373  0.3764
 2989SOL    HW220604   2.784   2.168  17.200 -0.6344 -0.1778  0.5258
 2990SOL     OW20605   1.306   0.473   5.268  0.5177  0.7805  0.1995
 2990SOL    HW120606   1.350   0.477   5.184  1.6199 -3.1710  0.5914
 2990SOL    HW220607   1.289   0.561   5.301 -0.9841 -0.1451  1.9390
 2991SOL     OW20608   3.237   0.044   8.873 -0.5323  0.3199 -0.7083
 2991SOL    HW120609   3.249   0.015   8.783  2.4034  0.7345 -0.4450
 2991SOL    HW220610   3.306   0.109   8.888 -0.3914 -0.2338  1.0483
 2992SOL     OW20611   2.895   3.381   5.769 -0.2900 -0.6406 -0.4998
 2992SOL    HW120612   2.870   3.459   5.719 -0.4199 -0.0316  0.5117
 2992SOL    HW220613   2.984   3.389   5.804 -0.7782  2.7191  0.0103
 2993SOL     OW20614   0.720   0.215   7.110  0.3377  0.2818 -0.2257
 2993SOL    HW120615   0.748   0.193   7.021  0.2249  0.2170 -0.2449
 2993SOL    HW220616   0.759   0.303   7.106 -0.3191  0.5124 -1.7289
 2994SOL     OW20617   3.300   4.197   6.794  0.0528  0.4520 -0.0147
 2994SOL    HW120618   3.339   4.247   6.722 -2.9811  2.5156 -0.2139
 2994SOL    HW220619   3.367   4.128   6.794 -0.3026  0.1054  0.4460
 2995SOL     OW20620   1.976   2.713   1.751 -0.2333  0.6284 -0.0566
 2995SOL    HW120621   1.984   2.618   1.754 -0.1407  0.7693  3.6210
 2995SOL    HW220622   1.888   2.735   1.783  0.7162 -0.4753  3.2169
 2996SOL     OW20623   2.423   2.371   0.505  0.1685 -0.7196  0.4768
 2996SOL    HW120624   2.460   2.452   0.542 -0.6260  0.8177 -2.0555
 2996SOL    HW220625   2.462   2.373   0.418  1.7818  1.7835  1.2479
 2997SOL     OW20626   0.408   0.690   3.695  0.4710  0.4028 -0.4019
 2997SOL    HW120627   0.440   0.777   3.721 -0.8430  1.3081 -1.8843
 2997SOL    HW220628   0.455   0.648   3.768  1.9416  1.8743 -0.4958
 2998SOL     OW20629   0.853   1.996   5.183 -0.5578  0.3921  0.6318
 2998SOL    HW120630   0.850   2.049   5.103  0.3908 -1.1699 -0.4257
 2998SOL    HW220631   0.772   1.946   5.172  0.0679 -0.7619  1.2631
 2999SOL     OW20632   3.195   4.504   0.209 -0.6325  0.0977  0.5820
 2999SOL    HW120633   3.116   4.557   0.201 -0.4048  0.6638  1.9875
 2999SOL    HW220634   3.185   4.451   0.130  0.6770  0.2190  0.3375
 3000SOL     OW20635   2.733   3.513   2.012  0.1169 -0.3103 -0.3533
 3000SOL    HW120636   2.725   3.608   2.003  0.5581 -0.3287 -0.9436
 3000SOL    HW220637   2.681   3.485   1.936 -1.9459  0.7365  0.6592
 3001SOL     OW20638   1.909   0.425   8.721 -0.4719  0.8755  0.0079
 3001SOL    HW120639   1.880   0.465   8.803  1.0896  1.8880  0.0756
 3001SOL    HW220640   2.002   0.445   8.721 -0.5671  1.3335 -0.0282
 3002SOL     OW20641   4.125   4.417  12.611  0.1331 -0.1080  0.1780
 3002SOL    HW120642   4.042   4.463  12.597 -0.4554 -1.1075  0.3907
 3002SOL    HW220643   4.112   4.380  12.698  0.2344  0.5783  0.4853
 3003SOL     OW20644   4.549   1.705  15.838 -0.2374  0.4918 -0.0429
 3003SOL    HW120645   4.484   1.703  15.767 -0.9247 -2.8110  0.6486
 3003SOL    HW220646   4.631   1.676  15.799  0.1896 -1.2379  2.1282
 3004SOL     OW20647   4.196   2.759   6.055 -0.6682  0.5932  0.5567
 3004SOL    HW120648   4.112   2.793   6.026 -1.9949 -2.7668  0.3880
 3004SOL    HW220649   4.180   2.664   6.051 -2.2005  0.9637 -1.6803
 3005SOL     OW20650   1.779   1.366   2.440  0.2295 -0.4353  0.1013
 3005SOL    HW120651   1.738   1.295   2.489  1.1608  0.3960  2.0424
 3005SOL    HW220652   1.703   1.392   2.388  0.8207  1.4820  0.1842
 3006SOL     OW20653   0.857   0.835   8.963  0.4906  0.0934 -0.8439
 3006SOL    HW120654   0.863   0.833   9.059 -0.8097 -2.4974 -0.8083
 3006SOL    HW220655   0.762   0.832   8.959  0.3406  0.2142  2.1470
 3007SOL     OW20656   3.870   4.394   4.340 -0.1877 -0.1697  0.2094
 3007SOL    HW120657   3.832   4.468   4.292  4.0637  1.2490 -0.9576
 3007SOL    HW220658   3.829   4.394   4.426  2.4315 -0.8908  1.4668
 3008SOL     OW20659   2.207   2.553   2.529 -0.0573 -0.4069  0.2830
 3008SOL    HW120660   2.265   2.483   2.560  1.1834 -0.0724 -1.2729
 3008SOL    HW220661   2.162   2.515   2.453  2.1269 -0.3388 -1.0509
 3009SOL     OW20662   0.331   2.688   9.535 -0.2130 -0.5487 -0.2437
 3009SOL    HW120663   0.310   2.620   9.471  0.2694 -0.6115 -0.3365
 3009SOL    HW220664   0.367   2.636   9.607 -0.3554 -2.8920 -1.8551
 3010SOL     OW20665   2.757   4.029   0.425 -0.0939  0.2133  0.0844
 3010SOL    HW120666   2.749   4.055   0.517  0.4915 -1.7991  0.6890
 3010SOL    HW220667   2.775   4.116   0.389 -2.0974 -0.4977 -2.6469
 3011SOL     OW20668   4.082   0.787   3.196  0.6850 -0.0733  0.8912
 3011SOL    HW120669   4.012   0.721   3.200 -0.2348  0.9251  1.0950
 3011SOL    HW220670   4.034   0.866   3.220  2.8338  0.8611  2.0544
 3012SOL     OW20671   2.769   4.453   6.217  0.3207  0.2336 -0.9787
 3012SOL    HW120672   2.716   4.377   6.194 -1.0241  0.4879  1.1908
 3012SOL    HW220673   2.781   4.497   6.133  1.6482 -0.1917 -1.0025
 3013SOL     OW20674   3.585   1.560   3.071 -0.4441 -0.2201 -0.5013
 3013SOL    HW120675   3.495   1.584   3.047 -0.3867  1.3064  0.7896
 3013SOL    HW220676   3.565   1.490   3.132  0.0746  0.7757  0.8099
 3014SOL     OW20677   1.375   2.081   4.927  0.1820  0.2291 -0.2063
 3014SOL    HW120678   1.328   2.010   4.882  0.5715 -1.0078  1.3353
 3014SOL    HW220679   1.462   2.063   4.893  0.3470 -0.3752  0.5418
 3015SOL     OW20680   1.978   1.398   4.672 -0.2035 -0.4779  0.1973
 3015SOL    HW120681   2.071   1.385   4.652 -1.0986 -3.1497 -2.3170
 3015SOL    HW220682   1.924   1.373   4.597  0.8960  1.3333 -1.2021
 3016SOL     OW20683   0.632   1.054   1.707 -0.1027  0.2081 -0.3760
 3016SOL    HW120684   0.657   0.969   1.671  0.8224  0.0615  0.6013
 3016SOL    HW220685   0.590   1.092   1.629 -0.7814 -0.2274 -0.2171
 3017SOL     OW20686   1.912   1.679   0.434 -0.0107 -0.3807 -0.7278
 3017SOL    HW120687   1.865   1.651   0.513 -1.4629 -0.5525 -1.6678
 3017SOL    HW220688   1.937   1.767   0.464 -2.1805  0.9546 -2.8213
 3018SOL     OW20689   3.366   1.037   2.533 -0.7686  0.0581 -0.4667
 3018SOL    HW120690   3.371   1.105   2.465 -0.2392 -1.0300 -1.5188
 3018SOL    HW220691   3.273   1.044   2.553 -1.0532 -2.0182 -1.0169
 3019SOL     OW20692   4.217   0.903   9.224 -0.2860 -0.0968 -0.7478
 3019SOL    HW120693   4.194   0.830   9.167 -0.3890 -0.0993 -0.7042
 3019SOL    HW220694   4.311   0.892   9.241 -0.4405  0.2287  0.3168
 3020SOL     OW20695   3.428   0.701   1.744 -0.0016 -0.9905  0.2325
 3020SOL    HW120696   3.347   0.684   1.792 -1.5260 -1.4606 -2.5532
 3020SOL    HW220697   3.410   0.788   1.707 -2.4016 -0.4711  2.6062
 3021SOL     OW20698   0.514   3.127   6.166 -0.7933  0.7453  0.3278
 3021SOL    HW120699   0.603   3.157   6.184 -0.6289  1.0587 -1.0101
 3021SOL    HW220700   0.489   3.203   6.113 -1.8711 -1.4597 -2.3082
 3022SOL     OW20701   2.776   1.546   2.235  0.2082 -0.0203  0.0651
 3022SOL    HW120702   2.740   1.457   2.243  0.1046  0.0994  0.9627
 3022SOL    HW220703   2.726   1.593   2.302 -0.7016 -2.9693  1.4660
 3023SOL     OW20704   3.931   1.197   4.948 -0.1519  0.4170 -0.3584
 3023SOL    HW120705   3.850   1.247   4.937 -0.7900 -0.6278 -0.3814
 3023SOL    HW220706   3.944   1.147   4.868  0.9535  2.1168 -1.2208
 3024SOL     OW20707   2.559   3.091   8.455  0.4119  0.3089  0.1593
 3024SOL    HW120708   2.558   3.157   8.386 -0.4062  1.8849  1.6431
 3024SOL    HW220709   2.516   3.140   8.526 -0.5133 -2.6924  1.6648
 3025SOL     OW20710   1.918   0.873   6.661  0.0154  0.5174  0.0742
 3025SOL    HW120711   1.936   0.829   6.578  2.3287  1.9066 -0.1521
 3025SOL    HW220712   1.975   0.817   6.714  0.9172  1.7614  0.4053
 3026SOL     OW20713   1.740   1.639  17.641  0.0949 -0.0887  0.5302
 3026SOL    HW120714   1.687   1.629  17.561 -2.1336  1.1321  1.8584
 3026SOL    HW220715   1.675   1.676  17.700 -1.4319 -1.5098 -0.2779
 3027SOL     OW20716   4.430   4.362   5.718  0.4466 -0.1781  0.4992
 3027SOL    HW120717   4.356   4.420   5.702 -0.7166 -1.5678  0.8940
 3027SOL    HW220718   4.471   4.365   5.631  1.2296  3.9254  1.0135
 3028SOL     OW20719   2.376   0.768   3.826  0.6275 -0.1785  0.5489
 3028SOL    HW120720   2.338   0.849   3.860 -1.5572 -0.8921 -0.1974
 3028SOL    HW220721   2.311   0.700   3.844  0.5588 -0.2853 -0.1073
 3029SOL     OW20722   3.815   1.394  10.077  0.3319 -0.3673  0.0865
 3029SOL    HW120723   3.773   1.429   9.998  0.1440 -0.5463  0.1086
 3029SOL    HW220724   3.909   1.408  10.065  0.4517 -0.8099  0.5431
 3030SOL     OW20725   2.045   2.191   3.288 -0.5159  0.6176  0.2987
 3030SOL    HW120726   2.141   2.184   3.294 -0.2738  1.4264 -2.6077
 3030SOL    HW220727   2.038   2.250   3.213  1.0667 -0.4435 -0.6696
 3031SOL     OW20728   3.081   0.922  10.465 -0.0165 -0.5044  0.5609
 3031SOL    HW120729   3.093   0.838  10.420  2.0711 -0.2061  0.5869
 3031SOL    HW220730   3.168   0.954  10.489 -1.0078  3.6867 -1.4099
 3032SOL     OW20731   1.865   3.778  12.302 -0.1422  0.8239  0.0884
 3032SOL    HW120732   1.867   3.870  12.328  0.5359  1.1231 -1.0305
 3032SOL    HW220733   1.778   3.754  12.334 -0.2946  0.9976 -0.1969
 3033SOL     OW20734   3.777   3.327   4.439 -0.4941 -0.0630 -0.1018
 3033SOL    HW120735   3.719   3.371   4.501  0.0461  0.7898 -0.2117
 3033SOL    HW220736   3.835   3.400   4.421  1.8406 -1.7589  0.5861
 3034SOL     OW20737   1.436   3.904  13.098 -0.2081 -0.2486 -0.4107
 3034SOL    HW120738   1.431   3.930  13.190 -1.1067  1.2881 -0.9064
 3034SOL    HW220739   1.459   3.984  13.051 -2.4435  0.5430 -0.1482
 3035SOL     OW20740   4.163   1.666  16.128  0.5534 -0.1529  0.3988
 3035SOL    HW120741   4.143   1.607  16.200 -0.4006 -0.3410 -0.0247
 3035SOL    HW220742   4.111   1.740  16.158 -0.9799 -0.1125 -2.3598
 3036SOL     OW20743   4.324   0.974   7.573 -0.3735 -0.0486  0.1377
 3036SOL    HW120744   4.374   0.920   7.512 -2.5335 -1.9596  0.0628
 3036SOL    HW220745   4.326   1.050   7.514 -2.1528 -1.5259 -1.8190
 3037SOL     OW20746   1.113   3.968  13.569  0.7681 -0.0454  0.2472
 3037SOL    HW120747   1.203   3.951  13.598  1.0467  1.5812  0.3477
 3037SOL    HW220748   1.070   3.891  13.606 -2.6102  1.2086 -1.0989
 3038SOL     OW20749   2.357   2.509   5.891 -0.7020 -0.2932 -0.2485
 3038SOL    HW120750   2.347   2.480   5.982  1.4901 -4.9773 -1.5021
 3038SOL    HW220751   2.450   2.508   5.870 -1.0607 -1.0211 -1.7894
 3039SOL     OW20752   1.937   1.721  11.434 -0.2649 -0.4365  0.1186
 3039SOL    HW120753   1.864   1.771  11.398  0.8845  0.7211 -0.6092
 3039SOL    HW220754   1.932   1.647  11.374  2.1022 -0.3028 -0.2621
 3040SOL     OW20755   0.011   4.122   8.770 -0.1638 -0.1591  0.3905
 3040SOL    HW120756   0.060   4.134   8.851 -0.5805  3.2057  0.1230
 3040SOL    HW220757   0.082   4.131   8.707  2.2882 -0.2792  3.1285
 3041SOL     OW20758   4.557   3.939   8.698  0.6217  0.1172 -0.2549
 3041SOL    HW120759   4.481   3.996   8.703 -0.4158 -1.2132 -0.7840
 3041SOL    HW220760   4.635   3.986   8.726  0.2094  0.4008  0.4278
 3042SOL     OW20761   2.924   4.395   6.933 -0.4075  0.9511  0.4288
 3042SOL    HW120762   3.014   4.364   6.948 -0.5781  0.5413  0.5855
 3042SOL    HW220763   2.872   4.340   6.991  2.3737  1.8687  3.8165
 3043SOL     OW20764   3.986   1.525   2.436 -0.1203  0.6204  0.1313
 3043SOL    HW120765   4.050   1.490   2.498  1.2929 -1.1302 -2.2806
 3043SOL    HW220766   3.920   1.455   2.432 -0.2059  0.7048  0.0813
 3044SOL     OW20767   2.775   4.005   2.668  1.0284 -0.0192  0.0908
 3044SOL    HW120768   2.788   3.910   2.675  2.6410  0.1976  0.0194
 3044SOL    HW220769   2.697   4.013   2.723  0.6426 -1.5552 -0.2174
 3045SOL     OW20770   4.410   1.357   8.789 -0.3865 -0.0753  0.2945
 3045SOL    HW120771   4.376   1.441   8.821 -0.6105 -0.2250  0.4490
 3045SOL    HW220772   4.501   1.382   8.774  0.3612 -2.9380  0.1391
 3046SOL     OW20773   2.712   2.606   6.681 -0.6638 -0.0670 -0.0399
 3046SOL    HW120774   2.800   2.597   6.716 -0.2468 -0.0616 -1.0899
 3046SOL    HW220775   2.686   2.695   6.702 -1.3011 -0.2233 -0.1609
 3047SOL     OW20776   4.184   0.123   4.261  1.0329 -0.0132  0.7367
 3047SOL    HW120777   4.163   0.040   4.303  1.6015 -0.4752  0.1034
 3047SOL    HW220778   4.275   0.123   4.291  1.5966  0.3553 -0.9573
 3048SOL     OW20779   4.298   2.018  13.617 -0.2812 -0.4651 -0.0071
 3048SOL    HW120780   4.327   2.072  13.543 -0.6189 -1.4449 -0.8446
 3048SOL    HW220781   4.265   2.089  13.672 -3.1704 -0.0698 -2.2054
 3049SOL     OW20782   2.293   3.624   4.185  0.6373  0.0483 -0.3512
 3049SOL    HW120783   2.352   3.571   4.131  0.7491  0.4804 -0.6480
 3049SOL    HW220784   2.229   3.667   4.129 -0.6717 -0.5231  0.6990
 3050SOL     OW20785   1.539   1.391   1.585 -0.4971 -0.0557  0.3670
 3050SOL    HW120786   1.574   1.380   1.674  1.1296 -1.8901 -0.4946
 3050SOL    HW220787   1.459   1.340   1.582 -0.7261  0.1358  2.6531
 3051SOL     OW20788   4.195   2.386   8.148 -0.5751 -0.3048 -0.1282
 3051SOL    HW120789   4.124   2.428   8.196  0.6772  2.1276 -0.4024
 3051SOL    HW220790   4.267   2.413   8.204  0.2331  2.0723 -2.2646
 3052SOL     OW20791   0.115   2.109   2.447 -0.2358  0.0400  0.0101
 3052SOL    HW120792   0.097   2.198   2.416 -2.5465 -0.2826  0.4442
 3052SOL    HW220793   0.176   2.125   2.519 -0.8775  0.8745  0.3603
 3053SOL     OW20794   1.209   1.848   0.515  0.0168  0.0498 -0.1293
 3053SOL    HW120795   1.281   1.881   0.569 -0.7133  1.7848 -0.2149
 3053SOL    HW220796   1.256   1.865   0.433 -0.7738 -0.8993 -0.7781
 3054SOL     OW20797   1.329   2.524  11.381  0.0379 -0.4003 -0.0303
 3054SOL    HW120798   1.300   2.483  11.462 -0.6743  1.6136  0.7287
 3054SOL    HW220799   1.423   2.509  11.381  0.2208  0.7524  1.4040
 3055SOL     OW20800   0.332   0.209  13.964  0.6999  0.1725  0.0793
 3055SOL    HW120801   0.359   0.254  14.044 -1.6316  1.1661  0.3045
 3055SOL    HW220802   0.381   0.127  13.969  0.0007 -0.4555 -3.1149
 3056SOL     OW20803   0.282   0.536  12.241 -0.4591  0.0861 -0.1159
 3056SOL    HW120804   0.222   0.578  12.303  1.4105  2.0551  0.3671
 3056SOL    HW220805   0.355   0.598  12.239 -0.6546  0.2655 -2.1892
 3057SOL     OW20806   4.531   4.441   2.219 -0.1705  0.0398 -0.0856
 3057SOL    HW120807   4.516   4.461   2.311  0.3973 -0.4381  0.1120
 3057SOL    HW220808   4.463   4.483   2.166 -0.2793  1.2071  0.9804
 3058SOL     OW20809   2.554   0.954  14.992  0.0682  0.1559  0.1358
 3058SOL    HW120810   2.638   0.953  14.946 -1.0710 -0.4744 -1.9394
 3058SOL    HW220811   2.570   0.897  15.067 -1.9840 -1.2378 -0.4741
 3059SOL     OW20812   2.914   2.855  12.328  0.5712  0.3570  0.0018
 3059SOL    HW120813   2.854   2.894  12.264  4.1587  0.7218 -3.1695
 3059SOL    HW220814   2.863   2.870  12.407 -0.2998  2.0299 -0.8684
 3060SOL     OW20815   3.008   0.953   5.063 -0.1019  0.2152 -0.3359
 3060SOL    HW120816   3.013   0.874   5.010 -1.5547  1.2426 -2.0060
 3060SOL    HW220817   3.065   0.918   5.131  0.1510  0.6657 -0.3122
 3061SOL     OW20818   4.122   4.322   8.997  0.3112  0.0585 -0.2386
 3061SOL    HW120819   4.093   4.230   9.001 -0.7805  0.4356  0.7215
 3061SOL    HW220820   4.093   4.348   9.085  1.5797 -0.7448  0.4082
 3062SOL     OW20821   0.120   4.015   3.670  0.3413 -1.2401 -0.2616
 3062SOL    HW120822   0.211   3.989   3.657  0.0513 -2.3623 -0.1075
 3062SOL    HW220823   0.118   4.073   3.746  1.6487  0.3221 -1.4498
 3063SOL     OW20824   1.039   2.232   5.233 -0.2594 -0.1600 -0.2437
 3063SOL    HW120825   1.058   2.235   5.327  2.1390  1.4084 -0.7797
 3063SOL    HW220826   0.960   2.177   5.230 -0.7680  0.5559  0.0635
 3064SOL     OW20827   0.835   2.559   9.067 -0.3680  0.1543 -0.3455
 3064SOL    HW120828   0.744   2.575   9.042 -0.7311 -1.4501 -0.0747
 3064SOL    HW220829   0.835   2.630   9.131  1.7386 -2.2051  2.2561
 3065SOL     OW20830   4.639   4.299   9.057  0.3249  0.6550 -0.4293
 3065SOL    HW120831   4.688   4.319   9.137  1.1463 -0.4644 -0.6420
 3065SOL    HW220832   4.710   4.264   9.003  0.8334  1.8768 -0.5613
 3066SOL     OW20833   1.250   0.276   1.115  0.1762 -0.1873 -0.0453
 3066SOL    HW120834   1.179   0.306   1.171 -0.7886  0.1978 -1.4829
 3066SOL    HW220835   1.209   0.285   1.029 -2.1981  2.6212  1.3885
 3067SOL     OW20836   3.480   1.593   4.576  0.4216  0.3283 -0.5408
 3067SOL    HW120837   3.558   1.638   4.606 -0.4209  0.3455  1.6066
 3067SOL    HW220838   3.439   1.664   4.527 -2.2390 -1.5013 -0.9736
 3068SOL     OW20839   2.263   4.599   3.360  0.4371  0.0608 -0.6283
 3068SOL    HW120840   2.321   4.661   3.403 -0.4727  0.0623  0.6031
 3068SOL    HW220841   2.187   4.602   3.418 -0.1529  3.4787 -1.5834
 3069SOL     OW20842   0.853   2.767   6.241 -0.3865 -0.7216 -0.0629
 3069SOL    HW120843   0.847   2.863   6.240  0.6046 -0.6460  0.7081
 3069SOL    HW220844   0.896   2.752   6.325 -0.3410 -0.3654 -0.0233
 3070SOL     OW20845   3.727   1.269  11.336 -0.2201 -0.6408  0.0441
 3070SOL    HW120846   3.731   1.209  11.262 -0.8247 -0.8046  0.1506
 3070SOL    HW220847   3.674   1.339  11.299 -0.9494 -1.3470 -0.2235
 3071SOL     OW20848   4.148   0.007   0.170  0.0277  0.2058 -0.1976
 3071SOL    HW120849   4.220   4.703   0.218  1.3670  2.0407 -0.6366
 3071SOL    HW220850   4.090   0.045   0.237 -3.0157 -2.2193 -1.4479
 3072SOL     OW20851   1.578   3.579   6.659  0.2172 -0.1396  0.0852
 3072SOL    HW120852   1.536   3.493   6.659  0.0806 -0.0612 -1.7512
 3072SOL    HW220853   1.569   3.613   6.570  2.0116  0.0245 -0.0384
 3073SOL     OW20854   1.552   3.699   5.579  0.1214 -0.0335 -0.1712
 3073SOL    HW120855   1.645   3.722   5.578 -0.4332  2.0965 -3.3047
 3073SOL    HW220856   1.545   3.657   5.665  0.8644 -1.0541 -0.6119
 3074SOL     OW20857   1.004   2.198  10.143  0.0611  0.1118  0.0093
 3074SOL    HW120858   0.961   2.125  10.099 -0.4403  1.7887 -2.2402
 3074SOL    HW220859   0.932   2.260  10.131  0.1076  0.3147  0.7693
 3075SOL     OW20860   4.020   2.339   0.784  0.5610  0.3329  0.1077
 3075SOL    HW120861   4.018   2.382   0.870  0.3833  0.0864  0.2249
 3075SOL    HW220862   4.022   2.246   0.804 -1.3053  0.4149  0.6246
 3076SOL     OW20863   1.598   3.433   3.165 -0.0216  0.2189  0.5377
 3076SOL    HW120864   1.570   3.524   3.171  2.9457  0.9689  3.3603
 3076SOL    HW220865   1.658   3.422   3.240  0.6940 -1.3628 -0.2604
 3077SOL     OW20866   3.074   0.054  10.796  0.1532  0.4284 -0.0839
 3077SOL    HW120867   3.087   4.697  10.789  0.6217  0.4945 -0.1064
 3077SOL    HW220868   3.003   0.056  10.733  1.2311  0.1512 -1.2982
 3078SOL     OW20869   3.015   1.841  15.037  0.3483  0.1643 -0.4387
 3078SOL    HW120870   3.082   1.902  15.069  0.1410 -0.1051  0.5064
 3078SOL    HW220871   2.934   1.880  15.070  0.4344 -0.1161  0.0844
 3079SOL     OW20872   0.967   2.105   5.745 -0.1906  0.0682 -0.0127
 3079SOL    HW120873   0.997   2.122   5.834 -1.6349 -1.4835  0.7745
 3079SOL    HW220874   0.886   2.055   5.759 -1.4350  2.1886  0.3758
 3080SOL     OW20875   2.555   4.666   0.367  0.2276  0.1249  0.1547
 3080SOL    HW120876   2.648   4.654   0.345  0.2708  0.6292  0.0597
 3080SOL    HW220877   2.558   0.001   0.429 -1.9168 -2.2553  3.0400
 3081SOL     OW20878   2.693   2.452   4.072 -0.3032  0.5434  0.7730
 3081SOL    HW120879   2.645   2.531   4.096 -2.2483 -0.7811  1.2340
 3081SOL    HW220880   2.724   2.476   3.985 -0.1432  0.3260  0.7695
 3082SOL     OW20881   3.376   0.379   6.124 -0.1350 -0.2054 -0.0623
 3082SOL    HW120882   3.388   0.355   6.032 -1.2405 -1.4580  0.1241
 3082SOL    HW220883   3.468   0.377   6.149  0.5584  0.5670 -2.4935
 3083SOL     OW20884   4.512   2.712   0.245  0.4033  0.3792 -0.4246
 3083SOL    HW120885   4.550   2.712   0.158 -0.0564 -0.4286 -0.6222
 3083SOL    HW220886   4.587   2.732   0.301 -0.0442 -1.9266  0.9685
 3084SOL     OW20887   2.444   4.444   1.963  0.2169 -0.0961  0.0230
 3084SOL    HW120888   2.439   4.350   1.983  2.1722 -0.3869 -0.8614
 3084SOL    HW220889   2.533   4.460   1.995  0.3232 -0.5800 -0.0252
 3085SOL     OW20890   3.682   1.876  17.200  0.0760  0.0907  0.0064
 3085SOL    HW120891   3.726   1.826  17.131  1.3703 -1.4430  1.9749
 3085SOL    HW220892   3.650   1.950  17.148  2.2968 -0.1790 -1.7598
 3086SOL     OW20893   3.395   2.331  14.621  0.3920 -0.4170 -0.0924
 3086SOL    HW120894   3.456   2.277  14.572 -0.1334  0.9696 -2.2672
 3086SOL    HW220895   3.409   2.420  14.590 -0.6308 -0.3107 -0.2476
 3087SOL     OW20896   1.424   2.718   1.520 -0.2468  0.1624 -0.4349
 3087SOL    HW120897   1.433   2.788   1.455  1.1807 -1.6435 -2.1834
 3087SOL    HW220898   1.498   2.662   1.500 -1.7614 -1.9245 -0.2387
 3088SOL     OW20899   1.486   3.180   3.085  0.1704  0.7193  0.3948
 3088SOL    HW120900   1.526   3.262   3.115 -2.0284  1.9222  0.0440
 3088SOL    HW220901   1.417   3.171   3.151 -0.8582 -1.2224 -0.9550
 3089SOL     OW20902   1.831   1.710   3.058 -0.3953 -0.4132  0.1096
 3089SOL    HW120903   1.891   1.699   2.985  2.2784 -0.4847  2.3220
 3089SOL    HW220904   1.822   1.626   3.103 -0.7163 -1.7015 -2.3899
 3090SOL     OW20905   3.715   1.120   8.317  0.1113 -0.0389 -0.0715
 3090SOL    HW120906   3.691   1.046   8.373 -0.2624  1.1330  1.2885
 3090SOL    HW220907   3.648   1.184   8.340  0.6522  1.0033 -1.3619
 3091SOL     OW20908   4.313   4.306  14.139  0.3371  0.1336 -0.1878
 3091SOL    HW120909   4.321   4.397  14.110  0.6528  0.0310 -0.4213
 3091SOL    HW220910   4.306   4.263  14.054  0.6189 -1.9408  0.8409
 3092SOL     OW20911   4.641   1.211   4.469  0.5540  0.2942  0.1688
 3092SOL    HW120912   4.682   1.250   4.392  1.2082  0.5261  0.6345
 3092SOL    HW220913   4.705   1.143   4.493  0.5772  0.1458 -0.3237
 3093SOL     OW20914   3.421   0.416   2.383 -0.2221  0.0550 -0.4384
 3093SOL    HW120915   3.508   0.377   2.386 -2.2251 -4.1389  1.9362
 3093SOL    HW220916   3.408   0.414   2.288 -2.0424 -0.2147 -0.1902
 3094SOL     OW20917   0.025   1.010   6.741  0.1129  0.1005  0.2328
 3094SOL    HW120918   0.002   1.075   6.807  0.4556 -0.1761  0.6191
 3094SOL    HW220919   0.062   0.941   6.796 -1.2278  0.8316  2.0582
 3095SOL     OW20920   1.999   1.914   3.277  0.2179 -0.3796  0.9317
 3095SOL    HW120921   2.027   1.999   3.245 -1.0342  0.1597  1.2699
 3095SOL    HW220922   1.908   1.915   3.249  0.3408 -3.3562  0.3981
 3096SOL     OW20923   3.478   1.078  13.423 -0.0015 -0.0124 -0.2491
 3096SOL    HW120924   3.539   1.016  13.465  0.6064 -0.1934 -1.3976
 3096SOL    HW220925   3.414   1.089  13.493  0.4618  1.0786  0.0012
 3097SOL     OW20926   4.385   2.158   5.016  0.1187  0.2315  0.3855
 3097SOL    HW120927   4.334   2.238   5.031  0.7130  1.1315 -2.2455
 3097SOL    HW220928   4.392   2.168   4.921 -0.6024 -1.6147  0.1360
 3098SOL     OW20929   2.068   3.629   3.467  0.5483 -0.3162  0.6181
 3098SOL    HW120930   2.147   3.589   3.429  1.0042  0.7073  0.4886
 3098SOL    HW220931   1.998   3.581   3.423 -0.7281  1.9922  0.1032
 3099SOL     OW20932   1.897   0.498  13.280 -0.4723 -0.0241  0.0287
 3099SOL    HW120933   1.803   0.515  13.280 -0.0016  2.6703 -0.1695
 3099SOL    HW220934   1.931   0.588  13.281 -0.5201 -0.0370  2.1707
 3100SOL     OW20935   4.729   2.186   1.472 -0.0111  0.0577 -0.6357
 3100SOL    HW120936   4.705   2.229   1.390 -1.4751 -3.0181 -1.8191
 3100SOL    HW220937   0.086   2.185   1.462 -0.0206  0.6889 -0.7860
 3101SOL     OW20938   0.879   1.189  10.631 -0.2452 -0.5040  0.5631
 3101SOL    HW120939   0.918   1.276  10.628 -1.0608 -0.1157  1.1300
 3101SOL    HW220940   0.790   1.221  10.617  0.7746  1.3696 -1.4772
 3102SOL     OW20941   3.586   0.921   7.217  0.1412  0.5307 -0.1089
 3102SOL    HW120942   3.614   1.008   7.248 -0.9342  0.9657 -0.3649
 3102SOL    HW220943   3.573   0.883   7.304  2.8650 -0.6743 -0.2194
 3103SOL     OW20944   0.831   4.613  13.697  0.0369  0.4371  0.0145
 3103SOL    HW120945   0.808   4.691  13.647 -0.4216  0.6192  0.5159
 3103SOL    HW220946   0.748   4.566  13.700  1.3966 -1.9650 -0.0340
 3104SOL     OW20947   2.185   0.660  16.324  0.3897  0.0559  0.0512
 3104SOL    HW120948   2.269   0.691  16.288  0.5785 -0.6590 -0.1241
 3104SOL    HW220949   2.142   0.627  16.245  0.5538 -0.1728  0.0565
 3105SOL     OW20950   3.196   4.295   4.709 -0.1434 -0.9194  0.2329
 3105SOL    HW120951   3.161   4.384   4.707 -0.8705 -1.2342 -0.7597
 3105SOL    HW220952   3.158   4.262   4.628  1.3246 -2.9480  0.3596
 3106SOL     OW20953   0.147   0.356  14.690 -0.0532  0.9217  0.1585
 3106SOL    HW120954   0.178   0.445  14.706 -0.5098  1.3315 -1.2372
 3106SOL    HW220955   0.154   0.321  14.779  0.0079 -0.8696 -0.5534
 3107SOL     OW20956   4.122   2.399  14.308 -0.1729 -0.5028  0.4149
 3107SOL    HW120957   4.183   2.472  14.323  0.4255 -1.1930  1.3357
 3107SOL    HW220958   4.172   2.356  14.239  1.3384  1.0685  0.5263
 3108SOL     OW20959   0.571   1.889  12.338 -0.5242  0.1105  0.9547
 3108SOL    HW120960   0.487   1.916  12.302  0.7212  0.7193 -1.4976
 3108SOL    HW220961   0.632   1.937  12.282 -2.1032  3.4744  2.1292
 3109SOL     OW20962   4.090   0.482   8.471  0.0464  0.3466 -0.2444
 3109SOL    HW120963   4.093   0.570   8.432  1.2697  0.0953 -0.7000
 3109SOL    HW220964   4.180   0.456   8.491  1.1281  2.7972 -1.9757
 3110SOL     OW20965   3.025   1.137  15.461 -0.1670 -0.5274  0.0880
 3110SOL    HW120966   3.044   1.165  15.551  0.6546 -0.8467  0.0097
 3110SOL    HW220967   3.071   1.195  15.400 -1.2181  0.3916  0.1611
 3111SOL     OW20968   3.086   1.024   1.888 -0.4490 -0.0379  0.2349
 3111SOL    HW120969   3.054   1.072   1.965 -1.1717  0.6812 -0.5166
 3111SOL    HW220970   3.031   0.945   1.885  0.1594 -0.4125 -0.8517
 3112SOL     OW20971   2.339   0.889   4.158 -0.1884  0.1603  0.4809
 3112SOL    HW120972   2.256   0.908   4.115 -1.2076 -3.6984  0.7020
 3112SOL    HW220973   2.325   0.901   4.252 -0.7358 -0.9551  0.5411
 3113SOL     OW20974   3.161   1.788   8.313  0.0656 -0.0901  0.5775
 3113SOL    HW120975   3.208   1.709   8.285 -1.0383 -0.5039 -0.0792
 3113SOL    HW220976   3.225   1.835   8.367  0.5630  0.0152 -0.1013
 3114SOL     OW20977   2.834   3.024   8.929  0.1172 -0.0781 -0.2649
 3114SOL    HW120978   2.841   3.064   9.016 -2.8117 -2.8617  1.2414
 3114SOL    HW220979   2.852   3.098   8.871  3.3981 -0.3501  0.4153
 3115SOL     OW20980   1.846   0.052  15.310  0.8879  0.2544 -0.1557
 3115SOL    HW120981   1.846   4.715  15.369  4.2507 -0.4514 -1.0597
 3115SOL    HW220982   1.829   0.131  15.362 -1.5272 -0.9894  0.9372
 3116SOL     OW20983   1.863   2.693   4.131 -0.7924  0.3725 -0.1227
 3116SOL    HW120984   1.914   2.774   4.126  0.3650 -0.3380  0.0426
 3116SOL    HW220985   1.788   2.707   4.073 -1.3123  1.2058  0.7473
 3117SOL     OW20986   2.769   3.865   4.428 -0.4798  0.2488  0.3518
 3117SOL    HW120987   2.680   3.839   4.405 -0.9603  0.4175  1.9792
 3117SOL    HW220988   2.753   3.906   4.513 -1.0329  0.4910  0.1271
 3118SOL     OW20989   0.302   1.120   2.109  0.1622 -0.5050 -0.9534
 3118SOL    HW120990   0.343   1.099   2.193 -0.6586  1.0942 -0.1662
 3118SOL    HW220991   0.293   1.033   2.070 -1.5750  0.0246 -1.7010
 3119SOL     OW20992   4.168   3.752   8.809 -0.2870 -0.5173 -0.4376
 3119SOL    HW120993   4.101   3.785   8.869 -0.0941 -0.8646 -0.0347
 3119SOL    HW220994   4.227   3.827   8.815 -2.1566  0.7410  2.0803
 3120SOL     OW20995   2.449   4.650   6.636  0.3418  0.3658  0.2060
 3120SOL    HW120996   2.517   4.684   6.694 -0.7765 -0.5559  2.0790
 3120SOL    HW220997   2.512   4.631   6.566 -0.8956 -1.1770 -0.4862
 3121SOL     OW20998   4.007   1.083  11.329 -0.6237 -0.3961  0.5702
 3121SOL    HW120999   4.018   1.176  11.351  0.0036 -0.9467  2.5774
 3121SOL    HW221000   4.093   1.045  11.347  0.3329  1.2012 -0.6304
 3122SOL     OW21001   1.240   0.922   9.249  0.1775 -0.0644 -0.1510
 3122SOL    HW121002   1.273   0.906   9.161  0.8609 -2.8102  0.5909
 3122SOL    HW221003   1.231   1.017   9.246 -0.9420 -0.1621  0.1311
 3123SOL     OW21004   1.451   3.507   6.357 -0.3230  0.0668 -0.2351
 3123SOL    HW121005   1.398   3.578   6.395 -0.0771  1.3300 -2.2264
 3123SOL    HW221006   1.393   3.434   6.335  1.8127 -1.2983 -1.3572
 3124SOL     OW21007   0.135   1.726  11.663 -0.1305  0.1256  0.1184
 3124SOL    HW121008   0.077   1.795  11.696 -2.4327 -2.3388  1.2206
 3124SOL    HW221009   0.222   1.734  11.702  0.8494 -2.1431 -1.5985
 3125SOL     OW21010   4.315   1.646   5.515  0.0744 -0.2162 -0.2500
 3125SOL    HW121011   4.356   1.732   5.522 -1.2902  0.3586  0.6186
 3125SOL    HW221012   4.256   1.650   5.590  0.3007  1.2547 -0.1473
 3126SOL     OW21013   0.492   1.241   7.858  0.0355 -0.0411 -0.0785
 3126SOL    HW121014   0.531   1.302   7.920 -0.5020 -1.6609  1.8348
 3126SOL    HW221015   0.443   1.186   7.919 -0.3334 -1.1430 -1.3703
 3127SOL     OW21016   1.590   3.232   5.270  0.0934 -0.4705 -0.1499
 3127SOL    HW121017   1.652   3.303   5.283 -1.0981  0.8697 -1.7017
 3127SOL    HW221018   1.581   3.187   5.354 -0.4262  0.3177  0.2170
 3128SOL     OW21019   3.113   3.588   2.712  0.5049 -0.4460  0.3920
 3128SOL    HW121020   3.160   3.517   2.667 -0.1318  0.4847 -1.7244
 3128SOL    HW221021   3.163   3.656   2.666 -0.2803  0.4467  0.8647
 3129SOL     OW21022   0.757   2.332  13.760  0.1785  0.0830  0.0005
 3129SOL    HW121023   0.691   2.331  13.691  2.6245 -0.3073 -2.3226
 3129SOL    HW221024   0.726   2.250  13.798  1.4885  0.0354  0.9580
 3130SOL     OW21025   0.963   0.461   1.796  0.6210 -0.0374  0.7199
 3130SOL    HW121026   0.966   0.517   1.719 -0.2982  0.1427  0.8075
 3130SOL    HW221027   0.937   0.531   1.856 -0.3617 -0.2421  0.5306
 3131SOL     OW21028   1.449   0.960   2.560 -0.2034 -0.1746  0.1675
 3131SOL    HW121029   1.483   0.882   2.605 -0.9949 -0.4890  0.2237
 3131SOL    HW221030   1.464   0.933   2.470 -1.0895 -0.3858  0.0742
 3132SOL     OW21031   1.980   4.087   1.942 -0.2133  0.5514  0.7248
 3132SOL    HW121032   2.018   4.004   1.915  0.5792  1.0373  0.3504
 3132SOL    HW221033   2.050   4.099   2.006  1.4203  1.0171 -1.1579
 3133SOL     OW21034   0.798   2.598   2.611 -0.3929 -0.3604 -0.1135
 3133SOL    HW121035   0.745   2.560   2.681 -0.4340  0.0225  0.0626
 3133SOL    HW221036   0.751   2.566   2.534  1.1083 -1.4471 -0.5588
 3134SOL     OW21037   1.457   1.908   5.643  0.4206 -0.3292  0.5504
 3134SOL    HW121038   1.401   1.955   5.704  1.4168 -0.6063  1.6817
 3134SOL    HW221039   1.507   1.856   5.707  0.1514 -1.1230  0.1078
 3135SOL     OW21040   3.328   3.878  15.458 -0.0809  0.0691 -0.1337
 3135SOL    HW121041   3.327   3.792  15.416 -1.9285  0.1836 -0.3277
 3135SOL    HW221042   3.335   3.864  15.552 -0.5289  0.4322 -0.0496
 3136SOL     OW21043   2.371   1.924   2.198  0.1248  0.0921 -0.1346
 3136SOL    HW121044   2.375   1.900   2.291 -0.5324 -1.0630 -0.4115
 3136SOL    HW221045   2.379   1.836   2.162 -1.5585  0.1371 -0.5744
 3137SOL     OW21046   3.288   2.843  11.257 -0.1320 -0.5366 -0.1138
 3137SOL    HW121047   3.265   2.912  11.194  2.3792  1.7735  1.4630
 3137SOL    HW221048   3.355   2.884  11.311 -1.2232 -0.4539  1.1687
 3138SOL     OW21049   2.525   4.431   8.827 -0.1343  0.0913  0.2019
 3138SOL    HW121050   2.591   4.473   8.771 -0.3548  0.9162  0.5702
 3138SOL    HW221051   2.509   4.356   8.771 -0.4563 -1.9958  3.0920
 3139SOL     OW21052   3.873   2.901   3.685  0.0886  0.7199 -0.2877
 3139SOL    HW121053   3.821   2.925   3.608 -1.4911 -0.8094  0.3041
 3139SOL    HW221054   3.829   2.960   3.747  0.9879  1.9542 -0.8179
 3140SOL     OW21055   2.067   3.235  13.650 -0.7184  0.1643 -0.1609
 3140SOL    HW121056   1.999   3.181  13.610 -1.2760  1.2214 -0.6589
 3140SOL    HW221057   2.014   3.309  13.680  1.0180  0.8360  1.2778
 3141SOL     OW21058   2.478   3.637   0.819 -0.4280  0.0340  0.0295
 3141SOL    HW121059   2.431   3.675   0.746  0.1882 -0.7709 -0.7863
 3141SOL    HW221060   2.569   3.646   0.790 -0.5685 -0.3368 -0.5311
 3142SOL     OW21061   3.164   4.306   3.469 -0.9039  0.1204 -0.2883
 3142SOL    HW121062   3.087   4.358   3.492 -0.9434 -0.4156  0.7630
 3142SOL    HW221063   3.134   4.288   3.380  0.5284  0.4412 -0.8388
 3143SOL     OW21064   2.632   1.548  11.022 -0.0229  0.1529 -0.5424
 3143SOL    HW121065   2.679   1.579  10.945 -0.3547  2.5207  0.2314
 3143SOL    HW221066   2.608   1.632  11.061  0.7462 -0.4116  1.1464
 3144SOL     OW21067   3.853   4.377  15.398 -0.1828  0.0905 -0.4795
 3144SOL    HW121068   3.839   4.400  15.490  4.7094  1.5922 -0.1163
 3144SOL    HW221069   3.816   4.289  15.388  0.4714 -0.1601 -0.7063
 3145SOL     OW21070   0.515   2.426   3.695 -0.1318  0.2515 -0.2196
 3145SOL    HW121071   0.551   2.411   3.783  0.1561  1.9740 -0.0463
 3145SOL    HW221072   0.424   2.452   3.707  0.2997  1.5319  0.2518
 3146SOL     OW21073   4.683   3.698   3.316 -0.3265 -0.1343  0.3123
 3146SOL    HW121074   4.671   3.769   3.253 -0.0601 -0.3552  0.0103
 3146SOL    HW221075   4.689   3.762   3.388  0.3130  1.7137 -1.3994
 3147SOL     OW21076   2.695   2.871  17.483  0.3402  0.4298 -0.3915
 3147SOL    HW121077   2.719   2.832  17.399 -1.3889  2.6314 -1.8828
 3147SOL    HW221078   2.625   2.927  17.451 -0.8779 -0.4424  0.7246
 3148SOL     OW21079   3.540   3.331   5.013  0.0215 -0.1462 -0.0697
 3148SOL    HW121080   3.466   3.271   5.021 -0.0833 -0.1163 -0.8549
 3148SOL    HW221081   3.512   3.413   5.054  1.1926  0.9064 -1.3550
 3149SOL     OW21082   3.789   0.427   1.910 -0.0764 -0.4770 -0.4088
 3149SOL    HW121083   3.706   0.457   1.948 -0.8019 -0.9346 -1.6411
 3149SOL    HW221084   3.765   0.409   1.819  1.0782  2.1736 -1.2481
 3150SOL     OW21085   2.899   2.159   5.601  0.6394  0.2282 -0.4776
 3150SOL    HW121086   2.814   2.171   5.560  0.6183 -0.6868 -0.7072
 3150SOL    HW221087   2.952   2.111   5.537  2.2497 -1.5093  2.1385
 3151SOL     OW21088   4.537   3.040   4.616  0.3505 -0.4123 -0.4263
 3151SOL    HW121089   4.631   3.051   4.634  0.4198  0.1618 -1.1399
 3151SOL    HW221090   4.536   3.071   4.525 -0.5847 -0.7365 -0.5266
 3152SOL     OW21091   3.507   0.777   6.788 -0.3613  0.1482 -0.3646
 3152SOL    HW121092   3.508   0.682   6.772 -0.3320  0.0736  0.0735
 3152SOL    HW221093   3.463   0.782   6.873 -1.0792  0.1339 -0.7345
 3153SOL     OW21094   4.237   0.828   5.406  0.2569 -0.0593  0.4775
 3153SOL    HW121095   4.229   0.923   5.416  1.1640  0.0414  0.2680
 3153SOL    HW221096   4.331   0.816   5.393  0.1845  1.0398 -0.9958
 3154SOL     OW21097   3.015   0.455  10.304 -0.5214  0.6235 -0.1625
 3154SOL    HW121098   3.027   0.430  10.395 -1.0294  2.6710  0.4673
 3154SOL    HW221099   3.043   0.373  10.265  2.3684 -0.1919  3.6187
 3155SOL     OW21100   2.770   0.393   4.570 -0.4534 -0.1252  0.2137
 3155SOL    HW121101   2.806   0.460   4.511  0.7473  0.4509  1.6206
 3155SOL    HW221102   2.816   0.317   4.536 -1.4789 -0.3099 -0.7720
 3156SOL     OW21103   4.260   2.444   5.722 -0.4312 -0.2625 -0.6803
 3156SOL    HW121104   4.168   2.416   5.712 -0.8884  0.7993  0.5943
 3156SOL    HW221105   4.263   2.495   5.802 -0.9294 -1.5310  0.1589
 3157SOL     OW21106   1.294   3.453   2.080  0.1974  0.3305  0.2026
 3157SOL    HW121107   1.230   3.409   2.024 -0.5367  1.0463  0.4806
 3157SOL    HW221108   1.373   3.429   2.033 -1.4233  0.0334 -2.3809
 3158SOL     OW21109   4.435   2.973   5.563 -0.0154 -0.4443  0.3405
 3158SOL    HW121110   4.374   3.013   5.625 -0.3381  1.3371 -1.1212
 3158SOL    HW221111   4.521   2.989   5.602 -0.1685 -0.4136  0.6649
 3159SOL     OW21112   1.128   0.800   5.553 -0.3695 -0.1642 -0.8285
 3159SOL    HW121113   1.048   0.840   5.588  0.3012  1.5426 -1.2419
 3159SOL    HW221114   1.146   0.737   5.623  0.4353  2.0816  0.9643
 3160SOL     OW21115   2.923   1.871   2.683  0.1290 -0.1665 -0.3789
 3160SOL    HW121116   2.849   1.829   2.725  0.7928 -0.9687 -0.0007
 3160SOL    HW221117   2.906   1.874   2.589  2.6728 -0.8287 -0.8648
 3161SOL     OW21118   3.841   2.578  12.205 -0.1868  0.0476  0.2060
 3161SOL    HW121119   3.762   2.564  12.257 -0.7966  2.2659 -0.1142
 3161SOL    HW221120   3.913   2.573  12.268  0.6133 -0.1820 -0.7336
 3162SOL     OW21121   1.924   0.209   8.999  0.2155  0.5423 -0.8646
 3162SOL    HW121122   1.988   0.280   8.990  1.3390 -0.3661 -0.0639
 3162SOL    HW221123   1.898   0.184   8.910  0.0840 -0.3908 -0.5620
 3163SOL     OW21124   4.178   1.525   6.630  1.0818 -0.0634  0.2989
 3163SOL    HW121125   4.149   1.452   6.576 -2.5405  0.8684  0.9498
 3163SOL    HW221126   4.145   1.481   6.708 -0.3643  1.7599  0.7303
 3164SOL     OW21127   3.317   3.470   0.223 -0.4248 -0.0189 -0.0848
 3164SOL    HW121128   3.254   3.542   0.216 -1.4541 -1.0362 -1.0437
 3164SOL    HW221129   3.397   3.521   0.205 -0.6583 -0.2306 -1.6825
 3165SOL     OW21130   2.567   1.639  11.728 -0.1111 -0.0108 -0.0147
 3165SOL    HW121131   2.562   1.681  11.814 -0.2198 -1.4062  0.6625
 3165SOL    HW221132   2.495   1.580  11.749 -0.8433  0.4318 -1.2754
 3166SOL     OW21133   4.247   2.068   4.172 -0.0167  0.1710  0.5270
 3166SOL    HW121134   4.162   2.059   4.129 -0.2398  1.6554  0.6894
 3166SOL    HW221135   4.276   1.978   4.189 -0.6464  0.4453  3.0276
 3167SOL     OW21136   4.714   0.984   7.982  0.0750 -0.2761 -0.6545
 3167SOL    HW121137   0.022   0.970   7.899 -2.2608  0.4673 -2.0725
 3167SOL    HW221138   4.641   1.036   7.948 -0.8044 -0.8518  0.3549
 3168SOL     OW21139   0.180   1.756  16.013  0.4282 -0.5240  0.5161
 3168SOL    HW121140   0.151   1.721  16.097 -1.8974 -2.2194 -0.9908
 3168SOL    HW221141   0.115   1.826  16.002  0.0754 -0.7039  1.4283
 3169SOL     OW21142   3.716   4.236   9.337  0.0081 -0.3639  0.2252
 3169SOL    HW121143   3.717   4.279   9.251  0.2758 -1.5678 -0.3698
 3169SOL    HW221144   3.675   4.301   9.394 -0.5841  0.4930 -1.1857
 3170SOL     OW21145   1.959   0.199   4.339  0.1014 -0.1295 -0.1756
 3170SOL    HW121146   2.040   0.213   4.291  0.8184 -1.5554  0.6316
 3170SOL    HW221147   1.938   0.286   4.374  0.0625  1.0804 -3.1555
 3171SOL     OW21148   3.199   4.520   2.559 -0.0204  0.2332 -0.4997
 3171SOL    HW121149   3.264   4.578   2.598  2.1821 -1.1959 -2.0394
 3171SOL    HW221150   3.174   4.477   2.642 -1.1873 -1.8649 -1.9423
 3172SOL     OW21151   1.201   2.295   9.989  0.2302 -0.1030  1.0857
 3172SOL    HW121152   1.156   2.377   9.970  0.2638 -0.6962 -1.4492
 3172SOL    HW221153   1.136   2.256  10.048 -0.3184  2.0616  1.9074
 3173SOL     OW21154   4.588   2.063  14.670 -0.5240  0.7089 -0.0533
 3173SOL    HW121155   4.662   2.113  14.704  0.6333 -0.8559 -0.2391
 3173SOL    HW221156   4.578   2.012  14.750  2.9424  0.9556  0.5470
 3174SOL     OW21157   0.257   2.600  12.217 -0.1947 -0.1167  0.0212
 3174SOL    HW121158   0.333   2.629  12.167  0.4574 -1.3794  0.2929
 3174SOL    HW221159   0.192   2.619  12.149 -1.0246 -1.3860  0.4598
 3175SOL     OW21160   2.238   0.312   7.413  0.0709  0.3027  0.4690
 3175SOL    HW121161   2.160   0.336   7.363  0.0363  0.0017  0.3729
 3175SOL    HW221162   2.210   0.317   7.504  0.0794  1.1616  0.4207
 3176SOL     OW21163   4.136   2.938   6.659  0.2409  0.6886 -0.2526
 3176SOL    HW121164   4.136   2.843   6.675  1.3459  0.4620 -1.5161
 3176SOL    HW221165   4.064   2.969   6.713  0.9826  0.5816  0.7894
 3177SOL     OW21166   1.055   2.767  11.073  0.2830 -0.1436  0.1642
 3177SOL    HW121167   1.089   2.678  11.081  2.2821  0.3320 -2.9391
 3177SOL    HW221168   0.962   2.755  11.093  0.0208  2.9589  0.7921
 3178SOL     OW21169   1.318   3.791   5.826  0.1699  0.2372  0.1080
 3178SOL    HW121170   1.329   3.739   5.906 -0.4977 -0.1124 -0.0289
 3178SOL    HW221171   1.282   3.723   5.768 -1.4865  1.1393  0.0710
 3179SOL     OW21172   4.035   3.583   3.322  0.1264 -0.1009  0.1480
 3179SOL    HW121173   4.130   3.586   3.316  0.1247 -0.8594 -0.2771
 3179SOL    HW221174   4.010   3.491   3.333  0.3027 -0.0985  0.5605
 3180SOL     OW21175   1.224   3.901   3.256  0.3515 -0.1234 -0.1716
 3180SOL    HW121176   1.175   3.891   3.175  1.1583  2.1703 -0.9314
 3180SOL    HW221177   1.206   3.812   3.287 -0.5582  0.3421  0.6231
 3181SOL     OW21178   2.765   1.536  13.987  0.4606  0.6646  0.0352
 3181SOL    HW121179   2.706   1.462  13.972  2.3010 -0.6987 -0.3842
 3181SOL    HW221180   2.806   1.512  14.070  0.0405  0.6026  0.2253
 3182SOL     OW21181   2.925   2.396  12.252 -0.3096  0.5536 -0.0719
 3182SOL    HW121182   2.858   2.426  12.314  0.3203 -0.4276  1.0916
 3182SOL    HW221183   2.979   2.474  12.240 -1.2788  1.5369  1.9215
 3183SOL     OW21184   0.030   1.792   8.549  0.3298  0.3384  0.4070
 3183SOL    HW121185   0.034   1.700   8.520  0.8266 -0.0029  1.5648
 3183SOL    HW221186   0.124   1.804   8.567 -0.2427  1.7764  2.3563
 3184SOL     OW21187   4.230   0.868  16.568  0.0174  0.4704  0.1089
 3184SOL    HW121188   4.307   0.904  16.524  1.1914 -0.0499  1.7462
 3184SOL    HW221189   4.242   0.780  16.532  2.6287  1.9060 -2.4833
 3185SOL     OW21190   1.204   2.424   6.934  0.5386 -0.0367 -0.2511
 3185SOL    HW121191   1.156   2.438   7.016  1.2036 -3.8874  0.8045
 3185SOL    HW221192   1.260   2.501   6.944  0.9748 -0.5101  0.9363
 3186SOL     OW21193   0.320   4.400  10.819  0.1941  0.3102  0.1640
 3186SOL    HW121194   0.407   4.362  10.825  1.3831  2.7444 -1.8999
 3186SOL    HW221195   0.305   4.429  10.909 -2.2921 -1.0944  0.2042
 3187SOL     OW21196   4.257   1.687   9.378  0.1793  0.0815 -0.6823
 3187SOL    HW121197   4.338   1.690   9.429  0.1250 -0.5689 -0.5610
 3187SOL    HW221198   4.252   1.782   9.366  0.9786  0.3337  0.9880
 3188SOL     OW21199   3.869   0.341   8.630 -0.1702 -0.2548  0.8563
 3188SOL    HW121200   3.947   0.380   8.590 -2.1012  2.7167 -0.0353
 3188SOL    HW221201   3.856   0.419   8.684  1.2746  0.2253  0.5194
 3189SOL     OW21202   1.022   2.691   3.492  0.1943  0.3979 -0.5218
 3189SOL    HW121203   1.095   2.643   3.453 -0.9130 -0.8637 -1.0510
 3189SOL    HW221204   1.025   2.764   3.430 -1.7578 -0.6124 -1.7855
 3190SOL     OW21205   2.226   2.755   5.627  0.0561  0.1708 -0.5860
 3190SOL    HW121206   2.236   2.762   5.722  0.5836 -1.0421 -0.5572
 3190SOL    HW221207   2.219   2.846   5.596  1.5761 -0.2240 -2.0645
 3191SOL     OW21208   4.398   2.876   4.311 -0.1351  0.3850 -0.5094
 3191SOL    HW121209   4.439   2.808   4.259  1.9081 -0.0126  1.5871
 3191SOL    HW221210   4.472   2.935   4.328  0.1589 -0.1250 -0.0174
 3192SOL     OW21211   3.974   2.345   4.719  0.3176  0.8040  0.1827
 3192SOL    HW121212   3.890   2.381   4.689 -0.0859  1.0096  1.5522
 3192SOL    HW221213   3.931   2.312   4.798  0.0168  0.5067 -0.1022
 3193SOL     OW21214   4.611   3.881   8.158  0.2984 -0.1196 -0.3783
 3193SOL    HW121215   4.659   3.828   8.221  1.6154  0.7011 -0.7025
 3193SOL    HW221216   4.615   3.964   8.206  0.3181 -0.5782  0.4165
 3194SOL     OW21217   4.347   2.473   2.714  0.4229  0.2279  0.4244
 3194SOL    HW121218   4.327   2.474   2.808 -1.6835 -1.1398 -0.0126
 3194SOL    HW221219   4.379   2.563   2.702 -0.7889  0.2952 -2.3053
 3195SOL     OW21220   4.438   1.300   5.331 -1.1126 -0.4525 -0.2706
 3195SOL    HW121221   4.506   1.240   5.363 -1.9087 -0.6647  1.0068
 3195SOL    HW221222   4.492   1.376   5.311 -1.4903 -0.2897 -0.6624
 3196SOL     OW21223   2.530   0.032   2.485 -0.6111  0.4099  0.2809
 3196SOL    HW121224   2.443   0.034   2.524 -1.0167  0.9777 -0.6638
 3196SOL    HW221225   2.504   4.718   2.409 -1.2580  0.0906  0.7243
 3197SOL     OW21226   4.250   0.468  12.561 -0.8233 -0.4671  0.0879
 3197SOL    HW121227   4.262   0.553  12.519 -0.7442 -1.1668 -1.3098
 3197SOL    HW221228   4.323   0.426  12.514 -1.4512 -3.6359  1.9270
 3198SOL     OW21229   3.171   2.429  10.149  0.0640  0.5041  0.5776
 3198SOL    HW121230   3.138   2.359  10.093 -0.7263  0.3824  1.1963
 3198SOL    HW221231   3.240   2.464  10.093 -0.0737  0.3821  0.3305
 3199SOL     OW21232   1.605   1.172   4.344 -0.1685 -0.3881  0.1776
 3199SOL    HW121233   1.528   1.225   4.366  1.1022  1.3004  0.5062
 3199SOL    HW221234   1.668   1.243   4.346  0.4954 -0.9015 -2.2401
 3200SOL     OW21235   1.677   3.676   1.570 -0.9834 -0.5608 -0.0800
 3200SOL    HW121236   1.733   3.683   1.647 -0.0106 -1.8778 -0.6668
 3200SOL    HW221237   1.708   3.595   1.529  2.3265 -0.5152  2.3784
 3201SOL     OW21238   2.689   1.007  12.826 -0.6566 -0.3566  0.1969
 3201SOL    HW121239   2.736   1.088  12.805 -0.2394 -0.6359  0.0688
 3201SOL    HW221240   2.751   0.974  12.891 -0.1343 -1.0555 -0.6668
 3202SOL     OW21241   3.684   3.579   8.996  0.6142 -0.0438 -0.0766
 3202SOL    HW121242   3.643   3.510   8.944  1.6535 -1.8556  1.4693
 3202SOL    HW221243   3.774   3.545   9.001  0.7079  0.3834  1.1286
 3203SOL     OW21244   3.436   1.664   7.690 -0.3102 -0.7762 -0.6298
 3203SOL    HW121245   3.452   1.636   7.781  0.8493  1.0844 -0.2625
 3203SOL    HW221246   3.346   1.695   7.697  0.3956  1.3138 -0.8054
 3204SOL     OW21247   0.128   2.975   9.815  0.4544  0.0804 -0.3765
 3204SOL    HW121248   0.213   2.967   9.771  0.6020  0.5151 -0.1725
 3204SOL    HW221249   0.135   2.915   9.889  0.2073 -0.9756 -1.2104
 3205SOL     OW21250   4.006   1.153   0.688 -0.0487 -0.0121  0.1848
 3205SOL    HW121251   3.956   1.158   0.607 -1.5058  1.2460  1.1669
 3205SOL    HW221252   4.070   1.082   0.674 -0.8233 -0.6220 -0.2693
 3206SOL     OW21253   0.296   2.922   6.773  0.2018 -0.5749 -0.1523
 3206SOL    HW121254   0.377   2.892   6.731  0.8680  0.2659  0.5322
 3206SOL    HW221255   0.329   2.933   6.862 -0.6195 -0.7445  0.1681
 3207SOL     OW21256   0.460   2.378   2.483  0.2429 -0.7257 -0.3557
 3207SOL    HW121257   0.434   2.291   2.513  0.8210 -0.9850 -0.5941
 3207SOL    HW221258   0.474   2.426   2.565  0.7344  0.0650 -0.9061
 3208SOL     OW21259   1.038   0.047   9.527 -0.0391 -1.0686 -0.1860
 3208SOL    HW121260   1.093   0.001   9.591  1.1635 -1.9626 -1.8601
 3208SOL    HW221261   1.104   0.080   9.466 -0.6723 -3.8519 -2.4228
 3209SOL     OW21262   3.700   1.540   0.281  0.9278 -0.2161  0.4838
 3209SOL    HW121263   3.779   1.562   0.231  0.7701  1.7751  1.0971
 3209SOL    HW221264   3.632   1.580   0.227 -1.1675 -2.9540  1.1696
 3210SOL     OW21265   2.396   1.930   4.442 -0.3392  0.7397  0.0144
 3210SOL    HW121266   2.350   1.892   4.517 -0.3778  2.7450  1.0299
 3210SOL    HW221267   2.333   1.924   4.371  2.0972 -2.1141 -1.8808
 3211SOL     OW21268   1.078   0.600   5.045 -0.1407  0.1042  0.1040
 3211SOL    HW121269   1.001   0.626   5.096 -1.1975 -0.9794 -0.9426
 3211SOL    HW221270   1.150   0.618   5.105 -0.9267  1.7919  0.5582
 3212SOL     OW21271   3.877   2.240   4.174  0.4388 -0.4635 -0.5328
 3212SOL    HW121272   3.928   2.320   4.159 -4.0066  2.5746  0.3526
 3212SOL    HW221273   3.920   2.176   4.118 -0.7322 -0.7380 -1.1354
 3213SOL     OW21274   4.320   1.209   2.803 -1.2006  0.7720 -0.4632
 3213SOL    HW121275   4.398   1.157   2.783 -0.7736  0.8683  0.9648
 3213SOL    HW221276   4.251   1.144   2.790 -1.2186  0.7145 -0.0963
 3214SOL     OW21277   1.256   2.226  13.144 -0.0600  0.5909  0.0514
 3214SOL    HW121278   1.297   2.210  13.229 -1.5730  1.6616  0.9738
 3214SOL    HW221279   1.226   2.138  13.118 -1.3681  1.4674 -1.3884
 3215SOL     OW21280   2.801   2.518  12.004 -0.0664 -0.3074  0.3360
 3215SOL    HW121281   2.847   2.467  12.071  0.8850  0.5488  0.3327
 3215SOL    HW221282   2.761   2.441  11.964 -0.2185  0.4842 -1.0209
 3216SOL     OW21283   0.666   4.349   4.563 -0.3026  0.0398  0.5641
 3216SOL    HW121284   0.746   4.399   4.541  0.5263 -1.0980  0.9878
 3216SOL    HW221285   0.626   4.363   4.477 -0.5101 -2.4454  0.2731
 3217SOL     OW21286   0.560   2.234   3.504  1.0187  0.0969 -0.0454
 3217SOL    HW121287   0.468   2.239   3.479  0.6715 -2.4058  0.6683
 3217SOL    HW221288   0.553   2.274   3.591  0.7871 -1.1694  0.5190
 3218SOL     OW21289   2.306   2.486   8.768  0.2181 -0.3292 -0.0819
 3218SOL    HW121290   2.279   2.432   8.694 -0.9490 -1.2189  0.9889
 3218SOL    HW221291   2.268   2.568   8.735 -1.2209 -0.1653  1.9660
 3219SOL     OW21292   2.382   3.492   5.066 -0.4438  0.4918  0.1610
 3219SOL    HW121293   2.424   3.424   5.118 -2.4892 -1.6449 -0.9751
 3219SOL    HW221294   2.298   3.486   5.112 -0.7887  1.0107 -0.4046
 3220SOL     OW21295   2.557   2.899   2.119 -0.1608  0.3978 -0.5489
 3220SOL    HW121296   2.568   2.875   2.027 -0.2001  1.3637 -0.8073
 3220SOL    HW221297   2.604   2.826   2.160  0.8204  1.4394  0.1916
 3221SOL     OW21298   0.601   0.674  11.506 -0.0682 -0.0941 -0.1326
 3221SOL    HW121299   0.603   0.735  11.579 -0.7729  2.2227 -2.0324
 3221SOL    HW221300   0.508   0.650  11.504 -0.5305  1.6715  0.1957
 3222SOL     OW21301   2.145   4.530   6.214 -0.2904  0.1174  0.0149
 3222SOL    HW121302   2.169   4.573   6.132  4.3061 -2.3280  0.1020
 3222SOL    HW221303   2.226   4.539   6.263 -0.5648 -0.4119  0.5823
 3223SOL     OW21304   0.089   3.425   8.105  0.1021 -0.5558  0.4630
 3223SOL    HW121305   4.737   3.451   8.124  0.9060  2.0107  0.7415
 3223SOL    HW221306   0.078   3.342   8.059 -4.4092  0.4638 -0.2477
 3224SOL     OW21307   2.675   4.726   5.465  0.0248 -0.3112 -0.0859
 3224SOL    HW121308   2.642   4.717   5.375 -0.4475 -0.8448  0.1361
 3224SOL    HW221309   2.597   0.018   5.512  0.3906  0.3137  0.1275
 3225SOL     OW21310   3.684   0.213   8.815 -0.6492  0.7096 -0.6820
 3225SOL    HW121311   3.760   0.239   8.763 -0.1184  1.1538  0.3029
 3225SOL    HW221312   3.697   0.267   8.893 -0.4119  0.1464 -0.3313
 3226SOL     OW21313   1.198   3.326  10.675  0.3127 -0.2737 -0.2209
 3226SOL    HW121314   1.254   3.256  10.709 -1.8350 -0.8697  2.0648
 3226SOL    HW221315   1.148   3.342  10.754  1.1808 -1.8801  0.6558
 3227SOL     OW21316   2.120   2.946   2.742 -0.6024  0.0288  0.0302
 3227SOL    HW121317   2.141   3.038   2.757 -0.4036  0.0975 -0.6555
 3227SOL    HW221318   2.207   2.907   2.750 -0.8526 -0.4581  0.3594
 3228SOL     OW21319   0.638   3.594   3.147  0.0640 -0.0232  0.2950
 3228SOL    HW121320   0.577   3.573   3.217  0.2602  0.3684  0.5823
 3228SOL    HW221321   0.572   3.616   3.081  0.0174  1.8504  0.9639
 3229SOL     OW21322   4.622   0.800   0.701  0.1409  0.8170 -0.3387
 3229SOL    HW121323   4.534   0.788   0.667 -0.2357 -0.2543  1.0410
 3229SOL    HW221324   4.609   0.874   0.760 -2.0888  0.9228 -0.9602
 3230SOL     OW21325   3.897   4.622   9.424  0.3045 -0.1426 -0.0282
 3230SOL    HW121326   3.903   4.710   9.386  2.2420 -1.3140 -2.4239
 3230SOL    HW221327   3.802   4.611   9.415  0.4166 -1.6604  0.7389
 3231SOL     OW21328   1.698   3.971   2.699  0.2413  0.0106 -0.0928
 3231SOL    HW121329   1.639   3.896   2.690  0.9805 -0.8758  2.5647
 3231SOL    HW221330   1.629   4.037   2.696  0.9956  0.7841 -0.5690
 3232SOL     OW21331   1.425   1.970  16.563 -0.5849 -0.2399  0.3903
 3232SOL    HW121332   1.499   1.976  16.503 -0.5176 -5.2036  0.0113
 3232SOL    HW221333   1.389   2.057  16.547 -1.0643 -0.5094 -0.0086
 3233SOL     OW21334   4.038   3.272   3.746 -0.3910 -0.0160  0.1223
 3233SOL    HW121335   4.049   3.190   3.794 -0.9032 -0.4734 -0.5412
 3233SOL    HW221336   3.997   3.243   3.665  1.6822  0.8414 -1.2256
 3234SOL     OW21337   3.926   3.393   8.135 -0.0448 -0.2546  0.2777
 3234SOL    HW121338   3.949   3.478   8.099 -1.5665 -0.0543 -0.2385
 3234SOL    HW221339   3.877   3.428   8.210  1.8468  1.9468  0.4641
 3235SOL     OW21340   1.834   4.162   8.218  0.1326 -0.5050  0.1484
 3235SOL    HW121341   1.872   4.085   8.177 -0.7768 -0.2720 -1.1421
 3235SOL    HW221342   1.914   4.214   8.224  0.6721 -1.0855 -1.9921
 3236SOL     OW21343   3.005   1.463   2.754  0.2363 -0.4504  0.3706
 3236SOL    HW121344   3.045   1.377   2.749 -1.1565 -1.0560 -0.3234
 3236SOL    HW221345   3.017   1.478   2.848 -0.6961  0.9909  0.2735
 3237SOL     OW21346   1.944   1.135   9.388  0.3141 -0.1766  0.4692
 3237SOL    HW121347   1.973   1.072   9.322  0.2458  3.5469 -3.1277
 3237SOL    HW221348   2.019   1.194   9.376 -0.0937  0.3505  0.5396
 3238SOL     OW21349   3.810   2.593   5.680  0.1972 -0.4208  0.3436
 3238SOL    HW121350   3.773   2.604   5.767 -0.7716  0.6354 -0.2074
 3238SOL    HW221351   3.806   2.497   5.679 -0.4860 -0.3945  2.9596
 3239SOL     OW21352   1.917   0.356   3.305  0.7160 -0.3433  0.0980
 3239SOL    HW121353   1.840   0.384   3.356 -1.3254 -0.4443 -2.9331
 3239SOL    HW221354   1.892   0.330   3.216 -0.0795  2.6925 -0.5370
 3240SOL     OW21355   2.290   0.844  11.406  0.5473 -0.2472  0.2416
 3240SOL    HW121356   2.282   0.753  11.379  1.1670 -0.3430  0.3670
 3240SOL    HW221357   2.386   0.851  11.410  0.4794  0.3480  0.9920
 3241SOL     OW21358   4.403   0.100  12.032  0.1157  0.8860 -0.3233
 3241SOL    HW121359   4.469   0.032  12.018 -0.7351  0.3360 -1.6181
 3241SOL    HW221360   4.331   0.074  11.975 -0.1178 -2.0803  1.3349
 3242SOL     OW21361   2.826   2.044   3.278 -0.0499 -0.3300 -0.2185
 3242SOL    HW121362   2.853   2.082   3.195 -2.5421  0.2153 -0.7891
 3242SOL    HW221363   2.885   2.092   3.336 -0.1840 -0.4116 -0.0105
 3243SOL     OW21364   0.429   0.113  10.384  0.8414 -0.0183  0.4901
 3243SOL    HW121365   0.488   0.171  10.433  1.2060 -0.4013  0.5083
 3243SOL    HW221366   0.348   0.160  10.365  0.4768 -0.2613  1.4451
 3244SOL     OW21367   1.929   2.266   3.943  0.6741 -0.3048 -0.3378
 3244SOL    HW121368   1.932   2.286   4.037 -2.2699  0.2526 -0.3626
 3244SOL    HW221369   1.944   2.355   3.911  1.2913 -0.8485 -1.5769
 3245SOL     OW21370   4.703   0.896  12.383 -0.1298  0.3017 -0.2599
 3245SOL    HW121371   4.705   0.921  12.475  0.9375 -0.5257 -0.0626
 3245SOL    HW221372   0.018   0.967  12.346  1.2155 -2.0940 -3.0035
 3246SOL     OW21373   2.130   1.603   0.039  0.2878 -0.2218  0.8039
 3246SOL    HW121374   2.060   1.555  17.742  1.2333 -1.5683  0.7677
 3246SOL    HW221375   2.140   1.680  17.730 -1.0958 -0.0237  0.8291
 3247SOL     OW21376   3.062   0.503   6.488  0.1241  0.5799  0.5921
 3247SOL    HW121377   3.106   0.487   6.404 -0.8759 -0.4469  0.2675
 3247SOL    HW221378   3.080   0.593   6.515 -1.1898  0.9488  0.2310
 3248SOL     OW21379   2.648   4.291  15.725 -0.3369  0.3424  0.0201
 3248SOL    HW121380   2.720   4.344  15.689  0.8007 -0.9314  0.4385
 3248SOL    HW221381   2.681   4.204  15.748  0.5416  0.6726 -0.0044
 3249SOL     OW21382   1.423   2.057   2.075 -0.0450 -0.0262 -0.3419
 3249SOL    HW121383   1.408   2.141   2.118  0.5985 -0.5133  0.8231
 3249SOL    HW221384   1.412   1.990   2.143  0.2664  0.1099 -0.1602
 3250SOL     OW21385   0.666   3.123  17.355  0.6123 -0.2924  0.5856
 3250SOL    HW121386   0.668   3.193  17.420  0.2918 -0.5124  0.8327
 3250SOL    HW221387   0.755   3.088  17.348  0.2421 -1.0894 -0.1761
 3251SOL     OW21388   1.168   2.682   2.206  0.0754  0.0075  0.8864
 3251SOL    HW121389   1.089   2.684   2.152 -0.4640 -0.6171  1.6532
 3251SOL    HW221390   1.173   2.775   2.231  0.3988  0.4494 -0.8771
 3252SOL     OW21391   3.371   2.326   8.661  0.1443  0.5000  0.0211
 3252SOL    HW121392   3.299   2.316   8.723 -1.1746 -1.9941 -1.8991
 3252SOL    HW221393   3.431   2.263   8.701 -0.4793  0.7262  1.3093
 3253SOL     OW21394   2.743   3.260   6.995 -0.1525 -0.2854  0.6499
 3253SOL    HW121395   2.729   3.170   7.024  0.8022 -1.0340 -1.2114
 3253SOL    HW221396   2.764   3.241   6.904 -0.6332 -0.7257  0.6320
 3254SOL     OW21397   4.645   3.202   2.765 -0.5131 -0.0404  0.5595
 3254SOL    HW121398   4.620   3.111   2.783  0.7779 -0.3215  0.9170
 3254SOL    HW221399   4.608   3.247   2.840 -0.0175 -0.8028  1.2555
 3255SOL     OW21400   0.990   3.017  15.243  0.2662 -0.5967 -0.5039
 3255SOL    HW121401   0.980   2.937  15.294 -3.9936 -1.8495 -3.2477
 3255SOL    HW221402   0.947   3.078  15.303  2.2761 -0.5503  0.8753
 3256SOL     OW21403   0.240   2.948   5.568  0.0655  0.2363  0.5054
 3256SOL    HW121404   0.327   2.985   5.558  0.8943 -1.3150  1.8849
 3256SOL    HW221405   0.240   2.952   5.664  3.8628  1.2211  0.4401
 3257SOL     OW21406   1.921   3.677   8.416  0.2918  0.3723 -0.1005
 3257SOL    HW121407   2.014   3.664   8.398  0.1391  0.6734 -1.1036
 3257SOL    HW221408   1.897   3.585   8.431 -0.9928  0.5397 -1.1039
 3258SOL     OW21409   0.133   3.074   8.306 -0.0732 -0.1728  0.1480
 3258SOL    HW121410   0.090   3.150   8.345  0.9582  0.5411 -0.1061
 3258SOL    HW221411   0.227   3.089   8.316  0.3508 -0.8148 -2.8837
 3259SOL     OW21412   0.607   0.089   4.180  0.0348  0.4135  0.0483
 3259SOL    HW121413   0.640   0.164   4.230 -0.5615  0.5190  0.2860
 3259SOL    HW221414   0.547   0.052   4.245  2.5817 -2.1458  0.9579
 3260SOL     OW21415   2.469   2.173  17.431  0.2709  0.4392 -0.2974
 3260SOL    HW121416   2.389   2.175  17.483  0.1392 -0.1568 -0.4711
 3260SOL    HW221417   2.539   2.156  17.494 -0.3391  1.8860  0.7751
 3261SOL     OW21418   0.219   2.508  16.690 -0.2105 -0.4131 -0.3978
 3261SOL    HW121419   0.271   2.476  16.617  0.5846  1.2555 -0.5561
 3261SOL    HW221420   0.144   2.448  16.689 -0.9766  0.5074  1.8942
 3262SOL     OW21421   3.914   0.854   6.982 -0.1490 -0.2413  0.1691
 3262SOL    HW121422   3.835   0.908   6.992 -2.3060 -3.4464  0.3469
 3262SOL    HW221423   3.945   0.852   7.072  1.1446 -0.1698 -0.2845
 3263SOL     OW21424   3.955   2.064   4.562 -0.5099 -0.1005  0.4665
 3263SOL    HW121425   3.935   2.154   4.590 -4.2646 -0.5911 -0.6780
 3263SOL    HW221426   4.024   2.083   4.498  0.7910 -0.0783  1.8877
 3264SOL     OW21427   0.111   0.362  13.504 -0.0575 -0.2784 -0.3184
 3264SOL    HW121428   0.132   0.312  13.582  0.6592  0.2340 -0.1787
 3264SOL    HW221429   0.035   0.412  13.535  0.0286  1.2648 -2.5508
 3265SOL     OW21430   2.621   1.222  16.105 -0.1517  0.2977  0.0082
 3265SOL    HW121431   2.661   1.309  16.108 -2.4955  1.3755  0.1320
 3265SOL    HW221432   2.553   1.241  16.040  0.9348  2.6412 -0.4525
 3266SOL     OW21433   2.749   0.533   6.995 -0.1979 -0.2437 -0.3076
 3266SOL    HW121434   2.812   0.462   7.009  0.4322  0.0938 -1.4287
 3266SOL    HW221435   2.787   0.594   6.932 -2.1619  1.6828  0.4012
 3267SOL     OW21436   3.643   3.678  13.116  0.1914 -0.2830 -0.4950
 3267SOL    HW121437   3.715   3.675  13.179 -1.9602  1.7769  2.0827
 3267SOL    HW221438   3.593   3.755  13.145  1.1351 -0.7686  2.4849
 3268SOL     OW21439   1.067   3.316   5.847 -0.3873  0.5383 -0.0402
 3268SOL    HW121440   1.063   3.230   5.804  3.1804 -0.2663  1.2592
 3268SOL    HW221441   0.984   3.317   5.894  0.3305  0.4382  1.2240
 3269SOL     OW21442   1.479   4.579  15.490  0.2651 -0.5003  0.4355
 3269SOL    HW121443   1.573   4.577  15.472  0.3395  0.7375  0.7337
 3269SOL    HW221444   1.443   4.525  15.419  1.2221 -2.8662  1.7483
 3270SOL     OW21445   1.311   4.363   5.326  0.1891 -0.1086 -0.2633
 3270SOL    HW121446   1.288   4.288   5.380 -2.3485 -0.2064 -1.4715
 3270SOL    HW221447   1.247   4.345   5.257  0.8384  0.6997 -1.0745
 3271SOL     OW21448   2.878   1.732  17.432  0.4826 -0.1690 -0.0010
 3271SOL    HW121449   2.950   1.696  17.379  0.3108  0.0010 -0.3494
 3271SOL    HW221450   2.810   1.674  17.397 -1.2680  1.0989  1.3825
 3272SOL     OW21451   1.582   2.855   2.688  0.4820 -0.0537  0.6592
 3272SOL    HW121452   1.547   2.883   2.603 -1.4852 -1.4450  1.0021
 3272SOL    HW221453   1.644   2.785   2.670 -0.0563 -0.0476 -1.2310
 3273SOL     OW21454   1.545   4.425  13.212 -0.6216  0.2767 -0.3717
 3273SOL    HW121455   1.533   4.426  13.118 -2.7408 -0.8474 -0.1080
 3273SOL    HW221456   1.587   4.510  13.227 -1.5719  1.0140 -1.9237
 3274SOL     OW21457   0.580   4.554   7.046  0.4487  0.2550  0.5698
 3274SOL    HW121458   0.576   4.488   6.976  0.5127  0.4151  0.4141
 3274SOL    HW221459   0.672   4.579   7.049  0.9437 -1.6865  1.4775
 3275SOL     OW21460   0.335   0.722  15.471  0.4860  0.2734 -0.4736
 3275SOL    HW121461   0.333   0.800  15.527  0.2666  0.9034 -1.3631
 3275SOL    HW221462   0.339   0.654  15.538 -0.8800  2.4098  1.7729
 3276SOL     OW21463   1.719   4.267   0.795 -0.4219 -0.2465  0.4019
 3276SOL    HW121464   1.744   4.358   0.812  1.0409 -0.4152 -0.7925
 3276SOL    HW221465   1.744   4.256   0.703 -0.0460 -0.8330  0.5680
 3277SOL     OW21466   2.485   3.839  15.996 -0.7191  0.1871  0.0034
 3277SOL    HW121467   2.392   3.822  16.009 -0.7478  1.1989  1.1761
 3277SOL    HW221468   2.476   3.873  15.907 -1.9742  0.2011  0.1295
 3278SOL     OW21469   4.634   4.619   4.027 -0.0546  0.1258 -0.2584
 3278SOL    HW121470   4.705   4.642   3.968  1.1807 -2.7541  0.1136
 3278SOL    HW221471   4.559   4.610   3.967  0.2282 -0.0211 -0.5869
 3279SOL     OW21472   1.724   1.509   2.830  0.4933  0.1077 -0.5622
 3279SOL    HW121473   1.704   1.450   2.757  0.3466  1.4440 -1.5916
 3279SOL    HW221474   1.640   1.551   2.848  0.7786  1.4667 -2.4547
 3280SOL     OW21475   2.517   0.886   6.894  0.2369 -0.2661 -0.0571
 3280SOL    HW121476   2.583   0.839   6.945 -1.3731  0.4039  2.6963
 3280SOL    HW221477   2.529   0.976   6.925 -1.6651 -0.0674  0.1179
 3281SOL     OW21478   0.930   2.908   6.732  0.1442  0.4621  0.0563
 3281SOL    HW121479   0.978   2.981   6.771  1.0733 -0.6521  1.0042
 3281SOL    HW221480   0.883   2.950   6.660  0.7235  1.7746  0.4386
 3282SOL     OW21481   0.956   3.800   2.184  0.2426 -0.3084 -0.1905
 3282SOL    HW121482   0.962   3.742   2.108 -1.2516  2.0051 -2.0761
 3282SOL    HW221483   1.014   3.873   2.164 -0.4497  0.3039  0.0350
 3283SOL     OW21484   0.172   2.814  16.220 -0.5020 -0.5043 -0.0195
 3283SOL    HW121485   0.132   2.757  16.286 -0.9576 -0.1458  0.0176
 3283SOL    HW221486   0.178   2.745  16.154 -3.0602 -0.4535 -0.3170
 3284SOL     OW21487   1.148   3.316   4.377  0.1014 -0.3475 -0.0201
 3284SOL    HW121488   1.168   3.343   4.288 -2.4900 -1.0847 -0.8183
 3284SOL    HW221489   1.061   3.277   4.369 -1.6538  3.1332  2.3016
 3285SOL     OW21490   3.563   0.106  12.573 -0.7902 -0.2956  0.6179
 3285SOL    HW121491   3.472   0.078  12.574 -0.8142 -0.2472 -1.2319
 3285SOL    HW221492   3.547   0.174  12.508 -1.7620 -0.5600  0.5911
 3286SOL     OW21493   3.807   4.582   5.850  0.5628  0.6762 -0.0332
 3286SOL    HW121494   3.857   4.659   5.824  1.2332  0.4422  0.5613
 3286SOL    HW221495   3.720   4.621   5.859  0.8834  1.7024 -1.4141
 3287SOL     OW21496   4.550   0.402   5.059 -0.4561 -0.1964  0.1283
 3287SOL    HW121497   4.495   0.372   5.132 -1.4505  2.8236  0.6116
 3287SOL    HW221498   4.581   0.323   5.015  0.6702 -0.7561  1.8919
 3288SOL     OW21499   2.049   2.048  12.604  0.2475 -0.4889  0.1469
 3288SOL    HW121500   2.056   2.061  12.699 -1.0298  0.2200  0.1427
 3288SOL    HW221501   2.131   1.998  12.594 -0.3069 -1.1969 -0.8551
 3289SOL     OW21502   1.299   0.412   9.655  1.1037 -0.1587  0.0939
 3289SOL    HW121503   1.378   0.463   9.637  1.3945  0.0971  2.0693
 3289SOL    HW221504   1.338   0.334   9.693  0.1676 -0.7793 -0.2367
 3290SOL     OW21505   3.304   2.191  16.537 -0.3354 -0.2794  0.0665
 3290SOL    HW121506   3.316   2.242  16.457  0.0816 -0.3574  0.0747
 3290SOL    HW221507   3.379   2.132  16.528 -0.6615 -0.7447  0.4237
 3291SOL     OW21508   0.180   4.667  13.790 -0.1963 -0.2173 -0.1753
 3291SOL    HW121509   0.132   4.668  13.707 -0.2579 -3.7250 -0.1736
 3291SOL    HW221510   0.119   4.607  13.833 -1.3098  0.6424 -0.5489
 3292SOL     OW21511   0.205   0.311   3.177 -0.1777  0.8462 -0.7294
 3292SOL    HW121512   0.297   0.300   3.152 -0.3022  0.4853 -1.0138
 3292SOL    HW221513   0.194   0.402   3.151  0.4583  0.5987 -1.8381
 3293SOL     OW21514   0.198   2.907   3.587 -0.5069  0.2879 -0.0520
 3293SOL    HW121515   0.233   2.851   3.517 -0.8329 -2.1582  1.7632
 3293SOL    HW221516   0.204   2.848   3.662  1.4008  2.4265  1.4894
 3294SOL     OW21517   3.029   3.023  12.770 -0.2271 -0.0204 -0.3263
 3294SOL    HW121518   3.036   2.972  12.690 -2.6296 -0.3336 -0.3270
 3294SOL    HW221519   3.001   3.102  12.724  1.1928  0.0001 -1.1598
 3295SOL     OW21520   1.538   2.968   5.381  0.1011 -0.3355 -0.6083
 3295SOL    HW121521   1.571   2.933   5.298  0.5076  1.4533 -1.2078
 3295SOL    HW221522   1.443   2.958   5.384 -0.1069  1.0103 -2.6019
 3296SOL     OW21523   4.419   2.380   0.892 -0.0288 -0.2644 -0.4592
 3296SOL    HW121524   4.405   2.321   0.818 -0.5225 -2.2171  1.1920
 3296SOL    HW221525   4.453   2.455   0.844  1.3983  0.4046  1.6139
 3297SOL     OW21526   3.561   2.029   5.884  0.1141  0.1263 -0.2111
 3297SOL    HW121527   3.520   1.980   5.813  0.4824 -0.6949  0.1542
 3297SOL    HW221528   3.487   2.083   5.913  1.2551  1.0719  0.9602
 3298SOL     OW21529   1.996   3.133   0.988 -0.5596  0.8252 -0.3407
 3298SOL    HW121530   2.071   3.083   0.956  0.1867  0.7710  1.4614
 3298SOL    HW221531   2.045   3.215   0.999 -2.3913  1.8616  0.2075
 3299SOL     OW21532   0.656   0.333   4.326 -0.1643  0.2011  0.5358
 3299SOL    HW121533   0.750   0.333   4.342  0.1297 -3.1520 -1.1206
 3299SOL    HW221534   0.627   0.340   4.417 -1.3881  0.5795  0.1193
 3300SOL     OW21535   1.808   2.926   0.283 -0.4216  0.4177  0.4346
 3300SOL    HW121536   1.738   2.964   0.336  0.7470  0.3452  2.0444
 3300SOL    HW221537   1.867   2.998   0.260  0.6288 -0.7292 -0.4343
 3301SOL     OW21538   4.618   2.402   0.104 -0.2815 -0.1407  0.3076
 3301SOL    HW121539   4.645   2.482   0.059 -1.1714 -0.2715 -0.4563
 3301SOL    HW221540   4.523   2.413   0.100 -0.2350 -0.5667 -1.5837
 3302SOL     OW21541   2.723   0.879  11.255  0.2329 -0.0513 -0.6508
 3302SOL    HW121542   2.784   0.953  11.261 -2.5662  2.0232  2.0692
 3302SOL    HW221543   2.751   0.849  11.169 -0.8202  1.6180 -1.5865
 3303SOL     OW21544   0.840   3.888   7.806 -0.1496  0.3745  0.5813
 3303SOL    HW121545   0.755   3.885   7.850  0.1224  0.6631  1.1168
 3303SOL    HW221546   0.865   3.799   7.779  2.2475  0.6853  1.8000
 3304SOL     OW21547   1.090   0.612   9.715  0.3775 -0.0336  0.0774
 3304SOL    HW121548   1.160   0.558   9.678 -0.3167 -1.1309  0.3557
 3304SOL    HW221549   1.091   0.584   9.806 -0.5202 -0.9948 -0.2113
 3305SOL     OW21550   0.103   3.592   8.761 -0.0743  0.1860  0.3079
 3305SOL    HW121551   0.113   3.497   8.762 -1.0416  0.0686 -0.6979
 3305SOL    HW221552   0.190   3.621   8.737 -0.0043 -0.9365 -0.7798
 3306SOL     OW21553   2.828   2.588   4.484  0.2464  0.6144  0.2864
 3306SOL    HW121554   2.741   2.614   4.455 -0.3039 -1.9907 -0.4055
 3306SOL    HW221555   2.886   2.588   4.407  0.3313 -1.6124  0.3315
 3307SOL     OW21556   1.422   1.561  12.384  0.1992 -0.5167 -0.1383
 3307SOL    HW121557   1.450   1.477  12.420  1.3765 -0.4833 -0.9758
 3307SOL    HW221558   1.433   1.620  12.458 -1.1036  1.5255 -1.5701
 3308SOL     OW21559   3.910   0.842   4.313 -0.4135 -0.1258  0.2492
 3308SOL    HW121560   3.969   0.774   4.279 -0.1894 -1.2784  2.9444
 3308SOL    HW221561   3.833   0.787   4.325 -0.9133  0.6945  0.7757
 3309SOL     OW21562   3.812   1.483   6.154  0.1355 -0.2276 -0.4660
 3309SOL    HW121563   3.896   1.438   6.154  0.5443  0.5274 -2.1089
 3309SOL    HW221564   3.795   1.474   6.060  0.7431  0.4111 -0.6381
 3310SOL     OW21565   3.732   2.310   1.045  0.1463 -0.1569  0.6572
 3310SOL    HW121566   3.820   2.296   1.012 -0.6811  1.2681 -2.2283
 3310SOL    HW221567   3.716   2.230   1.094  1.9388 -0.4839  0.7043
 3311SOL     OW21568   3.785   1.963   8.506  0.1146 -0.5622 -0.0125
 3311SOL    HW121569   3.818   1.935   8.420 -0.5181 -0.6063 -0.2377
 3311SOL    HW221570   3.753   1.880   8.542 -2.4101  0.9119  1.0974
 3312SOL     OW21571   3.726   0.690  16.345  0.3612 -0.3918 -0.5943
 3312SOL    HW121572   3.757   0.728  16.427 -2.2015  0.3990  0.0027
 3312SOL    HW221573   3.804   0.647  16.309 -0.1891 -1.7336 -0.1887
 3313SOL     OW21574   1.210   3.165   8.877 -0.8437 -0.0170  0.0299
 3313SOL    HW121575   1.211   3.148   8.783  0.2269  1.8868 -0.3126
 3313SOL    HW221576   1.187   3.075   8.899  0.3594 -0.4964 -0.6474
 3314SOL     OW21577   3.869   3.531  13.215  0.1884  0.1173  0.4203
 3314SOL    HW121578   3.795   3.492  13.263 -0.4994 -1.4487 -1.9210
 3314SOL    HW221579   3.937   3.516  13.280 -0.3255  0.3963  1.0261
 3315SOL     OW21580   4.356   2.208   7.935  0.5597  0.5385  0.0743
 3315SOL    HW121581   4.434   2.231   7.985  1.3697 -2.5059  0.2708
 3315SOL    HW221582   4.363   2.114   7.952  1.0996  0.3882 -0.9142
 3316SOL     OW21583   0.945   3.511  17.170  0.5734 -0.1791  0.3942
 3316SOL    HW121584   0.908   3.518  17.258 -1.8248 -0.7737 -0.5705
 3316SOL    HW221585   0.985   3.424  17.179  1.1109 -0.1395 -1.7022
 3317SOL     OW21586   4.433   3.651  15.394  0.2013 -0.5993  0.0452
 3317SOL    HW121587   4.438   3.689  15.307  0.0030 -1.1132 -0.1871
 3317SOL    HW221588   4.417   3.561  15.366 -0.7924 -0.0679 -1.0463
 3318SOL     OW21589   4.467   3.362   2.626 -0.7810  0.3420  0.1283
 3318SOL    HW121590   4.530   3.341   2.695 -1.5377 -2.1405  0.0762
 3318SOL    HW221591   4.440   3.281   2.583  2.1105 -0.8253  0.5003
 3319SOL     OW21592   2.961   4.495  13.313  0.4167  0.3692  0.6296
 3319SOL    HW121593   3.052   4.476  13.289  0.8252  1.8469  0.9516
 3319SOL    HW221594   2.947   4.577  13.265  0.0105 -0.3987 -0.5689
 3320SOL     OW21595   0.135   1.979  12.926  0.0891 -0.6206  0.9786
 3320SOL    HW121596   0.081   2.053  12.900  0.3560 -1.8482 -3.1911
 3320SOL    HW221597   0.076   1.907  12.904  1.4157 -1.0726 -1.1289
 3321SOL     OW21598   2.783   3.346   2.772  0.4402  0.8241 -0.3297
 3321SOL    HW121599   2.791   3.366   2.865 -0.8467 -1.8745  0.3659
 3321SOL    HW221600   2.867   3.304   2.755  1.4077  2.0645  1.4199
 3322SOL     OW21601   1.078   2.501   4.699  0.6225 -0.1604  0.1702
 3322SOL    HW121602   1.102   2.458   4.617  1.1491 -1.9338  1.2441
 3322SOL    HW221603   0.983   2.504   4.687  0.4688  0.9241  1.5731
 3323SOL     OW21604   3.256   2.595   5.861 -0.3071 -0.0911  0.2843
 3323SOL    HW121605   3.290   2.684   5.866  1.4592 -0.8842  2.6342
 3323SOL    HW221606   3.167   2.602   5.894 -0.5799 -0.1240 -0.4503
 3324SOL     OW21607   0.590   0.739   2.205  0.5658 -0.4284 -0.0317
 3324SOL    HW121608   0.555   0.650   2.211 -0.0608 -0.2109 -0.4178
 3324SOL    HW221609   0.592   0.757   2.299  1.1505  0.3658 -0.1926
 3325SOL     OW21610   3.469   4.071   7.858 -0.4623 -0.4552  0.6918
 3325SOL    HW121611   3.387   4.027   7.834  0.1939 -3.0720  3.2840
 3325SOL    HW221612   3.528   4.053   7.785 -1.3687 -2.3782  0.4286
 3326SOL     OW21613   2.165   3.035   3.207  0.5650 -0.1870  0.1646
 3326SOL    HW121614   2.169   3.071   3.296  0.1644 -0.7859  0.4246
 3326SOL    HW221615   2.110   3.098   3.160 -1.9370  0.2145  3.6488
 3327SOL     OW21616   0.804   2.552  13.941  0.0563  0.2677  0.3158
 3327SOL    HW121617   0.758   2.474  13.912  0.7368  0.0173 -0.1100
 3327SOL    HW221618   0.746   2.607  13.993  1.3822  1.7253  0.2651
 3328SOL     OW21619   1.220   2.864   5.717  0.4209  0.4403 -0.3561
 3328SOL    HW121620   1.280   2.804   5.761  0.2632 -1.0318 -2.1494
 3328SOL    HW221621   1.279   2.933   5.688 -0.4523  0.5098 -1.9737
 3329SOL     OW21622   1.469   2.245   6.273 -0.4046 -0.0655 -0.4059
 3329SOL    HW121623   1.476   2.267   6.180  0.7920  0.1733 -0.2574
 3329SOL    HW221624   1.382   2.206   6.271 -0.0226 -0.8750 -1.3403
 3330SOL     OW21625   2.236   4.371  16.192 -0.0328  0.0274  0.4181
 3330SOL    HW121626   2.156   4.416  16.221  0.3821  1.5233 -0.6934
 3330SOL    HW221627   2.258   4.412  16.108 -0.4854  0.6394  0.5958
 3331SOL     OW21628   4.180   3.819   3.983  0.1057  0.2023  0.1167
 3331SOL    HW121629   4.238   3.779   3.918  0.7887  1.7432 -0.2248
 3331SOL    HW221630   4.166   3.757   4.054  0.8620 -0.3351 -0.2036
 3332SOL     OW21631   2.096   3.684  16.436  0.7436 -0.0987 -0.4131
 3332SOL    HW121632   2.097   3.674  16.341 -2.7470 -2.2776 -0.2102
 3332SOL    HW221633   2.120   3.599  16.475  2.4783  1.0814  1.1236
 3333SOL     OW21634   1.845   3.403   7.104  0.4707  0.1141  0.3740
 3333SOL    HW121635   1.828   3.468   7.036 -0.8135  0.7789  1.3366
 3333SOL    HW221636   1.756   3.367   7.108  0.7828 -0.7714 -0.8478
 3334SOL     OW21637   0.205   2.957  10.816  0.6727  0.2047 -0.5643
 3334SOL    HW121638   0.251   2.994  10.891  1.1248  0.1202 -0.7994
 3334SOL    HW221639   0.129   3.014  10.809  0.3616 -0.6085 -3.7892
 3335SOL     OW21640   0.930   4.291   5.213 -0.7554  0.9241  0.0096
 3335SOL    HW121641   1.008   4.278   5.158  0.2469  0.8763  1.4539
 3335SOL    HW221642   0.956   4.347   5.286  1.8907 -0.5675  0.1873
 3336SOL     OW21643   0.762   2.197   6.596  0.1853 -0.2691  0.9962
 3336SOL    HW121644   0.673   2.231   6.581  1.5352  1.4880 -2.9857
 3336SOL    HW221645   0.791   2.241   6.675  0.9635 -0.2005  0.6635
 3337SOL     OW21646   4.573   2.746  17.078 -0.9498  0.1121  0.0013
 3337SOL    HW121647   4.557   2.750  16.984 -0.5682  1.9160 -0.0020
 3337SOL    HW221648   4.564   2.653  17.098 -1.6848  0.1274 -0.2833
 3338SOL     OW21649   3.500   2.585   3.620 -0.1366 -0.3504 -0.3291
 3338SOL    HW121650   3.569   2.523   3.643 -1.4815 -1.8689 -0.3973
 3338SOL    HW221651   3.532   2.607   3.532  2.1108 -0.6437  0.4264
 3339SOL     OW21652   3.589   1.478   8.966  0.1532 -0.1358  0.3006
 3339SOL    HW121653   3.507   1.527   8.966  1.6476  2.3496 -1.2227
 3339SOL    HW221654   3.568   1.389   8.993 -1.3819  0.4182  0.9022
 3340SOL     OW21655   3.355   1.639   1.413 -0.5041  0.1682  0.3010
 3340SOL    HW121656   3.444   1.655   1.444 -0.4264 -0.2077  0.2775
 3340SOL    HW221657   3.344   1.546   1.432 -2.2258  0.4390  0.6220
 3341SOL     OW21658   3.709   1.824   2.615 -0.0630 -0.0928 -0.3534
 3341SOL    HW121659   3.710   1.906   2.665 -1.2421  0.8840 -1.9257
 3341SOL    HW221660   3.689   1.760   2.683  0.3384 -0.2752 -0.4070
 3342SOL     OW21661   0.988   4.198  16.215 -0.4244 -0.2901 -0.2400
 3342SOL    HW121662   1.080   4.196  16.242  0.1051  1.8173 -1.9206
 3342SOL    HW221663   0.942   4.210  16.299 -1.1896  0.3788 -0.7504
 3343SOL     OW21664   4.550   3.015  17.148  0.8002  0.0263 -0.1604
 3343SOL    HW121665   4.458   3.025  17.121  0.7982  0.6831  0.0765
 3343SOL    HW221666   4.561   2.920  17.147 -0.0093 -0.0828  2.6558
 3344SOL     OW21667   2.538   1.608   7.529  0.0621  0.8518  0.3915
 3344SOL    HW121668   2.455   1.563   7.546 -0.8018  2.1057 -0.5318
 3344SOL    HW221669   2.524   1.621   7.435  0.0043  0.1030  0.2958
 3345SOL     OW21670   3.900   0.798   4.917 -0.3624  0.4609 -0.0628
 3345SOL    HW121671   3.928   0.746   4.841 -0.6720 -0.4135  0.4300
 3345SOL    HW221672   3.920   0.888   4.892 -2.5665  1.1479  0.6064
 3346SOL     OW21673   4.467   1.693   5.108  0.7298 -0.1380  0.0541
 3346SOL    HW121674   4.433   1.696   5.019  0.8575  0.6719  0.0284
 3346SOL    HW221675   4.483   1.787   5.119  0.6685 -0.2199  0.8896
 3347SOL     OW21676   1.586   1.436   4.099 -0.1795 -0.0735 -0.2339
 3347SOL    HW121677   1.613   1.423   4.008  0.4818 -0.1477 -0.0232
 3347SOL    HW221678   1.513   1.497   4.083  0.9621  1.6937  1.3673
 3348SOL     OW21679   3.683   3.918   7.067  0.5146 -0.3855 -0.4906
 3348SOL    HW121680   3.708   3.927   6.975  2.4120  3.0647  0.3608
 3348SOL    HW221681   3.717   3.994   7.114 -1.2208  0.5732 -0.8174
 3349SOL     OW21682   2.760   4.712   1.882 -0.0121  1.0296  0.0780
 3349SOL    HW121683   2.848   4.727   1.917  0.4415 -2.0117  0.2916
 3349SOL    HW221684   2.767   4.671   1.796  0.4189 -1.7537  1.4375
 3350SOL     OW21685   3.952   2.880   5.990 -0.0076 -0.2223 -0.0573
 3350SOL    HW121686   3.874   2.858   5.938 -0.2917 -1.1206  0.7457
 3350SOL    HW221687   3.957   2.974   5.972 -1.1726  0.0088  0.8735
 3351SOL     OW21688   0.729   1.356   8.087  0.0589  0.4659  0.6283
 3351SOL    HW121689   0.721   1.282   8.148 -2.7321  1.4207  1.4158
 3351SOL    HW221690   0.802   1.329   8.031 -0.1428 -0.8876  1.0198
 3352SOL     OW21691   3.595   0.669  13.730  0.9189 -0.0412  0.2248
 3352SOL    HW121692   3.568   0.754  13.696 -0.0421 -0.0717  0.9062
 3352SOL    HW221693   3.528   0.606  13.705 -0.6804  0.8787  2.1686
 3353SOL     OW21694   1.694   2.121   2.348  0.2158 -0.0078  0.3245
 3353SOL    HW121695   1.720   2.047   2.293  1.5837  0.0727  0.8651
 3353SOL    HW221696   1.617   2.085   2.392  0.2952 -0.6524 -0.0598
 3354SOL     OW21697   3.580   1.249   1.802  0.0984 -0.1582  0.6575
 3354SOL    HW121698   3.561   1.171   1.855 -1.9555 -0.5132 -0.5944
 3354SOL    HW221699   3.529   1.238   1.721  0.9412  0.1273  0.0988
 3355SOL     OW21700   3.203   2.947  13.816 -0.0899 -0.3976  0.2868
 3355SOL    HW121701   3.268   2.900  13.763  2.0952  1.2563  1.4559
 3355SOL    HW221702   3.232   3.038  13.814 -1.3910  0.0589  2.2383
 3356SOL     OW21703   0.302   0.149   4.398 -0.5108  0.5814  0.0643
 3356SOL    HW121704   0.225   0.097   4.374 -2.2403  2.6945  0.9830
 3356SOL    HW221705   0.348   0.092   4.460 -0.5609  0.5922  0.1117
 3357SOL     OW21706   2.442   1.589  16.857 -0.6022  0.0221 -0.2332
 3357SOL    HW121707   2.359   1.635  16.859 -1.2889 -1.2506  1.3855
 3357SOL    HW221708   2.451   1.560  16.948 -1.9233 -1.0835 -0.4554
 3358SOL     OW21709   2.891   2.217   4.939 -0.2948  0.2285 -0.2983
 3358SOL    HW121710   2.861   2.192   4.852 -0.2867 -0.1824 -0.1835
 3358SOL    HW221711   2.925   2.138   4.980 -1.9218 -1.0359 -1.3776
 3359SOL     OW21712   4.418   2.505   8.272  0.1305  0.4370  0.0210
 3359SOL    HW121713   4.478   2.577   8.251  2.3505 -1.0447  1.2942
 3359SOL    HW221714   4.422   2.517   8.367 -1.3699  3.2048 -0.2728
 3360SOL     OW21715   2.070   3.146   6.998  0.4974 -0.4520 -0.7848
 3360SOL    HW121716   2.102   3.220   7.050 -1.4546 -1.0054  1.2149
 3360SOL    HW221717   1.985   3.180   6.972 -0.0371 -0.9433  0.3114
 3361SOL     OW21718   0.356   1.399   2.176 -0.2209 -0.5124 -0.6232
 3361SOL    HW121719   0.274   1.448   2.176  1.1596  1.7994  1.2669
 3361SOL    HW221720   0.325   1.309   2.176  1.1504 -0.9938 -0.8632
 3362SOL     OW21721   1.911   4.654   3.033 -0.1211 -0.1770 -0.1576
 3362SOL    HW121722   1.875   4.567   3.015  0.0603 -0.6172  1.5746
 3362SOL    HW221723   2.005   4.636   3.030 -0.0679  0.1402 -0.3427
 3363SOL     OW21724   3.414   4.555   6.324  0.5803  0.4245 -0.4424
 3363SOL    HW121725   3.320   4.564   6.312  0.3886 -1.5505 -0.5009
 3363SOL    HW221726   3.428   4.625   6.388  0.8745  1.3027 -1.4737
 3364SOL     OW21727   2.931   1.803  17.695 -0.0002  0.3645 -0.0918
 3364SOL    HW121728   2.907   1.777  17.606  0.3739  2.2708 -0.7529
 3364SOL    HW221729   2.842   1.796  17.730 -0.8750 -0.0216 -2.4448
 3365SOL     OW21730   0.594   0.541  15.678  0.0371 -0.5593  0.9549
 3365SOL    HW121731   0.678   0.537  15.631  1.1116  0.8996  2.7683
 3365SOL    HW221732   0.619   0.467  15.733  0.5276 -0.3665  0.9912
 3366SOL     OW21733   3.976   2.497   8.291  0.4475 -0.0170 -0.7249
 3366SOL    HW121734   3.890   2.461   8.268 -1.1616  3.1953  0.1982
 3366SOL    HW221735   4.010   2.425   8.343 -2.0366 -0.9072 -0.3385
 3367SOL     OW21736   4.152   2.251   4.434 -0.0096  0.2076 -0.0358
 3367SOL    HW121737   4.224   2.278   4.492  0.9272 -1.7891 -0.2829
 3367SOL    HW221738   4.204   2.245   4.354  0.0519  1.3604 -0.0816
 3368SOL     OW21739   2.177   2.759  17.267 -0.4407  0.2492  0.4619
 3368SOL    HW121740   2.177   2.847  17.230 -0.5906  0.4004  0.8110
 3368SOL    HW221741   2.262   2.761  17.312 -1.0301  2.0457  1.4972
 3369SOL     OW21742   3.085   1.958   6.609 -0.1219  0.3389  0.0646
 3369SOL    HW121743   3.099   1.970   6.515  1.7870 -2.9662 -0.0839
 3369SOL    HW221744   3.096   2.045   6.646 -0.4344 -0.0573  1.0743
 3370SOL     OW21745   1.303   0.741   8.490  0.1006  0.1627 -0.3346
 3370SOL    HW121746   1.352   0.796   8.551 -0.0928  0.0151 -0.0457
 3370SOL    HW221747   1.231   0.795   8.458 -1.2896 -1.1830  0.4674
 3371SOL     OW21748   0.575   3.927   1.231 -0.2564  0.0772 -0.2961
 3371SOL    HW121749   0.609   3.964   1.149 -3.4615  1.2136 -1.0798
 3371SOL    HW221750   0.643   3.961   1.289 -0.1693 -0.3345 -0.1560
 3372SOL     OW21751   1.280   4.227   8.138 -0.4443 -0.2752  0.2293
 3372SOL    HW121752   1.361   4.209   8.090  0.1772  0.2782  1.0652
 3372SOL    HW221753   1.272   4.140   8.178  0.5028 -1.5927 -2.4351
 3373SOL     OW21754   4.552   1.628   4.555 -0.3513 -0.1270 -0.3164
 3373SOL    HW121755   4.620   1.624   4.488 -0.1283  2.8103 -0.2469
 3373SOL    HW221756   4.477   1.645   4.497 -1.5715 -0.9036  1.0201
 3374SOL     OW21757   3.487   1.213  17.014  0.1431  0.2262 -0.4311
 3374SOL    HW121758   3.464   1.146  17.078 -0.6846  0.4763 -0.4694
 3374SOL    HW221759   3.400   1.251  17.005 -0.4512 -1.0312  0.1100
 3375SOL     OW21760   4.240   1.307   4.826 -0.1839  0.2514 -0.2012
 3375SOL    HW121761   4.312   1.281   4.768 -1.0970 -0.2468 -1.1064
 3375SOL    HW221762   4.287   1.285   4.907 -1.3387  0.1844  0.4542
 3376SOL     OW21763   3.333   3.727   6.404 -0.3521  0.0570 -0.0863
 3376SOL    HW121764   3.237   3.729   6.411 -0.6544  0.8177 -4.2939
 3376SOL    HW221765   3.354   3.814   6.438 -1.5837  0.1285  0.4934
 3377SOL     OW21766   1.108   3.864   0.674  0.8429 -0.3748 -0.0317
 3377SOL    HW121767   1.148   3.777   0.677  0.9800 -0.3703 -1.6995
 3377SOL    HW221768   1.160   3.888   0.598  0.3450 -2.2202 -0.9481
 3378SOL     OW21769   3.923   1.427   7.715  0.2820  0.2604 -0.2065
 3378SOL    HW121770   3.945   1.352   7.660 -0.1301  1.7638 -2.4225
 3378SOL    HW221771   4.008   1.470   7.723  0.0301  0.9462 -1.2973
 3379SOL     OW21772   1.782   0.540   0.477 -0.1673 -0.1994  0.3844
 3379SOL    HW121773   1.846   0.603   0.444 -0.9869  0.7227  0.5349
 3379SOL    HW221774   1.703   0.591   0.458  0.3271 -0.0525 -1.2588
 3380SOL     OW21775   3.671   4.597  15.277 -0.3238  0.4122  0.7365
 3380SOL    HW121776   3.725   4.519  15.289  0.6437  0.8387 -0.8795
 3380SOL    HW221777   3.723   4.660  15.328 -0.3449  2.3382 -1.6378
 3381SOL     OW21778   3.017   3.697  16.208 -0.3044  0.6716 -0.3302
 3381SOL    HW121779   3.101   3.726  16.243  1.0315 -0.4941 -2.6066
 3381SOL    HW221780   3.032   3.707  16.114 -1.8021  1.0020 -0.5306
 3382SOL     OW21781   4.316   0.997   6.141 -0.0698 -0.1062 -0.1080
 3382SOL    HW121782   4.294   0.946   6.219  0.4309 -0.1506  0.0070
 3382SOL    HW221783   4.262   0.959   6.072 -0.2588 -2.0317  1.0959
 3383SOL     OW21784   0.419   4.166   7.008  0.3316  0.2454  0.3760
 3383SOL    HW121785   0.447   4.235   6.947  0.1325 -0.9258 -1.0492
 3383SOL    HW221786   0.496   4.165   7.065  0.6157 -0.0988 -0.0107
 3384SOL     OW21787   4.693   0.098  13.763  0.2002  0.0540 -0.3401
 3384SOL    HW121788   4.673   0.008  13.788  2.2831 -0.2455  0.2519
 3384SOL    HW221789   4.647   0.144  13.834 -1.4112  0.1685 -1.4515
 3385SOL     OW21790   0.387   3.652  11.630 -0.1171  0.3002  0.6974
 3385SOL    HW121791   0.357   3.589  11.696  1.2311 -0.9511  0.1237
 3385SOL    HW221792   0.316   3.644  11.566  0.3550 -0.9662  0.3309
 3386SOL     OW21793   4.304   4.389   9.416  0.0175  0.0972  0.0937
 3386SOL    HW121794   4.290   4.421   9.327  0.3308 -1.7624 -0.6125
 3386SOL    HW221795   4.235   4.326   9.435  0.6314 -0.6277 -0.0895
 3387SOL     OW21796   1.041   4.592   4.305 -0.0234  0.3611 -0.1425
 3387SOL    HW121797   1.080   4.674   4.336  1.1359 -0.7780  1.4523
 3387SOL    HW221798   0.981   4.635   4.245  0.2687  1.7674  0.5771
 3388SOL     OW21799   2.698   4.728   7.062 -0.0006 -0.3612  0.7130
 3388SOL    HW121800   2.606   0.014   7.049  0.4418 -0.2037 -2.2016
 3388SOL    HW221801   2.716   0.028   7.148 -0.5160 -0.3303  0.8083
 3389SOL     OW21802   3.776   1.216   4.339  0.1193  0.2466  0.6762
 3389SOL    HW121803   3.821   1.135   4.315 -1.2993  1.1600 -5.1941
 3389SOL    HW221804   3.686   1.187   4.323 -0.3339  2.1331 -0.1177
 3390SOL     OW21805   4.144   0.267  13.271  0.5967 -0.6532  0.6356
 3390SOL    HW121806   4.094   0.240  13.348 -1.2067 -1.1679 -0.6995
 3390SOL    HW221807   4.088   0.330  13.224 -0.4910 -2.2800 -0.2236
 3391SOL     OW21808   2.710   4.039  15.791 -0.2704  0.3192  0.2377
 3391SOL    HW121809   2.629   3.989  15.783 -0.4252  0.3688  1.6030
 3391SOL    HW221810   2.772   3.966  15.780  0.9964  1.6901 -1.8166
 3392SOL     OW21811   3.943   4.425   5.506 -0.8505 -0.3760 -0.0581
 3392SOL    HW121812   3.930   4.419   5.600  0.8218 -0.7041  0.1543
 3392SOL    HW221813   3.947   4.332   5.485  1.0073 -0.2622 -0.1812
 3393SOL     OW21814   0.261   2.965  12.717  0.4745 -1.0266  0.1692
 3393SOL    HW121815   0.197   2.959  12.788  0.3389  0.5191  0.1851
 3393SOL    HW221816   0.307   2.882  12.727  2.0056 -0.0581  1.0786
 3394SOL     OW21817   3.232   0.786   4.566  0.0852 -0.3836  0.1132
 3394SOL    HW121818   3.199   0.776   4.477 -0.8841 -0.8117  0.5155
 3394SOL    HW221819   3.321   0.751   4.558  0.1069  0.1345 -1.7123
 3395SOL     OW21820   3.610   3.540   2.889  0.4178  0.2385  0.6030
 3395SOL    HW121821   3.663   3.466   2.860  2.5206  1.6526  0.8634
 3395SOL    HW221822   3.523   3.517   2.856  0.5272  0.2093  0.3338
 3396SOL     OW21823   0.006   1.808   4.752  0.0392  0.3606  0.7437
 3396SOL    HW121824   4.714   1.887   4.799  0.3249  0.7311  0.3008
 3396SOL    HW221825   4.681   1.808   4.680  0.4710  3.1200  0.3691
 3397SOL     OW21826   0.946   4.527  16.370 -0.5303  0.7887  0.0384
 3397SOL    HW121827   0.898   4.504  16.290  0.9350 -1.6912 -0.1312
 3397SOL    HW221828   0.876   4.567  16.422 -2.0976 -0.4289 -1.1439
 3398SOL     OW21829   1.042   2.411   3.825 -0.2499  0.5025 -0.2620
 3398SOL    HW121830   1.118   2.353   3.825 -0.5391  0.1242  0.8774
 3398SOL    HW221831   1.016   2.405   3.917 -1.1006 -0.4357 -0.5671
 3399SOL     OW21832   4.266   0.609   5.132 -0.0639  0.2348  0.8035
 3399SOL    HW121833   4.331   0.644   5.071  1.8801 -0.6235  2.4071
 3399SOL    HW221834   4.203   0.682   5.135 -0.3189  0.0293  0.3281
 3400SOL     OW21835   0.789   2.345  10.030  0.1156  0.0456  0.0992
 3400SOL    HW121836   0.734   2.383   9.961 -1.5186  1.0655  1.9257
 3400SOL    HW221837   0.815   2.421  10.083 -1.1159  0.4016  0.2127
 3401SOL     OW21838   3.306   0.639  15.454 -0.6787 -0.6046  0.6112
 3401SOL    HW121839   3.335   0.611  15.541  0.2932 -1.6246 -0.0375
 3401SOL    HW221840   3.333   0.731  15.453  0.1922 -0.8717 -0.0593
 3402SOL     OW21841   3.894   1.693   3.507 -0.2590 -0.3984 -0.0617
 3402SOL    HW121842   3.886   1.605   3.544  1.5565 -0.1393  0.9413
 3402SOL    HW221843   3.934   1.681   3.421  0.7578  3.8275 -0.2035
 3403SOL     OW21844   1.717   4.427  12.200  0.0482  0.2714 -0.0522
 3403SOL    HW121845   1.787   4.364  12.214  1.9947  2.2447 -0.9322
 3403SOL    HW221846   1.729   4.479  12.280  0.5639 -2.0610  1.3912
 3404SOL     OW21847   3.397   3.157   5.815 -0.2381 -0.0003  0.0514
 3404SOL    HW121848   3.322   3.148   5.873 -0.6667 -0.5188 -0.5823
 3404SOL    HW221849   3.431   3.245   5.829 -3.2785  0.9347  1.4806
 3405SOL     OW21850   3.279   2.431   3.507 -0.4795 -0.1039  0.1469
 3405SOL    HW121851   3.193   2.453   3.542  1.2858 -0.9464  4.9894
 3405SOL    HW221852   3.338   2.487   3.558  1.2738  0.6737 -2.7325
 3406SOL     OW21853   1.430   0.778   5.846  0.3899  0.5089 -0.2492
 3406SOL    HW121854   1.358   0.716   5.838 -0.3715  1.4207 -0.6058
 3406SOL    HW221855   1.385   0.862   5.859 -0.3521  0.0311  0.2337
 3407SOL     OW21856   2.135   1.306   9.275  0.2939  0.1852 -0.6034
 3407SOL    HW121857   2.151   1.269   9.188 -0.5705  0.1527 -0.7556
 3407SOL    HW221858   2.213   1.278   9.322  0.7238  0.2766 -1.2589
 3408SOL     OW21859   2.407   0.868   1.208 -0.2850  0.1403  0.2640
 3408SOL    HW121860   2.395   0.786   1.255 -1.4053  1.1366  1.7311
 3408SOL    HW221861   2.497   0.862   1.178 -0.8658  1.7039 -1.7873
 3409SOL     OW21862   1.351   1.516   4.842  0.0429  0.2308 -0.1541
 3409SOL    HW121863   1.300   1.448   4.799 -1.5383  0.0266  2.0355
 3409SOL    HW221864   1.368   1.567   4.763  1.3511 -1.6205 -1.0629
 3410SOL     OW21865   3.254   3.298   5.540  0.5388  0.1578  0.2025
 3410SOL    HW121866   3.267   3.321   5.632  1.1835  1.0712 -0.1155
 3410SOL    HW221867   3.163   3.270   5.532  0.8600 -1.2370  1.5457
 3411SOL     OW21868   0.678   4.595   3.647 -0.6009  0.1376 -0.4247
 3411SOL    HW121869   0.748   4.638   3.598  0.0476  1.3561  1.5644
 3411SOL    HW221870   0.704   4.618   3.736 -0.8627 -0.5869 -0.1615
 3412SOL     OW21871   1.270   1.382   1.895 -0.2246 -0.3830  0.5592
 3412SOL    HW121872   1.278   1.310   1.833 -2.0344 -0.0987 -0.0040
 3412SOL    HW221873   1.364   1.396   1.904  0.2311 -2.6660 -0.6707
 3413SOL     OW21874   1.651   4.381  11.656  0.1569  0.0745  0.3957
 3413SOL    HW121875   1.727   4.347  11.608 -1.7496  2.0431 -4.0073
 3413SOL    HW221876   1.577   4.360  11.599  0.3917 -0.0921  0.1534
 3414SOL     OW21877   3.059   4.117   1.152  0.5650 -0.0965 -0.5127
 3414SOL    HW121878   3.055   4.086   1.243 -0.0829  0.1164 -0.4676
 3414SOL    HW221879   3.126   4.186   1.154  0.1947  0.2593 -0.3299
 3415SOL     OW21880   2.631   3.773   1.478  0.2547  0.2011  0.1764
 3415SOL    HW121881   2.696   3.834   1.443 -0.2027  0.8094  0.3926
 3415SOL    HW221882   2.553   3.827   1.465 -0.0790 -0.0759  1.0644
 3416SOL     OW21883   2.363   0.880   7.690 -0.5698 -0.0237 -0.3240
 3416SOL    HW121884   2.316   0.930   7.757 -0.4798 -0.6266  0.1951
 3416SOL    HW221885   2.319   0.920   7.615 -0.5470 -0.3581 -0.5121
 3417SOL     OW21886   1.755   2.908   2.378  0.3026 -0.1240  0.4478
 3417SOL    HW121887   1.674   2.881   2.421 -0.4688  1.1654 -0.1930
 3417SOL    HW221888   1.796   2.949   2.454 -0.8570  1.6313  0.1165
 3418SOL     OW21889   2.051   2.676   5.183  0.0313 -0.2760 -0.2824
 3418SOL    HW121890   1.985   2.688   5.252 -0.6153 -1.3921 -0.7156
 3418SOL    HW221891   2.022   2.589   5.159 -1.2740  0.1587 -0.3116
 3419SOL     OW21892   0.352   0.953   4.072 -0.0033  0.1810  0.1081
 3419SOL    HW121893   0.401   1.009   4.134  0.1338 -0.4282  0.5480
 3419SOL    HW221894   0.366   0.871   4.118 -0.1474 -0.2565 -0.6374
 3420SOL     OW21895   0.843   1.924   8.829  0.7483 -0.2624  0.3192
 3420SOL    HW121896   0.765   1.931   8.773  0.9217  1.1929  0.2631
 3420SOL    HW221897   0.869   1.832   8.825 -1.7239 -0.9786  0.7406
 3421SOL     OW21898   3.606   0.509   1.664 -0.3078 -0.1192  0.2094
 3421SOL    HW121899   3.547   0.578   1.695  0.5659  0.7998 -0.2110
 3421SOL    HW221900   3.543   0.437   1.664  0.0592 -0.4383  0.5008
 3422SOL     OW21901   1.314   2.784   6.598  0.0811 -0.3484 -0.4206
 3422SOL    HW121902   1.334   2.714   6.660  1.2436 -0.4154 -0.8822
 3422SOL    HW221903   1.316   2.858   6.660 -1.7757 -0.3207 -0.3787
 3423SOL     OW21904   3.650   2.899   7.572  0.0223 -0.2694  0.9337
 3423SOL    HW121905   3.712   2.828   7.586  0.0761 -0.8602 -2.4298
 3423SOL    HW221906   3.636   2.922   7.665 -0.4125 -0.8968  1.0221
 3424SOL     OW21907   3.190   1.297   1.909 -0.7663  0.6231 -0.0085
 3424SOL    HW121908   3.185   1.202   1.913  1.9733  0.4915  0.0565
 3424SOL    HW221909   3.237   1.328   1.986  1.8531 -1.7317 -0.6826
 3425SOL     OW21910   3.801   0.798   2.093 -0.3581  0.4128 -0.0323
 3425SOL    HW121911   3.717   0.804   2.140  0.3652 -3.0406  1.7285
 3425SOL    HW221912   3.773   0.762   2.009  0.1419  2.2107 -0.9598
 3426SOL     OW21913   1.188   2.751   4.599  0.5051  0.3437 -0.1415
 3426SOL    HW121914   1.278   2.726   4.574 -0.4054 -1.5643 -1.5305
 3426SOL    HW221915   1.160   2.678   4.654  1.8467 -0.2185 -0.1841
 3427SOL     OW21916   4.684   4.603   3.724 -0.5512 -0.2563 -1.0177
 3427SOL    HW121917   4.675   4.695   3.751  0.8866 -0.2497 -0.5517
 3427SOL    HW221918   0.035   4.606   3.688 -0.4746  1.8571 -0.6670
 3428SOL     OW21919   3.623   3.701   4.364 -0.2987 -0.0466  0.0682
 3428SOL    HW121920   3.664   3.623   4.326  1.3898  1.0485 -0.4031
 3428SOL    HW221921   3.698   3.753   4.394 -0.4883  1.1619 -1.5513
 3429SOL     OW21922   0.102   2.647   4.334 -0.0923 -0.0023  0.0865
 3429SOL    HW121923   0.110   2.554   4.355 -1.8415 -0.4348 -1.1494
 3429SOL    HW221924   0.016   2.666   4.370  0.2304  0.2995  0.6913
 3430SOL     OW21925   3.141   1.697  14.659 -0.1583 -0.4168  0.5055
 3430SOL    HW121926   3.112   1.674  14.747 -1.4816 -4.1792 -0.9331
 3430SOL    HW221927   3.111   1.786  14.642 -1.0679 -1.1989 -2.0399
 3431SOL     OW21928   0.959   2.788   3.738  0.5979  0.2368 -0.1440
 3431SOL    HW121929   0.888   2.726   3.754  0.9212 -0.8225 -2.8896
 3431SOL    HW221930   0.976   2.758   3.649 -0.0939 -0.4733 -0.0392
 3432SOL     OW21931   1.069   0.149  16.455  0.2503 -0.1962 -0.3220
 3432SOL    HW121932   1.026   0.081  16.507  2.3523 -2.7125 -1.9156
 3432SOL    HW221933   1.000   0.215  16.453 -0.6690 -1.2045 -1.6720
 3433SOL     OW21934   2.840   0.380  11.481 -0.1640 -0.2120 -0.2888
 3433SOL    HW121935   2.883   0.437  11.418 -1.5617 -1.1653 -2.1146
 3433SOL    HW221936   2.856   0.421  11.566  0.3310  0.7048 -0.8286
 3434SOL     OW21937   4.531   1.139   0.549 -0.2705  0.2476  0.0183
 3434SOL    HW121938   4.440   1.170   0.552 -1.0451 -2.2724  2.0585
 3434SOL    HW221939   4.567   1.226   0.533  0.9998 -0.1664  0.6441
 3435SOL     OW21940   4.700   0.150   0.635  0.3348 -0.0520 -0.4433
 3435SOL    HW121941   4.660   0.106   0.560  0.7656 -0.8207 -0.2185
 3435SOL    HW221942   0.056   0.133   0.628  0.3935  0.6532 -1.3511
 3436SOL     OW21943   2.415   3.767   2.997  0.0343 -0.5223  0.0327
 3436SOL    HW121944   2.330   3.787   3.037  0.9665  0.1934  1.6619
 3436SOL    HW221945   2.402   3.675   2.974 -0.5605 -0.3864 -0.1712
 3437SOL     OW21946   0.585   0.533   5.497  0.6087  0.3383 -0.0203
 3437SOL    HW121947   0.665   0.480   5.494  0.9731  0.5176  5.2841
 3437SOL    HW221948   0.615   0.622   5.514  0.4983  0.4315 -0.3264
 3438SOL     OW21949   1.545   3.015  15.006 -0.0701 -0.1601 -0.0494
 3438SOL    HW121950   1.566   3.057  14.923 -1.3419 -0.5103 -0.5380
 3438SOL    HW221951   1.620   3.032  15.063 -2.2036  0.6623  2.5350
 3439SOL     OW21952   2.093   2.944   1.639  0.0774 -0.3438 -0.2623
 3439SOL    HW121953   2.114   2.905   1.555  0.6333  2.0606 -1.2593
 3439SOL    HW221954   2.070   2.863   1.683 -0.1510  0.0418  0.3368
 3440SOL     OW21955   0.649   0.842   3.830 -1.0653  0.1592 -0.1511
 3440SOL    HW121956   0.559   0.862   3.853 -1.2392  0.2516 -0.9228
 3440SOL    HW221957   0.687   0.926   3.855  0.6121 -0.3643 -0.9426
 3441SOL     OW21958   1.893   4.418   6.247 -0.3264  0.3359 -0.4760
 3441SOL    HW121959   1.976   4.465   6.247 -0.7866  1.1433 -0.9159
 3441SOL    HW221960   1.867   4.434   6.156  0.5838 -1.9631 -1.1407
 3442SOL     OW21961   2.625   2.399   2.175  0.5429  0.9326  0.2048
 3442SOL    HW121962   2.628   2.410   2.080  0.2044  2.0274  0.3213
 3442SOL    HW221963   2.533   2.424   2.188  0.3362 -0.0468  0.5912
 3443SOL     OW21964   3.830   1.534  15.168 -0.5504  0.0061  0.0056
 3443SOL    HW121965   3.893   1.507  15.100  0.3175 -1.0318  1.2183
 3443SOL    HW221966   3.882   1.554  15.246 -0.6983  0.3816  0.0059
 3444SOL     OW21967   4.356   2.591   4.480  0.1824 -0.0631 -0.3161
 3444SOL    HW121968   4.351   2.678   4.521 -1.7439 -1.5656  2.6744
 3444SOL    HW221969   4.335   2.529   4.549  0.5234 -1.3004 -1.3285
 3445SOL     OW21970   0.286   2.349   4.247  0.1798 -0.2102  0.2526
 3445SOL    HW121971   0.305   2.283   4.313 -1.0397 -0.4543  0.3628
 3445SOL    HW221972   0.191   2.348   4.238  0.1957 -3.7285  0.3439
 3446SOL     OW21973   1.642   0.361  10.635  0.6680  0.1671  0.3909
 3446SOL    HW121974   1.632   0.449  10.598 -0.7541  0.2914  1.0752
 3446SOL    HW221975   1.738   0.354  10.633  0.6194  0.0450 -1.3948
 3447SOL     OW21976   4.427   1.002   8.455  0.4276 -0.1672 -0.0550
 3447SOL    HW121977   4.510   1.044   8.475  0.1087  0.7221 -0.6341
 3447SOL    HW221978   4.451   0.959   8.373 -0.4682 -3.4643  1.3917
 3448SOL     OW21979   2.971   1.001   2.872  0.0590  0.0862 -0.6863
 3448SOL    HW121980   2.938   0.924   2.918  0.0709  0.5532  0.1012
 3448SOL    HW221981   2.901   0.998   2.807 -0.8000 -0.1924  0.2450
 3449SOL     OW21982   1.141   3.351   7.563 -0.1543  0.2331 -0.1258
 3449SOL    HW121983   1.175   3.392   7.483 -1.5833 -1.4485 -1.6135
 3449SOL    HW221984   1.214   3.347   7.625  0.0617 -1.1884 -0.4621
 3450SOL     OW21985   1.808   3.346  11.929 -0.4953  0.2052  0.4777
 3450SOL    HW121986   1.823   3.252  11.917 -2.5401  0.2516 -2.3178
 3450SOL    HW221987   1.880   3.378  11.874 -1.1025 -0.3294 -0.6163
 3451SOL     OW21988   3.438   0.211  14.599  0.0409  0.6810 -0.9650
 3451SOL    HW121989   3.385   0.140  14.563  2.1622 -0.3843 -2.0023
 3451SOL    HW221990   3.516   0.196  14.545  0.3812 -0.7318 -0.0544
 3452SOL     OW21991   3.656   4.729  15.550  0.3374 -0.5681 -0.3137
 3452SOL    HW121992   3.618   4.656  15.599  2.2658 -1.2486  0.1553
 3452SOL    HW221993   3.714   0.040  15.609  2.2266 -0.6038 -2.1550
 3453SOL     OW21994   2.435   1.847   8.870  0.3268 -0.2115  0.4405
 3453SOL    HW121995   2.355   1.857   8.819  0.4864  0.4732  0.3105
 3453SOL    HW221996   2.495   1.829   8.798 -0.7815 -1.2778 -0.2117
 3454SOL     OW21997   0.911   2.750   7.103  0.0401  0.8789 -0.5657
 3454SOL    HW121998   0.929   2.790   7.188 -1.8123  2.1115 -0.7412
 3454SOL    HW221999   0.816   2.760   7.103 -0.3162 -2.3345  0.9383
 3455SOL     OW22000   1.005   1.893   1.528 -0.4207  0.0419  0.3974
 3455SOL    HW122001   1.075   1.924   1.585 -1.3089  2.4509  0.2070
 3455SOL    HW222002   1.045   1.894   1.442  2.6818  3.0491  1.8605
 3456SOL     OW22003   4.725   2.008   7.485  0.0700  0.4791 -0.6016
 3456SOL    HW122004   4.708   1.954   7.562 -0.4922  1.2085 -0.2210
 3456SOL    HW222005   4.722   2.098   7.517  1.2337  0.3338 -0.0856
 3457SOL     OW22006   2.873   1.039   4.466  0.4320  0.3284  0.2285
 3457SOL    HW122007   2.854   0.986   4.544  0.0166 -0.8432 -0.6762
 3457SOL    HW222008   2.812   1.109   4.490 -0.2993  0.1704 -1.1783
 3458SOL     OW22009   2.004   3.583   3.143  0.3320  0.0237  0.9291
 3458SOL    HW122010   1.969   3.524   3.209 -0.6610  0.0170  0.3865
 3458SOL    HW222011   1.932   3.572   3.081  0.1758 -1.5155  1.4011
 3459SOL     OW22012   4.425   3.843   6.356 -0.6956  0.2162  0.1081
 3459SOL    HW122013   4.484   3.794   6.297 -2.1035  1.9830 -2.7766
 3459SOL    HW222014   4.349   3.785   6.352 -1.0190  0.7841 -2.5792
 3460SOL     OW22015   3.817   0.440   5.507 -0.0253  0.8479 -0.1404
 3460SOL    HW122016   3.892   0.469   5.456 -1.3061 -1.3738 -3.2230
 3460SOL    HW222017   3.808   0.345   5.503 -2.3137  1.1704 -2.5811
 3461SOL     OW22018   4.223   4.102   4.558 -0.6893 -0.2179 -0.3162
 3461SOL    HW122019   4.208   4.168   4.490 -4.1923 -0.5440  0.1086
 3461SOL    HW222020   4.260   4.034   4.501  1.6942 -0.6775  1.7721
 3462SOL     OW22021   2.183   4.607   2.976  0.1931 -0.3021 -0.1671
 3462SOL    HW122022   2.257   4.562   2.937  0.2258  2.1005 -2.8587
 3462SOL    HW222023   2.226   4.690   2.994 -0.8497 -0.0026  0.9564
 3463SOL     OW22024   1.588   3.327   7.117  0.1430 -0.5089  0.1389
 3463SOL    HW122025   1.557   3.380   7.190  0.3827 -0.4458  0.1959
 3463SOL    HW222026   1.533   3.346   7.040  1.4985  1.8546 -0.2321
 3464SOL     OW22027   1.344   3.663   2.419 -0.5692 -0.2637  0.3953
 3464SOL    HW122028   1.252   3.644   2.406 -0.5411  1.1212 -1.7597
 3464SOL    HW222029   1.384   3.604   2.354  0.7166  0.2664  0.6969
 3465SOL     OW22030   0.766   0.198   1.718 -0.5115  0.6101 -0.0334
 3465SOL    HW122031   0.707   0.242   1.779  1.7581  3.1047  0.3314
 3465SOL    HW222032   0.847   0.247   1.727  0.3876 -0.9751  0.4783
 3466SOL     OW22033   1.884   1.853   5.352 -0.6649 -0.3583 -0.0361
 3466SOL    HW122034   1.914   1.881   5.439 -1.3121 -0.4965  0.2261
 3466SOL    HW222035   1.796   1.890   5.344 -0.6909 -0.3919  0.0934
 3467SOL     OW22036   2.175   2.705  13.134  0.2203  0.1895  0.1082
 3467SOL    HW122037   2.138   2.638  13.192  1.9299 -2.5888 -1.9989
 3467SOL    HW222038   2.266   2.678  13.146  1.0399  2.8160 -0.2616
 3468SOL     OW22039   0.901   2.199   2.593 -0.1150  0.4058  0.1897
 3468SOL    HW122040   0.967   2.257   2.632  0.0474 -0.2464  0.8737
 3468SOL    HW222041   0.877   2.150   2.671 -2.3397  0.1704 -0.6415
 3469SOL     OW22042   2.019   1.599  10.614  0.0291 -0.4680 -0.7030
 3469SOL    HW122043   2.014   1.571  10.523 -0.2803  2.5263 -1.6073
 3469SOL    HW222044   2.047   1.691  10.607  0.3163 -0.6252 -1.6567
 3470SOL     OW22045   2.455   0.465   4.173 -0.3504  0.1149  0.0918
 3470SOL    HW122046   2.484   0.374   4.164 -1.5930 -0.4129  1.3916
 3470SOL    HW222047   2.438   0.474   4.267 -1.2739  1.6455 -0.2324
 3471SOL     OW22048   0.275   4.600   6.742  0.1761  0.0151 -0.8213
 3471SOL    HW122049   0.248   4.679   6.694 -1.4631 -0.1456 -0.1771
 3471SOL    HW222050   0.215   4.615   6.815  0.0383  2.0044 -1.3223
 3472SOL     OW22051   0.284   3.284   9.159  0.4575  0.0187  0.1035
 3472SOL    HW122052   0.223   3.260   9.229  1.0901 -1.1321  0.2711
 3472SOL    HW222053   0.221   3.304   9.090  0.7397 -1.0874 -0.4817
 3473SOL     OW22054   4.530   2.400   6.597  0.7386  0.2118  0.1509
 3473SOL    HW122055   4.573   2.323   6.634  3.3828  2.9401  2.7073
 3473SOL    HW222056   4.573   2.399   6.512 -0.0187  0.1471 -0.2308
 3474SOL     OW22057   2.759   3.738   7.279 -0.0823 -0.1997 -0.4966
 3474SOL    HW122058   2.672   3.754   7.243 -0.4810 -1.5875 -0.1727
 3474SOL    HW222059   2.735   3.729   7.371 -1.0343 -2.8193 -1.0072
 3475SOL     OW22060   3.299   2.826   0.464 -0.2290 -1.1270  0.2364
 3475SOL    HW122061   3.363   2.896   0.473  0.1269 -1.7927  2.8454
 3475SOL    HW222062   3.258   2.871   0.389  0.4408 -0.7564  0.0946
 3476SOL     OW22063   1.344   1.690   6.508 -0.0005 -0.4860  0.1162
 3476SOL    HW122064   1.348   1.602   6.546 -3.3388 -0.5808  0.3066
 3476SOL    HW222065   1.434   1.719   6.524 -0.2053 -0.5713  1.3933
 3477SOL     OW22066   1.193   3.336   8.442  0.2917  0.1899 -0.1942
 3477SOL    HW122067   1.216   3.427   8.461 -1.0353  1.1535 -3.0837
 3477SOL    HW222068   1.099   3.333   8.461  0.5208 -1.6742  0.6756
 3478SOL     OW22069   0.120   1.708   0.783  0.2380  0.6511 -0.1951
 3478SOL    HW122070   0.111   1.669   0.870  3.5146 -0.2865 -0.2545
 3478SOL    HW222071   0.033   1.701   0.744 -0.2471  0.9562  0.8317
 3479SOL     OW22072   0.547   3.416   3.766 -0.4593  0.5881  0.2943
 3479SOL    HW122073   0.632   3.404   3.808  0.0703  1.5943 -0.4921
 3479SOL    HW222074   0.479   3.393   3.829  0.2086 -2.1582  0.0170
 3480SOL     OW22075   0.180   1.951   7.307 -0.3659 -0.0397 -0.5254
 3480SOL    HW122076   0.146   2.025   7.258 -3.7242  0.4688  2.5439
 3480SOL    HW222077   0.145   1.968   7.395  0.3186  0.3182 -0.3174
 3481SOL     OW22078   3.793   2.081   3.847  0.5162  0.6685 -0.6010
 3481SOL    HW122079   3.741   2.054   3.923  1.6283 -1.9075 -0.7655
 3481SOL    HW222080   3.749   2.034   3.777  0.9283 -1.3136  0.4921
 3482SOL     OW22081   4.351   4.547  14.048 -0.7172  0.4018  0.0341
 3482SOL    HW122082   4.361   4.590  13.963  0.9051  0.3387  0.2077
 3482SOL    HW222083   4.272   4.590  14.082 -1.0324 -0.4608  0.3880
 3483SOL     OW22084   1.015   3.623   1.997 -0.4692  0.2071  0.1584
 3483SOL    HW122085   1.105   3.621   1.965 -1.4039  1.1257 -2.4583
 3483SOL    HW222086   0.974   3.582   1.921 -0.4406  1.2034 -0.3852
 3484SOL     OW22087   3.313   0.495  16.724 -0.1046  0.6348  0.5048
 3484SOL    HW122088   3.265   0.449  16.656  1.7291  1.3424 -1.2633
 3484SOL    HW222089   3.330   0.582  16.689 -1.1451  0.3496 -0.7035
 3485SOL     OW22090   3.791   3.764  14.525 -0.1290 -0.0703 -0.3147
 3485SOL    HW122091   3.768   3.775  14.433 -3.4375  2.4122  0.8072
 3485SOL    HW222092   3.704   3.750  14.562 -0.1777 -0.2666 -0.5066
 3486SOL     OW22093   1.437   0.988  15.769 -0.0740  0.4185  0.1003
 3486SOL    HW122094   1.507   0.974  15.706  0.7570  1.1703  0.8728
 3486SOL    HW222095   1.370   1.030  15.714 -0.4572  2.4876  2.1668
 3487SOL     OW22096   0.910   1.070   3.292  0.0689  0.2304  0.7955
 3487SOL    HW122097   0.860   0.992   3.313 -0.9528  0.0640 -2.2994
 3487SOL    HW222098   0.999   1.035   3.290 -0.5608 -1.3319  0.0246
 3488SOL     OW22099   3.669   2.087   9.254 -0.0096 -0.1265 -0.4069
 3488SOL    HW122100   3.749   2.041   9.277  0.1875 -0.2991 -1.4048
 3488SOL    HW222101   3.608   2.021   9.287 -0.0872 -0.3230 -0.9398
 3489SOL     OW22102   4.550   2.738  12.433  0.3955 -0.7321 -0.0400
 3489SOL    HW122103   4.639   2.710  12.454 -0.0066 -0.8420  1.5173
 3489SOL    HW222104   4.510   2.667  12.483 -0.0055 -0.0798  0.5618
 3490SOL     OW22105   3.008   2.557  10.591 -0.2478 -0.4303  0.0823
 3490SOL    HW122106   3.017   2.632  10.650 -1.5254 -0.9442  0.9334
 3490SOL    HW222107   2.958   2.500  10.649 -0.8492  1.0694  1.0409
 3491SOL     OW22108   4.339   4.722   3.187 -0.3297  0.1897  0.3925
 3491SOL    HW122109   4.433   4.720   3.170 -0.4117 -0.6490  0.0141
 3491SOL    HW222110   4.296   4.685   3.110 -0.0697 -2.6838  1.6306
 3492SOL     OW22111   2.547   2.196   7.032  0.9088 -0.2984 -0.2427
 3492SOL    HW122112   2.581   2.109   7.009 -0.7241 -0.8481 -0.5510
 3492SOL    HW222113   2.555   2.176   7.125 -2.0035 -0.0251  0.0495
 3493SOL     OW22114   1.151   3.118   8.103  0.6344 -0.2586 -0.2044
 3493SOL    HW122115   1.177   3.094   8.192 -0.9928 -1.0588  0.0550
 3493SOL    HW222116   1.229   3.132   8.051  0.4186  2.1654  0.1164
 3494SOL     OW22117   2.313   1.615   0.883 -0.4983 -0.0941 -0.3682
 3494SOL    HW122118   2.333   1.580   0.970 -1.4166  0.8054  0.2034
 3494SOL    HW222119   2.306   1.535   0.830 -0.5715  0.0540 -0.5800
 3495SOL     OW22120   3.333   1.393   7.245  0.0692  0.3717 -0.1155
 3495SOL    HW122121   3.325   1.324   7.311  3.7075 -2.1929 -2.2969
 3495SOL    HW222122   3.372   1.463   7.297  2.4693  0.4020 -1.9110
 3496SOL     OW22123   1.550   0.335  14.152 -0.4854  0.8993 -0.0370
 3496SOL    HW122124   1.511   0.252  14.180 -0.5206  0.9145 -0.0413
 3496SOL    HW222125   1.583   0.323  14.062 -2.9722  0.0114 -0.8337
 3497SOL     OW22126   3.418   2.232   2.049  0.0361 -0.1603  0.3915
 3497SOL    HW122127   3.381   2.320   2.037  0.8377 -0.1119 -1.6444
 3497SOL    HW222128   3.483   2.249   2.116 -2.5232  2.3879  2.2260
 3498SOL     OW22129   0.435   2.795  12.781 -0.0301  0.1812 -0.3663
 3498SOL    HW122130   0.523   2.835  12.779  0.5031 -0.8529  2.1987
 3498SOL    HW222131   0.414   2.797  12.874 -0.5342 -0.6363 -0.4590
 3499SOL     OW22132   3.169   4.694   4.724  0.2885  0.4758 -0.7370
 3499SOL    HW122133   3.141   0.000   4.643 -0.6274  1.4160  0.0738
 3499SOL    HW222134   3.225   4.627   4.685 -0.2462  0.3299 -1.2518
 3500SOL     OW22135   1.541   3.392   2.741 -0.3741 -0.0549  0.0956
 3500SOL    HW122136   1.534   3.298   2.760 -1.6246 -0.2204 -1.1773
 3500SOL    HW222137   1.498   3.398   2.655 -0.6007  1.6048  0.3281
 3501SOL     OW22138   1.973   3.175   0.248 -0.0213 -0.2379 -0.6523
 3501SOL    HW122139   2.046   3.209   0.197  1.1535  0.5353  1.5518
 3501SOL    HW222140   1.995   3.183   0.340  0.3430 -0.6334 -0.7040
 3502SOL     OW22141   1.040   4.289   3.558  0.1897  0.6589  0.4897
 3502SOL    HW122142   0.974   4.281   3.490  0.2879 -0.9935  0.5797
 3502SOL    HW222143   1.011   4.226   3.625  1.1027 -0.5762 -0.2736
 3503SOL     OW22144   1.247   2.970   8.379 -0.1877  0.2106  0.4267
 3503SOL    HW122145   1.233   2.895   8.321  1.0243 -0.4009  0.9162
 3503SOL    HW222146   1.311   2.930   8.439 -0.8065  2.3892  2.5265
 3504SOL     OW22147   4.349   2.876   4.872 -0.0039  0.0642  0.9697
 3504SOL    HW122148   4.398   2.834   4.943  0.1852 -0.7689  0.3439
 3504SOL    HW222149   4.315   2.958   4.907 -1.3452 -1.3019  2.8333
 3505SOL     OW22150   0.846   1.470   2.063 -0.2059 -0.3088 -0.0336
 3505SOL    HW122151   0.764   1.421   2.064 -0.5376  0.2133 -2.3339
 3505SOL    HW222152   0.847   1.513   1.978 -0.2017 -1.6892 -0.7279
 3506SOL     OW22153   1.104   4.061   1.777  0.6688  0.3608  0.1695
 3506SOL    HW122154   1.137   4.138   1.823 -1.3618  0.6130  1.2263
 3506SOL    HW222155   1.185   4.031   1.736  1.4324  1.6295  0.7463
 3507SOL     OW22156   3.320   1.002   9.177 -0.1595 -0.0768 -0.2076
 3507SOL    HW122157   3.241   1.016   9.230  0.6666 -1.7456  1.4302
 3507SOL    HW222158   3.353   1.092   9.177  1.5083 -0.6953  0.6358
 3508SOL     OW22159   2.303   2.734   2.326  0.4065  0.3397  0.2188
 3508SOL    HW122160   2.303   2.680   2.405  2.6901 -0.1595 -0.1421
 3508SOL    HW222161   2.322   2.818   2.368 -1.2808  0.1928  1.2895
 3509SOL     OW22162   4.311   1.360   2.040 -0.1123  0.9032 -0.0251
 3509SOL    HW122163   4.293   1.391   2.129 -0.8924  0.9115 -0.1886
 3509SOL    HW222164   4.275   1.437   1.996 -2.1589 -1.3064 -2.1441
 3510SOL     OW22165   0.033   4.417   6.504 -0.0374  0.1384  0.8327
 3510SOL    HW122166   4.731   4.332   6.486  0.2756  0.7378 -2.5800
 3510SOL    HW222167   0.099   4.393   6.570 -0.2518  0.8533  1.3150
 3511SOL     OW22168   2.687   1.648   8.829  0.3630  0.0425  0.3139
 3511SOL    HW122169   2.619   1.588   8.796  0.2133  0.7924 -0.7356
 3511SOL    HW222170   2.675   1.626   8.921  0.0706 -0.9206  0.0456
 3512SOL     OW22171   1.177   3.384   3.849  0.2916  0.3619  0.5718
 3512SOL    HW122172   1.271   3.374   3.842  0.2924  0.8180 -0.0495
 3512SOL    HW222173   1.151   3.308   3.902  1.6801 -0.8292 -0.4727
 3513SOL     OW22174   4.642   2.870   7.072 -0.0159  0.2084  0.0677
 3513SOL    HW122175   4.710   2.867   7.140  0.1769 -0.5462 -0.1625
 3513SOL    HW222176   4.705   2.859   7.001 -2.6599  1.7516 -2.5339
 3514SOL     OW22177   2.157   1.800   3.070  0.4358  0.2603  0.4902
 3514SOL    HW122178   2.145   1.859   2.995 -2.5130  0.6144  1.2454
 3514SOL    HW222179   2.068   1.803   3.106  0.5126  0.5977  0.6593
 3515SOL     OW22180   3.574   4.376   5.651 -0.2160 -0.1291 -0.0293
 3515SOL    HW122181   3.557   4.340   5.738 -1.7559  1.6213  0.3980
 3515SOL    HW222182   3.637   4.315   5.615 -1.1541 -2.2499  1.9293
 3516SOL     OW22183   4.512   0.063   4.631 -0.0551 -0.1325  0.2429
 3516SOL    HW122184   4.554   4.720   4.660 -0.0927 -0.0840  0.4298
 3516SOL    HW222185   4.462   0.032   4.555 -1.5871 -1.7323  1.8982
 3517SOL     OW22186   3.594   1.594   8.320  0.5887  0.4991 -0.2768
 3517SOL    HW122187   3.514   1.638   8.347  0.6489  0.0363  0.6407
 3517SOL    HW222188   3.589   1.604   8.225 -1.4778 -0.5835 -0.2847
 3518SOL     OW22189   1.557   0.236  16.349  0.3952 -0.5664  0.0121
 3518SOL    HW122190   1.575   0.286  16.429 -1.6800 -1.8057  1.2424
 3518SOL    HW222191   1.530   0.300  16.284  0.7225  1.0341  1.4621
 3519SOL     OW22192   0.404   3.789   7.731  0.1468 -0.0789  0.4144
 3519SOL    HW122193   0.461   3.747   7.795  0.5109 -0.4936 -0.1885
 3519SOL    HW222194   0.339   3.722   7.711  0.3224  0.0672 -0.6082
 3520SOL     OW22195   2.826   4.445  17.745 -0.2382  0.1532 -0.4796
 3520SOL    HW122196   2.863   4.531   0.019 -1.2319  0.6526 -0.7764
 3520SOL    HW222197   2.770   4.429   0.073 -0.4097  0.8030 -0.4713
 3521SOL     OW22198   2.313   1.115  15.069  0.5440 -0.0841  0.4040
 3521SOL    HW122199   2.404   1.086  15.067  1.2363  2.1308  0.1134
 3521SOL    HW222200   2.326   1.207  15.046  0.5389  0.1633  1.3907
 3522SOL     OW22201   4.213   0.702   7.747 -0.5145 -0.4540 -0.1842
 3522SOL    HW122202   4.129   0.684   7.790 -0.2556  1.2789  1.0384
 3522SOL    HW222203   4.244   0.769   7.808  0.1348 -0.1306 -0.8791
 3523SOL     OW22204   0.435   3.163   2.027  0.1786 -0.6865  0.6465
 3523SOL    HW122205   0.498   3.100   2.060  0.3813  0.2473  2.0412
 3523SOL    HW222206   0.412   3.215   2.104 -2.3625  0.5307 -0.9259
 3524SOL     OW22207   2.317   2.804   1.972  0.3712 -0.0806 -1.0440
 3524SOL    HW122208   2.401   2.803   1.926  1.7440  0.0631  1.4483
 3524SOL    HW222209   2.344   2.842   2.055  0.4547 -2.1840 -0.1067
 3525SOL     OW22210   3.108   1.711   4.375 -0.1836 -0.4232 -0.1133
 3525SOL    HW122211   3.059   1.666   4.444  2.0903 -2.5774  0.1082
 3525SOL    HW222212   3.188   1.659   4.367 -0.0096 -0.4633  2.0863
 3526SOL     OW22213   1.715   2.876  13.587 -0.8981 -0.3168  0.6016
 3526SOL    HW122214   1.660   2.952  13.571 -2.5263 -1.2243  1.8833
 3526SOL    HW222215   1.778   2.913  13.649 -0.3246 -0.6681  0.2340
 3527SOL     OW22216   3.714   0.677   5.507  0.3146 -0.7246 -1.0850
 3527SOL    HW122217   3.799   0.712   5.482  0.3645 -0.4168 -0.4898
 3527SOL    HW222218   3.741   0.587   5.524 -1.8316 -0.6575  2.8539
 3528SOL     OW22219   4.678   2.404   2.824 -0.0471  0.7603  0.0493
 3528SOL    HW122220   4.630   2.433   2.901 -1.4848  0.2296 -0.6553
 3528SOL    HW222221   4.734   2.479   2.802 -2.0995  1.9655 -1.0294
 3529SOL     OW22222   3.372   0.869  16.043  0.4403  0.4919 -0.2126
 3529SOL    HW122223   3.341   0.867  15.953  4.0301  2.4843 -1.4804
 3529SOL    HW222224   3.304   0.823  16.092  1.0809  0.0679  0.2805
 3530SOL     OW22225   4.610   4.424  14.108  0.4522 -0.1328  0.1281
 3530SOL    HW122226   4.640   4.494  14.166 -0.8300 -1.3533  2.2483
 3530SOL    HW222227   4.517   4.436  14.130  0.7864 -0.2836  1.6070
 3531SOL     OW22228   4.618   0.376   9.031 -0.2605 -0.3524  0.4464
 3531SOL    HW122229   4.624   0.280   9.024 -1.0692 -0.2963 -0.8653
 3531SOL    HW222230   4.707   0.393   9.001 -0.3586 -2.2877 -0.9533
 3532SOL     OW22231   0.050   0.160   8.196 -0.2617 -0.0830 -0.1055
 3532SOL    HW122232   0.139   0.131   8.216 -0.4404 -0.0094  0.8023
 3532SOL    HW222233   0.061   0.220   8.122 -1.3327  0.7043  0.3683
 3533SOL     OW22234   3.941   0.492  15.411  0.3463 -0.7368  0.2764
 3533SOL    HW122235   3.897   0.559  15.359  1.0568 -0.4651  0.0339
 3533SOL    HW222236   3.988   0.454  15.337 -0.4302 -2.6263  0.7449
 3534SOL     OW22237   1.622   3.768   2.227  0.0614 -0.6187  0.4183
 3534SOL    HW122238   1.680   3.746   2.154  0.1851 -0.5687  0.5028
 3534SOL    HW222239   1.650   3.698   2.286  1.4647 -0.5318 -0.1419
 3535SOL     OW22240   2.127   3.424   5.875  0.3948  0.3160  0.1735
 3535SOL    HW122241   2.102   3.465   5.958  0.6092  0.7731  0.0119
 3535SOL    HW222242   2.220   3.447   5.871  0.7249 -0.9238  0.6161
 3536SOL     OW22243   0.538   1.162  17.104 -0.0351  0.8898  0.0833
 3536SOL    HW122244   0.557   1.248  17.141  0.6074  2.4786 -3.8996
 3536SOL    HW222245   0.528   1.095  17.172  1.2403  1.3083  0.6889
 3537SOL     OW22246   2.083   3.696   4.991  0.3120 -0.3986  0.4204
 3537SOL    HW122247   2.123   3.650   5.065 -0.9796 -0.3406  1.1721
 3537SOL    HW222248   2.129   3.779   4.997 -0.7197  0.0721  1.8888
 3538SOL     OW22249   4.566   0.650   8.811 -0.0457 -0.3588 -0.7053
 3538SOL    HW122250   4.591   0.743   8.816 -1.8063  0.0749 -0.1223
 3538SOL    HW222251   4.638   0.612   8.760  2.0578  1.6784  0.7437
 3539SOL     OW22252   1.563   3.332   8.437  0.1454  0.2857 -0.1945
 3539SOL    HW122253   1.520   3.274   8.374 -1.9334  1.4162  0.2129
 3539SOL    HW222254   1.543   3.282   8.517 -0.4586  0.4740 -0.2367
 3540SOL     OW22255   0.810   3.726   5.165  0.4185 -0.3270  0.0484
 3540SOL    HW122256   0.751   3.738   5.239 -0.7499  0.4593 -0.9982
 3540SOL    HW222257   0.886   3.776   5.195 -0.7494  1.6607 -0.2808
 3541SOL     OW22258   2.785   3.115   7.388 -0.1767 -0.3410  0.3595
 3541SOL    HW122259   2.706   3.150   7.346  1.4877  2.4118 -0.4722
 3541SOL    HW222260   2.830   3.199   7.392  0.3872 -0.6472  0.4279
 3542SOL     OW22261   0.628   2.847   2.418  0.2005 -0.3535 -0.2769
 3542SOL    HW122262   0.562   2.867   2.352  0.3700 -0.1890 -0.3954
 3542SOL    HW222263   0.706   2.827   2.366  1.0234 -0.6954  1.0822
 3543SOL     OW22264   0.795   2.072   1.599 -0.7067 -0.1246  0.1824
 3543SOL    HW122265   0.880   2.030   1.584 -1.4805 -1.9098  0.7731
 3543SOL    HW222266   0.825   2.155   1.636 -0.8108 -0.0458  0.0913
 3544SOL     OW22267   1.683   3.612   2.813  0.2709  0.0502 -0.1902
 3544SOL    HW122268   1.620   3.543   2.791 -0.7423  0.6899  0.7130
 3544SOL    HW222269   1.638   3.693   2.839 -0.7234 -0.3854 -0.5481
 3545SOL     OW22270   0.507   3.056   4.969  0.2094  1.0105 -0.7208
 3545SOL    HW122271   0.500   2.999   5.045  0.9091  1.7711 -0.0772
 3545SOL    HW222272   0.422   3.098   4.953 -1.3368 -1.6583  0.4800
 3546SOL     OW22273   0.374   0.509   4.997 -0.1454 -0.2040  0.2723
 3546SOL    HW122274   0.411   0.421   4.995  0.2986 -0.0660  1.8701
 3546SOL    HW222275   0.347   0.520   4.906 -1.1819 -1.1388  0.4771
 3547SOL     OW22276   1.630   1.567   7.889  0.2569  0.9027  0.3930
 3547SOL    HW122277   1.688   1.503   7.931  2.2379  0.6841 -2.6848
 3547SOL    HW222278   1.606   1.629   7.958  3.5863  1.4821  1.0483
 3548SOL     OW22279   2.247   4.626   9.957  0.4287 -0.5541  0.1619
 3548SOL    HW122280   2.173   4.582   9.915 -1.4699  0.9403  1.9713
 3548SOL    HW222281   2.317   4.575   9.918  1.6045 -0.1930  1.7832
 3549SOL     OW22282   3.718   3.584  14.255 -0.4539  0.1327 -0.2338
 3549SOL    HW122283   3.732   3.534  14.335  0.4239  0.1804 -0.3610
 3549SOL    HW222284   3.755   3.527  14.187 -0.3450 -0.3490  0.2311
 3550SOL     OW22285   0.119   3.218   9.382 -0.2093  0.8122 -0.2541
 3550SOL    HW122286   0.034   3.176   9.369  1.3605 -2.0227 -1.5260
 3550SOL    HW222287   0.178   3.147   9.410 -0.8057  0.9506  1.3804
 3551SOL     OW22288   1.339   1.993   8.188  0.2498 -0.3864  0.1810
 3551SOL    HW122289   1.245   1.994   8.172  0.2014  0.1901  0.4714
 3551SOL    HW222290   1.339   1.949   8.273  0.6613  0.7023  0.7401
 3552SOL     OW22291   1.818   0.182   4.002  0.1852 -0.0054  0.4437
 3552SOL    HW122292   1.761   0.197   4.078  0.6835  0.4746  0.7253
 3552SOL    HW222293   1.792   0.094   3.976  0.3175 -0.1357  0.7540
 3553SOL     OW22294   1.338   1.401   8.393  0.2172 -0.0421 -0.1455
 3553SOL    HW122295   1.333   1.396   8.488  0.4724 -0.1418 -0.1353
 3553SOL    HW222296   1.245   1.416   8.376  0.0200 -1.1895 -0.0449
 3554SOL     OW22297   2.632   4.686   5.146 -0.8767 -0.3041  0.0255
 3554SOL    HW122298   2.537   4.674   5.148 -0.6764 -1.9992 -0.1752
 3554SOL    HW222299   2.659   4.673   5.055 -0.2287 -0.6534  0.2660
 3555SOL     OW22300   4.721   1.068   8.435  0.0277 -0.4903 -0.4240
 3555SOL    HW122301   0.071   1.044   8.404  0.7899  0.5993  0.8661
 3555SOL    HW222302   4.707   0.988   8.485 -2.0933 -0.8914 -1.6736
 3556SOL     OW22303   1.557   1.054   5.445 -0.3401  0.8666 -0.7985
 3556SOL    HW122304   1.573   1.135   5.396 -0.8823  1.7650  0.5119
 3556SOL    HW222305   1.518   1.093   5.523 -0.1648 -1.6502  0.5385
 3557SOL     OW22306   0.998   2.841   0.565  0.0532 -0.1289  0.2279
 3557SOL    HW122307   0.949   2.823   0.484 -0.1228  0.6762  0.1559
 3557SOL    HW222308   1.079   2.883   0.536  0.0352 -0.8486 -0.8946
 3558SOL     OW22309   4.054   2.471  17.205 -0.4019  0.1703 -0.0904
 3558SOL    HW122310   4.101   2.523  17.140 -0.0310 -1.2013 -0.9298
 3558SOL    HW222311   4.129   2.427  17.247 -1.1179  0.8594  1.9101
 3559SOL     OW22312   0.572   2.341  14.393 -0.3459 -0.4364 -0.2060
 3559SOL    HW122313   0.504   2.381  14.447  0.9657 -0.7966  1.7231
 3559SOL    HW222314   0.560   2.252  14.426  0.7037 -0.3737  0.3315
 3560SOL     OW22315   0.227   2.941  14.806  0.1697  0.3169  0.1615
 3560SOL    HW122316   0.200   3.014  14.861  1.3353  1.8345 -1.2951
 3560SOL    HW222317   0.291   2.977  14.744 -1.0823  1.4467 -0.4826
 3561SOL     OW22318   3.341   1.687   1.120 -0.1213  0.1576  0.5146
 3561SOL    HW122319   3.361   1.761   1.178  0.5983  2.6389 -2.9269
 3561SOL    HW222320   3.427   1.677   1.078 -0.7590 -0.2987 -0.6629
 3562SOL     OW22321   3.573   4.243   2.078  0.2368 -0.0052 -0.0619
 3562SOL    HW122322   3.651   4.259   2.131 -1.3501  1.7437  1.7139
 3562SOL    HW222323   3.589   4.324   2.031  1.9738  0.0685  0.6694
 3563SOL     OW22324   4.521   2.002   6.541 -0.1416 -0.0014 -0.0766
 3563SOL    HW122325   4.463   2.007   6.464  2.4012  2.4272 -1.8055
 3563SOL    HW222326   4.458   1.964   6.603 -1.2003 -0.5569 -1.4840
 3564SOL     OW22327   3.082   0.979   6.702  0.2876 -0.0728  0.1490
 3564SOL    HW122328   3.034   0.969   6.784 -0.1237  1.3629  0.0780
 3564SOL    HW222329   3.083   1.074   6.697  1.0447 -0.0836  0.2193
 3565SOL     OW22330   3.334   1.599   8.914  0.0952  0.2217 -0.0028
 3565SOL    HW122331   3.303   1.690   8.910  1.0959  0.5633 -0.0508
 3565SOL    HW222332   3.268   1.571   8.977 -0.3289 -0.6793 -0.8655
 3566SOL     OW22333   0.569   3.464   7.633  0.3250  0.1645 -0.1658
 3566SOL    HW122334   0.660   3.492   7.642  0.5773 -0.6301 -0.2283
 3566SOL    HW222335   0.566   3.414   7.552  1.8925  0.9092 -0.6781
 3567SOL     OW22336   0.481   3.727  14.009  0.1673 -0.5410  0.4768
 3567SOL    HW122337   0.419   3.679  14.064 -0.1460 -0.8377 -0.1339
 3567SOL    HW222338   0.554   3.740  14.069  1.2604 -1.7050 -0.5860
 3568SOL     OW22339   3.613   1.332   3.735 -0.7520 -0.0109 -0.9165
 3568SOL    HW122340   3.529   1.370   3.761 -1.0037 -1.2814  0.1273
 3568SOL    HW222341   3.595   1.239   3.721  1.8670 -0.4116 -1.5349
 3569SOL     OW22342   0.453   2.498   8.637 -0.4179  0.1987  0.2198
 3569SOL    HW122343   0.419   2.490   8.726 -0.0617 -1.8793  0.1572
 3569SOL    HW222344   0.392   2.442   8.589  0.8853  0.2638 -1.5521
 3570SOL     OW22345   3.497   0.333   7.352 -0.3535 -0.2991 -0.6122
 3570SOL    HW122346   3.510   0.267   7.284 -1.9309  0.1427 -1.3572
 3570SOL    HW222347   3.403   0.351   7.353  0.0966  1.9699  1.6756
 3571SOL     OW22348   2.237   0.972   9.779  0.1854  0.2178  0.6051
 3571SOL    HW122349   2.160   1.023   9.802 -2.5833 -2.2099 -3.3213
 3571SOL    HW222350   2.236   0.985   9.684 -2.3129 -1.3062  0.4149
 3572SOL     OW22351   0.712   3.905   5.751  0.3818 -0.2909  0.0937
 3572SOL    HW122352   0.743   3.879   5.837  1.8176 -0.1004 -0.3706
 3572SOL    HW222353   0.738   3.824   5.707  0.0208 -0.7392  0.7042
 3573SOL     OW22354   1.094   2.169   5.489  0.3731 -0.4573 -0.6142
 3573SOL    HW122355   1.157   2.238   5.509 -0.9612 -0.0322  2.0514
 3573SOL    HW222356   1.064   2.148   5.577 -0.3700 -0.2179 -0.8043
 3574SOL     OW22357   1.984   4.598   7.427  0.0638 -0.3668 -0.2071
 3574SOL    HW122358   1.997   4.507   7.455  1.0855 -0.7223 -1.7698
 3574SOL    HW222359   2.035   4.596   7.346 -1.4189  1.1687 -1.1925
 3575SOL     OW22360   0.290   1.516  15.508  0.1891 -0.0433 -0.4349
 3575SOL    HW122361   0.296   1.433  15.460 -1.7107  0.0738 -0.8825
 3575SOL    HW222362   0.382   1.533  15.528  0.1932  1.9668 -2.1845
 3576SOL     OW22363   1.960   3.105   7.953  0.2667  0.1282  0.1209
 3576SOL    HW122364   1.865   3.111   7.961  0.2602 -2.2304  1.8626
 3576SOL    HW222365   1.978   3.106   7.859 -3.0055  1.6405 -0.4814
 3577SOL     OW22366   4.329   2.571   5.213  0.2677  0.1739 -0.2587
 3577SOL    HW122367   4.271   2.608   5.279 -0.0053  1.6910 -1.3417
 3577SOL    HW222368   4.266   2.535   5.149 -1.3751 -0.5661  1.7696
 3578SOL     OW22369   1.442   2.004  17.325 -0.1489 -0.4709  0.2400
 3578SOL    HW122370   1.393   2.062  17.267  2.8607 -0.7917 -2.6763
 3578SOL    HW222371   1.532   2.032  17.305 -0.3620  0.8003  1.0851
 3579SOL     OW22372   2.190   2.825   1.376  0.3588  0.3839  0.0949
 3579SOL    HW122373   2.211   2.873   1.295  2.6493 -1.9172 -0.6712
 3579SOL    HW222374   2.200   2.734   1.346 -0.1940  0.2698  0.2608
 3580SOL     OW22375   2.149   2.938   6.642  0.2788 -0.1265  0.3888
 3580SOL    HW122376   2.092   3.012   6.620 -3.1820 -3.0349 -0.5773
 3580SOL    HW222377   2.084   2.874   6.672 -0.7030  1.7544  2.2129
 3581SOL     OW22378   0.052   1.723   6.212  0.7228 -0.3278 -0.3365
 3581SOL    HW122379   0.010   1.637   6.214 -0.3191  0.1515 -1.1432
 3581SOL    HW222380   4.713   1.782   6.212  1.7024  0.9462  0.5775
 3582SOL     OW22381   4.694   2.683   3.622  0.1353 -0.1911 -0.1124
 3582SOL    HW122382   4.614   2.727   3.593 -0.0251  0.0627  0.7184
 3582SOL    HW222383   4.698   2.724   3.708 -0.1829  3.1088 -1.6575
 3583SOL     OW22384   4.673   3.323  16.457  0.3155  0.7759 -0.3755
 3583SOL    HW122385   4.592   3.356  16.495 -0.8363 -1.6146 -0.7715
 3583SOL    HW222386   4.708   3.394  16.403  0.3319  1.4533  0.5229
 3584SOL     OW22387   1.773   3.012   4.129 -0.4861 -0.1709 -0.1754
 3584SOL    HW122388   1.768   3.105   4.152  0.3245  0.3110 -1.9795
 3584SOL    HW222389   1.841   2.999   4.196 -0.0317  1.2790 -0.3625
 3585SOL     OW22390   0.869   2.270   9.185  0.1158 -0.1503  0.0343
 3585SOL    HW122391   0.875   2.363   9.163  0.4327 -0.1477  0.1337
 3585SOL    HW222392   0.930   2.226   9.126  0.4376 -0.3297  0.5037
 3586SOL     OW22393   3.783   2.023   2.808  0.1199  0.4548  0.1310
 3586SOL    HW122394   3.873   1.997   2.787  0.1340  0.8226 -0.2614
 3586SOL    HW222395   3.754   1.955   2.869  0.5068 -0.2209 -0.4318
 3587SOL     OW22396   3.066   3.755  15.953 -0.0522 -0.0400 -0.2036
 3587SOL    HW122397   2.975   3.771  15.926 -0.2130 -0.8245 -0.1157
 3587SOL    HW222398   3.105   3.823  15.899 -0.8642  1.2626  0.8415
 3588SOL     OW22399   0.343   4.309   1.925  0.6963  0.5297 -0.3589
 3588SOL    HW122400   0.315   4.334   2.013  3.0415  1.4374  0.1163
 3588SOL    HW222401   0.416   4.252   1.948 -0.7779 -1.4431 -0.5642
 3589SOL     OW22402   3.033   1.075   3.264 -0.0201 -0.3161  0.2947
 3589SOL    HW122403   3.074   1.160   3.282 -2.2711  0.2964  2.5318
 3589SOL    HW222404   3.025   1.080   3.169 -2.8027  1.1203  0.5834
 3590SOL     OW22405   2.179   1.679  10.956 -0.2241  0.5413 -0.2145
 3590SOL    HW122406   2.193   1.625  11.034 -2.9142 -0.4305 -0.3979
 3590SOL    HW222407   2.128   1.751  10.992  0.9400  0.5455  1.4165
 3591SOL     OW22408   2.833   1.909   4.367 -0.0928  0.2314  0.2522
 3591SOL    HW122409   2.850   1.994   4.407  1.3022 -0.1168  0.4106
 3591SOL    HW222410   2.777   1.857   4.424 -0.8832  0.2673 -0.4820
 3592SOL     OW22411   0.899   2.955  13.366  0.5483 -0.5185 -0.2870
 3592SOL    HW122412   0.880   3.046  13.389 -0.4175 -0.4349 -1.4082
 3592SOL    HW222413   0.910   2.952  13.271  1.6198 -0.6185 -0.1622
 3593SOL     OW22414   1.893   0.789   9.693  0.4378  0.2745  0.1373
 3593SOL    HW122415   1.940   0.820   9.770  1.0271  0.1918 -0.1848
 3593SOL    HW222416   1.806   0.827   9.681  0.6759  0.1564 -2.1160
 3594SOL     OW22417   3.662   4.033  16.789  0.0228  0.4127  0.0746
 3594SOL    HW122418   3.656   4.067  16.700 -0.1365  0.4882  0.1141
 3594SOL    HW222419   3.684   3.941  16.773  0.1192  0.7381 -1.6561
 3595SOL     OW22420   3.115   3.025   7.341  0.0627 -0.0226  0.6331
 3595SOL    HW122421   3.192   3.077   7.361 -0.4333  0.6452  0.8009
 3595SOL    HW222422   3.065   3.085   7.285 -1.7535 -1.3619  0.8128
 3596SOL     OW22423   3.128   1.072   4.581 -0.3623 -0.0732  0.4356
 3596SOL    HW122424   3.118   0.981   4.609  0.9698  0.6893  3.4240
 3596SOL    HW222425   3.073   1.072   4.503 -1.0234  0.5783  0.9015
 3597SOL     OW22426   2.445   2.355   4.431 -0.0590 -0.0290  0.1702
 3597SOL    HW122427   2.394   2.302   4.369 -1.3302  0.7444  0.5409
 3597SOL    HW222428   2.412   2.443   4.410 -1.2519 -0.6819 -0.6931
 3598SOL     OW22429   1.096   4.434   7.443  0.4427 -0.1749  0.5695
 3598SOL    HW122430   1.015   4.446   7.394  1.3668  0.6647 -0.7389
 3598SOL    HW222431   1.151   4.501   7.402  2.4627 -2.7842 -0.9292
 3599SOL     OW22432   3.317   3.600   4.709  0.0475 -0.3949  0.4743
 3599SOL    HW122433   3.273   3.516   4.693 -2.6562  1.0258  0.4772
 3599SOL    HW222434   3.338   3.582   4.801  0.5391  0.1708  0.4753
 3600SOL     OW22435   0.259   2.039   9.109  0.0649 -0.5055  0.1637
 3600SOL    HW122436   0.196   2.034   9.181  0.1842  0.7800  0.3694
 3600SOL    HW222437   0.338   1.997   9.142 -1.3234 -2.4123  1.0284
 3601SOL     OW22438   2.661   3.351   7.246 -0.2082 -0.0383  0.2861
 3601SOL    HW122439   2.733   3.362   7.308  0.5188 -1.4358 -0.3098
 3601SOL    HW222440   2.710   3.318   7.171 -1.3544 -0.3853 -0.3005
 3602SOL     OW22441   2.461   1.163  13.206  0.2129 -0.1325 -0.3136
 3602SOL    HW122442   2.496   1.081  13.171  1.2245 -0.0706  0.5388
 3602SOL    HW222443   2.520   1.228  13.169 -0.8988  1.2913  0.3900
 3603SOL     OW22444   4.561   1.898   5.845  0.1161 -0.4773 -0.3389
 3603SOL    HW122445   4.647   1.871   5.813  0.3505  2.2821 -2.0275
 3603SOL    HW222446   4.506   1.873   5.771  0.9348 -1.7844 -0.5109
 3604SOL     OW22447   3.383   2.041  17.517  0.1688 -0.4081  0.2499
 3604SOL    HW122448   3.430   1.958  17.518 -1.4451 -1.3466 -1.2416
 3604SOL    HW222449   3.298   2.025  17.476  0.5628  0.6375 -0.9827
 3605SOL     OW22450   2.617   4.038   9.844 -0.6691 -0.8564  0.6487
 3605SOL    HW122451   2.560   3.981   9.895 -0.9311 -1.2639 -0.0986
 3605SOL    HW222452   2.555   4.099   9.804  1.2904 -0.1392 -1.3331
 3606SOL     OW22453   3.433   0.278   3.464 -0.4538  0.0015 -0.3771
 3606SOL    HW122454   3.397   0.201   3.419  1.7001 -0.4650 -1.2856
 3606SOL    HW222455   3.522   0.245   3.477 -0.1169  0.5462 -1.3098
 3607SOL     OW22456   0.195   1.036   3.024  0.1282 -0.8760 -0.6304
 3607SOL    HW122457   0.218   1.056   2.933 -2.0798  1.1497 -0.7465
 3607SOL    HW222458   0.100   1.032   3.022  0.2450 -3.5703 -1.3865
 3608SOL     OW22459   0.630   4.526   9.242  0.5507 -0.0529  0.4574
 3608SOL    HW122460   0.679   4.452   9.204 -0.4274 -0.5490  0.1682
 3608SOL    HW222461   0.688   4.551   9.315  2.3160  1.6003 -1.5290
 3609SOL     OW22462   1.095   0.308   8.193 -0.2447 -0.3078  0.0271
 3609SOL    HW122463   1.132   0.242   8.252  0.4439 -0.9367 -1.1084
 3609SOL    HW222464   1.118   0.380   8.252  0.7480 -0.6720  0.0886
 3610SOL     OW22465   3.533   2.125   6.632  0.5083 -0.0499  0.1804
 3610SOL    HW122466   3.561   2.149   6.544  0.9787 -0.9715  0.0771
 3610SOL    HW222467   3.450   2.172   6.638  1.1263  0.9430  0.9760
 3611SOL     OW22468   3.353   0.341   1.716  0.7247  0.2062  0.0513
 3611SOL    HW122469   3.355   0.418   1.773 -1.7496 -1.1284  1.9374
 3611SOL    HW222470   3.264   0.308   1.724  0.8720 -0.6077 -1.5427
 3612SOL     OW22471   0.960   3.762   8.632  0.0490  0.7204 -0.0049
 3612SOL    HW122472   0.872   3.776   8.667  1.6052  2.1291  3.3631
 3612SOL    HW222473   1.016   3.752   8.709  1.6531 -3.2254 -1.6589
 3613SOL     OW22474   2.961   1.582   3.903 -0.0456  0.0360 -0.0947
 3613SOL    HW122475   2.998   1.667   3.880 -0.5167  0.6379  1.3325
 3613SOL    HW222476   3.035   1.528   3.932 -0.7454 -0.6612  0.3882
 3614SOL     OW22477   1.144   3.888   5.579  0.6783  0.1057 -0.1373
 3614SOL    HW122478   1.177   3.822   5.518 -0.6373 -0.9635  0.3290
 3614SOL    HW222479   1.116   3.836   5.654  1.4031  0.6824  0.5408
 3615SOL     OW22480   1.387   0.490   3.945  0.2176 -0.3053 -0.2074
 3615SOL    HW122481   1.312   0.547   3.927  0.7058 -0.3296 -2.2902
 3615SOL    HW222482   1.441   0.518   4.019  1.6234  1.8283 -2.0409
 3616SOL     OW22483   0.648   1.834  10.798 -0.0008 -0.1176 -0.1076
 3616SOL    HW122484   0.685   1.749  10.776  0.2514 -0.1175  0.3050
 3616SOL    HW222485   0.634   1.820  10.892 -2.4890  1.9761 -0.1714
 3617SOL     OW22486   0.221   2.489   8.243 -0.0957  0.2446  0.3483
 3617SOL    HW122487   0.305   2.467   8.203 -0.6264  0.8669 -1.0860
 3617SOL    HW222488   0.237   2.479   8.337  1.5729  2.1072  0.2669
 3618SOL     OW22489   2.630   0.581   4.959 -0.5844 -0.3174 -0.1843
 3618SOL    HW122490   2.689   0.514   4.995  0.1495  0.5876  0.3044
 3618SOL    HW222491   2.550   0.574   5.012 -0.6877 -0.3773 -0.3498
 3619SOL     OW22492   2.929   3.634   3.143 -0.2717 -0.8475  0.2500
 3619SOL    HW122493   2.955   3.567   3.080 -3.2050 -2.2500  0.4981
 3619SOL    HW222494   2.837   3.649   3.120 -0.3177  1.1543  1.7238
 3620SOL     OW22495   0.077   2.662  12.023 -0.3619  0.1423 -0.3991
 3620SOL    HW122496   4.724   2.645  11.997 -0.3636  1.4338 -1.2136
 3620SOL    HW222497   0.100   2.723  11.953  0.7313  0.2102  0.0161
 3621SOL     OW22498   2.009   3.255  14.285 -0.2377 -0.5046  0.1442
 3621SOL    HW122499   1.947   3.304  14.339  0.3253  2.0047 -1.4887
 3621SOL    HW222500   2.077   3.318  14.261 -0.9949  1.2290  2.4882
 3622SOL     OW22501   4.395   2.188   0.689  0.3795  0.1735 -0.3591
 3622SOL    HW122502   4.350   2.153   0.612 -1.3614  3.5363 -0.8738
 3622SOL    HW222503   4.445   2.112   0.718  1.3572 -0.0283 -2.6413
 3623SOL     OW22504   3.728   4.263  17.439  0.5784  0.2728  0.6061
 3623SOL    HW122505   3.792   4.253  17.369 -1.9039 -0.6086 -1.5254
 3623SOL    HW222506   3.768   4.219  17.514 -2.0268 -1.9827  0.6937
 3624SOL     OW22507   4.659   0.811   8.508  0.0137 -0.3174 -1.0220
 3624SOL    HW122508   4.719   0.750   8.551  0.0697  0.8778  0.5573
 3624SOL    HW222509   4.590   0.752   8.475 -2.0081  1.4384  0.0499
 3625SOL     OW22510   0.640   3.955   2.849 -0.1855  0.4174 -0.3213
 3625SOL    HW122511   0.555   3.926   2.818  0.2632 -1.0132 -0.2244
 3625SOL    HW222512   0.701   3.945   2.775  0.5915  1.3451  0.1926
 3626SOL     OW22513   0.900   2.303   2.329 -1.2525 -0.5201 -0.0192
 3626SOL    HW122514   0.968   2.256   2.280 -0.2525  0.3772  0.5057
 3626SOL    HW222515   0.916   2.261   2.414  0.1320 -1.4344 -0.7300
 3627SOL     OW22516   1.995   4.008   5.201 -0.3194  0.3656  0.0846
 3627SOL    HW122517   2.056   4.063   5.151 -0.2018 -1.6506 -2.0017
 3627SOL    HW222518   1.921   4.068   5.208 -0.5626  0.0037  0.6116
 3628SOL     OW22519   2.789   3.200   8.728 -0.4597  0.0744  0.6639
 3628SOL    HW122520   2.760   3.194   8.637  0.9724 -2.6586  0.3835
 3628SOL    HW222521   2.835   3.283   8.736  2.0925 -1.3646  1.1462
 3629SOL     OW22522   1.236   1.988   5.969  0.6209 -0.0843  0.1409
 3629SOL    HW122523   1.271   2.046   5.902  2.7954  0.2140  1.5525
 3629SOL    HW222524   1.313   1.960   6.019 -0.0463 -1.2449  0.5317
 3630SOL     OW22525   1.029   2.257   1.624  0.2354  0.1970 -1.1697
 3630SOL    HW122526   1.085   2.270   1.547 -0.2814  2.3916 -1.1735
 3630SOL    HW222527   0.999   2.347   1.635  0.1848 -0.0224  0.4264
 3631SOL     OW22528   0.892   0.845   9.224 -0.1099  0.0227  0.1268
 3631SOL    HW122529   0.969   0.814   9.272  1.0951 -0.3010 -2.0050
 3631SOL    HW222530   0.827   0.843   9.294 -1.9352  0.3265 -1.5424
 3632SOL     OW22531   3.757   2.202   5.766  0.1949 -0.0443 -0.1313
 3632SOL    HW122532   3.711   2.123   5.794  1.8609 -0.7795  0.5186
 3632SOL    HW222533   3.679   2.243   5.728  0.9377  1.1593 -0.3463
 3633SOL     OW22534   3.966   3.504   6.773 -0.4005 -0.2554  0.2275
 3633SOL    HW122535   3.998   3.491   6.683 -2.6241  1.9654 -0.8710
 3633SOL    HW222536   3.993   3.416   6.800 -1.7019 -0.2181  1.6264
 3634SOL     OW22537   1.624   3.935   6.908 -0.2392 -0.0761 -0.9481
 3634SOL    HW122538   1.709   3.901   6.880  0.1890 -0.1575  0.4478
 3634SOL    HW222539   1.650   4.007   6.965  1.9606 -1.5856 -0.0427
 3635SOL     OW22540   0.042   1.844   1.317 -0.0340  1.4212  0.3003
 3635SOL    HW122541   0.055   1.875   1.227  0.3141 -1.9059 -0.8134
 3635SOL    HW222542   0.103   1.900   1.365  1.8024  1.5360 -2.1805
 3636SOL     OW22543   1.662   3.878   4.010  0.6140 -0.0613  1.0593
 3636SOL    HW122544   1.726   3.946   4.035  0.1255  0.5339  0.6899
 3636SOL    HW222545   1.600   3.902   4.078  0.6196 -0.4654  1.2061
 3637SOL     OW22546   4.596   2.596   8.517 -0.1414  0.0053 -0.0296
 3637SOL    HW122547   4.537   2.666   8.544  0.9959 -0.5596  3.8739
 3637SOL    HW222548   4.613   2.556   8.602 -1.5084 -0.0546  0.2157
 3638SOL     OW22549   2.467   2.103   9.607 -0.0476 -0.5321  0.2660
 3638SOL    HW122550   2.409   2.176   9.586 -2.2485 -1.3382  3.4873
 3638SOL    HW222551   2.428   2.032   9.555 -1.1699 -0.2475  0.7240
 3639SOL     OW22552   2.345   3.586   5.672  0.1330 -0.2796  0.0947
 3639SOL    HW122553   2.369   3.648   5.603  1.7366 -1.4061 -0.3843
 3639SOL    HW222554   2.298   3.644   5.732  0.3361  0.9676 -0.9458
 3640SOL     OW22555   0.036   3.244   2.524  0.0177 -0.0504  0.6697
 3640SOL    HW122556   0.091   3.165   2.525 -0.9033 -0.6753  1.5938
 3640SOL    HW222557   0.018   3.253   2.617 -1.5066  3.2287  0.0340
 3641SOL     OW22558   0.624   0.925   6.570  0.4214  0.1127  0.2812
 3641SOL    HW122559   0.705   0.908   6.523  0.0883 -1.7195  0.3725
 3641SOL    HW222560   0.592   0.992   6.510 -0.8311  0.3987  1.2560
 3642SOL     OW22561   3.599   0.522  15.484 -0.5971  0.3431 -0.0842
 3642SOL    HW122562   3.573   0.436  15.452 -3.2776  2.2913 -3.1813
 3642SOL    HW222563   3.599   0.573  15.403 -1.0009 -1.7785 -1.4132
 3643SOL     OW22564   1.627   0.878   4.984 -0.3279 -0.1944  0.3361
 3643SOL    HW122565   1.593   0.967   4.988 -3.1764 -1.1922 -1.3682
 3643SOL    HW222566   1.556   0.839   4.933  0.0457  1.3213 -1.3379
 3644SOL     OW22567   2.781   0.665   4.406  0.1832 -0.1244  0.1684
 3644SOL    HW122568   2.721   0.699   4.339 -0.0406 -0.8028  0.0240
 3644SOL    HW222569   2.853   0.641   4.346  1.0337 -1.9433  1.9320
 3645SOL     OW22570   4.560   2.625  11.975  0.0882  0.6044 -0.0662
 3645SOL    HW122571   4.539   2.533  11.960 -0.4095  0.8526 -0.9037
 3645SOL    HW222572   4.493   2.675  11.928 -2.0111 -2.3462 -0.2082
 3646SOL     OW22573   3.345   4.030   4.456 -0.0251 -0.2975  0.7565
 3646SOL    HW122574   3.350   3.942   4.492  0.9009 -0.4352  0.2958
 3646SOL    HW222575   3.366   4.022   4.362  0.1872 -1.8620  0.9422
 3647SOL     OW22576   1.215   1.974   8.897 -0.4146 -0.5977 -0.5234
 3647SOL    HW122577   1.158   1.991   8.821 -0.4516  0.7257 -0.1940
 3647SOL    HW222578   1.261   1.891   8.882  1.0521  0.1793 -0.2449
 3648SOL     OW22579   4.360   3.936   9.413  0.1126  0.6660  0.0630
 3648SOL    HW122580   4.330   4.001   9.477 -2.6242 -1.8658  1.3108
 3648SOL    HW222581   4.425   3.882   9.457 -3.0910 -0.0697  3.8695
 3649SOL     OW22582   4.250   4.722   5.283  0.0147 -0.0437 -0.1999
 3649SOL    HW122583   4.287   0.073   5.289  1.7111 -0.5653 -3.6332
 3649SOL    HW222584   4.176   0.000   5.224  1.0688  0.8260 -1.2868
 3650SOL     OW22585   0.043   2.794   7.563  0.6254 -0.7610 -0.1940
 3650SOL    HW122586   0.091   2.815   7.644 -2.3132  1.7094  0.8803
 3650SOL    HW222587   4.708   2.856   7.567 -0.2211 -1.6895 -1.1606
 3651SOL     OW22588   4.585   2.967   6.406 -0.7840 -0.3059  0.5001
 3651SOL    HW122589   4.544   2.880   6.413  0.0112 -0.8974 -2.2351
 3651SOL    HW222590   4.676   2.936   6.410 -0.3778  0.9381  0.8134
 3652SOL     OW22591   0.832   0.315  11.746 -0.2408  0.3319  0.0582
 3652SOL    HW122592   0.740   0.311  11.718 -1.2952  1.5022  3.2479
 3652SOL    HW222593   0.844   0.406  11.771  0.2706  0.5262 -0.9269
 3653SOL     OW22594   4.370   0.393   1.288  0.1861 -0.1650 -0.0554
 3653SOL    HW122595   4.411   0.469   1.246 -2.1607  1.3830  0.4538
 3653SOL    HW222596   4.414   0.332   1.229  2.4771  1.6815 -0.2900
 3654SOL     OW22597   3.982   2.704   5.140 -0.6371 -0.3874  0.3713
 3654SOL    HW122598   4.031   2.786   5.148 -1.3285  0.0005  0.6609
 3654SOL    HW222599   3.911   2.742   5.088 -0.4799 -1.5585 -0.6879
 3655SOL     OW22600   1.804   0.842   7.904  0.2495 -0.0310 -0.4931
 3655SOL    HW122601   1.855   0.799   7.834 -0.5751  0.3716 -1.3406
 3655SOL    HW222602   1.868   0.907   7.932  2.0384 -0.9693 -2.3807
 3656SOL     OW22603   0.618   1.360   6.284  0.6638  0.0142 -1.0260
 3656SOL    HW122604   0.629   1.379   6.377 -2.6602 -0.2044 -0.5783
 3656SOL    HW222605   0.583   1.271   6.278  0.6644  0.0885 -2.0616
 3657SOL     OW22606   3.442   2.994   4.652  0.3200  0.2971 -0.0579
 3657SOL    HW122607   3.517   3.044   4.620 -0.3144  0.3015 -1.5104
 3657SOL    HW222608   3.386   2.986   4.575 -0.5654 -0.1893  0.6414
 3658SOL     OW22609   3.988   1.727   2.912  0.0153  0.1729  0.4221
 3658SOL    HW122610   3.920   1.787   2.942  0.6860  1.7744 -1.2560
 3658SOL    HW222611   3.987   1.650   2.968 -0.1631 -0.8838 -1.0355
 3659SOL     OW22612   3.609   2.953   6.429  0.0218  0.0141  0.3343
 3659SOL    HW122613   3.626   3.028   6.485 -1.4933 -0.6884  1.7260
 3659SOL    HW222614   3.580   2.997   6.349  0.7178  0.2818  0.2307
 3660SOL     OW22615   4.247   1.123  11.144  0.1404  0.5064  0.2822
 3660SOL    HW122616   4.310   1.128  11.072  2.1046 -0.7541  1.9281
 3660SOL    HW222617   4.295   1.126  11.227  2.3395  1.7258 -1.0215
 3661SOL     OW22618   2.213   0.629   9.009 -0.0465  0.6255  0.0787
 3661SOL    HW122619   2.236   0.706   9.061  2.9481 -0.1841 -0.0821
 3661SOL    HW222620   2.272   0.565   9.047  0.5493  0.8453 -0.4808
 3662SOL     OW22621   4.647   2.153  15.028  0.0485  0.3087  0.1415
 3662SOL    HW122622   4.579   2.086  15.023 -0.7250  1.3910 -3.5562
 3662SOL    HW222623   4.702   2.131  14.953  0.1915  0.8248  0.0927
 3663SOL     OW22624   1.211   0.615   7.486  0.4166 -0.1047 -0.5358
 3663SOL    HW122625   1.305   0.597   7.475  0.4938 -0.2686  0.4077
 3663SOL    HW222626   1.213   0.699   7.532 -0.3938  0.5467 -1.6855
 3664SOL     OW22627   2.092   3.110   4.619  0.0586 -0.0478  0.8934
 3664SOL    HW122628   2.020   3.071   4.668 -0.3789 -1.8632 -1.1792
 3664SOL    HW222629   2.170   3.061   4.644 -0.4478 -1.2835  0.0649
 3665SOL     OW22630   4.102   0.874   5.996  0.0788 -0.5192 -0.1094
 3665SOL    HW122631   4.093   0.956   5.948  2.6900  0.6921  1.4574
 3665SOL    HW222632   4.060   0.913   6.073 -0.8146  0.5671 -1.1458
 3666SOL     OW22633   3.723   2.901  10.451 -1.1396 -0.1703 -0.1535
 3666SOL    HW122634   3.732   2.807  10.465 -0.1550 -0.3122 -1.7159
 3666SOL    HW222635   3.726   2.906  10.356 -1.1734 -1.7658 -0.2387
 3667SOL     OW22636   4.127   1.272   8.822  0.3922 -0.7754 -0.3069
 3667SOL    HW122637   4.162   1.212   8.888 -0.5351  0.5645  1.3978
 3667SOL    HW222638   4.215   1.294   8.792  0.5663  0.7624  1.3833
 3668SOL     OW22639   0.874   3.425   5.224  0.5232 -0.1646  0.0820
 3668SOL    HW122640   0.894   3.504   5.174  0.4784 -0.7982 -0.9460
 3668SOL    HW222641   0.831   3.363   5.164 -0.9035 -0.3676  1.3125
 3669SOL     OW22642   4.257   0.095   8.231 -0.0685 -0.1617 -1.0037
 3669SOL    HW122643   4.338   0.120   8.275 -1.6304 -0.9206  2.3586
 3669SOL    HW222644   4.198   0.165   8.259 -0.9216 -1.0270 -0.6211
 3670SOL     OW22645   2.061   0.457   9.260  0.2651 -0.1946  0.1385
 3670SOL    HW122646   2.007   0.383   9.230  1.9350 -0.1999 -2.7762
 3670SOL    HW222647   2.142   0.437   9.214  1.5136  0.8464  1.8737
 3671SOL     OW22648   3.930   3.900   6.001  0.1799  0.6287 -0.2169
 3671SOL    HW122649   4.004   3.961   6.003  1.9828 -1.5406 -0.6064
 3671SOL    HW222650   3.978   3.819   5.983  0.4248  0.4097  1.4383
 3672SOL     OW22651   3.037   2.730  17.417  0.0895 -0.2558  0.4000
 3672SOL    HW122652   3.046   2.797  17.349  0.0286 -0.6672 -0.0145
 3672SOL    HW222653   3.102   2.664  17.394  1.3397  1.2348 -0.3350
 3673SOL     OW22654   1.834   0.395   5.997  0.5709 -0.5788 -0.8885
 3673SOL    HW122655   1.881   0.372   6.077 -1.8556  1.2530  1.0808
 3673SOL    HW222656   1.888   0.468   5.969 -0.1249 -0.3663 -1.6928
 3674SOL     OW22657   0.607   1.200   2.488  0.0178 -0.2854  0.1264
 3674SOL    HW122658   0.607   1.209   2.584 -1.9599 -0.7693  0.1737
 3674SOL    HW222659   0.675   1.266   2.473 -0.3592 -0.2345 -1.3474
 3675SOL     OW22660   1.448   2.652   4.209  0.3686 -0.0008 -0.3513
 3675SOL    HW122661   1.406   2.733   4.236 -0.6256 -1.4220  2.2756
 3675SOL    HW222662   1.521   2.645   4.271  1.1603 -4.2917 -1.7468
 3676SOL     OW22663   1.644   0.802   9.274  0.2050  0.0428 -0.3095
 3676SOL    HW122664   1.612   0.734   9.215 -0.2707 -0.4137  0.4758
 3676SOL    HW222665   1.686   0.753   9.344  2.2404  2.8291  0.4387
 3677SOL     OW22666   1.891   2.748   7.297 -0.3816  0.1670  0.0583
 3677SOL    HW122667   1.943   2.821   7.264  1.3214 -1.1758 -0.2334
 3677SOL    HW222668   1.807   2.772   7.259 -0.2136 -0.5690 -0.7649
 3678SOL     OW22669   3.863   0.064   3.916 -0.5210  0.0996  0.3672
 3678SOL    HW122670   3.859   4.723   3.862 -0.2357  2.8609 -3.6614
 3678SOL    HW222671   3.955   0.092   3.911 -0.6768  0.8139  1.4860
 3679SOL     OW22672   0.405   0.156   6.737 -0.0008  0.7146  0.1461
 3679SOL    HW122673   0.328   0.148   6.794 -0.4728 -0.5865 -0.6809
 3679SOL    HW222674   0.433   0.244   6.762 -1.2466  0.9950  0.5825
 3680SOL     OW22675   1.553   0.645  11.537  0.2030  0.1906  0.0004
 3680SOL    HW122676   1.501   0.693  11.474 -0.1329 -0.9754 -0.6145
 3680SOL    HW222677   1.510   0.562  11.561  2.3431 -0.7754  0.4962
 3681SOL     OW22678   2.530   1.994   6.670 -0.3494  0.5654  0.1018
 3681SOL    HW122679   2.582   2.074   6.663  1.1328 -0.4355 -0.4400
 3681SOL    HW222680   2.499   2.001   6.580  1.4036  0.5940 -0.5020
 3682SOL     OW22681   3.954   0.259   6.331  0.1732 -0.4145  0.4871
 3682SOL    HW122682   4.011   0.240   6.256  1.8950 -0.4181  1.8129
 3682SOL    HW222683   3.954   0.354   6.322  1.0043 -0.5160 -0.6371
 3683SOL     OW22684   2.182   3.981   0.680  0.5199 -0.3407  0.3982
 3683SOL    HW122685   2.222   4.033   0.749 -0.8647  1.9597 -0.5438
 3683SOL    HW222686   2.105   4.037   0.670  0.4223 -0.9937 -2.5740
 3684SOL     OW22687   2.570   4.543   7.593  0.2467 -0.2500 -0.1608
 3684SOL    HW122688   2.552   4.467   7.649 -2.0678  0.3666 -0.0765
 3684SOL    HW222689   2.483   4.581   7.583 -0.6360 -1.8036  1.4837
 3685SOL     OW22690   3.520   0.400   6.436 -0.5940  0.1733 -0.0874
 3685SOL    HW122691   3.457   0.464   6.402  1.1430  0.2359 -3.1907
 3685SOL    HW222692   3.560   0.357   6.360 -2.2686  0.5249 -1.1846
 3686SOL     OW22693   3.991   1.184   4.139  0.5069 -0.1914  0.6786
 3686SOL    HW122694   4.047   1.260   4.126  1.6294 -1.5514 -2.2944
 3686SOL    HW222695   3.905   1.224   4.153 -0.0843 -1.0623 -0.5188
 3687SOL     OW22696   3.852   1.539   2.141 -0.4819  0.4836 -0.5604
 3687SOL    HW122697   3.886   1.465   2.191 -0.6164 -2.0042 -4.2027
 3687SOL    HW222698   3.826   1.504   2.056  2.8594 -0.7644 -1.0626
 3688SOL     OW22699   1.415   3.068   5.762  0.0974  0.4717  0.2795
 3688SOL    HW122700   1.365   3.094   5.839 -0.2822  1.8429 -0.4344
 3688SOL    HW222701   1.487   3.020   5.802 -2.1847 -3.4339 -0.2771
 3689SOL     OW22702   2.257   1.729   7.010 -0.0715 -0.0845  0.2049
 3689SOL    HW122703   2.341   1.758   6.977  0.3005 -1.4742 -0.0789
 3689SOL    HW222704   2.247   1.775   7.093 -2.5221  2.3690 -1.4391
 3690SOL     OW22705   1.797   1.872   4.098 -0.1365 -0.2379 -0.4079
 3690SOL    HW122706   1.827   1.951   4.053  0.9142 -0.2568  0.2622
 3690SOL    HW222707   1.767   1.822   4.022 -1.4955 -0.4895  0.2935
 3691SOL     OW22708   4.721   2.814   6.808 -0.7004 -0.3147  0.0105
 3691SOL    HW122709   0.046   2.840   6.740  0.6224  1.3788  1.8437
 3691SOL    HW222710   0.016   2.726   6.826  1.6265  0.4665 -0.3302
 3692SOL     OW22711   2.331   2.461  15.981  0.8603  0.0507 -0.2815
 3692SOL    HW122712   2.276   2.531  15.945 -1.2766 -0.4210  2.0342
 3692SOL    HW222713   2.316   2.385  15.925 -0.9478 -0.5565  1.0319
 3693SOL     OW22714   4.679   3.888   3.507  0.4613 -0.2202  0.5448
 3693SOL    HW122715   4.725   3.941   3.572 -1.0452  0.1346  1.3350
 3693SOL    HW222716   4.585   3.897   3.526  0.1096 -2.1614 -0.2864
 3694SOL     OW22717   0.111   0.137  12.764 -0.0926  0.1252  0.5599
 3694SOL    HW122718   0.065   0.068  12.812 -0.0475 -0.3540 -0.0837
 3694SOL    HW222719   0.195   0.095  12.780  0.3517  1.4574  1.6651
 3695SOL     OW22720   3.791   3.693   6.715  0.3873  0.3281  0.0150
 3695SOL    HW122721   3.843   3.630   6.765 -0.7174 -0.6375 -0.0456
 3695SOL    HW222722   3.808   3.676   6.622  0.9597  1.6153 -0.1152
 3696SOL     OW22723   1.535   3.735   3.794 -0.2659  0.1822  0.9594
 3696SOL    HW122724   1.596   3.673   3.753 -2.1715 -0.3922 -1.0422
 3696SOL    HW222725   1.585   3.805   3.835 -0.8965  0.3270  1.4860
 3697SOL     OW22726   0.112   2.463   5.448  0.8259 -0.2520  0.4714
 3697SOL    HW122727   0.089   2.481   5.539  0.2484 -1.4484  0.5557
 3697SOL    HW222728   0.034   2.424   5.410 -0.1208  1.7736  0.3305
 3698SOL     OW22729   1.690   4.421  16.534 -0.7019 -0.3261  0.3799
 3698SOL    HW122730   1.608   4.460  16.504  0.0809  0.6329 -0.5192
 3698SOL    HW222731   1.761   4.475  16.500  1.2836 -1.7403  2.2557
 3699SOL     OW22732   2.862   3.804  15.752 -0.7171  0.7727  0.1759
 3699SOL    HW122733   2.920   3.817  15.677 -0.6775 -0.0593  0.0555
 3699SOL    HW222734   2.802   3.733  15.729 -2.1383  1.8492  0.5906
 3700SOL     OW22735   1.606   0.977   7.004  0.1704 -0.0738  0.0894
 3700SOL    HW122736   1.675   0.920   7.037  0.7718  0.1519 -0.7723
 3700SOL    HW222737   1.535   0.920   6.978 -2.2155  2.2633  1.4480
 3701SOL     OW22738   4.526   1.461   4.952 -0.5779 -0.3351 -0.1054
 3701SOL    HW122739   4.598   1.447   4.891  1.5278  0.3187  2.2071
 3701SOL    HW222740   4.537   1.551   4.981  0.3742  0.0859 -1.8128
 3702SOL     OW22741   4.667   0.647   5.181  0.5280 -0.3454 -0.1322
 3702SOL    HW122742   0.006   0.593   5.160 -0.0833 -1.8324  1.4718
 3702SOL    HW222743   4.595   0.588   5.156  0.6089 -0.1051 -0.9243
 3703SOL     OW22744   0.169   4.255   3.474 -0.3367  0.1040  0.9248
 3703SOL    HW122745   0.117   4.251   3.555  0.7117 -1.1427  1.5368
 3703SOL    HW222746   0.128   4.195   3.411 -2.7967  0.6204  2.0099
 3704SOL     OW22747   1.753   0.032   7.342  0.2287  0.2478  0.2516
 3704SOL    HW122748   1.787   0.094   7.278 -0.3826  0.7524  0.4236
 3704SOL    HW222749   1.834   4.718   7.349  0.2746 -0.0026 -2.0210
 3705SOL     OW22750   3.275   3.068   8.574 -0.2319 -0.1134  0.2690
 3705SOL    HW122751   3.191   3.052   8.531 -0.2629  0.3607  0.1440
 3705SOL    HW222752   3.261   3.158   8.604  0.3384 -0.1061  0.5243
 3706SOL     OW22753   3.767   2.047   6.776 -0.7630  0.4025 -0.6511
 3706SOL    HW122754   3.687   2.047   6.723  0.1247  0.6448 -1.9897
 3706SOL    HW222755   3.765   1.956   6.804  2.4621  1.1828  2.0263
 3707SOL     OW22756   4.567   2.939   9.944  0.2209 -0.0813  0.6918
 3707SOL    HW122757   4.540   2.857   9.901  0.8408 -0.8679  1.8257
 3707SOL    HW222758   4.625   2.972   9.875  1.8743  0.5611  2.3991
 3708SOL     OW22759   1.372   1.561   4.541  0.3441  0.1928 -0.1664
 3708SOL    HW122760   1.447   1.544   4.485 -1.5228 -0.8664 -2.3666
 3708SOL    HW222761   1.369   1.655   4.558 -0.5677 -0.0931  1.3175
 3709SOL     OW22762   3.551   2.349   2.240 -0.1579 -0.1371 -0.0592
 3709SOL    HW122763   3.635   2.384   2.210  0.2765 -0.2187  1.0786
 3709SOL    HW222764   3.571   2.317   2.327 -0.3136 -2.2533 -0.8120
 3710SOL     OW22765   2.018   2.479   2.948  0.1570 -0.2337 -0.0751
 3710SOL    HW122766   2.008   2.542   2.877 -0.1733  1.4702  1.4580
 3710SOL    HW222767   2.030   2.395   2.904  2.4313 -0.4407  0.9564
 3711SOL     OW22768   4.503   3.085   5.911  0.3125 -0.5450  0.0883
 3711SOL    HW122769   4.439   3.014   5.906  1.6525 -1.7566  0.1943
 3711SOL    HW222770   4.505   3.088   6.007  0.0660  4.5950 -0.0322
 3712SOL     OW22771   4.631   1.398   9.206 -0.4349  0.0726 -0.4864
 3712SOL    HW122772   4.707   1.438   9.165  0.7319 -0.0992  1.5068
 3712SOL    HW222773   4.557   1.441   9.163 -0.3035 -0.3444 -1.1164
 3713SOL     OW22774   0.413   4.375   4.675 -0.1219  0.0108 -0.1907
 3713SOL    HW122775   0.420   4.296   4.729 -1.4725  1.6580  2.4263
 3713SOL    HW222776   0.506   4.374   4.655 -0.6609 -1.0774 -2.5982
 3714SOL     OW22777   1.735   4.611  13.251 -0.0133  0.3226 -0.7040
 3714SOL    HW122778   1.736   4.676  13.181  2.4009 -1.5542 -2.3581
 3714SOL    HW222779   1.806   4.642  13.308  0.9527 -2.3355 -0.4699
 3715SOL     OW22780   1.783   3.641   4.008  0.1536 -0.1247  0.1078
 3715SOL    HW122781   1.780   3.613   4.099  0.4809 -1.5528 -0.3192
 3715SOL    HW222782   1.725   3.717   4.019 -2.2773 -1.7735 -1.2620
 3716SOL     OW22783   4.465   3.946  11.793 -0.6155 -0.0564 -0.6801
 3716SOL    HW122784   4.500   4.013  11.852  1.2520  0.5997 -2.5240
 3716SOL    HW222785   4.540   3.910  11.746 -0.5287 -1.3654  0.4500
 3717SOL     OW22786   0.027   3.297   8.461  0.2312 -0.3142  0.2163
 3717SOL    HW122787   4.689   3.344   8.495 -0.1095 -1.9541  1.7377
 3717SOL    HW222788   0.020   3.218   8.515 -2.9048 -1.0188 -1.2095
 3718SOL     OW22789   0.793   2.694  11.138 -0.1334  0.1532  0.5933
 3718SOL    HW122790   0.797   2.678  11.233  1.5004 -0.0675  0.4901
 3718SOL    HW222791   0.769   2.609  11.103  0.4798  0.9669 -1.8071
 3719SOL     OW22792   1.153   2.181  15.368 -0.2117  0.1637 -0.1612
 3719SOL    HW122793   1.139   2.135  15.451  0.1586 -2.2023 -1.4207
 3719SOL    HW222794   1.237   2.223  15.386  0.6334 -2.8312  2.9616
 3720SOL     OW22795   3.731   0.042   9.253 -0.1935  0.0782 -0.3874
 3720SOL    HW122796   3.784   0.059   9.175  0.7557 -0.4820  0.1356
 3720SOL    HW222797   3.670   0.116   9.252  0.7235  0.8504  0.3494
 3721SOL     OW22798   2.498   2.034  11.096  0.1527 -0.1228 -0.2287
 3721SOL    HW122799   2.531   1.971  11.160 -2.9834  0.0556  1.5870
 3721SOL    HW222800   2.577   2.087  11.085  0.8791 -1.3117 -0.6235
 3722SOL     OW22801   0.019   2.010   5.591 -0.1767  0.3547  0.3543
 3722SOL    HW122802   0.062   2.061   5.660 -0.0463 -1.1194  1.3462
 3722SOL    HW222803   0.026   1.923   5.629  2.4108 -0.6558 -2.4141
 3723SOL     OW22804   2.641   3.537   4.987 -0.3650 -0.2922  0.0435
 3723SOL    HW122805   2.701   3.547   5.060  2.7575 -1.7525 -2.3374
 3723SOL    HW222806   2.558   3.525   5.034  0.7274 -2.0873  1.5173
 3724SOL     OW22807   2.810   0.620   9.915 -0.0894 -0.0602  0.5554
 3724SOL    HW122808   2.840   0.709   9.931  2.3630 -0.9801  1.1909
 3724SOL    HW222809   2.891   0.569   9.920  0.7155  0.9187 -2.5459
 3725SOL     OW22810   2.611   1.126   1.819  0.1336  0.0073 -0.2978
 3725SOL    HW122811   2.601   1.123   1.724  0.4693 -0.7224 -0.3104
 3725SOL    HW222812   2.703   1.151   1.833 -0.8468  1.2790  3.9162
 3726SOL     OW22813   3.321   0.736  11.268 -0.0581  0.3006 -0.2337
 3726SOL    HW122814   3.272   0.816  11.249 -0.2130  0.7542  2.0680
 3726SOL    HW222815   3.410   0.771  11.269  0.3981 -0.8584 -0.1082
 3727SOL     OW22816   1.842   4.135   3.845  0.3604 -0.0794  0.1960
 3727SOL    HW122817   1.901   4.200   3.807  1.2523 -2.1856 -2.0058
 3727SOL    HW222818   1.755   4.158   3.813  0.5360  2.0747  1.2573
 3728SOL     OW22819   2.815   0.506   3.939 -0.5167 -0.2374  0.4481
 3728SOL    HW122820   2.725   0.514   3.908 -1.0256 -1.4064  1.6393
 3728SOL    HW222821   2.843   0.425   3.896 -0.8838  0.2960 -0.8166
 3729SOL     OW22822   0.004   1.111   6.186 -0.0435 -0.3802  0.2456
 3729SOL    HW122823   0.097   1.109   6.164 -0.0455 -1.3899  0.2852
 3729SOL    HW222824   0.008   1.067   6.271 -0.3208  1.9522  1.4658
 3730SOL     OW22825   0.132   4.365   2.987 -0.0696  0.0287  0.4188
 3730SOL    HW122826   0.205   4.306   3.005 -1.8696 -1.7440  1.8216
 3730SOL    HW222827   0.098   4.377   3.075  0.1408  2.2713  0.1955
 3731SOL     OW22828   2.397   0.930   4.435  0.2183 -0.1395  0.2575
 3731SOL    HW122829   2.431   0.900   4.519  0.4011  0.2002  0.3036
 3731SOL    HW222830   2.484   0.939   4.396 -0.8252  1.1396 -1.7557
 3732SOL     OW22831   3.521   1.224   4.194  0.2317 -0.0904  0.3083
 3732SOL    HW122832   3.519   1.168   4.116 -1.8950  0.0802  0.2477
 3732SOL    HW222833   3.459   1.181   4.253  0.1437 -1.6935 -0.9568
 3733SOL     OW22834   1.722   4.384   1.643 -0.3479 -0.4085 -0.2678
 3733SOL    HW122835   1.783   4.400   1.570  1.7167 -1.7492  1.1838
 3733SOL    HW222836   1.792   4.395   1.706 -0.3090 -1.0519 -0.2020
 3734SOL     OW22837   0.479   3.372   6.017  0.4873 -0.2913 -0.0233
 3734SOL    HW122838   0.435   3.456   6.006 -1.9025 -1.3779  1.2499
 3734SOL    HW222839   0.438   3.335   5.939  0.1676  1.2356 -0.5797
 3735SOL     OW22840   2.895   1.434   1.173  0.0404 -0.4778 -0.3322
 3735SOL    HW122841   2.848   1.501   1.125  0.8063  0.8059  0.7139
 3735SOL    HW222842   2.974   1.482   1.199 -1.9379  2.3076  0.4601
 3736SOL     OW22843   1.072   3.513   7.159  0.4052 -0.1754 -0.2589
 3736SOL    HW122844   1.019   3.583   7.120  0.5978 -0.6770 -1.4212
 3736SOL    HW222845   1.078   3.551   7.247 -1.6451  0.5431 -0.4362
 3737SOL     OW22846   2.948   3.180   2.278 -0.7387 -0.6013  0.2752
 3737SOL    HW122847   3.017   3.132   2.325 -0.2966 -0.5396 -0.3204
 3737SOL    HW222848   2.868   3.137   2.309 -0.1346 -1.2265  0.9751
 3738SOL     OW22849   4.233   0.345   9.489  0.3888  0.3619  0.4446
 3738SOL    HW122850   4.275   0.270   9.530 -4.4569 -1.6843  1.5858
 3738SOL    HW222851   4.269   0.342   9.400  1.1542 -0.3577  0.7817
 3739SOL     OW22852   0.998   0.513   3.400 -0.2277 -0.1050  0.4343
 3739SOL    HW122853   0.987   0.606   3.419 -1.1817  0.0662 -0.9956
 3739SOL    HW222854   0.907   0.492   3.382 -0.7328  1.0688  1.6327
 3740SOL     OW22855   1.360   4.625   3.706 -0.0559  0.0599  0.4804
 3740SOL    HW122856   1.435   4.683   3.715  0.1590 -0.0843 -0.3816
 3740SOL    HW222857   1.367   4.608   3.612  0.5817  0.9754  0.3573
 3741SOL     OW22858   2.155   1.579  14.446 -0.1683 -0.4939  0.2971
 3741SOL    HW122859   2.190   1.604  14.532 -0.5356  2.2831 -0.3868
 3741SOL    HW222860   2.076   1.531  14.473  0.5339 -0.5337  2.2667
 3742SOL     OW22861   1.766   3.855   9.906  0.1387 -0.4346 -0.0209
 3742SOL    HW122862   1.806   3.886   9.987 -0.8517 -2.4362  1.2155
 3742SOL    HW222863   1.823   3.901   9.844  0.7428 -2.1805 -0.7725
 3743SOL     OW22864   4.355   2.101  17.363 -0.4699  0.0911  0.4738
 3743SOL    HW122865   4.299   2.024  17.363  0.9713 -0.9596  0.4835
 3743SOL    HW222866   4.381   2.106  17.456 -0.7784  0.7843  0.5254
 3744SOL     OW22867   0.246   3.559   4.098 -0.1172  0.2612  0.7957
 3744SOL    HW122868   0.155   3.586   4.082 -0.3645 -0.1114  1.5917
 3744SOL    HW222869   0.263   3.564   4.192 -1.5107  0.7169  1.0282
 3745SOL     OW22870   0.581   0.876   3.204  0.9518  0.1076  0.7962
 3745SOL    HW122871   0.549   0.832   3.125  4.4517  0.1071 -0.6077
 3745SOL    HW222872   0.660   0.822   3.213  0.5542 -0.8182 -1.2435
 3746SOL     OW22873   1.718   4.345  16.858  0.2163 -0.3482  0.6417
 3746SOL    HW122874   1.716   4.440  16.869 -1.5972 -0.0636 -2.0192
 3746SOL    HW222875   1.756   4.329  16.771  2.9115 -0.8236  1.8825
 3747SOL     OW22876   4.169   4.034  12.169  0.5969 -0.3459 -0.0145
 3747SOL    HW122877   4.122   3.963  12.213  0.2476 -0.7210 -1.0143
 3747SOL    HW222878   4.182   3.991  12.085  0.5172  0.6490 -0.5274
 3748SOL     OW22879   4.690   1.973   4.458  0.1658 -0.0291  0.3330
 3748SOL    HW122880   0.018   1.989   4.526 -0.4876  0.7294  0.7937
 3748SOL    HW222881   0.003   1.920   4.396 -0.8799 -1.7910  0.9739
 3749SOL     OW22882   2.143   4.592  11.161  0.0691 -0.0663  0.1635
 3749SOL    HW122883   2.062   4.566  11.117  0.1460  0.5420 -0.3430
 3749SOL    HW222884   2.212   4.546  11.113 -0.3501 -2.6546  2.0213
 3750SOL     OW22885   0.889   2.152   4.081  0.7931 -0.2138  0.4815
 3750SOL    HW122886   0.900   2.245   4.065 -2.8293  0.3181  1.1774
 3750SOL    HW222887   0.961   2.126   4.139 -0.6007 -1.3666  1.7200
 3751SOL     OW22888   4.199   0.068   4.706  0.4124 -0.5804 -0.0356
 3751SOL    HW122889   4.282   0.103   4.675  0.8866 -1.2770  0.4678
 3751SOL    HW222890   4.195   4.732   4.644 -0.3684  0.3431 -1.0826
 3752SOL     OW22891   1.869   0.248   8.276 -0.3774 -0.2708  0.3255
 3752SOL    HW122892   1.882   0.314   8.208 -0.4438  0.9178  1.4868
 3752SOL    HW222893   1.858   0.166   8.227 -1.3190 -0.1121  0.2829
 3753SOL     OW22894   4.575   1.713   1.446  0.1116 -0.2080  0.2627
 3753SOL    HW122895   4.600   1.664   1.525  0.3902  0.7207  0.7429
 3753SOL    HW222896   4.658   1.744   1.409 -0.0212 -1.5115 -1.1229
 3754SOL     OW22897   1.587   2.776  17.424  0.3849  0.8317  0.1626
 3754SOL    HW122898   1.526   2.737  17.361  0.1639  0.6988  0.4640
 3754SOL    HW222899   1.670   2.749  17.384 -0.2876 -1.5253  0.3808
 3755SOL     OW22900   2.419   2.816   1.528  0.2385  0.2277 -0.8563
 3755SOL    HW122901   2.341   2.816   1.472  0.1947 -0.6608 -0.7967
 3755SOL    HW222902   2.476   2.773   1.465  0.3894 -1.0608  0.1673
 3756SOL     OW22903   1.649   0.911  15.605 -0.2936 -0.3529 -0.1070
 3756SOL    HW122904   1.677   0.835  15.656  2.4965  2.2903  2.2695
 3756SOL    HW222905   1.617   0.870  15.525 -1.8989 -0.0694  0.3946
 3757SOL     OW22906   0.304   0.134   4.075  0.2156 -0.3691  0.2450
 3757SOL    HW122907   0.379   0.135   4.136  0.8220 -0.1615 -0.5089
 3757SOL    HW222908   0.240   0.195   4.112  0.5058 -0.0783  0.2727
 3758SOL     OW22909   4.311   4.454   5.368 -0.3245  0.0333  0.1371
 3758SOL    HW122910   4.382   4.497   5.415 -1.9259  2.4440  0.3725
 3758SOL    HW222911   4.285   4.525   5.310  0.3090 -0.1668 -0.3752
 3759SOL     OW22912   2.205   0.424  11.771 -0.8416 -0.2587  0.4876
 3759SOL    HW122913   2.180   0.363  11.840 -1.9898  0.7587  0.9805
 3759SOL    HW222914   2.172   0.385  11.689  2.2383  0.9816 -1.3416
 3760SOL     OW22915   4.198   2.803   3.595  0.5848  0.4167  0.2925
 3760SOL    HW122916   4.116   2.846   3.619  0.7980  0.3343  1.1585
 3760SOL    HW222917   4.166   2.718   3.567  0.0861 -0.0267  2.2147
 3761SOL     OW22918   1.150   4.236   4.754  0.1650  0.3652 -0.4611
 3761SOL    HW122919   1.132   4.177   4.681  0.4193 -0.3643  0.0601
 3761SOL    HW222920   1.069   4.221   4.802  0.0527  0.0253 -0.7551
 3762SOL     OW22921   1.848   3.314  12.999  0.3046  0.0616  0.0202
 3762SOL    HW122922   1.932   3.268  12.996  0.2610 -0.1108  1.4657
 3762SOL    HW222923   1.875   3.396  13.039  0.6519  1.1305 -2.4201
 3763SOL     OW22924   2.911   1.238   7.940 -0.0146 -0.4111  0.4624
 3763SOL    HW122925   2.871   1.270   7.859 -0.8228  1.0125  1.4268
 3763SOL    HW222926   2.866   1.285   8.010  2.4895  0.1136  1.6962
 3764SOL     OW22927   1.219   2.136   6.335 -0.2223  0.2757  0.2933
 3764SOL    HW122928   1.219   2.178   6.420 -0.2794  3.2565 -1.1735
 3764SOL    HW222929   1.125   2.143   6.324 -0.2914 -2.4516 -0.8683
 3765SOL     OW22930   2.464   2.002   8.555  0.3436  0.0805  0.7256
 3765SOL    HW122931   2.435   2.082   8.599  0.4313 -1.0809  2.9090
 3765SOL    HW222932   2.481   2.035   8.467  2.8231  1.3218  1.6759
 3766SOL     OW22933   0.542   0.129  13.341  0.7301 -0.3922 -0.4225
 3766SOL    HW122934   0.450   0.126  13.367  0.3124  0.2645 -1.8266
 3766SOL    HW222935   0.567   0.215  13.308  0.4084 -0.9356 -2.0933
 3767SOL     OW22936   0.619   2.452   2.750  0.6797 -0.3515 -0.4271
 3767SOL    HW122937   0.566   2.437   2.828 -0.2933  2.0058 -0.6439
 3767SOL    HW222938   0.666   2.371   2.734  3.2142  1.0501 -0.1660
 3768SOL     OW22939   3.785   2.020   4.932 -0.6162  0.5113  0.0988
 3768SOL    HW122940   3.823   2.108   4.923 -0.0630  0.1105 -1.5186
 3768SOL    HW222941   3.715   2.043   4.993  0.4425  0.8803  1.1817
 3769SOL     OW22942   3.661   1.944   2.340  0.1209  0.5526  0.4035
 3769SOL    HW122943   3.679   2.036   2.356 -1.1092  0.6396  1.2393
 3769SOL    HW222944   3.700   1.910   2.421  1.8710  0.6557 -0.3917
 3770SOL     OW22945   3.051   4.669   7.051  0.7659  0.0060  0.0722
 3770SOL    HW122946   3.005   4.600   7.004 -3.7296  0.2342  4.1350
 3770SOL    HW222947   3.061   4.625   7.136 -0.5803 -0.0119  0.2111
 3771SOL     OW22948   3.768   2.231  10.392  0.4630 -0.3964 -0.5403
 3771SOL    HW122949   3.699   2.180  10.435 -0.6803  1.5633 -0.0473
 3771SOL    HW222950   3.809   2.271  10.469 -0.4326 -2.2614  0.9111
 3772SOL     OW22951   0.090   4.127   4.740  0.1683 -0.3728 -0.1810
 3772SOL    HW122952   0.081   4.042   4.783  0.0846  0.2862  1.1224
 3772SOL    HW222953   0.080   4.193   4.809 -0.2789 -0.0213 -0.5855
 3773SOL     OW22954   2.541   2.580  16.087 -0.0110  0.0868  0.5103
 3773SOL    HW122955   2.460   2.538  16.058 -0.3489  0.9234  0.2600
 3773SOL    HW222956   2.533   2.669  16.054  0.1950  0.7719  2.2627
 3774SOL     OW22957   4.011   0.054   0.413  0.3732  0.2703  0.0879
 3774SOL    HW122958   4.028   0.145   0.436  2.4039  0.1078 -0.6936
 3774SOL    HW222959   3.926   0.066   0.371 -1.0167  0.8261  3.0995
 3775SOL     OW22960   0.974   2.951   2.638 -0.1661 -0.2485 -0.1359
 3775SOL    HW122961   1.067   2.973   2.638 -0.2664  0.1795  1.2017
 3775SOL    HW222962   0.932   2.981   2.718  1.1423  1.7228 -0.1854
 3776SOL     OW22963   1.460   2.776   7.771  0.4905 -0.1719  0.1211
 3776SOL    HW122964   1.526   2.715   7.805  1.9074  0.4553 -1.5340
 3776SOL    HW222965   1.478   2.775   7.677  0.7685  2.4222  0.1375
 3777SOL     OW22966   3.145   0.731  16.475  0.1211 -0.2652 -0.3434
 3777SOL    HW122967   3.227   0.681  16.482  0.5787  0.4295 -0.7377
 3777SOL    HW222968   3.139   0.760  16.566 -0.3841 -3.0000  0.4753
 3778SOL     OW22969   2.579   0.611  11.207 -0.3860  0.3448 -0.2171
 3778SOL    HW122970   2.672   0.596  11.220 -0.2012 -0.1055 -2.0381
 3778SOL    HW222971   2.540   0.601  11.294 -0.4822  1.3313 -0.1420
 3779SOL     OW22972   2.566   4.559   4.883 -0.0104 -0.1038 -0.4009
 3779SOL    HW122973   2.530   4.476   4.852 -0.8886  0.6705 -1.4434
 3779SOL    HW222974   2.615   4.574   4.802  0.6678 -1.2428 -0.2122
 3780SOL     OW22975   1.912   1.333   0.490  0.7065 -0.2511  0.1974
 3780SOL    HW122976   1.978   1.401   0.480  0.1416 -0.0135 -2.1407
 3780SOL    HW222977   1.832   1.378   0.517  0.4749  1.1406 -2.7279
 3781SOL     OW22978   3.222   3.830   5.058 -0.3924  0.1221  0.5971
 3781SOL    HW122979   3.266   3.876   4.987  1.9792 -2.3023  0.5045
 3781SOL    HW222980   3.148   3.800   5.006 -0.2031 -1.1882  1.0822
 3782SOL     OW22981   2.839   1.009   8.246 -0.9116  0.7700  0.4288
 3782SOL    HW122982   2.751   1.034   8.218 -1.6423 -4.2056 -1.7857
 3782SOL    HW222983   2.817   0.985   8.336 -3.5033  0.5279 -0.2918
 3783SOL     OW22984   3.368   4.579   0.886 -0.4699  0.1644  0.3398
 3783SOL    HW122985   3.310   4.581   0.962  0.2507  1.9438  0.8238
 3783SOL    HW222986   3.451   4.607   0.924 -1.6135  2.3336  1.2435
 3784SOL     OW22987   2.999   3.026   8.504  0.2719 -0.1309  0.1286
 3784SOL    HW122988   2.991   2.962   8.433  0.3810  1.0517 -0.9578
 3784SOL    HW222989   2.922   3.082   8.496  1.1336  0.8692 -1.1926
 3785SOL     OW22990   2.329   2.388   7.054 -0.4171  0.1548 -0.1538
 3785SOL    HW122991   2.400   2.327   7.032 -0.5049  0.2308 -0.6625
 3785SOL    HW222992   2.253   2.335   7.079 -1.5006  1.9304  0.3065
 3786SOL     OW22993   0.891   3.571   6.041 -0.4051 -0.7139  0.4918
 3786SOL    HW122994   0.837   3.492   6.042  0.8137 -1.5615 -0.5598
 3786SOL    HW222995   0.827   3.629   5.999  1.2549  0.8628  0.1305
 3787SOL     OW22996   3.316   2.156   5.892  0.1626  0.3898 -0.1255
 3787SOL    HW122997   3.258   2.192   5.824 -0.3683  0.7286  0.5141
 3787SOL    HW222998   3.316   2.225   5.958 -0.1711  3.3318 -3.1478
 3788SOL     OW22999   3.645   1.562  15.415 -0.1793  0.3872 -1.0630
 3788SOL    HW123000   3.670   1.488  15.471  1.8325  0.5347 -1.7378
 3788SOL    HW223001   3.585   1.514  15.357  1.1012 -0.2413 -1.8764
 3789SOL     OW23002   2.747   0.689   3.167  0.0481 -0.3683  0.1299
 3789SOL    HW123003   2.817   0.635   3.129  1.4535 -0.0880  2.3183
 3789SOL    HW223004   2.704   0.625   3.223  1.9426 -0.7814  1.1210
 3790SOL     OW23005   0.857   3.960   0.741 -0.1491  0.2252  0.1088
 3790SOL    HW123006   0.938   3.923   0.706  0.7840  0.7309  1.6886
 3790SOL    HW223007   0.894   3.988   0.825 -0.1021 -0.6483  0.3799
 3791SOL     OW23008   1.899   0.603   2.900 -0.5618 -0.2000 -0.0316
 3791SOL    HW123009   1.923   0.608   2.993 -0.2199 -1.6277 -0.0298
 3791SOL    HW223010   1.893   0.695   2.875 -2.7564 -1.0420 -2.5637
 3792SOL     OW23011   2.922   2.612   3.409 -0.1354 -0.7414  0.2705
 3792SOL    HW123012   2.943   2.610   3.502 -0.4778 -1.1798  0.3392
 3792SOL    HW223013   2.852   2.547   3.403  0.2714 -1.1806  0.3669
 3793SOL     OW23014   4.281   2.498   6.556 -0.1721  0.8440 -0.5401
 3793SOL    HW123015   4.227   2.426   6.524  2.6565 -2.4994  2.2245
 3793SOL    HW223016   4.367   2.460   6.574 -0.4366  1.3955  1.9060
 3794SOL     OW23017   1.624   4.699   8.639  0.3444 -0.0824  0.3391
 3794SOL    HW123018   1.653   0.048   8.610  1.7821 -0.4796  0.5847
 3794SOL    HW223019   1.562   4.675   8.570  0.7414 -0.1938  0.0233
 3795SOL     OW23020   2.087   2.403  15.370  0.0536  0.2863  0.4938
 3795SOL    HW123021   2.169   2.359  15.395  0.3928  1.5718  1.6029
 3795SOL    HW223022   2.024   2.360  15.427 -1.0613 -0.3448 -1.2321
 3796SOL     OW23023   1.338   0.030   4.822 -0.2803 -0.4936  0.0246
 3796SOL    HW123024   1.425   0.057   4.849 -0.7038 -0.2805  1.1675
 3796SOL    HW223025   1.327   0.094   4.751  0.3794 -1.2949 -0.7884
 3797SOL     OW23026   2.698   0.003   2.696 -0.1029  0.0417  0.0246
 3797SOL    HW123027   2.638   0.010   2.622 -0.2548  1.1607  0.2447
 3797SOL    HW223028   2.780   4.705   2.661 -0.3945  0.1055 -0.7174
 3798SOL     OW23029   1.949   3.506   3.874  0.1989 -0.0793  0.0876
 3798SOL    HW123030   1.881   3.565   3.905  1.2924  1.1615  0.1295
 3798SOL    HW223031   2.022   3.567   3.879 -0.5249  0.7987 -0.0253
 3799SOL     OW23032   1.255   3.368   0.468 -0.6451  0.4787 -0.4603
 3799SOL    HW123033   1.169   3.410   0.470 -0.7028  0.3670 -0.6165
 3799SOL    HW223034   1.281   3.367   0.560 -1.6259 -1.8791 -0.1919
 3800SOL     OW23035   4.605   4.013   5.104  0.5196  0.0542 -0.3727
 3800SOL    HW123036   4.575   4.104   5.107  2.2665  0.5673  1.4908
 3800SOL    HW223037   4.668   4.006   5.175 -0.8742 -1.4832  0.6942
 3801SOL     OW23038   2.657   2.707   0.252 -0.6311  0.8636 -0.4974
 3801SOL    HW123039   2.744   2.744   0.236  0.7880 -1.5995  1.5094
 3801SOL    HW223040   2.636   2.713   0.159 -2.1611 -0.6080 -0.2492
 3802SOL     OW23041   1.757   0.388   7.231  0.0893  0.0932 -0.0777
 3802SOL    HW123042   1.719   0.476   7.235  0.5600  0.3232 -0.6882
 3802SOL    HW223043   1.807   0.388   7.312 -2.3361  0.5905  1.4286
 3803SOL     OW23044   4.134   0.528   3.841  0.7654  0.2035  0.7454
 3803SOL    HW123045   4.061   0.589   3.851  1.3265  0.8720  0.7890
 3803SOL    HW223046   4.112   0.468   3.770  1.3386  1.0434 -0.1595
 3804SOL     OW23047   2.651   0.695   4.653  0.2853 -0.0545  0.0707
 3804SOL    HW123048   2.703   0.758   4.702 -0.3180  0.2842  0.2705
 3804SOL    HW223049   2.707   0.701   4.576  0.7557 -0.8240  0.3519
 3805SOL     OW23050   1.352   4.143   3.282 -0.1508 -0.2191  0.5251
 3805SOL    HW123051   1.401   4.137   3.200  0.5661  0.5898  0.8938
 3805SOL    HW223052   1.295   4.067   3.285 -0.7199  0.2005  0.4451
 3806SOL     OW23053   0.554   3.086   7.177 -0.0252  0.7282  0.0403
 3806SOL    HW123054   0.638   3.133   7.180  1.1131 -1.3555  1.0800
 3806SOL    HW223055   0.506   3.148   7.122  0.7123 -0.4396 -1.9227
 3807SOL     OW23056   4.727   0.396  11.308  0.0041 -0.0058 -0.1123
 3807SOL    HW123057   4.694   0.306  11.319 -0.6450 -0.0666 -2.5166
 3807SOL    HW223058   0.060   0.380  11.246  1.4148  0.9553  1.2558
 3808SOL     OW23059   4.308   3.815  10.024 -0.4827 -0.0783 -0.5248
 3808SOL    HW123060   4.380   3.753  10.042 -0.6104 -0.0014  0.2741
 3808SOL    HW223061   4.352   3.897  10.048  0.5012 -1.3023  1.9199
 3809SOL     OW23062   1.246   1.463   3.460 -0.1443 -0.2455  0.0444
 3809SOL    HW123063   1.258   1.551   3.426 -0.1312 -0.3784 -0.2986
 3809SOL    HW223064   1.207   1.485   3.545 -0.9928  0.5023 -0.5469
 3810SOL     OW23065   2.153   1.265  11.856  0.3209 -0.1162 -0.1567
 3810SOL    HW123066   2.141   1.171  11.871 -0.6386  0.1098  0.4663
 3810SOL    HW223067   2.202   1.279  11.936  1.2819 -0.4810 -0.6805
 3811SOL     OW23068   1.897   1.950   3.642  0.0395 -0.5785 -0.1079
 3811SOL    HW123069   1.934   2.025   3.596  0.9740 -0.4843  0.7937
 3811SOL    HW223070   1.923   1.878   3.585  1.0140 -1.2177  1.1286
 3812SOL     OW23071   0.459   2.510  15.862 -0.1044  0.5178 -0.6546
 3812SOL    HW123072   0.502   2.590  15.891  1.2328 -0.3594 -0.2012
 3812SOL    HW223073   0.460   2.530  15.768 -0.6266  0.3437 -0.6935
 3813SOL     OW23074   2.907   0.729  11.533 -0.3618  0.4367 -0.6179
 3813SOL    HW123075   2.811   0.721  11.535  0.0602 -4.0916  0.7031
 3813SOL    HW223076   2.924   0.673  11.457  1.0762 -1.6820  1.2773
 3814SOL     OW23077   0.841   4.000   8.959  0.3430 -0.6929  0.5203
 3814SOL    HW123078   0.933   3.979   8.975  0.5789 -1.3437 -1.7056
 3814SOL    HW223079   0.806   3.915   8.985  0.7305 -0.6726  1.1149
 3815SOL     OW23080   2.295   1.369  11.310 -0.0266 -0.0008  0.1097
 3815SOL    HW123081   2.226   1.363  11.376 -1.8186  1.4257 -1.6263
 3815SOL    HW223082   2.375   1.355  11.361  0.8394 -0.8382 -1.4578
 3816SOL     OW23083   3.671   0.196  14.916 -0.0914  0.2782 -0.6473
 3816SOL    HW123084   3.699   0.262  14.852  0.8593  0.4547 -0.0637
 3816SOL    HW223085   3.730   0.124  14.893  2.1237  1.5481  1.0165
 3817SOL     OW23086   0.602   2.993  14.012 -0.2249  0.3441  0.2278
 3817SOL    HW123087   0.592   3.087  14.027  1.3653  0.7152 -1.0513
 3817SOL    HW223088   0.677   2.976  14.068 -0.2827  0.1323  0.2400
 3818SOL     OW23089   0.227   0.953   8.411 -0.2074  0.1939  0.2865
 3818SOL    HW123090   0.239   0.916   8.323  4.2155  0.3483  0.8251
 3818SOL    HW223091   0.264   0.881   8.462 -0.1603 -0.8326 -1.1809
 3819SOL     OW23092   0.146   1.473   7.956  0.2671 -0.1632 -0.1193
 3819SOL    HW123093   0.053   1.467   7.981 -0.2558  1.2673 -1.6514
 3819SOL    HW223094   0.150   1.568   7.943 -0.5368 -0.2942 -1.2930
 3820SOL     OW23095   0.195   2.971   4.641 -0.0413 -0.0002  0.2816
 3820SOL    HW123096   0.144   2.963   4.722 -0.2920  0.4828  0.1690
 3820SOL    HW223097   0.208   2.877   4.628 -0.0390 -0.1401  1.2984
 3821SOL     OW23098   4.210   0.560  13.363 -0.0575 -0.2647  0.1402
 3821SOL    HW123099   4.201   0.617  13.286  0.3912 -1.4875 -0.8127
 3821SOL    HW223100   4.124   0.520  13.373 -0.6567  0.1371 -3.3330
 3822SOL     OW23101   3.365   4.308   3.169 -0.5285 -0.3220 -0.0682
 3822SOL    HW123102   3.307   4.233   3.171  0.3789 -1.0567 -1.0516
 3822SOL    HW223103   3.301   4.374   3.141  2.5127  1.9448 -1.7498
 3823SOL     OW23104   4.502   0.725   3.145 -0.0515 -0.6351 -0.0850
 3823SOL    HW123105   4.423   0.740   3.198  0.3159 -0.9259  0.5425
 3823SOL    HW223106   4.492   0.630   3.135 -0.2424 -0.5657 -0.5392
 3824SOL     OW23107   2.032   2.559   5.841 -0.6514 -0.6010  0.1575
 3824SOL    HW123108   2.011   2.620   5.911 -1.8999 -0.8724  0.0177
 3824SOL    HW223109   2.119   2.531   5.869 -0.3659 -1.3677 -1.4508
 3825SOL     OW23110   0.318   1.714   1.615  0.1010  0.4965  0.2096
 3825SOL    HW123111   0.406   1.684   1.594 -0.6391 -1.7037  0.2355
 3825SOL    HW223112   0.269   1.643   1.657  3.1124 -2.0662 -0.6067
 3826SOL     OW23113   1.618   2.696   5.638 -0.3065 -0.0357  0.0983
 3826SOL    HW123114   1.596   2.736   5.723 -2.3500 -0.5647 -0.1740
 3826SOL    HW223115   1.713   2.709   5.640 -0.1602 -1.0436 -0.5512
 3827SOL     OW23116   3.525   2.936   6.024 -0.7977  0.0066  0.2015
 3827SOL    HW123117   3.442   2.912   5.983  0.3972 -0.6373 -1.8434
 3827SOL    HW223118   3.513   2.902   6.113 -0.5541 -2.0907 -0.5530
 3828SOL     OW23119   0.128   3.000   9.139  0.0474  0.1195 -0.7767
 3828SOL    HW123120   0.211   2.977   9.097 -0.2163  0.8523 -1.7216
 3828SOL    HW223121   0.074   3.037   9.069  1.2017  1.3463 -1.0288
 3829SOL     OW23122   2.712   4.681  15.178 -0.3209 -0.3295 -0.4542
 3829SOL    HW123123   2.712   4.689  15.083 -0.9005 -0.3470 -0.4600
 3829SOL    HW223124   2.668   4.597  15.191 -0.8275  0.2035  1.3962
 3830SOL     OW23125   4.606   4.674  11.851 -0.3769 -0.2911 -0.0025
 3830SOL    HW123126   4.551   4.698  11.776 -0.9674  0.1704  0.5747
 3830SOL    HW223127   4.546   4.619  11.901 -0.8031  1.3991  1.3336
 3831SOL     OW23128   3.669   1.409  17.071 -0.0531 -1.4240  0.7597
 3831SOL    HW123129   3.605   1.349  17.034  0.4373 -0.1233 -2.1874
 3831SOL    HW223130   3.732   1.423  17.001  0.7616 -0.7247  1.6310
 3832SOL     OW23131   3.009   2.341  15.485  0.0514  0.0217  0.4633
 3832SOL    HW123132   3.034   2.403  15.553  1.9392  0.1310 -0.3387
 3832SOL    HW223133   2.986   2.275  15.551 -0.8230 -1.2050 -1.0651
 3833SOL     OW23134   3.071   1.757   0.354  0.2676 -0.1244  0.5502
 3833SOL    HW123135   3.085   1.820   0.283 -0.3623 -0.9828 -0.3317
 3833SOL    HW223136   3.122   1.801   0.422  0.0925  3.0611 -1.3629
 3834SOL     OW23137   4.706   1.952   8.769  0.3266 -0.1514  0.0393
 3834SOL    HW123138   4.707   1.896   8.692  0.3334 -0.2540  0.1148
 3834SOL    HW223139   4.665   1.908   8.843  0.2665  0.2636  0.2523
 3835SOL     OW23140   4.132   1.467  16.751 -0.4424 -0.7496 -0.6616
 3835SOL    HW123141   4.180   1.510  16.822 -1.5952  1.1544 -1.0270
 3835SOL    HW223142   4.122   1.378  16.784 -0.5697 -0.2154  0.7546
 3836SOL     OW23143   0.445   3.444   8.013  0.5413 -0.4773 -0.0891
 3836SOL    HW123144   0.356   3.422   7.986  0.6039 -1.2342  0.3172
 3836SOL    HW223145   0.460   3.524   7.963  0.0796  0.7457  1.7591
 3837SOL     OW23146   3.609   1.125  10.777 -0.4087 -0.1017  0.3669
 3837SOL    HW123147   3.580   1.209  10.812 -0.6481 -0.3079  0.6639
 3837SOL    HW223148   3.592   1.140  10.684 -0.5086 -0.1308  0.3807
 3838SOL     OW23149   4.561   4.433   9.459 -0.1527  0.0991 -0.2780
 3838SOL    HW123150   4.471   4.419   9.430 -0.2733  0.9587 -0.3188
 3838SOL    HW223151   4.615   4.379   9.401  3.7523  1.8147  1.7834
 3839SOL     OW23152   3.903   0.053  15.333  0.0631  0.1429  0.1273
 3839SOL    HW123153   3.865   0.047  15.421  0.1435 -1.3883  0.0616
 3839SOL    HW223154   3.990   0.016  15.340 -0.4789 -0.8359  1.7278
 3840SOL     OW23155   4.700   0.374   3.880  0.2470 -0.1797 -0.1231
 3840SOL    HW123156   4.724   0.418   3.799 -0.6958  1.6210  0.5845
 3840SOL    HW223157   4.616   0.415   3.902  0.2885 -0.8612  1.3604
 3841SOL     OW23158   2.897   2.275   6.494  0.0302 -0.7780  0.0590
 3841SOL    HW123159   2.982   2.319   6.489 -0.6275  0.3536 -1.1410
 3841SOL    HW223160   2.881   2.282   6.400  0.7233  2.4780  0.1776
 3842SOL     OW23161   3.469   0.840   5.564 -0.1532 -0.6696 -0.2613
 3842SOL    HW123162   3.398   0.778   5.581 -0.2161 -1.0271 -1.7874
 3842SOL    HW223163   3.545   0.783   5.575  2.4234  2.2629 -2.8796
 3843SOL     OW23164   0.455   2.666  11.530 -0.0034  0.1701  0.0947
 3843SOL    HW123165   0.545   2.645  11.505 -1.2076 -1.2358 -3.0162
 3843SOL    HW223166   0.475   2.702  11.617  0.2165 -1.2134  0.6214
 3844SOL     OW23167   2.764   3.684   3.751 -0.1016 -0.1355 -0.5396
 3844SOL    HW123168   2.856   3.665   3.769 -0.0315  2.5924  1.9610
 3844SOL    HW223169   2.748   3.602   3.704  0.2406  0.4980 -1.7622
 3845SOL     OW23170   2.780   0.299   1.888  0.2200  0.1540  0.0402
 3845SOL    HW123171   2.846   0.312   1.820  0.5641  0.0846  0.3595
 3845SOL    HW223172   2.835   0.236   1.935 -0.7481 -1.0529 -0.4836
 3846SOL     OW23173   0.546   1.995   0.944 -0.0088  0.5211  0.1393
 3846SOL    HW123174   0.524   2.085   0.919 -0.5738 -0.2477 -2.0584
 3846SOL    HW223175   0.469   1.952   0.909 -0.0927  1.1126 -0.4020
 3847SOL     OW23176   2.120   3.997   6.381 -0.2520 -0.2399  0.6614
 3847SOL    HW123177   2.106   3.905   6.362 -0.9188 -0.2523  1.1844
 3847SOL    HW223178   2.030   4.020   6.404  0.1963  1.5729  0.6706
 3848SOL     OW23179   3.290   3.705   2.959  0.0606 -0.2250 -0.6739
 3848SOL    HW123180   3.291   3.674   2.868 -0.5640 -2.4879  0.0768
 3848SOL    HW223181   3.313   3.796   2.941  1.6423 -0.4950  0.0176
 3849SOL     OW23182   1.618   1.863   2.002 -0.3463 -0.6501 -0.1438
 3849SOL    HW123183   1.561   1.940   2.008  1.0244  0.2364  1.4944
 3849SOL    HW223184   1.567   1.799   2.052  0.7029 -1.6592 -0.3864
 3850SOL     OW23185   2.906   1.192   5.111 -0.4402  0.2236 -0.8415
 3850SOL    HW123186   2.976   1.249   5.080 -0.2809 -0.6546 -2.0941
 3850SOL    HW223187   2.959   1.116   5.087 -0.9244  0.2074 -1.8402
 3851SOL     OW23188   2.917   4.016   6.295 -0.0794  0.1268 -0.6532
 3851SOL    HW123189   3.009   4.007   6.322 -0.7389 -0.9558  1.2236
 3851SOL    HW223190   2.934   4.059   6.211 -0.6725 -0.3651 -1.0188
 3852SOL     OW23191   1.187   4.520   5.780 -0.1359  0.0281 -0.1120
 3852SOL    HW123192   1.096   4.500   5.759 -1.4314  2.3036  3.4152
 3852SOL    HW223193   1.211   4.582   5.712  1.4442  0.0938  0.4958
 3853SOL     OW23194   3.247   2.821  12.547  0.0538  0.7170  0.3103
 3853SOL    HW123195   3.262   2.730  12.575 -1.5913 -0.0985 -1.4141
 3853SOL    HW223196   3.293   2.870  12.615 -2.2040 -0.0862  2.4009
 3854SOL     OW23197   3.845   2.520   1.859  0.5086 -0.6403  0.2691
 3854SOL    HW123198   3.885   2.488   1.778 -0.1681  0.1798 -0.3917
 3854SOL    HW223199   3.892   2.603   1.869  1.2488 -1.1463  0.9537
 3855SOL     OW23200   0.952   2.437   1.996 -0.7043 -0.3727 -0.0309
 3855SOL    HW123201   0.899   2.465   1.921 -0.4932 -0.9956 -0.4115
 3855SOL    HW223202   1.031   2.428   1.942 -0.3992 -1.3971  0.5925
 3856SOL     OW23203   0.697   0.762   5.574 -0.0931  0.1310 -0.3358
 3856SOL    HW123204   0.762   0.773   5.643 -1.5870  0.2956  1.0325
 3856SOL    HW223205   0.621   0.802   5.616  0.7289  0.2449  1.0569
 3857SOL     OW23206   1.492   4.248   3.769  0.5944  0.3883  0.5216
 3857SOL    HW123207   1.418   4.296   3.732  1.4174  1.0347 -0.2937
 3857SOL    HW223208   1.448   4.188   3.829  0.8676  0.2464  0.5761
 3858SOL     OW23209   0.651   2.977   2.658 -0.1276 -0.3019  0.2976
 3858SOL    HW123210   0.707   2.926   2.717 -1.3535 -1.9836  0.0035
 3858SOL    HW223211   0.645   2.915   2.586 -0.5152  1.8914 -1.5393
 3859SOL     OW23212   1.586   4.499  11.336 -0.7107 -0.4695 -0.0812
 3859SOL    HW123213   1.657   4.468  11.279 -2.6973 -1.9561 -1.7263
 3859SOL    HW223214   1.638   4.553  11.395 -0.0626 -0.8495 -0.2906
 3860SOL     OW23215   4.415   3.151   1.241  0.2259 -0.3054  0.0663
 3860SOL    HW123216   4.465   3.232   1.241  0.6644 -0.5793  1.3068
 3860SOL    HW223217   4.468   3.100   1.303 -1.2632  0.5039  1.9863
 3861SOL     OW23218   1.405   0.057   1.210  0.0796  0.4136  0.7739
 3861SOL    HW123219   1.367   4.707   1.205  1.4427 -0.1647  0.5125
 3861SOL    HW223220   1.333   0.115   1.187  2.5299  3.7530  1.4208
 3862SOL     OW23221   1.543   3.108  15.393  0.0745 -0.1047 -1.0058
 3862SOL    HW123222   1.580   3.051  15.325  0.9657 -0.1638 -0.4785
 3862SOL    HW223223   1.551   3.190  15.342  2.6477 -0.5498 -1.3090
 3863SOL     OW23224   1.412   1.860   4.549  0.3894  0.0111  0.0355
 3863SOL    HW123225   1.342   1.855   4.614  0.1486 -0.1580 -0.2395
 3863SOL    HW223226   1.487   1.886   4.602 -1.1447  2.9926  0.7304
 3864SOL     OW23227   0.623   0.330   3.629 -0.3970 -0.1017 -0.7942
 3864SOL    HW123228   0.578   0.249   3.606 -0.6482 -0.3055  0.3917
 3864SOL    HW223229   0.578   0.361   3.708  2.9324  1.0537  0.6677
 3865SOL     OW23230   0.041   1.740   4.222 -0.0917  0.2599 -0.5740
 3865SOL    HW123231   0.040   1.835   4.211  0.2660  0.0995 -2.0050
 3865SOL    HW223232   0.069   1.704   4.137  0.7270 -0.6419  0.0791
 3866SOL     OW23233   2.591   2.174   8.102 -0.1269 -0.0073 -0.0002
 3866SOL    HW123234   2.633   2.258   8.087 -0.1079 -0.1704 -0.8559
 3866SOL    HW223235   2.549   2.133   8.026 -0.4461 -3.1017  1.8263
 3867SOL     OW23236   2.660   3.702  17.530 -0.0327  0.0614 -0.2743
 3867SOL    HW123237   2.602   3.709  17.454 -0.8305  0.5550  0.3771
 3867SOL    HW223238   2.658   3.795  17.552 -2.0987 -0.0844  0.1476
 3868SOL     OW23239   2.128   0.082   2.395 -0.4556  0.4524 -0.8316
 3868SOL    HW123240   2.097   0.038   2.316  1.5932  0.2005 -1.4963
 3868SOL    HW223241   2.075   0.025   2.452  0.0403  0.3508 -0.4674
 3869SOL     OW23242   4.155   1.064   8.129 -0.5890 -0.4111  0.0700
 3869SOL    HW123243   4.120   1.037   8.214  0.1308  0.5369  0.6611
 3869SOL    HW223244   4.190   1.151   8.151  2.0710 -1.7897  1.3286
 3870SOL     OW23245   0.703   3.535   3.500 -0.3573 -0.3204 -0.1269
 3870SOL    HW123246   0.621   3.507   3.458 -1.0642  1.5013  0.0636
 3870SOL    HW223247   0.723   3.459   3.554  0.1963 -1.9587 -2.6228
 3871SOL     OW23248   4.463   3.800   0.969  0.3451  0.1092 -0.0161
 3871SOL    HW123249   4.513   3.719   0.971  2.6739  1.5282 -1.7994
 3871SOL    HW223250   4.457   3.820   1.063  0.2902 -1.4867  0.3173
 3872SOL     OW23251   1.881   0.650  11.576 -0.1680  0.3471  0.0088
 3872SOL    HW123252   1.798   0.668  11.532 -1.1939 -1.3973  1.2462
 3872SOL    HW223253   1.923   0.590  11.514  2.0466  1.5749  0.3263
 3873SOL     OW23254   1.024   0.952   8.615 -0.2831  0.3852 -0.3430
 3873SOL    HW123255   1.038   0.904   8.534 -0.2041 -0.8081  0.3797
 3873SOL    HW223256   1.007   1.040   8.582  2.6840  1.1308  0.1223
 3874SOL     OW23257   4.346   3.819   2.136  0.3372 -0.3778  0.0389
 3874SOL    HW123258   4.321   3.909   2.114  1.3202 -0.3902 -1.0918
 3874SOL    HW223259   4.436   3.825   2.166 -0.1810  0.3247  1.4596
 3875SOL     OW23260   3.703   3.314   6.986  0.4082  0.5240  0.8355
 3875SOL    HW123261   3.767   3.284   7.050 -0.1446 -0.5007  0.9100
 3875SOL    HW223262   3.719   3.406   7.006  0.0435  0.0760  3.1271
 3876SOL     OW23263   2.835   1.018  11.594  0.0119  0.1303  0.3369
 3876SOL    HW123264   2.874   0.955  11.532 -0.3370  0.8162 -0.5785
 3876SOL    HW223265   2.814   0.956  11.664  0.3274  1.1950  1.3607
 3877SOL     OW23266   3.935   1.568  14.513  0.2707 -0.1415  0.2807
 3877SOL    HW123267   3.904   1.484  14.481  1.5086 -0.7444  0.6752
 3877SOL    HW223268   3.864   1.610  14.561 -0.9983 -0.8099 -1.0304
 3878SOL     OW23269   1.403   2.749   3.698  0.4027  0.7859  0.0590
 3878SOL    HW123270   1.441   2.781   3.616 -2.5885  0.3346 -1.5315
 3878SOL    HW223271   1.316   2.787   3.687  0.0829  0.3070  0.9366
 3879SOL     OW23272   0.582   1.960   3.169 -0.0553 -0.1108  0.1989
 3879SOL    HW123273   0.640   2.027   3.207  1.8389 -0.5306 -1.9119
 3879SOL    HW223274   0.512   1.956   3.234 -0.0776 -1.0585  0.1226
 3880SOL     OW23275   4.094   0.470   4.730 -0.0037 -0.5719 -0.4566
 3880SOL    HW123276   4.109   0.394   4.786  0.6523  0.2936  0.5587
 3880SOL    HW223277   4.023   0.430   4.681 -0.0041 -1.6655  0.4193
 3881SOL     OW23278   0.680   1.056  12.691 -0.3047  0.9821  0.2832
 3881SOL    HW123279   0.620   1.044  12.764 -2.8836  2.4231 -1.6138
 3881SOL    HW223280   0.743   1.106  12.743 -2.1010  1.9309  1.5612
 3882SOL     OW23281   3.855   0.107   6.539 -0.3821  0.5950  0.3688
 3882SOL    HW123282   3.891   0.171   6.478  0.4577 -0.9907 -0.8060
 3882SOL    HW223283   3.895   0.025   6.511  1.4080  2.1368 -1.5214
 3883SOL     OW23284   2.159   0.446  10.582  0.1795 -0.2473 -0.2713
 3883SOL    HW123285   2.202   0.433  10.666  1.7341  1.5762 -0.7819
 3883SOL    HW223286   2.189   0.535  10.565  1.9083 -0.9892 -1.1048
 3884SOL     OW23287   4.521   0.805   5.400  0.2209  0.5455 -0.3637
 3884SOL    HW123288   4.543   0.773   5.313 -0.0742 -0.9135  0.1050
 3884SOL    HW223289   4.601   0.779   5.447  0.2008  2.1528  0.5761
 3885SOL     OW23290   3.125   2.019   9.720 -0.7877 -0.0030  0.3093
 3885SOL    HW123291   3.071   1.966   9.661 -0.5000  1.5629 -1.3847
 3885SOL    HW223292   3.129   2.096   9.662 -1.0203 -1.3134 -1.4576
 3886SOL     OW23293   3.150   1.508   5.425  0.8166  0.3777 -0.2735
 3886SOL    HW123294   3.215   1.466   5.368 -0.6771 -0.7966 -1.1331
 3886SOL    HW223295   3.077   1.522   5.363 -0.8841 -1.8412  1.2293
 3887SOL     OW23296   1.432   2.261   4.694 -0.0029  0.9070 -0.8560
 3887SOL    HW123297   1.438   2.343   4.743  0.2371  0.5261 -0.2457
 3887SOL    HW223298   1.471   2.193   4.749 -1.4961  1.2891  0.6938
 3888SOL     OW23299   3.633   3.196   6.552 -0.2316  0.0304 -0.2878
 3888SOL    HW123300   3.635   3.220   6.645  0.2582 -2.5082  0.3734
 3888SOL    HW223301   3.550   3.233   6.524  0.6986  1.3570 -1.2980
 3889SOL     OW23302   3.462   0.820   2.177 -0.5816 -0.1366 -0.0615
 3889SOL    HW123303   3.428   0.908   2.195  1.0607  0.4220  0.3040
 3889SOL    HW223304   3.504   0.792   2.258  2.0273  1.0140 -1.0062
 3890SOL     OW23305   2.177   0.967  16.892 -0.1170 -0.5326 -0.0969
 3890SOL    HW123306   2.245   0.905  16.918 -1.0605 -0.6213  2.1557
 3890SOL    HW223307   2.226   1.026  16.835 -0.1523  0.1901  0.6278
 3891SOL     OW23308   3.008   2.383   8.015  0.3648  0.0295 -0.5591
 3891SOL    HW123309   2.933   2.323   8.014 -0.3482  0.9310 -0.4779
 3891SOL    HW223310   3.064   2.340   7.949  2.4911 -1.0208  1.9361
 3892SOL     OW23311   3.879   2.674  10.773 -0.2637  0.2111 -0.9029
 3892SOL    HW123312   3.954   2.671  10.833 -1.2804 -1.4691  0.2987
 3892SOL    HW223313   3.845   2.761  10.795  0.3011  0.0024  0.8312
 3893SOL     OW23314   2.003   1.251  14.829 -0.0413  0.7366 -0.0392
 3893SOL    HW123315   2.094   1.279  14.836 -0.0988  0.8378  0.2628
 3893SOL    HW223316   1.994   1.197  14.907 -0.8917  0.4504 -0.3323
 3894SOL     OW23317   0.552   0.483   2.241 -0.6264 -0.0656 -0.2776
 3894SOL    HW123318   0.514   0.444   2.320  3.1277  0.6303  1.8614
 3894SOL    HW223319   0.644   0.466   2.258 -0.9384 -0.9707  0.5215
 3895SOL     OW23320   4.065   4.415   7.119  0.1646 -0.5071 -0.0968
 3895SOL    HW123321   4.070   4.324   7.090  0.9524 -1.2422  2.3372
 3895SOL    HW223322   4.152   4.435   7.154 -0.3028  0.1064  0.7213
 3896SOL     OW23323   3.665   3.715  12.852 -0.4902  0.0624 -0.6375
 3896SOL    HW123324   3.688   3.631  12.811  0.1929 -0.3181  0.5375
 3896SOL    HW223325   3.674   3.692  12.944  1.6947  0.2730 -0.7931
 3897SOL     OW23326   2.277   1.548   5.492 -0.2717  0.6449  0.0561
 3897SOL    HW123327   2.219   1.619   5.520  0.0593  0.9839 -0.1161
 3897SOL    HW223328   2.244   1.479   5.548 -1.5859  2.7651  1.9088
 3898SOL     OW23329   2.971   2.807  13.875  0.2966 -0.0108  0.2698
 3898SOL    HW123330   2.915   2.884  13.865  0.5089  0.3722  2.0495
 3898SOL    HW223331   3.054   2.849  13.851  0.5139  0.3339  1.6557
 3899SOL     OW23332   2.821   2.399   1.091  0.5781 -0.3584 -0.3173
 3899SOL    HW123333   2.883   2.433   1.156  1.7043  2.1987 -2.7147
 3899SOL    HW223334   2.884   2.391   1.019 -0.9726 -3.2853 -1.3428
 3900SOL     OW23335   2.695   1.949   6.935  0.1824 -0.4859  0.0657
 3900SOL    HW123336   2.655   1.949   6.848 -0.1822 -0.0005  0.2307
 3900SOL    HW223337   2.669   1.862   6.964 -2.3866  0.5653  0.9467
 3901SOL     OW23338   2.336   4.682   5.098 -0.5543 -0.6519 -0.0213
 3901SOL    HW123339   2.314   0.025   5.144 -0.3898  0.6437 -2.2060
 3901SOL    HW223340   2.342   4.708   5.006 -0.4311 -0.1584  0.1307
 3902SOL     OW23341   4.411   0.177   3.661  0.0280  0.5684 -0.8607
 3902SOL    HW123342   4.365   0.128   3.593 -0.5468  0.7201 -0.5812
 3902SOL    HW223343   4.476   0.224   3.610  2.1738  0.2076  1.5431
 3903SOL     OW23344   4.692   0.840   9.083 -0.5171 -0.2995 -0.4086
 3903SOL    HW123345   4.662   0.809   8.998 -2.2550  2.6095 -0.8414
 3903SOL    HW223346   0.020   0.907   9.062 -0.3959 -0.3763 -0.2781
 3904SOL     OW23347   4.169   3.474   7.216  1.2346  0.3251 -0.0317
 3904SOL    HW123348   4.233   3.526   7.266 -0.5007 -0.7130  3.2635
 3904SOL    HW223349   4.220   3.475   7.135  0.3137  0.3564 -0.6144
 3905SOL     OW23350   4.001   3.094   4.199  0.0995  0.5604  0.2023
 3905SOL    HW123351   3.965   3.051   4.121  2.0140 -0.8907  0.1071
 3905SOL    HW223352   3.936   3.164   4.202 -1.0440 -0.5680  1.5490
 3906SOL     OW23353   1.450   0.740   7.194  0.0039 -0.0922  0.2478
 3906SOL    HW123354   1.443   0.817   7.250 -1.2203 -0.3051  0.3819
 3906SOL    HW223355   1.500   0.681   7.251 -0.3801  0.2453  0.9266
 3907SOL     OW23356   3.466   4.171   8.701 -0.2503 -0.3235 -0.4373
 3907SOL    HW123357   3.407   4.109   8.744 -0.3002  1.5590  2.1485
 3907SOL    HW223358   3.444   4.260   8.726  3.7531  0.4315  0.3260
 3908SOL     OW23359   3.109   1.357   6.790  0.2391  0.1300  0.4313
 3908SOL    HW123360   3.026   1.309   6.796  0.9165 -0.6210  3.4316
 3908SOL    HW223361   3.093   1.399   6.705 -2.3621 -1.8694 -0.0718
 3909SOL     OW23362   0.716   0.007  13.497  0.4794  0.2957  0.2141
 3909SOL    HW123363   0.659   0.058  13.440  0.2595 -0.9268 -0.6489
 3909SOL    HW223364   0.727   4.668  13.440  0.9411  0.5901 -0.0961
 3910SOL     OW23365   4.172   3.986   3.449  0.5667  0.0196 -0.6127
 3910SOL    HW123366   4.106   4.050   3.475  1.6134  0.1750  1.6190
 3910SOL    HW223367   4.114   3.910   3.460  0.2322  0.6751  1.9642
 3911SOL     OW23368   2.184   0.108   5.557  0.1161 -0.4900  0.1661
 3911SOL    HW123369   2.126   0.053   5.609  0.7383 -1.9111 -0.6238
 3911SOL    HW223370   2.147   0.193   5.581 -0.1717 -0.2042 -1.3079
 3912SOL     OW23371   4.262   2.040   6.199 -0.1242  0.3316 -0.1416
 3912SOL    HW123372   4.254   1.998   6.284  0.1064  2.5245  0.9578
 3912SOL    HW223373   4.252   1.962   6.144 -2.0751 -0.1746  0.9237
 3913SOL     OW23374   3.115   0.783   7.870 -0.1333  0.7896  0.1069
 3913SOL    HW123375   3.053   0.857   7.868  1.6812  2.3239  0.7570
 3913SOL    HW223376   3.053   0.716   7.899 -1.1394  0.8549 -1.8880
 3914SOL     OW23377   1.942   4.290  12.273 -0.0599 -0.2636 -0.0061
 3914SOL    HW123378   1.984   4.332  12.349  1.8603  1.1169 -1.8288
 3914SOL    HW223379   2.023   4.267  12.226  0.7211  0.2151  1.0920
 3915SOL     OW23380   1.457   4.329  16.759 -0.1101 -0.5723  0.1220
 3915SOL    HW123381   1.468   4.249  16.811 -1.3716 -0.3340  0.7516
 3915SOL    HW223382   1.544   4.345  16.723 -0.0497 -1.0626  0.0496
 3916SOL     OW23383   0.921   4.231  10.091 -0.4341 -0.2358  0.1748
 3916SOL    HW123384   0.899   4.295  10.159 -1.6863  0.3976 -0.8185
 3916SOL    HW223385   1.007   4.205  10.124 -0.1533  0.4178 -0.0341
 3917SOL     OW23386   1.247   0.263  13.938 -0.7551  0.0267 -0.3840
 3917SOL    HW123387   1.282   0.187  13.986  1.7689  2.3219  1.3995
 3917SOL    HW223388   1.176   0.221  13.888  0.3274  0.6097 -2.4348
 3918SOL     OW23389   3.318   1.044   7.638 -0.0202 -0.1293  0.0290
 3918SOL    HW123390   3.391   1.018   7.694  0.5355  0.3083 -0.4918
 3918SOL    HW223391   3.283   1.116   7.690  1.3726  0.8092 -0.3286
 3919SOL     OW23392   3.530   3.141   7.243  0.2495 -0.6812  0.7460
 3919SOL    HW123393   3.547   3.234   7.261  0.0276 -0.2005 -1.4873
 3919SOL    HW223394   3.571   3.137   7.156 -0.5932 -0.3183  0.3265
 3920SOL     OW23395   1.140   0.832   2.516 -0.5540 -0.0664  0.3958
 3920SOL    HW123396   1.089   0.899   2.562 -1.2090  0.2204 -0.7392
 3920SOL    HW223397   1.193   0.803   2.590  0.5721  0.2307 -0.2983
 3921SOL     OW23398   3.269   4.418   2.159  0.1615  0.0923  0.4396
 3921SOL    HW123399   3.327   4.429   2.234  0.7846  1.4674 -0.2444
 3921SOL    HW223400   3.260   4.324   2.141 -0.0353  0.3783 -0.9363
 3922SOL     OW23401   1.805   2.551   8.300  0.4492  0.3033  0.5034
 3922SOL    HW123402   1.717   2.519   8.322 -0.2685  1.3148 -0.8948
 3922SOL    HW223403   1.784   2.644   8.303 -1.7852 -0.1425 -0.9094
 3923SOL     OW23404   3.430   1.498   8.668  0.4703  0.1222 -0.4181
 3923SOL    HW123405   3.393   1.541   8.744 -1.8605  1.0549 -2.0954
 3923SOL    HW223406   3.480   1.569   8.627 -0.3566 -0.1460 -1.8837
 3924SOL     OW23407   2.374   0.992   1.464  0.3586 -0.0420 -0.1733
 3924SOL    HW123408   2.390   0.910   1.511  1.4572  0.7163  0.7868
 3924SOL    HW223409   2.412   0.980   1.377  0.4603  1.0851 -0.2869
 3925SOL     OW23410   4.585   3.007   0.495 -0.0673 -0.5095  0.0199
 3925SOL    HW123411   4.622   2.939   0.438  1.3887 -0.4433  0.8666
 3925SOL    HW223412   4.616   3.090   0.461 -1.2248  0.6396  1.7846
 3926SOL     OW23413   2.141   2.861   4.896  0.1760 -0.2913  0.3414
 3926SOL    HW123414   2.202   2.896   4.960  0.6278 -1.1214  0.3703
 3926SOL    HW223415   2.064   2.916   4.910  1.4807  1.5935  0.0597
 3927SOL     OW23416   2.895   0.261   6.492 -0.3117 -0.6915  0.2644
 3927SOL    HW123417   2.959   0.331   6.480 -1.7533  0.6071  0.1200
 3927SOL    HW223418   2.857   0.290   6.576  1.1494 -1.3260  1.1326
 3928SOL     OW23419   2.668   2.821   3.824 -0.5209  0.2611 -0.2737
 3928SOL    HW123420   2.692   2.779   3.742 -0.0426  1.1454 -0.5917
 3928SOL    HW223421   2.750   2.819   3.873 -1.2087 -1.0689  0.8181
 3929SOL     OW23422   3.586   0.708   7.756 -0.6510  0.4904  0.6515
 3929SOL    HW123423   3.539   0.766   7.816 -2.0915  2.2034 -2.1448
 3929SOL    HW223424   3.676   0.721   7.786 -1.3585  0.4947  2.7448
 3930SOL     OW23425   2.943   4.665  16.805 -0.1553 -0.5420 -0.2337
 3930SOL    HW123426   2.957   4.664  16.711  1.6763 -1.3864  0.0387
 3930SOL    HW223427   2.899   4.586  16.837 -0.5900 -0.2564 -0.1220
 3931SOL     OW23428   1.521   1.380   7.008  0.5486  0.1484 -0.1521
 3931SOL    HW123429   1.449   1.330   7.046 -0.9083  1.1343 -1.5819
 3931SOL    HW223430   1.477   1.457   6.970 -0.7466  0.2725  1.6174
 3932SOL     OW23431   3.219   0.843   5.224 -0.3504  0.0254 -0.1371
 3932SOL    HW123432   3.215   0.753   5.255  0.1214 -0.3708 -1.2297
 3932SOL    HW223433   3.181   0.898   5.293 -0.7887 -0.9322  0.3820
 3933SOL     OW23434   1.786   3.294   4.088 -0.2133 -0.0405  0.1448
 3933SOL    HW123435   1.864   3.347   4.105 -0.1526 -1.0723  3.0707
 3933SOL    HW223436   1.718   3.362   4.084  1.6120  1.9044  1.9692
 3934SOL     OW23437   2.615   0.093  13.685 -0.2147 -0.1668 -0.0668
 3934SOL    HW123438   2.583   0.012  13.724 -1.2097  1.0395  1.6370
 3934SOL    HW223439   2.529   0.132  13.703 -0.4306  1.2319 -4.0428
 3935SOL     OW23440   2.469   3.269   5.164  0.3177  0.0011  0.0412
 3935SOL    HW123441   2.508   3.219   5.235 -1.5163  0.9380  1.7267
 3935SOL    HW223442   2.496   3.217   5.089 -0.4017  2.0748 -1.6559
 3936SOL     OW23443   1.345   3.407   5.397 -0.1676 -0.5964 -0.6401
 3936SOL    HW123444   1.413   3.361   5.445 -0.6676  1.1073  1.6741
 3936SOL    HW223445   1.323   3.347   5.326  0.0591 -1.9249  0.4192
 3937SOL     OW23446   2.757   1.602  14.868 -0.5822  0.3857  0.2012
 3937SOL    HW123447   2.849   1.619  14.891 -0.1784 -0.4753 -0.7948
 3937SOL    HW223448   2.766   1.538  14.798 -2.4234 -1.8358  1.9997
 3938SOL     OW23449   1.536   3.517   5.778 -0.0363  0.5017  0.2677
 3938SOL    HW123450   1.582   3.433   5.778  2.9572  2.1433  0.1869
 3938SOL    HW223451   1.451   3.487   5.811 -0.9945  0.9054 -1.8400
 3939SOL     OW23452   0.410   3.759   4.003  0.1705 -0.3888 -0.0324
 3939SOL    HW123453   0.410   3.782   3.910 -0.4828 -0.5477 -0.0728
 3939SOL    HW223454   0.341   3.693   3.995 -2.1088  1.8257  1.3993
 3940SOL     OW23455   2.864   3.130   5.881  0.1271 -0.4578  0.2985
 3940SOL    HW123456   2.869   3.065   5.811  0.0031 -1.1766  0.9573
 3940SOL    HW223457   2.891   3.211   5.837  2.9195 -0.2067  2.4858
 3941SOL     OW23458   1.022   0.130   7.859 -0.8323 -0.0333 -0.0087
 3941SOL    HW123459   1.092   0.096   7.916  0.3197  1.3591 -0.5673
 3941SOL    HW223460   0.938   0.093   7.886 -2.0423  1.9794 -1.0249
 3942SOL     OW23461   2.133   0.916   0.491 -0.0436  0.0320 -0.0426
 3942SOL    HW123462   2.185   0.970   0.550  0.0686  0.5790 -0.6445
 3942SOL    HW223463   2.066   0.978   0.462  0.7234  0.6932 -0.4066
 3943SOL     OW23464   1.334   3.560  11.108 -0.0876 -0.4332 -0.2701
 3943SOL    HW123465   1.400   3.604  11.054  1.6669 -1.1881  1.2397
 3943SOL    HW223466   1.289   3.627  11.159 -1.3454 -3.0771  2.1282
 3944SOL     OW23467   0.598   3.904   0.676 -0.4118  0.1375 -0.4655
 3944SOL    HW123468   0.596   3.809   0.662  1.2325  0.1575 -0.8350
 3944SOL    HW223469   0.690   3.923   0.697 -0.6625  0.0281  0.7858
 3945SOL     OW23470   4.365   1.363   0.250  0.2510  0.2006 -0.6423
 3945SOL    HW123471   4.394   1.314   0.173 -0.4210 -0.3953 -0.5103
 3945SOL    HW223472   4.432   1.429   0.268  0.1528 -0.3524  1.7017
 3946SOL     OW23473   2.306   2.406  13.468  0.0585  0.2585 -0.3896
 3946SOL    HW123474   2.277   2.426  13.557 -0.4530  0.3468 -0.5737
 3946SOL    HW223475   2.307   2.493  13.427  2.1927  0.6433  0.4948
 3947SOL     OW23476   0.386   4.499   3.870 -0.0544 -0.0050 -0.3872
 3947SOL    HW123477   0.406   4.545   3.789  0.5291  1.5048  0.6053
 3947SOL    HW223478   0.471   4.481   3.909  0.0996 -0.2728 -0.8555
 3948SOL     OW23479   3.068   1.597  14.936 -0.2520  0.4011  0.1491
 3948SOL    HW123480   3.057   1.684  14.975  0.4116  1.1721 -1.3775
 3948SOL    HW223481   3.131   1.562  14.998  2.8844  1.4710 -2.4770
 3949SOL     OW23482   4.425   4.461  17.269  0.4104 -0.5087 -0.6268
 3949SOL    HW123483   4.507   4.509  17.258 -0.2461  0.5005 -1.0949
 3949SOL    HW223484   4.464   4.376  17.250 -0.2962 -0.7911 -0.8472
 3950SOL     OW23485   0.103   1.596   1.034  0.3939 -0.5109  0.6050
 3950SOL    HW123486   0.106   1.645   1.116 -1.3152 -2.5587  1.9019
 3950SOL    HW223487   0.054   1.514   1.049 -0.7736  0.0982  0.1643
 3951SOL     OW23488   0.873   4.685   2.294  0.1316 -0.0253 -0.1212
 3951SOL    HW123489   0.869   4.706   2.201  0.0385  1.5407  0.2283
 3951SOL    HW223490   0.783   4.660   2.312  0.0900  0.5169  0.4108
 3952SOL     OW23491   3.752   3.177   8.010  0.1674  0.3393 -0.3247
 3952SOL    HW123492   3.676   3.201   8.064  0.9937 -0.7074  1.3034
 3952SOL    HW223493   3.799   3.260   8.020  2.4178 -1.1450  1.5355
 3953SOL     OW23494   2.848   3.906   8.399  0.0031  0.6658 -0.2499
 3953SOL    HW123495   2.795   3.906   8.479  3.0736 -0.5399  1.8172
 3953SOL    HW223496   2.835   3.995   8.368 -0.4851  0.7181  0.1145
 3954SOL     OW23497   0.839   3.750   1.053 -0.1550 -0.4398  0.2396
 3954SOL    HW123498   0.930   3.742   1.082  0.6117  1.8990 -1.5389
 3954SOL    HW223499   0.823   3.841   1.079  1.3029 -0.0444 -0.2290
 3955SOL     OW23500   2.139   3.840   3.072 -0.1200  0.0569 -0.2607
 3955SOL    HW123501   2.110   3.920   3.115  2.1676  1.0779 -0.5984
 3955SOL    HW223502   2.111   3.763   3.122  0.7964 -1.6507 -2.3477
 3956SOL     OW23503   1.416   2.725   1.794 -0.0140  0.1320 -0.1749
 3956SOL    HW123504   1.329   2.686   1.805  0.0079 -0.8307 -3.5106
 3956SOL    HW223505   1.438   2.694   1.706  0.7599  2.8167 -0.9255
 3957SOL     OW23506   1.989   0.133  10.120  0.3732 -0.1116 -0.0668
 3957SOL    HW123507   2.080   0.146  10.091 -0.4660  0.6215 -2.3498
 3957SOL    HW223508   1.935   0.190  10.065  0.6827  1.7845  1.5595
 3958SOL     OW23509   3.252   2.335  15.119 -0.6490  0.5274  0.2016
 3958SOL    HW123510   3.174   2.284  15.141 -0.4604  1.0571  2.0388
 3958SOL    HW223511   3.320   2.279  15.156 -2.0153 -0.9002  0.5454
 3959SOL     OW23512   4.006   2.583  14.907  0.0771  0.1541 -0.1055
 3959SOL    HW123513   4.025   2.674  14.886 -2.0801  0.3589 -1.1100
 3959SOL    HW223514   4.036   2.575  14.998  0.7445 -2.2176 -0.5349
 3960SOL     OW23515   2.029   0.706  16.526 -0.3415  0.0007  0.2873
 3960SOL    HW123516   2.086   0.715  16.450 -0.6875 -2.2906 -0.2451
 3960SOL    HW223517   1.973   0.783  16.513  0.2134 -0.1647 -2.9821
 3961SOL     OW23518   0.474   0.210   5.424 -0.4520  0.8151  0.3804
 3961SOL    HW123519   0.530   0.158   5.482  0.5495  0.3356 -1.0111
 3961SOL    HW223520   0.403   0.150   5.399  3.0775 -2.4085 -1.9355
 3962SOL     OW23521   1.965   2.646   9.774 -0.0884  0.3392  0.0021
 3962SOL    HW123522   1.998   2.594   9.700 -0.6659  1.6421 -1.1667
 3962SOL    HW223523   1.885   2.602   9.802  0.0451  0.9119  1.2571
 3963SOL     OW23524   0.970   1.170   4.319  0.4320 -0.0266 -0.4388
 3963SOL    HW123525   0.902   1.167   4.252 -1.3516 -0.5654  1.3667
 3963SOL    HW223526   1.047   1.193   4.268 -0.0451  0.6597 -0.8523
 3964SOL     OW23527   4.488   0.318   4.682  0.2149 -0.2728  0.4723
 3964SOL    HW123528   4.494   0.223   4.672  0.8154 -0.1494 -0.3910
 3964SOL    HW223529   4.427   0.330   4.755  0.3326 -0.8657  0.6684
 3965SOL     OW23530   0.620   0.410  15.083 -0.2983 -0.1476  0.3226
 3965SOL    HW123531   0.609   0.504  15.098 -1.5566 -0.6471  2.6918
 3965SOL    HW223532   0.562   0.407  15.007  1.6009  0.4091 -1.1264
 3966SOL     OW23533   0.003   0.778   9.409  0.2271 -0.2855 -0.0447
 3966SOL    HW123534   0.077   0.756   9.464  0.7144  2.0213  0.2175
 3966SOL    HW223535   0.014   0.721   9.333 -0.1121  0.7848 -0.9026
 3967SOL     OW23536   0.698   1.378   9.099 -0.6275  0.8710 -0.0064
 3967SOL    HW123537   0.771   1.389   9.159 -0.0842  0.9743 -0.6900
 3967SOL    HW223538   0.705   1.283   9.105 -1.4202  0.6657 -2.2938
 3968SOL     OW23539   1.852   4.250  12.890  0.2882  0.0559 -0.9411
 3968SOL    HW123540   1.839   4.232  12.983  3.5635  0.1636 -0.4511
 3968SOL    HW223541   1.806   4.334  12.884 -1.6161 -0.9415 -0.1031
 3969SOL     OW23542   3.240   2.862  14.454 -0.4594  0.2049 -0.1776
 3969SOL    HW123543   3.166   2.919  14.434 -1.5324 -0.5477  1.5802
 3969SOL    HW223544   3.214   2.770  14.450 -1.4925  0.5453 -1.0108
 3970SOL     OW23545   0.774   1.653   5.408  0.0356  0.0957 -0.2129
 3970SOL    HW123546   0.745   1.738   5.442  2.1431  1.1594 -1.1316
 3970SOL    HW223547   0.866   1.660   5.433  0.0872 -3.7987  0.7303
 3971SOL     OW23548   1.719   0.724   1.834  0.3369  0.0649 -0.2073
 3971SOL    HW123549   1.775   0.766   1.900 -0.8261 -0.6676  1.2169
 3971SOL    HW223550   1.735   0.631   1.850 -1.3612 -0.4454 -1.4506
 3972SOL     OW23551   0.523   2.205   1.488  0.3025  0.1666 -0.2788
 3972SOL    HW123552   0.562   2.241   1.568  0.8972 -1.6014  0.2198
 3972SOL    HW223553   0.544   2.113   1.505  0.6064 -0.0629 -1.9351
 3973SOL     OW23554   0.049   2.175  17.630  1.0498  0.1750  0.7581
 3973SOL    HW123555   0.123   2.204  17.683 -1.3291  2.1184  2.9871
 3973SOL    HW223556   4.717   2.190  17.694 -1.3959 -0.5249 -1.7133
 3974SOL     OW23557   1.631   2.345   3.012  0.1824  0.3556 -0.0189
 3974SOL    HW123558   1.598   2.426   2.973  0.0911 -0.2140 -1.1195
 3974SOL    HW223559   1.663   2.301   2.933 -2.1333 -0.9946 -0.2190
 3975SOL     OW23560   2.128   2.189   2.989  0.3479 -0.4488 -0.0059
 3975SOL    HW123561   2.201   2.133   2.964  0.4515 -2.0116  3.7869
 3975SOL    HW223562   2.130   2.254   2.919 -1.6712 -1.4810 -1.0177
 3976SOL     OW23563   0.594   3.912  13.744  0.0427 -0.0028  0.8153
 3976SOL    HW123564   0.526   3.847  13.731 -0.1917  0.3865  0.1151
 3976SOL    HW223565   0.553   3.989  13.784  0.2067 -0.2611  1.4811
 3977SOL     OW23566   3.825   1.437   3.574 -0.3442 -0.0416  0.0201
 3977SOL    HW123567   3.902   1.411   3.626  0.6334 -1.9945 -2.4205
 3977SOL    HW223568   3.762   1.372   3.603  2.0520 -1.3560  2.2785
 3978SOL     OW23569   1.398   0.738  17.640  0.1473  0.0305  0.8946
 3978SOL    HW123570   1.427   0.679  17.710  1.8605  0.9513  0.9771
 3978SOL    HW223571   1.304   0.732  17.652  0.2622 -2.2730  0.5481
 3979SOL     OW23572   1.172   3.853   7.214  0.1861  0.0815 -0.4998
 3979SOL    HW123573   1.153   3.770   7.257  1.4064 -0.0490 -0.2168
 3979SOL    HW223574   1.255   3.836   7.168  0.5009  1.1756 -0.3226
 3980SOL     OW23575   3.405   1.554  17.638 -0.1590 -0.4769 -0.2254
 3980SOL    HW123576   3.318   1.592  17.651  0.1075 -0.4183  1.3079
 3980SOL    HW223577   3.390   1.465  17.671  1.2967 -0.6451  0.0072
 3981SOL     OW23578   2.010   2.838   5.942 -0.5133 -0.3091  0.1046
 3981SOL    HW123579   2.082   2.824   6.004 -1.5299  0.4990  1.4714
 3981SOL    HW223580   2.039   2.925   5.915  0.2626  0.0254  2.0093
 3982SOL     OW23581   0.861   0.718   6.009  0.7994  0.6309 -0.1393
 3982SOL    HW123582   0.807   0.716   5.930 -0.6070 -1.4168  0.8894
 3982SOL    HW223583   0.799   0.691   6.076  0.3499 -0.5917 -1.0546
 3983SOL     OW23584   0.251   2.914   3.025  0.1255  0.4154  0.0232
 3983SOL    HW123585   0.241   2.992   3.079  1.2864  0.0159  0.8201
 3983SOL    HW223586   0.314   2.876   3.087 -1.1794 -1.8298 -0.0299
 3984SOL     OW23587   4.724   2.820   5.108  0.1249 -0.5983  0.5668
 3984SOL    HW123588   0.009   2.821   5.201 -3.8507  0.6830  1.4894
 3984SOL    HW223589   0.066   2.779   5.072 -1.4722 -1.6951 -1.6792
 3985SOL     OW23590   3.744   1.320   2.980  0.0036  0.0941  0.7811
 3985SOL    HW123591   3.678   1.387   2.961 -1.4014 -1.6570 -0.6088
 3985SOL    HW223592   3.796   1.323   2.900  0.0610  2.1359  0.8902
 3986SOL     OW23593   1.927   1.476  11.751 -0.0146  0.3909  0.3452
 3986SOL    HW123594   1.904   1.388  11.783  2.8727 -0.2362  0.6840
 3986SOL    HW223595   2.006   1.487  11.803  2.2668  1.4108 -3.3158
 3987SOL     OW23596   2.019   1.963   7.720  0.6961  0.3777 -0.1962
 3987SOL    HW123597   2.048   2.043   7.677  1.2688  0.0739 -0.3726
 3987SOL    HW223598   2.102   1.926   7.750 -0.5915 -1.4755  1.0391
 3988SOL     OW23599   2.681   4.261   2.987  0.3505  0.5905  0.1379
 3988SOL    HW123600   2.605   4.223   2.943 -0.1614  0.2349  1.3280
 3988SOL    HW223601   2.698   4.345   2.944  0.4323  1.3126  1.6047
 3989SOL     OW23602   3.307   1.202  14.735 -0.4391 -0.3314  0.7968
 3989SOL    HW123603   3.251   1.217  14.659 -0.0848 -1.5471  0.3038
 3989SOL    HW223604   3.388   1.161  14.706 -0.3985 -0.4746  1.1156
 3990SOL     OW23605   3.797   3.353  11.339 -0.5009 -0.0342 -0.3106
 3990SOL    HW123606   3.829   3.328  11.252  0.0251 -0.8719  0.1225
 3990SOL    HW223607   3.795   3.448  11.328  0.5441  0.2180  1.6991
 3991SOL     OW23608   4.024   0.204  12.580  0.3976 -0.0127 -0.4085
 3991SOL    HW123609   4.089   0.136  12.596 -1.1327 -1.6799 -1.3226
 3991SOL    HW223610   4.078   0.269  12.535 -2.6713  1.7160 -1.5780
 3992SOL     OW23611   0.150   0.538  11.545  0.2218 -0.0925  0.2258
 3992SOL    HW123612   0.075   0.502  11.498  0.8318  0.7015 -1.3849
 3992SOL    HW223613   0.143   0.632  11.528 -0.8642  0.0245  1.3603
 3993SOL     OW23614   0.977   4.013   8.121  0.5293  0.3119 -0.0900
 3993SOL    HW123615   0.997   4.091   8.069 -0.4045  0.4049 -0.3020
 3993SOL    HW223616   1.066   4.006   8.155  1.2145 -1.7029 -2.3547
 3994SOL     OW23617   4.113   1.546   4.946 -0.1889  0.5008  0.3867
 3994SOL    HW123618   4.186   1.539   5.007 -0.2808 -1.8037  0.2472
 3994SOL    HW223619   4.123   1.467   4.893  0.9959  1.5575 -0.9758
 3995SOL     OW23620   1.542   4.025   9.786 -0.1907 -0.1731  0.3913
 3995SOL    HW123621   1.582   4.035   9.699 -1.0402 -2.9382 -0.3260
 3995SOL    HW223622   1.580   3.940   9.808 -2.2804 -0.8421  1.3824
 3996SOL     OW23623   4.565   0.976   6.019 -0.6478 -0.2178 -0.1960
 3996SOL    HW123624   4.625   1.035   6.066 -1.3222 -0.1789  0.6218
 3996SOL    HW223625   4.481   0.985   6.063 -0.2052 -1.3855  0.8913
 3997SOL     OW23626   0.470   3.764  10.842  0.0958 -0.5514  0.1838
 3997SOL    HW123627   0.388   3.808  10.821 -0.2052 -0.2971  1.8725
 3997SOL    HW223628   0.482   3.716  10.760  0.9172  0.6813 -0.4192
 3998SOL     OW23629   2.908   0.467   6.117 -0.1032  0.5595  0.4680
 3998SOL    HW123630   2.977   0.419   6.163  0.7036  0.1298 -1.2008
 3998SOL    HW223631   2.963   0.523   6.062  1.4396 -0.1499  1.2805
 3999SOL     OW23632   2.517   4.359  16.262 -0.3830  0.1568  0.1245
 3999SOL    HW123633   2.425   4.343  16.242  0.1384 -3.1239  0.3909
 3999SOL    HW223634   2.566   4.321  16.190 -1.1603  0.5642 -0.6185
 4000SOL     OW23635   3.666   1.895  12.906  0.1512  0.2867  0.0503
 4000SOL    HW123636   3.710   1.977  12.929 -0.0876  0.4067  0.0822
 4000SOL    HW223637   3.701   1.827  12.962 -0.6250  0.1582  0.3820
 4001SOL     OW23638   3.865   1.321  12.271  0.2209 -0.3955 -0.3310
 4001SOL    HW123639   3.777   1.299  12.242 -1.1092  1.9834  1.9574
 4001SOL    HW223640   3.904   1.367  12.197  0.4202 -0.7912 -0.4729
 4002SOL     OW23641   1.268   0.212   2.204 -0.0147  0.2962  0.3789
 4002SOL    HW123642   1.278   0.285   2.142  1.9636  1.4717  2.0818
 4002SOL    HW223643   1.206   0.259   2.259  0.5873  2.1929 -0.5155
 4003SOL     OW23644   0.296   3.947   5.472  0.2118 -0.6437 -0.3243
 4003SOL    HW123645   0.387   3.939   5.499  0.2851 -0.5999 -0.5525
 4003SOL    HW223646   0.313   4.015   5.406  0.6294 -0.2965  0.1505
 4004SOL     OW23647   0.455   0.417  11.176 -0.1624 -0.1225  0.3952
 4004SOL    HW123648   0.439   0.466  11.257 -1.1028 -0.6206  0.5165
 4004SOL    HW223649   0.393   0.347  11.196  0.0424 -0.1264  1.0312
 4005SOL     OW23650   2.647   2.643   8.244 -0.6240  0.0284  0.7171
 4005SOL    HW123651   2.716   2.577   8.255 -1.8722 -1.5384 -0.8567
 4005SOL    HW223652   2.608   2.645   8.331  0.2392 -2.3782  1.1801
 4006SOL     OW23653   1.078   2.147   2.199  0.5357  0.0909 -0.1177
 4006SOL    HW123654   1.076   2.052   2.189 -2.3468  0.3680 -1.8668
 4006SOL    HW223655   1.169   2.175   2.212  0.5126  0.3034 -0.4374
 4007SOL     OW23656   2.352   0.067  15.852 -0.7500  0.2146  0.0975
 4007SOL    HW123657   2.323   0.020  15.931 -0.0820 -0.8723 -0.3045
 4007SOL    HW223658   2.415   0.005  15.816 -0.5523  1.1708 -1.1969
 4008SOL     OW23659   3.889   4.416   2.971 -0.1966 -0.3710 -0.2186
 4008SOL    HW123660   3.896   4.496   3.023  0.9296 -0.0938 -0.7967
 4008SOL    HW223661   3.960   4.426   2.907 -1.3505  1.1255 -1.2649
 4009SOL     OW23662   0.919   4.341   6.892  0.3460 -0.2395  0.1014
 4009SOL    HW123663   0.893   4.314   6.980 -3.5399  0.5264 -0.8068
 4009SOL    HW223664   0.925   4.435   6.909 -0.5637 -0.2395  0.4079
 4010SOL     OW23665   1.960   3.401   2.077 -0.2509  0.0538 -0.5167
 4010SOL    HW123666   1.942   3.343   2.151  1.2151 -0.7976 -0.8457
 4010SOL    HW223667   1.993   3.334   2.018 -0.1838 -1.1602  0.9216
 4011SOL     OW23668   1.522   2.518  17.659  0.2565  0.3206 -0.3775
 4011SOL    HW123669   1.506   2.442  17.716 -0.3778  1.9650  1.6424
 4011SOL    HW223670   1.591   2.572  17.699  0.9513  0.6132 -1.9704
 4012SOL     OW23671   4.542   3.667   5.254  0.7032 -0.5542 -0.1267
 4012SOL    HW123672   4.558   3.655   5.160  0.6246 -1.0465 -0.0787
 4012SOL    HW223673   4.451   3.637   5.257  0.4023  0.1299 -2.7110
 4013SOL     OW23674   2.648   4.541   4.593  0.2866  0.6087 -0.0403
 4013SOL    HW123675   2.626   4.534   4.500  0.6925  0.4378 -0.1253
 4013SOL    HW223676   2.733   4.496   4.597 -0.1131  0.3237  5.0649
 4014SOL     OW23677   1.656   4.723   4.601 -0.3489 -0.1343  0.5299
 4014SOL    HW123678   1.638   4.639   4.644 -0.3628  0.3189  1.3939
 4014SOL    HW223679   1.747   4.720   4.572 -1.2482 -2.3677 -2.1492
 4015SOL     OW23680   2.814   3.221   8.394 -0.0371 -0.3532 -0.0310
 4015SOL    HW123681   2.754   3.222   8.320  0.6522  1.1438 -0.5752
 4015SOL    HW223682   2.869   3.299   8.383 -0.5392  0.0211  0.1115
 4016SOL     OW23683   2.191   1.705   6.141  0.0459 -0.5434 -0.5589
 4016SOL    HW123684   2.286   1.702   6.152  0.2086  0.6946 -1.5979
 4016SOL    HW223685   2.182   1.734   6.050 -1.0128  1.6671  0.2469
 4017SOL     OW23686   3.223   2.591   8.512 -0.8442  0.1376  0.1553
 4017SOL    HW123687   3.173   2.552   8.440  0.2241 -1.5881  0.3383
 4017SOL    HW223688   3.163   2.578   8.586 -0.7580  0.6523  0.3175
 4018SOL     OW23689   4.205   3.070   4.529 -0.0080 -0.0090  0.6609
 4018SOL    HW123690   4.236   2.987   4.494 -1.4559 -0.1585 -0.2225
 4018SOL    HW223691   4.268   3.136   4.498 -0.8660  0.3265 -0.3493
 4019SOL     OW23692   1.049   3.084   7.148 -0.9102  0.4202 -0.0641
 4019SOL    HW123693   1.047   3.140   7.226 -3.2701  1.3459 -0.7881
 4019SOL    HW223694   0.993   3.014   7.182  0.3756 -0.4747  0.2258
 4020SOL     OW23695   2.323   4.555   5.361  0.4336  0.1376 -0.0003
 4020SOL    HW123696   2.335   4.603   5.280  0.5899 -1.7113 -1.0670
 4020SOL    HW223697   2.263   4.618   5.401  0.5467  0.3709 -0.2029
 4021SOL     OW23698   2.897   3.915   3.950 -0.3185 -0.0453 -0.6964
 4021SOL    HW123699   2.949   3.854   4.003 -0.6980  0.8672  0.7426
 4021SOL    HW223700   2.904   3.873   3.865 -0.8414  0.4511 -0.9841
 4022SOL     OW23701   3.541   3.192   4.121  0.4025 -0.6047  0.2874
 4022SOL    HW123702   3.454   3.218   4.150 -0.3573 -2.2889 -0.4271
 4022SOL    HW223703   3.535   3.096   4.131  1.3819 -0.6879  0.0303
 4023SOL     OW23704   2.178   3.002   6.368 -0.2736  0.5979 -0.2028
 4023SOL    HW123705   2.185   2.950   6.448 -1.3369  1.9165  0.7407
 4023SOL    HW223706   2.218   3.084   6.394  2.3026 -0.8813  0.5003
 4024SOL     OW23707   2.904   1.682   5.952 -0.2162  0.2028 -1.0279
 4024SOL    HW123708   2.904   1.683   5.856 -0.9058  3.8103 -0.9855
 4024SOL    HW223709   2.991   1.705   5.983 -0.1440  0.2628 -1.2757
 4025SOL     OW23710   4.197   4.216   4.317 -0.2990 -0.8822  0.0853
 4025SOL    HW123711   4.200   4.152   4.246  1.0047 -0.3043 -0.3850
 4025SOL    HW223712   4.190   4.302   4.275 -1.6782 -0.4829  1.1303
 4026SOL     OW23713   0.306   1.437   2.799  0.1390 -0.0004 -0.3803
 4026SOL    HW123714   0.324   1.471   2.887 -2.8632  1.3775 -0.2869
 4026SOL    HW223715   0.354   1.497   2.742 -1.1282  0.8890 -0.5329
 4027SOL     OW23716   0.792   0.026   7.979 -0.1632 -0.1654  0.6427
 4027SOL    HW123717   0.794   0.092   8.049 -1.6749  0.0768  0.4651
 4027SOL    HW223718   0.812   4.691   8.039 -0.2100 -0.4326  0.3344
 4028SOL     OW23719   3.297   3.983   6.535  0.5148  0.0339  0.5550
 4028SOL    HW123720   3.222   4.042   6.529 -0.1642 -0.7304  1.7239
 4028SOL    HW223721   3.366   4.049   6.530 -0.3704  1.1864  3.6513
 4029SOL     OW23722   0.620   4.460   1.624 -0.3166  0.7264  0.1304
 4029SOL    HW123723   0.660   4.528   1.678  0.0618  1.4895 -1.1148
 4029SOL    HW223724   0.633   4.501   1.538  1.4233  0.8655  0.4529
 4030SOL     OW23725   4.073   0.866  14.174  0.0278 -0.1436  0.0660
 4030SOL    HW123726   4.042   0.957  14.185 -0.9637 -0.3581 -0.9475
 4030SOL    HW223727   4.004   0.827  14.121 -0.7383 -0.3139  1.1723
 4031SOL     OW23728   0.462   2.797   7.617  0.0572 -0.3757  0.0693
 4031SOL    HW123729   0.457   2.873   7.559 -0.7422  1.1400  2.0972
 4031SOL    HW223730   0.391   2.826   7.675  1.1685  0.3063  1.0984
 4032SOL     OW23731   0.450   4.335   7.791  0.2786 -0.3883 -0.1589
 4032SOL    HW123732   0.441   4.243   7.815 -1.8718  0.2054  1.3542
 4032SOL    HW223733   0.543   4.332   7.767 -0.2128  1.1662 -2.2742
 4033SOL     OW23734   1.162   3.073   2.005  0.6579 -0.3319  0.0610
 4033SOL    HW123735   1.097   3.045   1.941  0.2098  1.4058 -0.2612
 4033SOL    HW223736   1.204   3.145   1.958  1.1840 -0.8746 -0.3025
 4034SOL     OW23737   0.445   1.841  16.425  0.5804 -0.7084  0.0907
 4034SOL    HW123738   0.404   1.850  16.511 -0.1574 -0.4294 -0.2913
 4034SOL    HW223739   0.515   1.778  16.443 -0.0407 -1.2461  0.6242
 4035SOL     OW23740   2.430   3.063  17.460  0.3171 -0.4093 -0.3333
 4035SOL    HW123741   2.505   3.117  17.435  1.5545 -1.0921  1.9077
 4035SOL    HW223742   2.376   3.078  17.382 -0.1206 -0.0008  0.0457
 4036SOL     OW23743   4.165   2.110   2.842 -0.1641 -0.3954 -0.1911
 4036SOL    HW123744   4.239   2.132   2.786 -1.0126 -0.3601 -1.2971
 4036SOL    HW223745   4.193   2.041   2.902  1.9772  0.1672 -0.5580
 4037SOL     OW23746   4.316   3.856   4.413  0.5406  0.0624 -0.1785
 4037SOL    HW123747   4.388   3.887   4.359 -0.0385  1.7905  0.0415
 4037SOL    HW223748   4.336   3.764   4.428 -1.5222 -0.2050  0.8174
 4038SOL     OW23749   4.115   4.213   9.501  0.0799 -0.4206  0.4974
 4038SOL    HW123750   4.029   4.189   9.534 -0.0041  1.7816  1.8312
 4038SOL    HW223751   4.175   4.171   9.563 -0.4397 -0.9242  0.6583
 4039SOL     OW23752   2.639   2.629  13.914 -0.4972  0.3556  0.6655
 4039SOL    HW123753   2.551   2.667  13.914 -0.1343  1.2037 -0.1057
 4039SOL    HW223754   2.662   2.634  13.821  1.6000  0.9876  1.2116
 4040SOL     OW23755   1.957   1.496   9.183  0.1368  0.0434 -0.0233
 4040SOL    HW123756   2.012   1.426   9.219 -0.9232  0.0803  1.6231
 4040SOL    HW223757   1.891   1.447   9.133  0.7842  0.2966 -1.1408
 4041SOL     OW23758   0.222   2.912  15.190  0.2917  0.2888 -0.4843
 4041SOL    HW123759   0.274   2.989  15.213  1.1570 -0.2671 -0.5689
 4041SOL    HW223760   0.140   2.935  15.235  0.7226  0.1483  0.3652
 4042SOL     OW23761   1.214   4.721   6.895  0.0050 -0.2124 -0.5833
 4042SOL    HW123762   1.235   4.672   6.815 -0.7731  0.9764 -1.5159
 4042SOL    HW223763   1.193   4.647   6.953 -1.6069 -0.3426 -1.3414
 4043SOL     OW23764   1.902   4.065   6.086  0.0007 -0.0893  0.3057
 4043SOL    HW123765   1.893   4.015   6.006  0.2889  0.6686 -0.2021
 4043SOL    HW223766   1.973   4.121   6.056  0.5265 -0.9491 -0.0497
 4044SOL     OW23767   4.134   0.378   7.195 -0.2395 -0.0773  0.2395
 4044SOL    HW123768   4.181   0.452   7.156 -0.6567 -0.7628 -1.5387
 4044SOL    HW223769   4.053   0.420   7.224  0.6820  2.5590 -0.9851
 4045SOL     OW23770   1.879   1.819   7.514 -0.4317 -0.3652  0.2131
 4045SOL    HW123771   1.874   1.843   7.421 -0.4274  1.5618  0.7099
 4045SOL    HW223772   1.957   1.866   7.544 -0.0578 -0.2126 -1.0019
 4046SOL     OW23773   0.453   4.444   8.675  0.0954  0.4602  0.1884
 4046SOL    HW123774   0.484   4.534   8.676  1.3188  0.0442  0.3590
 4046SOL    HW223775   0.486   4.411   8.759  0.5478 -1.0710 -0.5924
 4047SOL     OW23776   2.881   4.395   4.667  0.6305 -0.4953 -1.0030
 4047SOL    HW123777   2.860   4.307   4.636 -1.5301  0.1948 -1.5564
 4047SOL    HW223778   2.865   4.382   4.761  0.5183  2.4044 -0.6051
 4048SOL     OW23779   3.136   4.617   8.282 -0.3319 -0.3679 -0.0305
 4048SOL    HW123780   3.159   4.698   8.328 -0.4082  0.4913 -1.5017
 4048SOL    HW223781   3.143   4.652   8.193 -2.0691  0.9303  0.3455
 4049SOL     OW23782   0.261   4.199   5.609  0.2650 -0.1505 -0.3051
 4049SOL    HW123783   0.317   4.165   5.540  0.7010  0.9852 -0.5128
 4049SOL    HW223784   0.281   4.130   5.672  3.7127  0.0777 -1.1727
 4050SOL     OW23785   1.030   3.287   2.919  0.4935  0.1633  0.6220
 4050SOL    HW123786   1.005   3.331   3.000  0.3130  3.3074 -1.1494
 4050SOL    HW223787   0.978   3.326   2.849 -0.5897 -1.9520  0.2455
 4051SOL     OW23788   0.235   1.441   7.021 -0.4855 -0.8147 -0.6089
 4051SOL    HW123789   0.282   1.388   6.957  0.3770 -1.8339  0.8707
 4051SOL    HW223790   0.297   1.417   7.090 -0.3509  1.4438  0.0456
 4052SOL     OW23791   0.105   4.475   4.268 -0.1140 -0.7049  0.1148
 4052SOL    HW123792   0.190   4.438   4.247  0.0562 -0.4079  0.2766
 4052SOL    HW223793   0.051   4.396   4.263 -0.6292 -0.3427 -0.0696
 4053SOL     OW23794   2.466   4.276   7.616 -0.2326 -0.2348 -0.2414
 4053SOL    HW123795   2.468   4.211   7.546 -0.1541 -1.3523  0.8009
 4053SOL    HW223796   2.372   4.285   7.635  0.0903  1.3634  0.6381
 4054SOL     OW23797   1.972   1.261   3.696 -0.4580 -0.2613  0.7266
 4054SOL    HW123798   1.957   1.347   3.736 -0.7764 -0.5620  1.2630
 4054SOL    HW223799   1.890   1.242   3.652  0.3960 -0.0787 -0.9471
 4055SOL     OW23800   4.229   1.257   3.909 -0.3912 -0.2774 -0.1933
 4055SOL    HW123801   4.282   1.197   3.962 -1.0656 -0.1996  0.5769
 4055SOL    HW223802   4.241   1.340   3.955 -0.4089 -1.3054  1.6659
 4056SOL     OW23803   0.827   0.624   9.585 -0.0989 -0.3077 -0.3152
 4056SOL    HW123804   0.852   0.543   9.628 -0.4105  1.1339  2.5940
 4056SOL    HW223805   0.903   0.636   9.527  2.6617 -1.8210  3.0085
 4057SOL     OW23806   4.412   0.434   3.309 -0.1789  0.3249  0.4318
 4057SOL    HW123807   4.391   0.520   3.346 -0.2054  0.3297  0.4057
 4057SOL    HW223808   4.463   0.403   3.384 -0.8636 -0.3982  0.5929
 4058SOL     OW23809   0.813   3.017   4.973  0.2322 -0.0469  0.6297
 4058SOL    HW123810   0.874   3.079   4.934  0.8397 -2.0842 -1.6591
 4058SOL    HW223811   0.759   3.084   5.014  2.1449  1.0466  1.3314
 4059SOL     OW23812   2.437   1.092   2.839  0.0745  0.4886 -0.9835
 4059SOL    HW123813   2.456   1.183   2.861 -0.8730  0.6985 -1.0241
 4059SOL    HW223814   2.416   1.049   2.922  2.1753  0.4427 -0.4787
 4060SOL     OW23815   1.886   3.221  14.035  0.4650  0.2484  0.0687
 4060SOL    HW123816   1.821   3.151  14.042 -0.5368  0.9208 -2.6712
 4060SOL    HW223817   1.912   3.235  14.127  0.2801  1.2548 -0.0321
 4061SOL     OW23818   3.822   4.230   3.353 -0.0561 -0.1467  0.0158
 4061SOL    HW123819   3.814   4.185   3.269 -2.4796  0.0795  0.1309
 4061SOL    HW223820   3.743   4.284   3.351 -0.2200 -0.3538  1.2717
 4062SOL     OW23821   3.293   1.531  13.219 -0.1541  0.3007  0.0482
 4062SOL    HW123822   3.243   1.453  13.197  1.2592 -0.9143  1.1404
 4062SOL    HW223823   3.371   1.480  13.241  0.7824  1.8801  0.3708
 4063SOL     OW23824   2.963   0.674  16.897  0.1610 -0.0375  0.1608
 4063SOL    HW123825   2.977   0.581  16.916  1.0819  0.0242 -0.1855
 4063SOL    HW223826   2.901   0.678  16.825 -0.0181  2.2615  0.4662
 4064SOL     OW23827   4.528   1.002  11.750  0.0261 -0.1173 -0.3329
 4064SOL    HW123828   4.609   1.036  11.711  0.2202  1.6446  1.6006
 4064SOL    HW223829   4.538   0.909  11.730 -0.6031 -0.2239 -0.1451
 4065SOL     OW23830   1.772   3.966   1.780  0.3037  0.0438  0.1333
 4065SOL    HW123831   1.809   3.949   1.693  1.1891 -1.2902  0.7580
 4065SOL    HW223832   1.833   4.032   1.813  1.4131 -1.2628  0.7035
 4066SOL     OW23833   1.885   1.522   6.140 -0.3660 -0.4657 -0.0841
 4066SOL    HW123834   1.898   1.434   6.173 -0.0946 -0.4518 -0.1492
 4066SOL    HW223835   1.821   1.554   6.203 -0.1927 -0.4944  0.1057
 4067SOL     OW23836   2.243   1.570   6.370  0.4455 -0.2276  0.5980
 4067SOL    HW123837   2.329   1.557   6.330 -1.1322 -2.8554 -2.0312
 4067SOL    HW223838   2.199   1.605   6.292  2.0079  0.4442  0.0291
 4068SOL     OW23839   2.087   0.444  10.861 -0.3481  0.3531  0.3361
 4068SOL    HW123840   2.071   0.356  10.828  0.5207 -0.0961  1.1307
 4068SOL    HW223841   2.176   0.453  10.826  0.5136 -1.3795  2.0982
 4069SOL     OW23842   4.112   1.130   5.122 -0.2396 -0.2148  0.5694
 4069SOL    HW123843   4.188   1.146   5.066  0.0914  0.8296  1.3025
 4069SOL    HW223844   4.043   1.151   5.060  0.6609 -1.1852 -0.7555
 4070SOL     OW23845   4.350   4.515   0.557 -0.5189  0.3692  0.1548
 4070SOL    HW123846   4.357   4.594   0.611 -0.0786 -0.4124  1.2217
 4070SOL    HW223847   4.403   4.462   0.616 -0.1244  0.9673  0.3351
 4071SOL     OW23848   4.509   1.499  12.818  0.5526 -0.2966  0.1285
 4071SOL    HW123849   4.601   1.508  12.797  0.8426 -3.1856  0.0766
 4071SOL    HW223850   4.508   1.440  12.894  3.5085 -1.2191 -0.5500
 4072SOL     OW23851   1.307   4.697   2.046  0.7584 -0.4295  0.9856
 4072SOL    HW123852   1.281   0.019   2.117 -1.0677  0.8055 -0.7039
 4072SOL    HW223853   1.383   0.007   2.013 -0.1556  0.9282  0.8299
 4073SOL     OW23854   0.961   4.418   3.985 -0.4984 -0.3057 -0.6253
 4073SOL    HW123855   0.888   4.396   3.926 -1.9305 -0.3748  1.1658
 4073SOL    HW223856   0.948   4.510   4.006  1.0710  0.1652 -1.7305
 4074SOL     OW23857   3.463   2.172   7.179  0.0971 -0.0406 -0.0443
 4074SOL    HW123858   3.521   2.200   7.108 -0.2028  0.3782 -0.1316
 4074SOL    HW223859   3.444   2.087   7.141 -0.0647 -0.9748  2.1119
 4075SOL     OW23860   2.981   2.431  17.635 -0.4235 -0.6398  0.1920
 4075SOL    HW123861   3.004   2.407  17.545 -2.2504  0.8090 -0.6636
 4075SOL    HW223862   3.060   2.402  17.681  0.4461 -1.0920 -1.6080
 4076SOL     OW23863   2.055   4.111   7.928  0.2050  0.3761  0.5011
 4076SOL    HW123864   2.028   4.197   7.959  3.2223  1.6187 -0.3241
 4076SOL    HW223865   2.009   4.045   7.980  2.0630 -1.6634 -0.4189
 4077SOL     OW23866   3.262   4.709   3.153 -0.4950  0.0356  0.1122
 4077SOL    HW123867   3.194   0.034   3.127 -0.0493  1.0546  1.4110
 4077SOL    HW223868   3.341   0.011   3.118 -0.9071 -0.2973 -1.1892
 4078SOL     OW23869   2.314   2.460   8.496 -0.5395  0.4224 -0.0318
 4078SOL    HW123870   2.229   2.455   8.452  0.4830 -1.4873 -1.8292
 4078SOL    HW223871   2.352   2.548   8.489  3.1433 -1.0097  1.9704
 4079SOL     OW23872   1.307   0.349   3.656 -0.2393 -0.1943 -0.0027
 4079SOL    HW123873   1.289   0.380   3.567  0.8644 -0.1767 -0.2223
 4079SOL    HW223874   1.240   0.282   3.666  0.8291 -1.2363  0.1816
 4080SOL     OW23875   1.646   0.875   3.844  0.2326 -0.5156 -0.0699
 4080SOL    HW123876   1.637   0.951   3.901 -2.8197 -0.5599 -0.4964
 4080SOL    HW223877   1.555   0.865   3.816  0.5707  0.0433 -1.3768
 4081SOL     OW23878   2.434   2.977   6.977  0.5766  0.4379  0.0821
 4081SOL    HW123879   2.529   2.978   6.988  0.7669  0.6650 -1.5239
 4081SOL    HW223880   2.421   3.072   6.986 -0.9072  0.3682 -1.2780
 4082SOL     OW23881   4.004   0.670   5.426  0.0581  0.7537 -0.3963
 4082SOL    HW123882   4.093   0.705   5.432  0.4527  0.0684 -2.2096
 4082SOL    HW223883   3.965   0.714   5.350  1.7918  0.2910 -1.5383
 4083SOL     OW23884   0.659   4.656   5.985 -0.9195 -0.4870  0.0786
 4083SOL    HW123885   0.594   4.587   5.995 -0.5586 -0.3899  3.2003
 4083SOL    HW223886   0.727   4.639   6.050 -1.9805 -0.5102  1.1870
 4084SOL     OW23887   0.166   4.619  13.027  0.4524  0.0558  0.6393
 4084SOL    HW123888   0.120   4.552  12.976 -0.5922  0.3221  1.2370
 4084SOL    HW223889   0.258   4.594  13.017  0.4788  0.5299 -0.2927
 4085SOL     OW23890   1.165   4.111   6.444  0.1329 -0.0846 -0.3932
 4085SOL    HW123891   1.140   4.200   6.420  1.7932  0.3638 -0.4322
 4085SOL    HW223892   1.088   4.080   6.494 -0.7556  2.4698 -0.2086
 4086SOL     OW23893   3.546   0.106   6.766  0.4052  0.9554 -0.2727
 4086SOL    HW123894   3.611   0.172   6.793  0.5108  0.4080  0.8042
 4086SOL    HW223895   3.476   0.135   6.824  0.8209 -2.5199  1.9683
 4087SOL     OW23896   0.359   3.609   9.226  0.2408  0.3257 -0.1771
 4087SOL    HW123897   0.302   3.560   9.285 -1.8264  2.2790 -0.5353
 4087SOL    HW223898   0.402   3.676   9.278 -0.8989  1.0448 -0.1779
 4088SOL     OW23899   1.100   1.903   8.658  0.3640  0.9135 -0.4817
 4088SOL    HW123900   1.150   1.821   8.662 -0.2598  0.5338 -0.3905
 4088SOL    HW223901   1.010   1.875   8.676 -0.1401  2.6348 -0.3809
 4089SOL     OW23902   0.276   0.233  11.535  0.2228  0.1420 -1.0306
 4089SOL    HW123903   0.323   0.273  11.608 -1.2511 -0.1026  0.0413
 4089SOL    HW223904   0.187   0.240  11.569  0.0176 -0.9630 -1.3439
 4090SOL     OW23905   3.096   2.607  14.479  0.0701 -0.4463 -0.2152
 4090SOL    HW123906   3.106   2.634  14.570 -3.1259  1.1363 -0.3002
 4090SOL    HW223907   3.015   2.556  14.484  2.0843 -3.6928 -0.6737
 4091SOL     OW23908   3.223   1.320   6.141 -0.4761  1.2649 -0.0829
 4091SOL    HW123909   3.187   1.302   6.054  0.6425 -0.3413 -0.2228
 4091SOL    HW223910   3.316   1.341   6.131 -0.1879 -1.2163 -2.5881
 4092SOL     OW23911   3.377   1.993   4.388  0.5441  0.0436  0.0431
 4092SOL    HW123912   3.356   1.904   4.418  0.1065  0.8070  2.0113
 4092SOL    HW223913   3.375   2.042   4.471  0.4894  1.6114 -0.8816
 4093SOL     OW23914   0.675   0.359  12.082 -0.1916 -0.0357  0.8038
 4093SOL    HW123915   0.604   0.346  12.019 -1.4713  2.5495  1.6919
 4093SOL    HW223916   0.722   0.431  12.040 -0.9300  0.3018  0.5607
 4094SOL     OW23917   4.018   1.132  14.178 -0.1157 -0.1794 -0.5817
 4094SOL    HW123918   4.076   1.153  14.104  0.9389 -0.5728  0.1326
 4094SOL    HW223919   4.067   1.185  14.241 -0.4027  1.1338 -1.4446
 4095SOL     OW23920   1.566   1.485  11.355 -0.2281  0.3816 -0.0747
 4095SOL    HW123921   1.528   1.454  11.438  1.1391  1.0336  0.7958
 4095SOL    HW223922   1.483   1.525  11.331 -0.1037  0.5974 -0.1501
 4096SOL     OW23923   0.074   2.749   9.625 -0.3446 -0.3323 -0.2320
 4096SOL    HW123924   0.076   2.806   9.702  1.0635 -1.0227  0.2387
 4096SOL    HW223925   0.158   2.704   9.615 -1.1513 -1.3158 -2.5207
 4097SOL     OW23926   2.257   1.633  11.232 -0.6289  0.1916 -0.4810
 4097SOL    HW123927   2.248   1.548  11.274 -1.5104  0.0688 -0.9284
 4097SOL    HW223928   2.350   1.643  11.213 -0.9062  1.3399 -1.2475
 4098SOL     OW23929   1.635   3.256  13.849 -0.2845 -0.4027 -0.3253
 4098SOL    HW123930   1.554   3.218  13.813 -0.8259 -0.7145  1.2085
 4098SOL    HW223931   1.614   3.338  13.893 -1.7839 -0.2541 -1.3227
 4099SOL     OW23932   1.917   1.899  17.572 -0.3272  0.0086 -0.0887
 4099SOL    HW123933   2.011   1.890  17.589 -0.3786  0.0187  0.2113
 4099SOL    HW223934   1.910   1.810  17.539  1.6332  0.0576 -0.6338
 4100SOL     OW23935   0.437   2.363  11.479 -0.2740  0.2381 -0.4886
 4100SOL    HW123936   0.422   2.458  11.474  0.6081  0.3026 -1.6476
 4100SOL    HW223937   0.422   2.340  11.571 -1.1757 -1.5185 -1.0874
 4101SOL     OW23938   2.896   0.046  13.534 -0.6367 -0.2883  0.4864
 4101SOL    HW123939   2.973   0.062  13.479 -0.6037  3.5701  1.6631
 4101SOL    HW223940   2.864   0.136  13.530  1.7955  0.5187 -1.0917
 4102SOL     OW23941   2.230   0.214  17.591  0.2371  0.0024 -0.1776
 4102SOL    HW123942   2.294   0.230  17.661 -1.7731  0.6588  1.5401
 4102SOL    HW223943   2.232   0.295  17.540  1.6198 -0.7124 -1.2478
 4103SOL     OW23944   0.595   1.490   7.401  0.0349 -0.1785 -0.5416
 4103SOL    HW123945   0.674   1.444   7.429  0.5060  2.2105  2.0286
 4103SOL    HW223946   0.546   1.496   7.483  0.4067  2.2719 -0.5135
 4104SOL     OW23947   0.306   1.751   8.477 -0.0874 -0.3825 -0.3581
 4104SOL    HW123948   0.304   1.720   8.387  2.6149 -0.4758 -0.4057
 4104SOL    HW223949   0.399   1.765   8.499  0.3113 -1.3447 -1.4564
 4105SOL     OW23950   3.895   4.716  11.100 -0.3438 -0.1635  0.5464
 4105SOL    HW123951   3.924   0.031  11.175  1.0879  0.7657 -0.6529
 4105SOL    HW223952   3.967   4.721  11.037 -0.2662 -1.2936  0.5587
 4106SOL     OW23953   3.127   2.577  12.157 -0.1623  0.1366  0.2885
 4106SOL    HW123954   3.152   2.649  12.100  1.2269 -1.0973 -0.6700
 4106SOL    HW223955   3.146   2.501  12.101 -2.6754 -0.5050  0.2930
 4107SOL     OW23956   3.628   1.182  12.177  0.1097  0.0422 -0.3040
 4107SOL    HW123957   3.674   1.156  12.096 -0.5853 -0.2722 -0.5964
 4107SOL    HW223958   3.612   1.095  12.213  0.6082  0.0420 -0.0788
 4108SOL     OW23959   0.394   2.508  10.959  0.2010  0.2829  0.0729
 4108SOL    HW123960   0.354   2.467  11.036 -0.0374 -1.1981 -0.8259
 4108SOL    HW223961   0.389   2.430  10.903  0.5930 -0.2649  0.8021
 4109SOL     OW23962   1.191   1.945  13.384  0.4653 -0.0249 -0.3004
 4109SOL    HW123963   1.271   1.997  13.373 -0.4937  0.8161 -3.1073
 4109SOL    HW223964   1.160   1.921  13.297  0.5632  0.7680 -0.5481
 4110SOL     OW23965   0.305   0.742  13.609 -0.3361  1.2798 -0.4505
 4110SOL    HW123966   0.362   0.742  13.686  0.4252  2.6423 -1.0077
 4110SOL    HW223967   0.232   0.697  13.651  0.4428 -0.0183 -0.4868
 4111SOL     OW23968   3.770   0.359  15.825  0.3931  0.5901  0.1670
 4111SOL    HW123969   3.769   0.318  15.738 -2.6909  3.8328 -1.3246
 4111SOL    HW223970   3.706   0.430  15.820  1.3908  1.4943  0.3008
 4112SOL     OW23971   0.367   3.826  16.783 -0.1888 -0.0458 -0.2353
 4112SOL    HW123972   0.444   3.882  16.787 -2.0978  2.3497  3.0836
 4112SOL    HW223973   0.387   3.789  16.696 -1.8485  1.3419 -1.1971
 4113SOL     OW23974   1.765   3.033   5.513  0.4735 -0.4083  0.1365
 4113SOL    HW123975   1.678   3.006   5.483 -0.6162  3.0566  0.1060
 4113SOL    HW223976   1.820   2.994   5.446  1.3765 -1.8938  1.7305
 4114SOL     OW23977   4.098   3.360   5.769 -0.0156 -0.4822  0.5884
 4114SOL    HW123978   4.074   3.452   5.762 -2.1909 -1.1796 -1.1185
 4114SOL    HW223979   4.127   3.355   5.860  1.9130  2.4530  0.1334
 4115SOL     OW23980   3.256   2.203  12.358  0.7022 -0.2188  0.4197
 4115SOL    HW123981   3.182   2.170  12.307  0.2426  0.8277  0.4086
 4115SOL    HW223982   3.330   2.199  12.296  0.1124  2.0549 -0.4318
 4116SOL     OW23983   2.175   1.272   3.232 -0.4289  0.3935 -0.4160
 4116SOL    HW123984   2.168   1.290   3.326  1.7685  2.1113 -0.5801
 4116SOL    HW223985   2.235   1.341   3.203 -1.7359  2.7420  2.4579
 4117SOL     OW23986   3.211   1.211   0.452  0.0444  0.0070 -0.0828
 4117SOL    HW123987   3.281   1.186   0.512  1.0179 -1.9086 -1.9892
 4117SOL    HW223988   3.259   1.271   0.395 -2.6125  0.9027 -1.3816
 4118SOL     OW23989   3.272   0.787   8.523 -0.1309 -0.7748 -0.0731
 4118SOL    HW123990   3.188   0.743   8.528  0.3222 -1.8663 -2.2012
 4118SOL    HW223991   3.329   0.726   8.569  2.0657  0.3890 -1.2104
 4119SOL     OW23992   3.341   2.851  15.858  0.2975 -0.1706 -0.1021
 4119SOL    HW123993   3.352   2.812  15.944  0.5452  0.3996  0.1252
 4119SOL    HW223994   3.245   2.856  15.862  0.3892 -0.4661  2.4119
 4120SOL     OW23995   2.995   2.994  10.795  0.1142 -0.0159 -0.3667
 4120SOL    HW123996   3.006   3.084  10.827  1.7924 -1.2161  2.3534
 4120SOL    HW223997   3.016   2.991  10.701  1.0710 -2.8411 -0.0484
 4121SOL     OW23998   3.287   2.196   8.992  0.6441  0.1673 -0.5686
 4121SOL    HW123999   3.244   2.256   9.052 -0.9681  0.6798 -2.2295
 4121SOL    HW224000   3.225   2.204   8.919 -0.2384  0.3199  0.1937
 4122SOL     OW24001   1.496   0.492   1.157 -0.1771 -0.0187 -0.0716
 4122SOL    HW124002   1.474   0.517   1.246  2.6599  0.4350  0.5243
 4122SOL    HW224003   1.418   0.441   1.134 -0.4954  0.4729 -0.0788
 4123SOL     OW24004   4.247   2.824  12.657 -0.2884 -0.2219  0.0260
 4123SOL    HW124005   4.172   2.881  12.645  1.0779  1.2870 -1.4372
 4123SOL    HW224006   4.290   2.855  12.577 -0.6920 -0.1706 -0.1674
 4124SOL     OW24007   1.814   2.042   3.878  0.2553  0.0798 -0.2015
 4124SOL    HW124008   1.859   2.125   3.894 -0.9377  0.2890  2.1644
 4124SOL    HW224009   1.867   2.018   3.802  0.6867  0.1596  0.0733
 4125SOL     OW24010   3.052   0.495   9.987  0.7652  0.1986  0.0116
 4125SOL    HW124011   3.048   0.590   9.995 -0.3526  0.1019  0.5642
 4125SOL    HW224012   3.076   0.481  10.079  0.4021 -0.8574 -0.0449
 4126SOL     OW24013   3.745   1.168   7.855 -0.0438 -0.0693 -0.3051
 4126SOL    HW124014   3.808   1.099   7.834  0.6948 -0.1915  2.3490
 4126SOL    HW224015   3.713   1.123   7.933 -1.4605 -0.6494 -1.2031
 4127SOL     OW24016   3.062   2.279   0.642 -0.0393 -0.2528  0.7614
 4127SOL    HW124017   3.032   2.204   0.590 -0.6138 -0.2743  1.1292
 4127SOL    HW224018   3.019   2.352   0.597  1.8633  0.1173 -0.4554
 4128SOL     OW24019   1.876   1.687   8.628  0.4622 -0.3157 -0.1042
 4128SOL    HW124020   1.862   1.593   8.642 -1.0785 -0.0448  0.2222
 4128SOL    HW224021   1.895   1.687   8.534  0.2903  2.7770 -0.1301
 4129SOL     OW24022   4.197   2.300  12.665 -0.0357  0.5162  0.5139
 4129SOL    HW124023   4.176   2.391  12.685  3.1334  0.9726  1.6699
 4129SOL    HW224024   4.116   2.280  12.618 -0.8808 -0.9578  2.5990
 4130SOL     OW24025   2.792   4.162   3.822  0.2092 -0.3781 -0.2216
 4130SOL    HW124026   2.831   4.076   3.838 -1.1762 -0.6523  1.6777
 4130SOL    HW224027   2.741   4.170   3.902 -0.0655  0.9056 -0.5318
 4131SOL     OW24028   1.811   3.424   8.368  0.0608 -0.4241 -0.3200
 4131SOL    HW124029   1.737   3.408   8.428  0.7781 -1.8664  0.1881
 4131SOL    HW224030   1.774   3.445   8.282  0.5311 -0.5034 -0.5423
 4132SOL     OW24031   2.820   4.581   5.950 -0.0215 -0.1254 -0.6896
 4132SOL    HW124032   2.726   4.563   5.957  0.1578 -1.3750 -1.4217
 4132SOL    HW224033   2.813   4.598   5.856  0.4298  0.0194 -0.6954
 4133SOL     OW24034   3.688   3.201  15.233 -0.2541  0.6688 -0.0568
 4133SOL    HW124035   3.605   3.230  15.270 -0.2917 -0.7319  0.9429
 4133SOL    HW224036   3.670   3.193  15.139 -1.4205 -0.4882  0.2688
 4134SOL     OW24037   3.282   3.158   8.213 -0.1443 -0.6063 -0.1356
 4134SOL    HW124038   3.223   3.087   8.188 -1.0889  0.8350 -2.0321
 4134SOL    HW224039   3.309   3.196   8.129  0.5614  1.1058  0.8743
 4135SOL     OW24040   2.650   3.889   6.848  0.1437 -0.3524  0.8156
 4135SOL    HW124041   2.559   3.919   6.844  0.3195  0.0531 -0.3056
 4135SOL    HW224042   2.697   3.965   6.881  2.0702 -1.7596  1.2612
 4136SOL     OW24043   4.349   3.899  15.511 -0.6223  0.1014  0.3763
 4136SOL    HW124044   4.354   3.826  15.449 -0.4964 -0.8596  1.5358
 4136SOL    HW224045   4.300   3.960  15.455  0.1277 -0.8875 -1.3768
 4137SOL     OW24046   4.274   3.682   6.157 -0.1875  0.4667  0.0970
 4137SOL    HW124047   4.215   3.608   6.149 -0.8887  0.9403  0.8427
 4137SOL    HW224048   4.341   3.666   6.090 -1.2612  1.1014 -1.1351
 4138SOL     OW24049   3.318   2.993   0.718 -0.1350  0.1852  0.1892
 4138SOL    HW124050   3.238   2.973   0.669  0.6309 -1.6720 -0.3110
 4138SOL    HW224051   3.349   2.903   0.718  0.8193  0.5144  0.9250
 4139SOL     OW24052   3.352   0.358   5.642  0.0967  0.0851 -0.0343
 4139SOL    HW124053   3.371   0.351   5.549 -2.2233 -1.9130 -0.3371
 4139SOL    HW224054   3.370   0.450   5.663 -0.9341  0.0113  1.1537
 4140SOL     OW24055   2.398   3.485   3.084 -0.0782  0.1682 -0.2635
 4140SOL    HW124056   2.335   3.432   3.035 -2.1765  1.8378  0.6119
 4140SOL    HW224057   2.342   3.496   3.160  0.6817  0.1632  0.2961
 4141SOL     OW24058   0.813   0.226  12.563  0.4214  0.3288  0.0412
 4141SOL    HW124059   0.763   0.291  12.614 -0.0477  0.1881 -0.2410
 4141SOL    HW224060   0.893   0.238  12.614  1.4459  1.3141 -1.8245
 4142SOL     OW24061   2.184   0.299  15.994 -0.5951 -0.7933  0.8835
 4142SOL    HW124062   2.249   0.286  16.063 -1.1711  2.1667  1.9557
 4142SOL    HW224063   2.232   0.273  15.915 -1.0662 -2.0609  1.0196
 4143SOL     OW24064   3.654   4.347   9.773 -0.1491  0.2227  0.1461
 4143SOL    HW124065   3.711   4.424   9.776 -0.0804  0.1328  1.1979
 4143SOL    HW224066   3.716   4.280   9.800 -1.1481 -0.5707  0.4856
 4144SOL     OW24067   2.186   0.441   8.790 -0.0952 -0.7762  0.0629
 4144SOL    HW124068   2.195   0.499   8.866  0.5700  0.2450 -0.8024
 4144SOL    HW224069   2.208   0.507   8.725  2.0003  1.1301  2.7112
 4145SOL     OW24070   0.241   0.574  15.151  0.2487  0.1050  0.4600
 4145SOL    HW124071   0.254   0.480  15.150 -1.8379 -0.1903  0.0038
 4145SOL    HW224072   0.146   0.580  15.160 -0.0259  0.0609 -2.6572
 4146SOL     OW24073   4.513   3.209   1.679 -0.0064 -0.4572  0.3757
 4146SOL    HW124074   4.432   3.257   1.697  1.3901  2.2804 -0.6318
 4146SOL    HW224075   4.583   3.248   1.733 -0.4947 -1.0856  1.4674
 4147SOL     OW24076   3.056   0.186  12.163 -0.1509  0.5878 -0.1770
 4147SOL    HW124077   2.999   0.115  12.192  1.1603 -0.7527 -0.9000
 4147SOL    HW224078   3.106   0.150  12.090  0.2073 -3.0900  1.8919
 4148SOL     OW24079   2.934   3.444   2.339  0.2449  0.1302  0.2834
 4148SOL    HW124080   2.873   3.486   2.278 -0.0928 -0.3380  0.2973
 4148SOL    HW224081   2.919   3.353   2.313 -0.0043  0.2123  0.1369
 4149SOL     OW24082   2.550   3.556   6.599 -0.1978 -0.4109 -0.1011
 4149SOL    HW124083   2.556   3.651   6.616 -0.0718  0.0600 -2.8263
 4149SOL    HW224084   2.488   3.559   6.526  0.2707  0.3144 -0.4684
 4150SOL     OW24085   2.016   3.001  14.518 -0.0920 -0.0655  0.2241
 4150SOL    HW124086   1.967   3.069  14.563 -0.8561 -0.2655 -0.3050
 4150SOL    HW224087   1.967   2.982  14.438 -3.6600 -0.4548  2.4664
 4151SOL     OW24088   1.569   0.655  15.499  0.2119  0.2632 -0.7775
 4151SOL    HW124089   1.604   0.589  15.440  0.4701  1.2451 -1.7318
 4151SOL    HW224090   1.633   0.655  15.570 -1.2660 -0.5845  0.5703
 4152SOL     OW24091   3.801   0.571   1.005  0.5087 -0.2220 -0.3276
 4152SOL    HW124092   3.855   0.526   0.941 -0.0719 -1.4098  0.0145
 4152SOL    HW224093   3.716   0.528   0.994  0.1427  0.6898 -1.0405
 4153SOL     OW24094   0.777   0.595  14.815  0.0707  0.2959  0.4940
 4153SOL    HW124095   0.725   0.664  14.774  1.8664  2.2335  1.4598
 4153SOL    HW224096   0.778   0.624  14.906 -4.6394 -3.1754  1.6818
 4154SOL     OW24097   0.371   0.565  11.369  0.0329 -0.3291  0.0642
 4154SOL    HW124098   0.302   0.532  11.426 -0.5523  1.3200  0.3008
 4154SOL    HW224099   0.328   0.633  11.319 -3.4368 -2.4233  0.2096
 4155SOL     OW24100   1.213   3.422  11.918  0.1721 -0.5698 -0.2091
 4155SOL    HW124101   1.294   3.435  11.967  1.7022 -0.5789 -2.7426
 4155SOL    HW224102   1.252   3.402  11.833 -0.7225 -0.7932 -0.5675
 4156SOL     OW24103   1.085   4.089  10.276  0.0533  0.2419  0.2929
 4156SOL    HW124104   1.031   4.106  10.354  0.1865  0.7245  0.2835
 4156SOL    HW224105   1.172   4.103  10.314  0.5282  1.6435 -1.3195
 4157SOL     OW24106   4.321   0.607  11.816  0.2907  0.0958 -0.1764
 4157SOL    HW124107   4.340   0.685  11.868  2.4000 -1.2717  1.0965
 4157SOL    HW224108   4.299   0.543  11.883  2.2633 -0.5752 -0.1566
 4158SOL     OW24109   3.787   1.870   7.174 -0.3639  0.1709 -0.3687
 4158SOL    HW124110   3.815   1.930   7.243 -3.5765  1.6277 -0.3264
 4158SOL    HW224111   3.848   1.796   7.179 -1.5186 -0.8486 -1.3308
 4159SOL     OW24112   2.913   4.512   6.675  0.6326  0.2408  0.1739
 4159SOL    HW124113   2.829   4.553   6.697  0.4789  0.4428 -0.7925
 4159SOL    HW224114   2.922   4.466   6.759  1.4614  1.0977  0.5570
 4160SOL     OW24115   3.240   1.056  16.878  0.8623 -0.4635 -0.6091
 4160SOL    HW124116   3.196   1.058  16.963 -0.8247  0.3778 -1.4919
 4160SOL    HW224117   3.185   1.113  16.824 -0.6568 -1.9754 -0.6622
 4161SOL     OW24118   0.262   4.688   7.776  0.0338  0.0722  0.5031
 4161SOL    HW124119   0.168   4.670   7.782 -0.4147  3.3252  3.0070
 4161SOL    HW224120   0.264   0.042   7.748 -0.1642  0.2103  0.9386
 4162SOL     OW24121   1.725   4.201   8.755 -0.1778  0.4858  0.5221
 4162SOL    HW124122   1.702   4.173   8.666  0.8143  1.4024 -0.0269
 4162SOL    HW224123   1.668   4.276   8.772  0.7458  1.2672  0.1523
 4163SOL     OW24124   1.697   0.490   2.767  0.4180  0.3597 -0.0368
 4163SOL    HW124125   1.764   0.439   2.723  0.0224  0.0969 -0.3323
 4163SOL    HW224126   1.750   0.533   2.834 -0.7931  0.1766  1.0431
 4164SOL     OW24127   0.081   2.120   5.840 -0.2468  0.1797 -0.1690
 4164SOL    HW124128   0.075   2.181   5.913  1.4590  1.4200 -1.0532
 4164SOL    HW224129   0.068   2.036   5.884  1.7987 -0.3115 -0.4624
 4165SOL     OW24130   3.695   2.306   9.473  0.0935 -0.5687 -0.4056
 4165SOL    HW124131   3.671   2.242   9.406  0.7130 -0.4394 -0.7544
 4165SOL    HW224132   3.744   2.367   9.418  0.7288 -1.0691 -0.3949
 4166SOL     OW24133   4.649   2.148   6.732  0.7900  0.4332  0.1150
 4166SOL    HW124134   4.601   2.152   6.814  1.8065  0.0941  0.7271
 4166SOL    HW224135   4.615   2.075   6.681  1.6494 -0.3836  0.6997
 4167SOL     OW24136   4.730   4.582   7.843 -0.0247 -0.0513 -0.6795
 4167SOL    HW124137   4.691   4.569   7.756 -1.6961 -1.9519  0.3357
 4167SOL    HW224138   0.026   4.495   7.865  0.8794  0.9431  1.8534
 4168SOL     OW24139   4.274   3.472   6.340 -0.3105  1.1676 -0.0884
 4168SOL    HW124140   4.325   3.392   6.327 -0.3651  1.3294 -1.2824
 4168SOL    HW224141   4.329   3.534   6.293  0.9876 -0.9602 -1.3603
 4169SOL     OW24142   1.152   4.214   0.794 -0.1814  0.2206  0.2165
 4169SOL    HW124143   1.103   4.177   0.868  0.5777 -3.0657 -0.9425
 4169SOL    HW224144   1.235   4.167   0.802 -1.1528 -1.3209  1.2868
 4170SOL     OW24145   4.271   3.010   2.566 -0.2755 -0.0999 -0.3105
 4170SOL    HW124146   4.265   3.068   2.641 -2.1480  0.9694 -1.3000
 4170SOL    HW224147   4.336   3.058   2.515 -0.5027  0.0457 -0.4669
 4171SOL     OW24148   1.534   1.880   8.037 -0.1692  0.4576 -0.5631
 4171SOL    HW124149   1.465   1.924   8.086 -0.4189 -0.1525 -0.3714
 4171SOL    HW224150   1.529   1.935   7.958  0.9395 -0.3993 -1.2259
 4172SOL     OW24151   1.453   3.187   8.653 -0.3486  0.1769  0.0354
 4172SOL    HW124152   1.360   3.192   8.632  0.1622  0.7922 -2.0213
 4172SOL    HW224153   1.453   3.130   8.731  0.0658  0.2987  0.1243
 4173SOL     OW24154   3.118   2.228   6.799  0.1014  0.4954  0.1676
 4173SOL    HW124155   3.050   2.210   6.863  0.2603 -1.1094 -0.1299
 4173SOL    HW224156   3.188   2.167   6.821 -1.7235 -1.5256  0.3312
 4174SOL     OW24157   1.076   1.604   6.418 -0.6541  0.0731 -0.3259
 4174SOL    HW124158   0.997   1.659   6.422  0.0407  0.9366  1.2298
 4174SOL    HW224159   1.142   1.672   6.404 -1.0822  1.0219  2.3064
 4175SOL     OW24160   0.408   4.058   0.527  0.1094  0.6170 -0.5939
 4175SOL    HW124161   0.483   4.021   0.572 -0.6969 -0.0983  0.1506
 4175SOL    HW224162   0.454   4.109   0.459  1.7326 -1.6227 -1.1742
 4176SOL     OW24163   0.746   2.305  14.905 -0.2445  0.2481 -0.2348
 4176SOL    HW124164   0.731   2.332  14.996  0.3813  1.4723 -0.5053
 4176SOL    HW224165   0.804   2.234  14.935  1.6544  1.6782 -0.5379
 4177SOL     OW24166   4.178   2.392   3.968 -0.7382  0.1280  0.1157
 4177SOL    HW124167   4.101   2.362   3.919  0.5936 -0.1328 -1.8339
 4177SOL    HW224168   4.224   2.310   3.980  0.1381  0.8993  2.0234
 4178SOL     OW24169   2.186   0.084  12.873 -0.2204 -0.0026 -0.2242
 4178SOL    HW124170   2.239   0.143  12.926 -0.9065 -0.9624  1.5566
 4178SOL    HW224171   2.238   0.082  12.793 -2.9526 -0.3234 -1.9983
 4179SOL     OW24172   0.450   4.315   0.716  0.6767 -0.1221  0.8590
 4179SOL    HW124173   0.516   4.380   0.740  1.1069 -0.6270  1.0332
 4179SOL    HW224174   0.426   4.351   0.630  3.8247 -1.2545 -0.4767
 4180SOL     OW24175   3.027   1.211  16.766  0.0067  0.1024 -0.0922
 4180SOL    HW124176   2.995   1.300  16.754  1.1916  0.7743  1.6489
 4180SOL    HW224177   2.977   1.165  16.698  1.5083  0.6609 -1.5709
 4181SOL     OW24178   1.995   0.365  16.612 -0.1059  0.3394 -0.0762
 4181SOL    HW124179   2.059   0.391  16.546  0.0980 -0.3953 -0.1619
 4181SOL    HW224180   1.924   0.429  16.603 -2.0597 -1.8136  0.0021
 4182SOL     OW24181   1.353   1.595   3.998  0.3440 -0.1651  0.0902
 4182SOL    HW124182   1.345   1.615   3.904 -2.1738 -1.7763 -0.0492
 4182SOL    HW224183   1.329   1.683   4.026  2.8130  0.5258 -0.0213
 4183SOL     OW24184   2.704   0.287   5.811  0.3389  0.0379  0.3848
 4183SOL    HW124185   2.678   0.288   5.903 -0.9775 -0.2769  0.0239
 4183SOL    HW224186   2.784   0.236   5.822  1.1250  1.6172  1.8421
 4184SOL     OW24187   3.990   0.437  14.568  0.1988 -0.1300  0.0809
 4184SOL    HW124188   3.914   0.479  14.529  0.0994 -2.0925 -1.8829
 4184SOL    HW224189   4.038   0.434  14.485  1.3059  2.6241  0.6311
 4185SOL     OW24190   4.382   2.548   6.195  0.4072  0.2524 -0.6533
 4185SOL    HW124191   4.391   2.473   6.254 -1.5852 -0.3931 -1.1602
 4185SOL    HW224192   4.288   2.565   6.198  0.1897 -1.0424 -0.1118
 4186SOL     OW24193   4.195   4.679  15.654  0.5844 -0.0126 -0.0752
 4186SOL    HW124194   4.198   4.588  15.625 -1.0983 -0.7862  2.1187
 4186SOL    HW224195   4.198   4.661  15.748 -0.4449 -0.2650 -0.0910
 4187SOL     OW24196   1.851   0.568  10.816 -0.1306 -0.3782  0.3641
 4187SOL    HW124197   1.936   0.530  10.838  0.5326  0.2511 -1.0606
 4187SOL    HW224198   1.851   0.531  10.728  1.0301  0.6349 -0.0739
 4188SOL     OW24199   4.385   0.106  14.157 -0.2655  0.6067  0.0583
 4188SOL    HW124200   4.341   0.040  14.211  0.9873  1.2023  1.8082
 4188SOL    HW224201   4.345   0.095  14.071 -0.8152  1.2911  0.2248
 4189SOL     OW24202   0.570   0.111  13.698 -0.3366  0.1546  0.0926
 4189SOL    HW124203   0.559   0.205  13.682 -0.1573  0.5449  2.2324
 4189SOL    HW224204   0.634   0.076  13.636 -0.9262  0.1196 -0.4971
 4190SOL     OW24205   2.312   2.791   5.883 -0.0987 -0.3302  0.1735
 4190SOL    HW124206   2.327   2.698   5.898  0.1009 -0.4017 -0.4708
 4190SOL    HW224207   2.299   2.821   5.973 -0.2576  1.9558 -0.6059
 4191SOL     OW24208   3.492   3.688  14.323  0.2876  0.7372 -0.6587
 4191SOL    HW124209   3.574   3.661  14.283  0.4065 -2.0594  1.5174
 4191SOL    HW224210   3.431   3.624  14.287  1.1059 -0.7127  0.5638
 4192SOL     OW24211   2.402   1.533   8.634  0.4878  0.0606  0.6511
 4192SOL    HW124212   2.415   1.622   8.601 -0.3635  0.2050  0.7101
 4192SOL    HW224213   2.425   1.478   8.559 -1.6691  0.8978 -0.6291
 4193SOL     OW24214   3.291   1.716  14.024  0.2589 -0.0204  0.6767
 4193SOL    HW124215   3.207   1.695  13.983 -0.2183  2.7525  0.2067
 4193SOL    HW224216   3.268   1.752  14.109  1.9008 -1.7314  1.8355
 4194SOL     OW24217   2.591   2.205   6.471  0.1023  0.1871 -0.6336
 4194SOL    HW124218   2.535   2.264   6.521  0.8347 -0.0250  0.4440
 4194SOL    HW224219   2.675   2.230   6.509 -0.2864  1.2941 -0.5252
 4195SOL     OW24220   0.112   1.374   2.631 -0.0116 -0.1531 -0.2675
 4195SOL    HW124221   0.028   1.408   2.661  1.1735  0.6189  2.1768
 4195SOL    HW224222   0.177   1.395   2.699  0.9140 -1.6615 -0.6687
 4196SOL     OW24223   1.906   2.662   0.280 -0.1149  0.0702  0.1952
 4196SOL    HW124224   1.930   2.663   0.187  1.3952  0.2123  0.5874
 4196SOL    HW224225   1.877   2.752   0.296 -0.1649  0.5233 -2.3742
 4197SOL     OW24226   3.600   1.732   1.091  0.0986 -0.4908 -0.5165
 4197SOL    HW124227   3.633   1.749   1.179 -0.7936 -0.2793 -0.2238
 4197SOL    HW224228   3.651   1.653   1.074 -0.3707 -1.2495  1.6192
 4198SOL     OW24229   2.153   4.268   2.365 -0.2201 -0.0744  0.0946
 4198SOL    HW124230   2.079   4.266   2.425  0.4768  1.9727  1.0209
 4198SOL    HW224231   2.220   4.309   2.419 -1.6598  0.1844  1.6542
 4199SOL     OW24232   4.685   1.965  16.964  0.7090  0.1162 -0.1540
 4199SOL    HW124233   4.682   1.989  17.056  0.3281 -1.4249  0.2161
 4199SOL    HW224234   4.653   2.045  16.922 -0.7315  0.5886  1.8534
 4200SOL     OW24235   0.698   1.110   7.726  0.0026  0.6915 -0.0088
 4200SOL    HW124236   0.790   1.136   7.729 -0.7579  3.1920  1.0649
 4200SOL    HW224237   0.650   1.174   7.779  0.7951  0.6853  0.7335
 4201SOL     OW24238   3.043   1.788   7.969  0.0397  0.2815  0.4541
 4201SOL    HW124239   3.126   1.741   7.955 -0.7300 -0.8497 -0.2888
 4201SOL    HW224240   3.025   1.834   7.887 -2.4347  0.9317  1.3724
 4202SOL     OW24241   0.370   0.021  12.796  0.2172 -0.3655 -0.3995
 4202SOL    HW124242   0.449   4.734  12.845  0.8255 -0.8893 -1.6394
 4202SOL    HW224243   0.349   4.678  12.748 -1.7093  1.6981 -3.0237
 4203SOL     OW24244   0.156   2.897   2.085 -0.2794  0.2465 -0.0298
 4203SOL    HW124245   0.123   2.829   2.026 -0.2910  3.3847 -3.6942
 4203SOL    HW224246   0.118   2.978   2.051 -0.5880  0.6741  1.3417
 4204SOL     OW24247   0.269   2.854   8.678 -0.5873 -0.1238 -0.3804
 4204SOL    HW124248   0.179   2.824   8.665 -0.9759  0.6350  0.5674
 4204SOL    HW224249   0.322   2.795   8.625 -0.9088 -0.1727 -0.6431
 4205SOL     OW24250   4.686   1.463   4.712  0.1355  0.1207  0.1622
 4205SOL    HW124251   4.649   1.387   4.667 -1.2682  0.3011  1.0050
 4205SOL    HW224252   4.637   1.531   4.666  1.5226  0.5907 -0.6003
 4206SOL     OW24253   3.847   2.601   5.341  0.4521  0.0206 -0.6445
 4206SOL    HW124254   3.869   2.594   5.434 -0.0148 -0.7277 -0.5901
 4206SOL    HW224255   3.918   2.650   5.299  0.1675  0.6043 -0.4410
 4207SOL     OW24256   2.202   1.384  10.877  0.7172 -0.6327 -0.2583
 4207SOL    HW124257   2.251   1.366  10.957  1.6829  0.9074 -0.5045
 4207SOL    HW224258   2.239   1.324  10.812  2.1090 -0.5669  0.4714
 4208SOL     OW24259   0.702   2.742   7.765 -0.1695 -0.1205  0.0166
 4208SOL    HW124260   0.757   2.818   7.779 -1.8267  1.2306 -0.7407
 4208SOL    HW224261   0.628   2.771   7.711  0.6402 -0.4439 -1.2594
 4209SOL     OW24262   0.733   1.390  10.075  0.1228  0.0233 -0.3107
 4209SOL    HW124263   0.824   1.398  10.103  0.4327  0.6574 -1.4571
 4209SOL    HW224264   0.740   1.414   9.982 -0.7018  0.1977 -0.3308
 4210SOL     OW24265   0.845   3.646  16.460  0.3004 -0.3800  0.8091
 4210SOL    HW124266   0.843   3.551  16.457  0.2268 -0.3619  0.2764
 4210SOL    HW224267   0.940   3.650  16.455  0.2436 -1.4607 -0.9143
 4211SOL     OW24268   4.064   2.640   8.745 -0.0014  0.1202  0.4343
 4211SOL    HW124269   4.091   2.567   8.689  0.1305  1.5514 -1.3695
 4211SOL    HW224270   4.003   2.668   8.677 -0.2671 -0.8404  0.2799
 4212SOL     OW24271   2.593   0.876   9.152 -0.0117  0.5220 -0.0983
 4212SOL    HW124272   2.640   0.806   9.196  0.7773  0.8288 -0.4606
 4212SOL    HW224273   2.661   0.910   9.094 -0.2785  0.2569 -0.5727
 4213SOL     OW24274   2.222   2.220   4.304 -0.1670  0.1279 -0.5575
 4213SOL    HW124275   2.221   2.125   4.294  0.7151 -0.0421  0.9903
 4213SOL    HW224276   2.158   2.232   4.375 -0.1943  0.4363 -0.6303
 4214SOL     OW24277   1.194   0.090  17.545  0.3916  0.0929  0.1500
 4214SOL    HW124278   1.190   0.185  17.556  1.2104  0.2659 -1.0743
 4214SOL    HW224279   1.281   0.083  17.506  1.0043  0.7102  1.3912
 4215SOL     OW24280   4.285   0.974  11.619  0.1988 -0.6027  0.0704
 4215SOL    HW124281   4.326   1.014  11.543  0.2563 -1.2639 -0.2436
 4215SOL    HW224282   4.351   0.985  11.688  0.1375  0.9345 -0.1106
 4216SOL     OW24283   2.653   4.503   6.863 -0.1501 -0.4434  0.0550
 4216SOL    HW124284   2.621   4.593   6.876 -0.4405 -0.3257 -1.4830
 4216SOL    HW224285   2.693   4.480   6.947  2.8698 -0.3578 -1.3790
 4217SOL     OW24286   0.408   1.088  12.523  0.4150 -0.2212 -0.8191
 4217SOL    HW124287   0.317   1.111  12.504 -0.0314 -0.4318  1.0840
 4217SOL    HW224288   0.413   1.082  12.618 -1.4200 -0.1048 -0.7268
 4218SOL     OW24289   3.095   2.522   2.885  0.3310 -0.0392 -0.0451
 4218SOL    HW124290   3.001   2.506   2.895  0.1033  0.6961 -1.0033
 4218SOL    HW224291   3.094   2.527   2.790 -2.0066  1.4463  0.0445
 4219SOL     OW24292   3.459   2.206   4.823  0.2407  0.6186 -0.1361
 4219SOL    HW124293   3.496   2.164   4.900  0.8295  0.3634 -0.5563
 4219SOL    HW224294   3.415   2.282   4.861 -3.6753 -0.2293 -3.0487
 4220SOL     OW24295   3.560   0.190  15.405  0.3576 -0.1241 -0.2109
 4220SOL    HW124296   3.556   0.158  15.315  0.9022 -1.1457  0.1252
 4220SOL    HW224297   3.606   0.114  15.442  0.0123 -0.1491  0.1551
 4221SOL     OW24298   4.240   1.694   8.135  0.0026  0.2267 -0.1747
 4221SOL    HW124299   4.276   1.759   8.194 -1.7894 -0.5421  1.7665
 4221SOL    HW224300   4.257   1.747   8.057  0.1666 -0.9731 -0.9626
 4222SOL     OW24301   1.082   4.008  15.984  0.6108 -0.6743 -0.3810
 4222SOL    HW124302   1.107   4.072  15.918 -1.2474  0.5781  0.1596
 4222SOL    HW224303   1.028   4.066  16.037  0.2145  0.6624 -2.2734
 4223SOL     OW24304   3.546   2.177   4.567 -0.6047 -0.1183 -0.9141
 4223SOL    HW124305   3.518   2.198   4.656  0.0208  1.1643 -1.0192
 4223SOL    HW224306   3.597   2.098   4.586  0.6561  0.6757 -1.0085
 4224SOL     OW24307   1.167   4.059  15.119  0.3638  1.0154  0.1686
 4224SOL    HW124308   1.102   4.065  15.189 -0.8680  1.5868 -1.0222
 4224SOL    HW224309   1.163   3.966  15.096 -0.9189  1.4302 -1.3025
 4225SOL     OW24310   0.823   2.476   7.740  0.6077 -0.2884  0.5773
 4225SOL    HW124311   0.781   2.557   7.768 -0.1345 -0.0537 -1.2351
 4225SOL    HW224312   0.909   2.484   7.782  0.8718  2.9228 -0.6034
 4226SOL     OW24313   0.810   1.577   7.789  0.2675 -0.2593  0.6957
 4226SOL    HW124314   0.851   1.500   7.828 -1.1583 -1.0174  0.6947
 4226SOL    HW224315   0.870   1.593   7.716  1.8024  1.3877  2.3537
 4227SOL     OW24316   2.853   2.809   2.877  0.6224  0.4000  0.3603
 4227SOL    HW124317   2.894   2.895   2.865 -1.0115  0.9581 -1.1526
 4227SOL    HW224318   2.889   2.771   2.797  0.6528  1.2221 -0.0225
 4228SOL     OW24319   1.156   2.136   4.252  0.9030 -0.1562  0.5381
 4228SOL    HW124320   1.249   2.145   4.233  0.9515 -2.0270 -0.1026
 4228SOL    HW224321   1.160   2.090   4.336  1.3661  0.2052  0.7141
 4229SOL     OW24322   2.568   2.857   9.240 -0.2100  0.4812  0.0599
 4229SOL    HW124323   2.568   2.765   9.213 -1.8597  0.8697 -1.2273
 4229SOL    HW224324   2.514   2.854   9.320  0.1606  0.6364  0.3153
 4230SOL     OW24325   3.499   3.724   6.780  0.3415 -0.0674  0.0471
 4230SOL    HW124326   3.593   3.710   6.773  0.1498 -0.9708 -0.7052
 4230SOL    HW224327   3.466   3.634   6.781 -1.4964  0.5940  2.1410
 4231SOL     OW24328   2.212   2.073   9.282 -1.4263  0.5340  0.4196
 4231SOL    HW124329   2.234   2.163   9.258 -2.2001 -0.0409 -2.4753
 4231SOL    HW224330   2.302   2.046   9.301 -1.3972 -0.5169 -1.2366
 4232SOL     OW24331   2.711   2.294  11.916  0.5007 -0.4406  0.4074
 4232SOL    HW124332   2.620   2.270  11.932  0.3641  0.8756  1.5967
 4232SOL    HW224333   2.741   2.245  11.840 -0.0538 -0.2809  0.0855
 4233SOL     OW24334   0.050   4.241   6.165 -0.3652  0.1756  0.0878
 4233SOL    HW124335   0.103   4.299   6.218 -0.1927  2.3907 -2.4916
 4233SOL    HW224336   4.718   4.218   6.226 -0.3985 -1.0292 -0.3899
 4234SOL     OW24337   3.194   1.999   0.286 -0.4343 -0.0246 -0.6871
 4234SOL    HW124338   3.268   2.042   0.327 -0.0343  0.4114 -1.8718
 4234SOL    HW224339   3.214   2.003   0.192  0.7048 -0.3221 -0.4441
 4235SOL     OW24340   2.156   1.083  11.395 -0.0669 -0.0161  0.2686
 4235SOL    HW124341   2.176   1.093  11.302  0.5374  3.0268  0.7285
 4235SOL    HW224342   2.194   0.996  11.406 -0.2849 -0.0903  0.4509
 4236SOL     OW24343   3.114   4.294  13.577  0.4000 -0.1284  0.0316
 4236SOL    HW124344   3.186   4.344  13.615 -1.0304  0.2956  2.2142
 4236SOL    HW224345   3.037   4.311  13.631 -0.3502 -0.4266 -0.9560
 4237SOL     OW24346   2.662   1.055   3.452 -0.4106 -0.0903  0.4521
 4237SOL    HW124347   2.575   1.053   3.412  0.7177  1.4103 -2.0468
 4237SOL    HW224348   2.662   1.140   3.495 -2.0333 -0.5560  1.3772
 4238SOL     OW24349   4.033   1.407   6.865 -0.0339  0.1138  0.2325
 4238SOL    HW124350   4.025   1.333   6.926 -0.4311 -0.7790 -0.9109
 4238SOL    HW224351   3.984   1.370   6.792  0.8152 -0.5975  0.0251
 4239SOL     OW24352   2.445   0.135   3.628 -0.3323 -0.0646  0.0521
 4239SOL    HW124353   2.397   0.206   3.587  0.8586  1.0976  0.6756
 4239SOL    HW224354   2.439   0.141   3.723 -2.6179  1.2311 -0.1907
 4240SOL     OW24355   4.076   1.611   3.892 -0.0079  0.2253 -1.1396
 4240SOL    HW124356   4.098   1.541   3.830 -2.2156 -2.3084  0.9346
 4240SOL    HW224357   3.985   1.625   3.868 -0.7517 -0.7539  1.1371
 4241SOL     OW24358   1.100   3.819  15.014  0.1313  0.2154 -0.2174
 4241SOL    HW124359   1.026   3.776  14.971  0.8236  0.7041 -1.9124
 4241SOL    HW224360   1.169   3.828  14.948 -0.4683  0.0703 -0.8688
 4242SOL     OW24361   4.122   4.067   5.958 -0.2329 -0.8961  0.0787
 4242SOL    HW124362   4.105   4.107   5.873 -1.2837 -1.3335  0.0863
 4242SOL    HW224363   4.217   4.081   5.954 -0.1783 -1.4238 -0.4070
 4243SOL     OW24364   2.397   4.530   5.626 -0.0943 -0.4162  0.4898
 4243SOL    HW124365   2.406   4.625   5.625 -0.9026 -0.3442  0.6368
 4243SOL    HW224366   2.391   4.504   5.534  1.0233 -1.5642  0.7407
 4244SOL     OW24367   1.917   2.310   5.410 -0.1757  0.0693 -0.3026
 4244SOL    HW124368   1.897   2.262   5.329 -2.3044 -1.8484  1.3840
 4244SOL    HW224369   1.919   2.241   5.475 -0.3145  0.8990  0.5767
 4245SOL     OW24370   0.633   1.057   9.920 -0.3874 -0.2935  0.4785
 4245SOL    HW124371   0.619   0.995   9.848  1.0999 -1.1042  0.8904
 4245SOL    HW224372   0.641   1.135   9.866  0.6957 -1.2792 -0.8026
 4246SOL     OW24373   1.535   4.410   7.943  0.7875 -0.5839  0.0324
 4246SOL    HW124374   1.595   4.336   7.928 -0.6896 -1.7242 -0.2467
 4246SOL    HW224375   1.480   4.406   7.865 -0.5991  1.5870  0.9013
 4247SOL     OW24376   4.115   3.895   6.262  0.3843  0.1362 -0.3433
 4247SOL    HW124377   4.142   3.839   6.334 -0.0826 -0.7520 -0.8582
 4247SOL    HW224378   4.173   3.856   6.197 -1.4145 -1.1540 -1.1771
 4248SOL     OW24379   1.210   1.508   5.690 -0.3911  0.8420  0.4195
 4248SOL    HW124380   1.192   1.595   5.727  2.6172  2.8097 -2.6423
 4248SOL    HW224381   1.283   1.524   5.631 -1.4799  2.3347 -0.5044
 4249SOL     OW24382   2.146   1.422   2.970 -0.3679 -0.0363 -0.5979
 4249SOL    HW124383   2.089   1.495   2.945  0.6915  1.0077  0.0458
 4249SOL    HW224384   2.084   1.384   3.033 -0.5598 -1.1396 -1.4460
 4250SOL     OW24385   1.970   2.125  17.417 -0.0028  0.7393 -0.1656
 4250SOL    HW124386   1.936   2.135  17.328 -2.2375  1.1990  0.7383
 4250SOL    HW224387   1.924   2.046  17.447  1.9643 -1.5355 -3.0969
 4251SOL     OW24388   2.809   4.620   5.687  0.4021 -0.2839  0.1884
 4251SOL    HW124389   2.848   4.556   5.628 -0.9835 -0.6520 -0.3380
 4251SOL    HW224390   2.768   4.680   5.625 -0.6333 -1.3285 -0.1493
 4252SOL     OW24391   4.131   2.739   7.275 -0.4233  0.0466 -0.6081
 4252SOL    HW124392   4.078   2.667   7.241 -0.6301  0.6749 -1.6148
 4252SOL    HW224393   4.210   2.691   7.300 -0.8624 -0.7259 -0.7190
 4253SOL     OW24394   4.610   2.519   1.511 -0.4162  0.0174 -0.2266
 4253SOL    HW124395   4.605   2.449   1.576  1.2369 -0.2341 -0.3574
 4253SOL    HW224396   4.680   2.491   1.452  0.8789  2.3564  0.1847
 4254SOL     OW24397   1.433   3.388  11.334 -0.1733 -0.2554 -0.7012
 4254SOL    HW124398   1.429   3.386  11.239  0.8247  2.8782 -0.8017
 4254SOL    HW224399   1.394   3.473  11.352  1.2299  0.3233 -0.3789
 4255SOL     OW24400   3.330   2.714   2.939 -0.1353  0.1858 -0.1706
 4255SOL    HW124401   3.280   2.636   2.914  0.9572 -0.9601  1.2182
 4255SOL    HW224402   3.257   2.770   2.967  0.7975  1.2837  0.0454
 4256SOL     OW24403   0.226   3.134   1.678  0.5906  0.2438 -0.5126
 4256SOL    HW124404   0.320   3.131   1.658  0.3799  0.6299 -1.5525
 4256SOL    HW224405   0.191   3.154   1.591 -0.8819  0.4699  0.1428
 4257SOL     OW24406   4.097   0.697   7.462 -0.0477 -0.7887  0.5909
 4257SOL    HW124407   4.003   0.696   7.443  0.2825 -1.0803 -1.0852
 4257SOL    HW224408   4.098   0.739   7.548 -0.9710 -0.4938  0.4565
 4258SOL     OW24409   0.641   3.711   0.371  0.1040  0.0764 -0.0266
 4258SOL    HW124410   0.691   3.701   0.452 -1.4071  0.2677  0.9377
 4258SOL    HW224411   0.695   3.670   0.304 -0.0184  0.2111 -0.2053
 4259SOL     OW24412   4.529   3.606   7.187 -0.0520  0.1518  0.0792
 4259SOL    HW124413   4.611   3.640   7.150  0.9422 -0.2323  1.9778
 4259SOL    HW224414   4.510   3.532   7.130 -0.8867 -0.0852  0.6800
 4260SOL     OW24415   1.638   1.287   6.758 -0.4239 -0.4977 -0.3417
 4260SOL    HW124416   1.682   1.203   6.773  0.6344 -0.3023 -2.3977
 4260SOL    HW224417   1.583   1.293   6.836 -2.9939 -1.5896 -2.0690
 4261SOL     OW24418   0.448   1.801  10.385  0.4535 -0.2482  0.3810
 4261SOL    HW124419   0.413   1.876  10.434 -2.7901 -0.1632 -2.0680
 4261SOL    HW224420   0.517   1.760  10.437  1.4543  1.8311  0.6860
 4262SOL     OW24421   0.628   0.963  15.550  0.1537  0.5000  0.7807
 4262SOL    HW124422   0.619   0.976  15.456  0.6545 -1.3688  0.4807
 4262SOL    HW224423   0.536   0.972  15.573 -0.6426 -0.8115 -1.9222
 4263SOL     OW24424   1.620   4.362   2.183 -0.1457 -0.6171  0.1598
 4263SOL    HW124425   1.568   4.384   2.106  0.6774 -0.5275 -0.3654
 4263SOL    HW224426   1.671   4.290   2.145 -0.4551 -0.8786  0.2338
 4264SOL     OW24427   0.950   1.851   2.154  0.5056  0.0564 -0.0223
 4264SOL    HW124428   0.865   1.839   2.197  1.0024 -2.0838  0.3668
 4264SOL    HW224429   1.004   1.782   2.192 -1.0148 -1.6556 -0.9367
 4265SOL     OW24430   1.801   2.342   5.907  0.0048  0.0104  0.7730
 4265SOL    HW124431   1.871   2.286   5.940 -1.6813 -2.3624  0.3358
 4265SOL    HW224432   1.844   2.425   5.890  0.5424 -0.3929  0.1554
 4266SOL     OW24433   3.710   0.851   3.111  0.3565  0.1490  0.1104
 4266SOL    HW124434   3.762   0.885   3.039 -0.8260 -0.5134 -1.0423
 4266SOL    HW224435   3.617   0.862   3.089 -0.4743  0.6178  3.7293
 4267SOL     OW24436   2.647   3.911   3.561 -0.0508  0.7039  0.2171
 4267SOL    HW124437   2.704   3.951   3.494 -0.7943 -0.5817 -1.1893
 4267SOL    HW224438   2.700   3.840   3.595 -1.2968  0.0444  0.7726
 4268SOL     OW24439   2.446   1.167   4.196  0.1102  0.1095  0.1677
 4268SOL    HW124440   2.486   1.176   4.110  1.0051  0.9921  0.6804
 4268SOL    HW224441   2.430   1.074   4.213  0.7036 -0.0563 -0.2174
 4269SOL     OW24442   0.656   2.953   8.279 -0.1814  0.1209  0.4907
 4269SOL    HW124443   0.680   2.906   8.359 -0.2172  2.0961  1.6737
 4269SOL    HW224444   0.747   2.954   8.249  0.5853  2.8647  2.8495
 4270SOL     OW24445   2.296   1.150   6.834  0.3814  0.6660  0.1106
 4270SOL    HW124446   2.358   1.126   6.903  0.3282 -1.1474 -0.4748
 4270SOL    HW224447   2.288   1.063   6.794  3.1759  1.0587 -1.3204
 4271SOL     OW24448   1.158   3.101   8.618  0.4846  0.4341 -0.1441
 4271SOL    HW124449   1.177   3.060   8.534  1.4746 -0.8375  0.6913
 4271SOL    HW224450   1.073   3.139   8.599  0.5781  0.6791 -0.0769
 4272SOL     OW24451   1.824   4.408   3.021 -0.8767 -0.1419 -0.6852
 4272SOL    HW124452   1.862   4.392   3.107 -0.6062  0.6952 -0.6532
 4272SOL    HW224453   1.829   4.318   2.989 -2.3103 -1.3908  2.6271
 4273SOL     OW24454   3.086   0.388   7.931 -0.3097 -0.4610  0.2806
 4273SOL    HW124455   3.038   0.330   7.990 -1.3800 -0.4295 -0.5379
 4273SOL    HW224456   3.072   0.349   7.845  1.7711  0.0424 -0.2812
 4274SOL     OW24457   0.277   1.945   0.886 -0.4631 -0.1619  0.0592
 4274SOL    HW124458   0.279   1.993   0.803 -0.0804  0.5176  0.4569
 4274SOL    HW224459   0.200   1.890   0.873 -0.7670  0.0327  1.0926
 4275SOL     OW24460   2.221   3.786   5.818  0.2028 -0.1066 -0.3876
 4275SOL    HW124461   2.296   3.836   5.850  0.1079  1.5911 -2.7616
 4275SOL    HW224462   2.204   3.826   5.732  0.1302  0.6582 -0.0168
 4276SOL     OW24463   2.163   1.707   5.713  0.5720 -0.4074  0.0741
 4276SOL    HW124464   2.189   1.764   5.785 -1.8825  0.6604  0.1063
 4276SOL    HW224465   2.098   1.648   5.749 -0.2552  0.7227  0.4454
 4277SOL     OW24466   2.365   1.049   7.419 -0.4297 -0.1600  0.1282
 4277SOL    HW124467   2.321   1.132   7.438 -0.8837  0.0256 -1.7010
 4277SOL    HW224468   2.381   1.059   7.325 -0.5570 -1.6127 -0.0392
 4278SOL     OW24469   3.581   2.042   5.303 -0.3193  0.5987  0.0205
 4278SOL    HW124470   3.666   2.069   5.338 -0.1942 -0.2388  0.3565
 4278SOL    HW224471   3.522   2.076   5.371 -2.7062 -0.2035 -1.6270
 4279SOL     OW24472   3.696   1.161   7.327  0.0783 -0.1508  0.5663
 4279SOL    HW124473   3.739   1.230   7.278 -2.2331  0.2935 -0.8270
 4279SOL    HW224474   3.781   1.146   7.368  1.6160 -0.2894 -2.7210
 4280SOL     OW24475   1.572   0.731   8.017 -0.2271  0.6824  0.6619
 4280SOL    HW124476   1.653   0.779   7.999  1.5203 -2.0297  1.3138
 4280SOL    HW224477   1.530   0.783   8.085 -2.5883 -0.1832 -0.1495
 4281SOL     OW24478   1.144   4.258   7.157  0.4244  0.1867  0.2181
 4281SOL    HW124479   1.206   4.227   7.223  1.4464 -1.0228 -1.3243
 4281SOL    HW224480   1.200   4.242   7.081  0.1319  0.6532 -0.0944
 4282SOL     OW24481   0.565   4.269  12.978 -0.4742  0.6227 -0.2615
 4282SOL    HW124482   0.594   4.240  12.891  1.1786  0.0451  0.4879
 4282SOL    HW224483   0.537   4.186  13.015 -0.6302  2.5975  4.0264
 4283SOL     OW24484   3.993   1.822   4.709  0.0185  0.1725  0.4766
 4283SOL    HW124485   4.001   1.904   4.660 -1.0800 -0.8613 -1.4531
 4283SOL    HW224486   3.974   1.758   4.640  3.3911  0.0471 -0.3285
 4284SOL     OW24487   4.536   2.740   8.230 -0.5667  0.7298  0.3765
 4284SOL    HW124488   4.532   2.804   8.302 -3.6888  0.4887  0.3847
 4284SOL    HW224489   4.619   2.772   8.194  0.7429 -0.2531  2.4992
 4285SOL     OW24490   2.943   1.964  12.689 -0.3408 -0.1922  0.3697
 4285SOL    HW124491   3.013   1.900  12.676 -0.7796 -0.5007 -0.5155
 4285SOL    HW224492   2.975   2.048  12.656 -0.5753 -0.3211 -0.1935
 4286SOL     OW24493   4.008   3.762   3.554  0.3292  0.0762  0.2638
 4286SOL    HW124494   4.021   3.681   3.504 -1.2196  1.5857 -2.5215
 4286SOL    HW224495   3.919   3.788   3.530  0.3613  1.2865  1.4302
 4287SOL     OW24496   1.064   0.876   7.181 -0.0408  0.3768  0.3828
 4287SOL    HW124497   0.984   0.874   7.129 -0.3172 -3.5929  0.9268
 4287SOL    HW224498   1.031   0.834   7.261 -2.9038  1.7778 -0.0769
 4288SOL     OW24499   0.439   0.452   1.632 -0.5040  0.5657 -0.4836
 4288SOL    HW124500   0.388   0.514   1.684 -1.2390 -0.6549  0.2382
 4288SOL    HW224501   0.368   0.416   1.580 -1.1795  1.1619  0.0249
 4289SOL     OW24502   0.177   4.699  11.186  0.1666 -0.1743  0.3635
 4289SOL    HW124503   0.125   4.631  11.143  0.5548 -0.8467  0.9581
 4289SOL    HW224504   0.250   4.656  11.229 -0.1533 -1.0649  0.0106
 4290SOL     OW24505   0.238   0.328   1.346 -0.5318  0.5230 -0.1251
 4290SOL    HW124506   0.291   0.251   1.368  1.4414  1.3894 -1.8032
 4290SOL    HW224507   0.300   0.380   1.294  0.5805 -1.7846 -1.0900
 4291SOL     OW24508   0.716   3.900  10.078  0.3825 -0.1299  0.1044
 4291SOL    HW124509   0.797   3.853  10.097 -0.3881 -2.3699 -2.1180
 4291SOL    HW224510   0.728   3.981  10.127 -1.2756  0.6160 -0.7263
 4292SOL     OW24511   2.709   4.143   1.304  0.2176  0.0995 -0.0955
 4292SOL    HW124512   2.646   4.135   1.375 -0.7246  0.5350 -0.8851
 4292SOL    HW224513   2.774   4.077   1.328  0.1007 -0.1943 -0.5796
 4293SOL     OW24514   3.492   0.311   5.907 -0.8515  0.2240  0.1380
 4293SOL    HW124515   3.482   0.312   5.812  1.6951 -1.9625 -0.1807
 4293SOL    HW224516   3.587   0.304   5.923 -0.8276  0.1531 -0.0389
 4294SOL     OW24517   3.756   0.450   0.377 -0.0343 -0.2424 -0.1427
 4294SOL    HW124518   3.849   0.455   0.399 -0.5484  1.4309  1.6329
 4294SOL    HW224519   3.717   0.368   0.410 -0.4946 -0.3375 -0.9085
 4295SOL     OW24520   3.760   0.268  12.708  0.3947 -0.0523 -0.5374
 4295SOL    HW124521   3.703   0.197  12.681  0.7073  0.1836 -1.8216
 4295SOL    HW224522   3.847   0.238  12.680 -1.0952 -0.4544 -4.6335
 4296SOL     OW24523   4.251   3.534   2.959 -0.6967 -0.1016 -0.0676
 4296SOL    HW124524   4.314   3.563   3.025 -0.8623 -0.4970  0.2612
 4296SOL    HW224525   4.272   3.441   2.965 -0.2077 -0.0629 -1.1319
 4297SOL     OW24526   1.708   4.724  16.592 -0.2328 -0.1592 -0.0554
 4297SOL    HW124527   1.640   4.673  16.548  0.2352 -2.1517  1.5150
 4297SOL    HW224528   1.717   0.052  16.523  0.9401 -0.2456  0.0254
 4298SOL     OW24529   3.831   0.890   1.711 -0.1713 -0.5089 -0.0242
 4298SOL    HW124530   3.859   0.975   1.676  0.1482 -1.1450 -1.3328
 4298SOL    HW224531   3.910   0.836   1.713 -0.2087 -0.5992 -0.8580
 4299SOL     OW24532   3.787   1.518   8.778 -0.2251 -0.6402 -0.2374
 4299SOL    HW124533   3.719   1.488   8.837 -0.4053  2.2961  1.0474
 4299SOL    HW224534   3.755   1.483   8.694 -1.0631 -0.9201  0.2046
 4300SOL     OW24535   3.368   4.133  13.938  0.3686 -0.5874 -0.1316
 4300SOL    HW124536   3.462   4.123  13.957  0.1487 -0.2631  1.1738
 4300SOL    HW224537   3.337   4.052  13.980 -3.8517  0.8010 -0.6225
 4301SOL     OW24538   1.696   0.505  16.319  0.0657  0.2115  0.5718
 4301SOL    HW124539   1.674   0.516  16.411 -1.7582  2.1637 -0.1094
 4301SOL    HW224540   1.610   0.486  16.281  0.0438  2.9433 -0.7120
 4302SOL     OW24541   1.262   0.665   2.706  0.7618  0.2491 -0.4154
 4302SOL    HW124542   1.352   0.697   2.704  0.2919  1.5169 -1.4245
 4302SOL    HW224543   1.257   0.612   2.786 -2.1696 -0.2376 -0.8948
 4303SOL     OW24544   2.597   1.434  13.520 -0.5081 -0.4040  0.3799
 4303SOL    HW124545   2.534   1.501  13.547 -0.2042  0.1239 -0.2278
 4303SOL    HW224546   2.627   1.462  13.433  0.2516  1.2058  1.1498
 4304SOL     OW24547   1.713   3.511   6.407 -0.3661 -0.8147  0.0732
 4304SOL    HW124548   1.760   3.463   6.338 -1.2996  0.0414 -1.1593
 4304SOL    HW224549   1.622   3.501   6.380 -0.1231 -0.0475 -1.0501
 4305SOL     OW24550   3.869   0.658  13.150 -0.0685  0.2170  0.4647
 4305SOL    HW124551   3.911   0.576  13.121 -0.0554 -0.2014  1.6916
 4305SOL    HW224552   3.818   0.667  13.069  0.8492 -0.8017 -0.2283
 4306SOL     OW24553   0.390   1.130   8.107  0.1635 -0.3635 -0.0092
 4306SOL    HW124554   0.443   1.109   8.183 -1.5101 -1.4398  0.8461
 4306SOL    HW224555   0.324   1.062   8.112 -1.8715  1.4857 -1.6088
 4307SOL     OW24556   0.249   1.291  10.774 -0.7291  0.0785 -0.6407
 4307SOL    HW124557   0.343   1.307  10.781 -0.6471 -0.8909  0.3798
 4307SOL    HW224558   0.234   1.277  10.680  0.7927 -0.5955 -0.7846
 4308SOL     OW24559   0.164   3.123   6.656 -0.4742  0.4290  0.8498
 4308SOL    HW124560   0.116   3.107   6.737 -1.5386  1.4945  0.4359
 4308SOL    HW224561   0.177   3.032   6.630 -2.3805  0.8005 -1.4372
 4309SOL     OW24562   1.520   0.557   0.618  0.4562 -0.0650 -0.1642
 4309SOL    HW124563   1.539   0.645   0.586 -0.4682  0.1267 -0.1894
 4309SOL    HW224564   1.559   0.557   0.705 -0.8769 -0.9628  0.4427
 4310SOL     OW24565   1.527   3.952  10.399  0.3492 -0.2340 -0.1792
 4310SOL    HW124566   1.503   3.954  10.306 -2.4200 -3.9909  0.4685
 4310SOL    HW224567   1.551   3.861  10.415 -2.6471 -1.0909 -0.4618
 4311SOL     OW24568   1.516   1.066   9.311 -0.0945  0.5246  0.1405
 4311SOL    HW124569   1.512   1.102   9.222  1.2589  1.9816  0.6928
 4311SOL    HW224570   1.586   1.001   9.315  0.3015  0.9641  0.2776
 4312SOL     OW24571   3.217   4.588   6.590  0.2905  0.0132 -0.0306
 4312SOL    HW124572   3.168   4.669   6.582  3.3819  1.7586 -1.2486
 4312SOL    HW224573   3.176   4.532   6.525 -0.2258  0.4779 -0.1008
 4313SOL     OW24574   4.019   3.267   7.841  0.2005  0.0654  0.1526
 4313SOL    HW124575   4.091   3.287   7.901  0.6719  0.9305 -0.6922
 4313SOL    HW224576   3.978   3.354   7.835 -0.2223  0.0486  2.7096
 4314SOL     OW24577   0.463   1.946  10.107 -0.2879  0.3998 -0.6464
 4314SOL    HW124578   0.558   1.949  10.119 -0.4008 -0.4344  0.4032
 4314SOL    HW224579   0.433   1.885  10.173  1.4394  1.0009  0.7087
 4315SOL     OW24580   1.335   1.052   8.805  0.3702 -0.0109  0.7864
 4315SOL    HW124581   1.242   1.034   8.792  0.0321  1.2523  1.4449
 4315SOL    HW224582   1.345   0.987   8.875  1.0239  0.3010  0.9851
 4316SOL     OW24583   2.343   4.048   8.237  0.0845  0.1629 -0.2540
 4316SOL    HW124584   2.362   4.015   8.325  0.4396 -1.5475 -0.9800
 4316SOL    HW224585   2.417   4.021   8.183 -1.3290 -2.1322 -1.0395
 4317SOL     OW24586   4.525   1.462   2.189 -0.9377  0.6914  0.2443
 4317SOL    HW124587   4.544   1.551   2.159  1.0113 -0.1918 -1.1383
 4317SOL    HW224588   4.438   1.444   2.152  0.3084 -0.4007 -2.1569
 4318SOL     OW24589   2.523   3.167   6.713 -0.5856  0.3042  0.1333
 4318SOL    HW124590   2.453   3.230   6.731  0.2700  0.8425  1.6086
 4318SOL    HW224591   2.597   3.226   6.714  0.4268 -0.9322 -2.2581
 4319SOL     OW24592   1.858   4.067   4.119 -0.2338 -0.2428  0.4087
 4319SOL    HW124593   1.844   4.158   4.146 -0.8320 -1.1603  3.1690
 4319SOL    HW224594   1.853   4.079   4.024  1.7885 -0.0028  0.3247
 4320SOL     OW24595   4.142   4.172   2.290 -0.2538  0.1078 -0.1157
 4320SOL    HW124596   4.204   4.192   2.359 -0.4307 -0.5118  0.2308
 4320SOL    HW224597   4.075   4.120   2.335 -0.2489  2.2698  2.3261
 4321SOL     OW24598   0.625   0.906   8.474  0.0226  0.2408  0.3410
 4321SOL    HW124599   0.659   0.955   8.549  1.4278  0.8415 -0.6821
 4321SOL    HW224600   0.624   0.814   8.501 -0.4474  0.3251  0.6037
 4322SOL     OW24601   4.058   4.552   0.540  0.3079 -0.1544  0.9098
 4322SOL    HW124602   4.080   4.631   0.490 -0.2494  0.8637  2.2824
 4322SOL    HW224603   4.148   4.520   0.551  0.6498 -0.6326 -3.0759
 4323SOL     OW24604   4.203   0.891   7.125 -0.3921  0.2538  0.5316
 4323SOL    HW124605   4.131   0.888   7.189  0.6417 -0.4863  1.6487
 4323SOL    HW224606   4.191   0.806   7.084 -2.3006  0.5562  0.4437
 4324SOL     OW24607   1.281   1.315  14.285  0.1790  0.6282 -0.1453
 4324SOL    HW124608   1.270   1.264  14.365  2.2083 -2.4414 -1.8422
 4324SOL    HW224609   1.207   1.295  14.228  0.0939  1.3335 -0.2895
 4325SOL     OW24610   3.120   3.782   7.610 -0.2213 -0.0850 -0.0133
 4325SOL    HW124611   3.128   3.764   7.516  2.6379  0.4130  0.1518
 4325SOL    HW224612   3.144   3.696   7.645  1.8893  0.7733  0.5961
 4326SOL     OW24613   0.649   1.682  16.495 -0.1286 -0.3381  0.7003
 4326SOL    HW124614   0.724   1.710  16.548 -0.3046  1.6954 -0.1338
 4326SOL    HW224615   0.689   1.598  16.474 -0.9326 -0.3105 -0.9103
 4327SOL     OW24616   1.835   3.779  15.024  0.0883  0.1006  0.0044
 4327SOL    HW124617   1.812   3.694  14.985  1.3174  0.7144 -2.1073
 4327SOL    HW224618   1.753   3.801  15.067 -1.1258 -1.2105 -1.6165
 4328SOL     OW24619   2.852   0.279  13.832  0.2261  0.0336  0.2534
 4328SOL    HW124620   2.836   0.205  13.774 -1.5386  0.3232  0.3751
 4328SOL    HW224621   2.927   0.322  13.789 -0.1463  1.3208  0.8720
 4329SOL     OW24622   3.506   1.021   1.913  0.3340  0.3834  0.1795
 4329SOL    HW124623   3.417   0.987   1.922 -0.6899  3.4362  1.4664
 4329SOL    HW224624   3.562   0.944   1.899 -1.1430 -0.5006 -0.8474
 4330SOL     OW24625   3.603   3.983   5.555  0.3725 -0.0604 -0.2541
 4330SOL    HW124626   3.607   3.896   5.516  1.6287  0.4961 -1.3322
 4330SOL    HW224627   3.543   3.971   5.629  1.0881 -1.6844  0.0641
 4331SOL     OW24628   2.552   2.851   2.788  0.5387  0.1786 -0.0793
 4331SOL    HW124629   2.539   2.777   2.847 -0.4341  1.8242  1.8014
 4331SOL    HW224630   2.639   2.866   2.827  0.9325  0.7902 -1.1953
 4332SOL     OW24631   3.548   3.127   8.990  0.0899  0.1324  0.0511
 4332SOL    HW124632   3.521   3.113   9.081  0.9410  1.9610  0.5926
 4332SOL    HW224633   3.488   3.077   8.935  1.9609 -0.5373 -1.4123
 4333SOL     OW24634   0.147   1.472   5.718  0.1496 -0.1190 -0.2107
 4333SOL    HW124635   0.084   1.477   5.646 -1.9777  1.7270  1.7750
 4333SOL    HW224636   0.212   1.538   5.693 -0.1309  0.2294 -0.0152
 4334SOL     OW24637   2.952   2.201   9.412 -0.2316  0.4848 -0.3501
 4334SOL    HW124638   2.960   2.160   9.326 -0.3088  0.1182 -0.1791
 4334SOL    HW224639   2.881   2.264   9.397 -0.7906  0.1593  0.9459
 4335SOL     OW24640   0.924   1.427   9.254  0.1630 -0.2682 -0.5465
 4335SOL    HW124641   0.990   1.454   9.190  1.4737 -0.7692  0.6097
 4335SOL    HW224642   0.956   1.469   9.334  2.7698 -0.7436 -1.3372
 4336SOL     OW24643   3.171   0.372  12.353 -0.1799  0.1614  0.3940
 4336SOL    HW124644   3.243   0.393  12.295  0.8037  0.2339  1.6529
 4336SOL    HW224645   3.135   0.294  12.309 -0.3678 -0.3692  1.4846
 4337SOL     OW24646   0.054   0.216   6.784  0.5906  0.3084 -0.2404
 4337SOL    HW124647   0.074   0.190   6.874 -1.7425  0.6520  0.3820
 4337SOL    HW224648   0.036   0.127   6.753  3.5444 -0.8462  1.3148
 4338SOL     OW24649   3.590   1.657   1.593  0.5868 -0.1389 -0.0992
 4338SOL    HW124650   3.559   1.599   1.662 -1.5277  0.3899 -0.5921
 4338SOL    HW224651   3.683   1.638   1.578  0.3509 -1.4494  0.1209
 4339SOL     OW24652   2.687   1.962   5.037  0.4758  0.0129 -0.1866
 4339SOL    HW124653   2.677   2.057   5.032 -1.3004  0.0763  4.2148
 4339SOL    HW224654   2.648   1.941   5.122  0.3064  1.8627  0.1860
 4340SOL     OW24655   1.310   2.311   3.860  0.1630 -0.5321 -0.0916
 4340SOL    HW124656   1.374   2.240   3.856  0.3134 -0.1159 -4.4620
 4340SOL    HW224657   1.337   2.359   3.939  0.2358 -0.6029 -0.0736
 4341SOL     OW24658   2.128   4.297  12.971 -1.2792 -0.9314 -0.0160
 4341SOL    HW124659   2.051   4.307  12.916 -1.5618 -0.4697  0.4626
 4341SOL    HW224660   2.116   4.378  13.020  0.3297  0.3731 -1.7774
 4342SOL     OW24661   4.315   0.283   8.029  0.2207  0.0258  0.5866
 4342SOL    HW124662   4.264   0.202   8.024  1.6979 -0.8468 -0.3564
 4342SOL    HW224663   4.249   0.346   8.058  0.4561  0.0337  1.1185
 4343SOL     OW24664   0.607   1.048   1.961 -0.1910  0.1451 -0.0837
 4343SOL    HW124665   0.618   1.049   1.866 -3.5300 -2.2693 -0.4811
 4343SOL    HW224666   0.698   1.049   1.992 -0.2860  2.4900  0.1894
 4344SOL     OW24667   0.225   3.426   8.348 -0.1625  0.0651 -0.2951
 4344SOL    HW124668   0.171   3.373   8.407 -1.5166  3.3415  1.3948
 4344SOL    HW224669   0.175   3.423   8.266 -0.6001 -1.5641  0.0225
 4345SOL     OW24670   4.352   3.755   5.662 -0.8648 -0.0333  0.1718
 4345SOL    HW124671   4.288   3.826   5.653 -0.6040  0.1306 -0.3669
 4345SOL    HW224672   4.416   3.781   5.597 -2.0640  0.0713 -0.9624
 4346SOL     OW24673   0.203   0.175  10.591 -0.5666  0.1404  0.2393
 4346SOL    HW124674   0.172   0.089  10.619 -1.4842  0.7396  1.0512
 4346SOL    HW224675   0.180   0.222  10.671 -1.0888 -0.3851  0.3961
 4347SOL     OW24676   4.360   3.314   8.294  0.4726  0.0225  0.3968
 4347SOL    HW124677   4.386   3.222   8.285 -1.1929 -0.2926 -1.2085
 4347SOL    HW224678   4.289   3.313   8.359  0.9977 -2.1953  0.9384
 4348SOL     OW24679   1.453   3.391   2.462 -0.1052  0.4791 -0.2359
 4348SOL    HW124680   1.526   3.406   2.403  1.3547 -0.2945  1.3726
 4348SOL    HW224681   1.394   3.340   2.406 -0.8746  1.5439 -0.3974
 4349SOL     OW24682   0.491   4.692   4.495  0.5699 -0.1495  0.3957
 4349SOL    HW124683   0.502   4.645   4.412  0.5789 -0.4849  0.5865
 4349SOL    HW224684   0.584   4.712   4.508  0.8710  0.6030 -2.7869
 4350SOL     OW24685   4.218   1.534  12.006 -0.7216 -0.4609 -0.4886
 4350SOL    HW124686   4.278   1.559  11.936  0.9142  0.2299  1.1512
 4350SOL    HW224687   4.231   1.608  12.067  0.0389 -0.5790 -0.5051
 4351SOL     OW24688   3.752   3.692   6.138  0.0547  0.3374 -0.3584
 4351SOL    HW124689   3.814   3.746   6.088  0.9555 -0.8922 -0.5811
 4351SOL    HW224690   3.721   3.749   6.208 -1.0213  1.0502 -1.4111
 4352SOL     OW24691   1.253   3.822  10.638 -0.4353 -0.8350 -0.4892
 4352SOL    HW124692   1.308   3.836  10.715  0.1547 -0.5444 -0.9623
 4352SOL    HW224693   1.283   3.733  10.618 -2.9061 -1.7028 -0.3418
 4353SOL     OW24694   2.695   3.345  14.870 -0.5804 -0.1288 -0.1289
 4353SOL    HW124695   2.754   3.417  14.846  0.1870 -0.8887 -0.4942
 4353SOL    HW224696   2.698   3.306  14.783 -4.0632 -1.0302  0.1765
 4354SOL     OW24697   4.012   4.375   4.737 -0.6804 -0.2565  0.0670
 4354SOL    HW124698   4.074   4.345   4.803 -0.6172 -1.2043 -0.4194
 4354SOL    HW224699   3.927   4.368   4.780 -0.0199 -0.4642  1.3167
 4355SOL     OW24700   4.343   4.620   0.312 -0.0393 -0.3489 -0.0137
 4355SOL    HW124701   4.336   4.568   0.392 -2.8030 -1.6936 -1.1274
 4355SOL    HW224702   4.434   4.607   0.284  0.1752 -2.3283  1.5805
 4356SOL     OW24703   2.867   0.780   5.528 -0.1989 -0.2251 -0.2201
 4356SOL    HW124704   2.788   0.794   5.475 -0.0220 -1.9227 -0.9179
 4356SOL    HW224705   2.867   0.860   5.580  0.7737  0.4037 -1.2032
 4357SOL     OW24706   2.542   0.617   2.537  0.0115 -0.1571  0.1092
 4357SOL    HW124707   2.462   0.630   2.487  1.0059  1.5868 -1.0288
 4357SOL    HW224708   2.538   0.710   2.561  0.8786  0.0558 -0.5709
 4358SOL     OW24709   3.449   1.831   1.773 -0.7369  0.0096 -0.4069
 4358SOL    HW124710   3.383   1.769   1.805  1.1075 -1.0535  1.3045
 4358SOL    HW224711   3.503   1.775   1.717  0.3008 -0.0298  0.6329
 4359SOL     OW24712   4.529   1.140  12.937  0.1761  0.1480 -0.7780
 4359SOL    HW124713   4.617   1.125  12.902  0.6851 -1.2663  1.0857
 4359SOL    HW224714   4.524   1.089  13.018 -1.0529 -2.0321 -2.2519
 4360SOL     OW24715   4.422   1.893   4.666  0.1639  0.2631 -0.1068
 4360SOL    HW124716   4.422   1.820   4.728 -0.6047  0.2562 -0.1258
 4360SOL    HW224717   4.408   1.862   4.577  1.9875 -0.1078 -0.2794
 4361SOL     OW24718   2.482   3.880  10.084 -0.2709  0.5026  0.2624
 4361SOL    HW124719   2.451   3.825  10.156  1.1042  0.1397  0.5688
 4361SOL    HW224720   2.518   3.947  10.142 -0.1179 -0.2522  1.0306
 4362SOL     OW24721   1.249   0.037   3.941 -0.2228 -0.4926 -0.7936
 4362SOL    HW124722   1.308   0.002   3.874 -0.6738 -0.3608 -1.2618
 4362SOL    HW224723   1.284   4.730   4.018  1.2358 -0.4438 -1.4173
 4363SOL     OW24724   4.427   0.947   9.910 -0.3868  0.8261  0.0859
 4363SOL    HW124725   4.489   1.010   9.873 -1.5661  1.0916 -1.4386
 4363SOL    HW224726   4.466   0.936   9.997  1.8995  0.9217 -0.9227
 4364SOL     OW24727   3.506   2.954  12.238 -0.5195  0.4410 -0.4888
 4364SOL    HW124728   3.494   3.040  12.277  2.4238  0.2911  0.7295
 4364SOL    HW224729   3.418   2.931  12.208 -1.7677  1.7031  2.2084
 4365SOL     OW24730   3.526   2.630   7.271  0.6234 -0.6171  0.6790
 4365SOL    HW124731   3.523   2.718   7.308 -1.0949  0.0298 -0.9864
 4365SOL    HW224732   3.434   2.617   7.247  1.1692 -0.3984 -1.5200
 4366SOL     OW24733   4.567   4.586  16.722  0.2922 -0.3188 -0.3479
 4366SOL    HW124734   4.573   4.573  16.817  2.1595 -0.7388 -0.5290
 4366SOL    HW224735   4.497   4.652  16.724 -0.5488 -1.1949 -1.2773
 4367SOL     OW24736   2.266   3.261   6.839 -0.0024  0.1827 -0.4018
 4367SOL    HW124737   2.211   3.197   6.883 -0.5722  0.8904 -0.0853
 4367SOL    HW224738   2.202   3.308   6.785  0.6655  1.8971  0.2799
 4368SOL     OW24739   3.577   1.314  11.035 -0.1026 -0.4645 -0.3987
 4368SOL    HW124740   3.608   1.224  11.038 -1.2113 -0.8271 -0.0789
 4368SOL    HW224741   3.483   1.304  11.026 -0.0623 -1.5306  0.3796
 4369SOL     OW24742   4.115   1.463   4.124 -0.1739  0.3149  0.0949
 4369SOL    HW124743   4.078   1.507   4.047 -1.5585 -0.2222  0.4468
 4369SOL    HW224744   4.057   1.509   4.185  0.8498 -1.6028  2.5076
 4370SOL     OW24745   2.238   2.814   4.063  0.0671  0.2655  0.0870
 4370SOL    HW124746   2.237   2.863   4.145  1.5100 -0.2558  0.4156
 4370SOL    HW224747   2.318   2.838   4.016  1.5016 -1.8664  1.4260
 4371SOL     OW24748   0.682   0.148   7.631 -0.4629  0.1249  0.7069
 4371SOL    HW124749   0.668   0.058   7.662  2.8019 -0.6885 -0.1858
 4371SOL    HW224750   0.601   0.193   7.656  0.7611  1.2788  2.5678
 4372SOL     OW24751   1.197   0.536  16.986  0.1032 -0.0832  0.3191
 4372SOL    HW124752   1.131   0.597  16.955  0.7233  0.1431 -0.5604
 4372SOL    HW224753   1.140   0.469  17.025 -0.4651 -0.0439 -0.4626
 4373SOL     OW24754   1.805   3.692  16.527 -0.2057 -0.1115  0.0997
 4373SOL    HW124755   1.835   3.752  16.596  1.5374  0.0716 -0.7859
 4373SOL    HW224756   1.892   3.675  16.489  0.6066  1.7131  1.1222
 4374SOL     OW24757   2.677   2.909  17.205  0.3989  0.6229  0.3874
 4374SOL    HW124758   2.662   2.992  17.161 -0.6565 -0.7689 -1.8877
 4374SOL    HW224759   2.667   2.839  17.140  2.4442  0.4435  0.2587
 4375SOL     OW24760   4.722   4.480   2.025 -0.3248 -0.6338 -0.2347
 4375SOL    HW124761   0.005   4.387   2.025  2.0528 -0.1173  1.0283
 4375SOL    HW224762   4.652   4.490   2.089  0.0550 -1.2815  0.2859
 4376SOL     OW24763   2.060   2.764   3.185 -0.7123  0.3055 -0.4453
 4376SOL    HW124764   1.998   2.791   3.117  1.0640  0.3366 -2.0238
 4376SOL    HW224765   2.099   2.845   3.219 -2.0232 -0.0715  2.0040
 4377SOL     OW24766   3.943   1.908   5.157  0.1238  0.1981  0.0713
 4377SOL    HW124767   3.996   1.859   5.094  1.9107  0.5211  1.3146
 4377SOL    HW224768   3.879   1.948   5.100 -2.0856 -1.4350  1.3911
 4378SOL     OW24769   2.547   1.559   8.010 -0.1773 -0.0827 -0.4367
 4378SOL    HW124770   2.563   1.594   7.922 -1.4952 -0.3449 -0.7707
 4378SOL    HW224771   2.509   1.638   8.049  1.5742  0.3968  0.2946
 4379SOL     OW24772   3.817   3.876  10.852  0.5154 -0.0286 -0.4707
 4379SOL    HW124773   3.756   3.919  10.911  1.1184 -1.0586  0.8920
 4379SOL    HW224774   3.782   3.787  10.854  0.7587 -0.1197 -0.2691
 4380SOL     OW24775   0.703   2.014   4.676  0.5882 -0.1343 -0.3692
 4380SOL    HW124776   0.650   2.066   4.615  0.6418 -0.8261 -1.0012
 4380SOL    HW224777   0.659   1.929   4.677  2.3506 -1.0348 -0.4492
 4381SOL     OW24778   0.173   3.988   2.034  0.1571  0.5948  0.5319
 4381SOL    HW124779   0.118   4.065   2.053 -0.7447  0.9531 -3.5276
 4381SOL    HW224780   0.258   4.030   2.042  0.7073 -0.4287 -0.0428
 4382SOL     OW24781   1.400   2.321  10.205  0.6262 -0.6394 -0.3687
 4382SOL    HW124782   1.315   2.326  10.160 -1.3427 -0.3712  3.3953
 4382SOL    HW224783   1.455   2.354  10.134 -0.6884  2.8674  0.1898
 4383SOL     OW24784   2.789   4.377  16.178 -0.1587 -0.5096  0.2534
 4383SOL    HW124785   2.798   4.427  16.096  0.5908 -0.0904  0.5908
 4383SOL    HW224786   2.768   4.290  16.144  0.4846 -0.0726 -1.2795
 4384SOL     OW24787   1.343   3.612  11.423  0.2867 -0.0147  0.3039
 4384SOL    HW124788   1.420   3.667  11.438  0.7697 -1.2918  2.6013
 4384SOL    HW224789   1.280   3.678  11.394 -0.5295 -0.9632 -0.0770
 4385SOL     OW24790   3.111   2.059   5.463  0.2867  0.3310  0.1503
 4385SOL    HW124791   3.120   1.982   5.407  0.2840 -0.6435  1.5110
 4385SOL    HW224792   3.181   2.118   5.433  0.2424  0.3100  0.0045
 4386SOL     OW24793   3.218   4.344   7.334 -0.2178  0.3613 -0.4105
 4386SOL    HW124794   3.233   4.274   7.398 -4.6733 -0.2120 -0.0120
 4386SOL    HW224795   3.185   4.289   7.263 -3.1287 -1.4869  2.3638
 4387SOL     OW24796   0.995   3.431   0.424 -0.0496 -0.6504 -0.0481
 4387SOL    HW124797   1.014   3.428   0.330  0.2821 -1.5063  0.0482
 4387SOL    HW224798   0.913   3.384   0.438  0.4826 -1.1874  1.2110
 4388SOL     OW24799   3.823   1.572   4.083  0.0409 -0.2500 -0.1428
 4388SOL    HW124800   3.808   1.481   4.057 -0.3798 -0.3527  0.4479
 4388SOL    HW224801   3.845   1.617   4.002 -0.9678  2.8029  1.2598
 4389SOL     OW24802   1.809   3.991   2.233  0.3478  0.4488 -0.5249
 4389SOL    HW124803   1.794   3.899   2.211  0.1813  0.4302 -0.3306
 4389SOL    HW224804   1.751   4.049   2.183 -2.4337  0.0304  2.2083
 4390SOL     OW24805   4.097   3.730   4.561 -0.1309  0.3223  0.2387
 4390SOL    HW124806   4.088   3.805   4.502 -1.7407 -0.9175 -1.1039
 4390SOL    HW224807   4.168   3.754   4.620  0.8360  2.0044 -1.6150
 4391SOL     OW24808   1.971   0.576   4.166 -0.1973 -0.1619  0.6017
 4391SOL    HW124809   1.992   0.664   4.198  0.4566 -0.9188  2.2913
 4391SOL    HW224810   1.881   0.558   4.193 -0.8497 -0.9896 -2.1744
 4392SOL     OW24811   1.158   0.443   6.348  0.0065 -0.1163 -0.4347
 4392SOL    HW124812   1.129   0.529   6.319 -0.3022 -0.5619 -1.4670
 4392SOL    HW224813   1.217   0.469   6.418  0.5135 -0.6840 -0.6503
 4393SOL     OW24814   3.352   0.053   5.559 -0.3590 -0.2049  0.4998
 4393SOL    HW124815   3.365   0.075   5.467  1.3742  0.6000  0.9338
 4393SOL    HW224816   3.341   0.141   5.594 -2.0080  0.4095 -1.5486
 4394SOL     OW24817   0.922   1.712   9.055  0.1093  0.0202  0.2767
 4394SOL    HW124818   0.847   1.676   9.102  0.4286  0.9341  1.4936
 4394SOL    HW224819   0.959   1.635   9.014  1.2375  0.0254  1.2836
 4395SOL     OW24820   3.206   3.389   7.935  0.0386  0.0085  0.2661
 4395SOL    HW124821   3.125   3.340   7.950  0.6596 -0.9462  0.5093
 4395SOL    HW224822   3.279   3.328   7.933 -1.6466 -2.0355  0.7113
 4396SOL     OW24823   2.759   0.396   9.118  0.3262 -0.0145  0.2183
 4396SOL    HW124824   2.811   0.317   9.132  2.2765  1.0859 -0.7612
 4396SOL    HW224825   2.786   0.430   9.032  0.7336 -0.5793  0.1218
 4397SOL     OW24826   3.818   4.626   4.185 -0.4823 -0.2054  0.4482
 4397SOL    HW124827   3.799   4.686   4.257  0.6828 -0.6938  1.1749
 4397SOL    HW224828   3.832   4.690   4.116 -0.4619 -0.2333  0.4263
 4398SOL     OW24829   1.744   1.418   8.236 -0.6216 -0.0259 -0.5905
 4398SOL    HW124830   1.703   1.379   8.313 -0.6151  1.7856  0.3194
 4398SOL    HW224831   1.669   1.471   8.210 -1.1842 -1.8857 -2.7373
 4399SOL     OW24832   0.307   0.876   7.552 -0.0577 -0.0851  0.5768
 4399SOL    HW124833   0.277   0.801   7.500  0.1509 -0.3983  0.9008
 4399SOL    HW224834   0.400   0.874   7.528 -0.1451 -1.8100  0.3498
 4400SOL     OW24835   3.276   3.632   8.611 -0.0863  0.2814 -0.3117
 4400SOL    HW124836   3.341   3.629   8.541 -0.6604  2.5811 -0.9552
 4400SOL    HW224837   3.205   3.675   8.563 -1.8713 -0.5750  1.5398
 4401SOL     OW24838   1.524   2.818   3.471  0.1059  0.1168  0.0659
 4401SOL    HW124839   1.483   2.822   3.384 -0.5651  1.1396  0.4214
 4401SOL    HW224840   1.611   2.785   3.449 -0.2544 -0.8067  0.0520
 4402SOL     OW24841   3.829   2.664   7.635  0.0446  0.5720 -0.1254
 4402SOL    HW124842   3.914   2.700   7.608 -0.0504  0.4759 -0.5431
 4402SOL    HW224843   3.860   2.579   7.668 -0.7168  1.0617  1.8710
 4403SOL     OW24844   3.422   2.519   9.082 -0.0235 -0.7048  0.9120
 4403SOL    HW124845   3.411   2.546   8.991 -1.0513 -0.3278  1.1436
 4403SOL    HW224846   3.423   2.423   9.083 -0.4089 -0.7408 -1.5396
 4404SOL     OW24847   0.111   1.428   9.042  0.4349 -0.9500  0.2664
 4404SOL    HW124848   0.161   1.500   9.004 -0.4480  0.4265  1.7099
 4404SOL    HW224849   0.173   1.358   9.021 -1.5192 -2.1153 -1.6505
 4405SOL     OW24850   1.577   0.201   9.530 -0.4813  0.2539 -0.0792
 4405SOL    HW124851   1.504   0.184   9.471  1.9331 -1.0247 -2.6585
 4405SOL    HW224852   1.530   0.192   9.613 -0.0957  0.9457  0.2265
 4406SOL     OW24853   0.306   2.428  14.515  0.7140 -0.1010  0.3496
 4406SOL    HW124854   0.254   2.430  14.595 -0.0196 -2.4228 -0.0588
 4406SOL    HW224855   0.346   2.515  14.513 -0.8349  0.5530 -1.4541
 4407SOL     OW24856   0.164   0.144   7.037  0.4992 -0.3886  0.2836
 4407SOL    HW124857   0.224   0.138   7.112 -0.9979 -1.7815  1.3701
 4407SOL    HW224858   0.136   0.053   7.025  0.9379 -0.6081  0.8830
 4408SOL     OW24859   3.296   2.165   8.331  0.2378  0.3379 -0.3376
 4408SOL    HW124860   3.253   2.161   8.246 -1.4017  1.9992  0.4297
 4408SOL    HW224861   3.222   2.177   8.391  1.1233 -1.5217  1.1357
 4409SOL     OW24862   3.558   3.182   3.155  0.6411 -0.1231  0.3351
 4409SOL    HW124863   3.559   3.177   3.060  0.7179  2.7486  0.1850
 4409SOL    HW224864   3.603   3.104   3.188 -0.0682 -1.4071 -1.7309
 4410SOL     OW24865   3.910   3.349   3.388 -0.2330  0.1590 -1.1166
 4410SOL    HW124866   3.900   3.256   3.408 -0.4615  0.4747  0.2808
 4410SOL    HW224867   3.819   3.371   3.408  0.0120 -0.1200  0.3702
 4411SOL     OW24868   1.483   3.485   3.982  0.5755  0.1550  0.1790
 4411SOL    HW124869   1.489   3.572   3.943  0.3326  0.5014  0.9196
 4411SOL    HW224870   1.494   3.496   4.076  1.1470 -1.6084  0.3180
 4412SOL     OW24871   0.048   3.861   6.787 -0.2747  0.0502 -0.1618
 4412SOL    HW124872   0.056   3.956   6.781  0.3302  0.0981  1.5673
 4412SOL    HW224873   0.115   3.837   6.723 -2.0792 -3.3349 -0.7987
 4413SOL     OW24874   3.657   0.660   9.615 -0.1439 -0.2430 -0.3581
 4413SOL    HW124875   3.692   0.603   9.547  0.2781 -0.0394 -0.3132
 4413SOL    HW224876   3.734   0.707   9.648 -0.6008 -0.8870  1.6804
 4414SOL     OW24877   3.462   1.172   8.055  0.7577  0.3772  0.5440
 4414SOL    HW124878   3.368   1.186   8.057  1.0190  2.3146 -1.4882
 4414SOL    HW224879   3.465   1.103   8.121  1.7940  0.3177  0.4462
 4415SOL     OW24880   3.253   0.185   4.316  0.2806  0.2867 -0.1724
 4415SOL    HW124881   3.228   0.137   4.395  0.3567  0.2830 -0.1505
 4415SOL    HW224882   3.345   0.159   4.310 -0.0084 -0.5261 -1.0502
 4416SOL     OW24883   3.977   3.510   4.404  0.0957  0.9786 -0.4193
 4416SOL    HW124884   4.035   3.555   4.465 -0.9067  0.1763  1.1475
 4416SOL    HW224885   3.998   3.557   4.323 -0.8939  1.3363 -0.4753
 4417SOL     OW24886   0.129   2.415   6.457 -0.3172  0.2648 -0.3440
 4417SOL    HW124887   0.041   2.395   6.427 -0.7062 -0.3626  1.2393
 4417SOL    HW224888   0.134   2.349   6.527  0.5453 -0.5576 -1.1791
 4418SOL     OW24889   4.383   0.279   8.832  0.1943 -0.2877  0.0232
 4418SOL    HW124890   4.419   0.330   8.904  1.8983 -2.1252  0.4371
 4418SOL    HW224891   4.331   0.210   8.873  0.2192 -0.6050 -0.4727
 4419SOL     OW24892   2.054   1.887  16.454  0.4337 -0.4697  0.5212
 4419SOL    HW124893   1.981   1.843  16.411  0.4073 -1.8858  1.9743
 4419SOL    HW224894   2.099   1.926  16.380  3.2388 -1.6526  1.5949
 4420SOL     OW24895   0.521   1.403  16.345  0.6344 -0.1244 -0.4142
 4420SOL    HW124896   0.484   1.327  16.300  0.3493  0.9281 -1.9510
 4420SOL    HW224897   0.563   1.374  16.426  2.3184  0.2659 -1.1482
 4421SOL     OW24898   0.628   1.533   8.674 -0.1025  0.1792 -0.1516
 4421SOL    HW124899   0.621   1.556   8.767 -0.4022 -2.2068  0.4105
 4421SOL    HW224900   0.646   1.620   8.639 -1.8289  0.9552  0.8927
 4422SOL     OW24901   2.935   2.917   6.958  0.5916  0.2696 -0.1133
 4422SOL    HW124902   2.950   2.948   6.868  1.2215  0.2662 -0.0089
 4422SOL    HW224903   3.018   2.869   6.967  1.2986  1.0839 -2.0497
 4423SOL     OW24904   1.911   1.471  17.714  0.5145 -0.6136  0.1834
 4423SOL    HW124905   1.838   1.529  17.693  0.3541 -0.2512  1.7336
 4423SOL    HW224906   1.868   1.404   0.019 -1.2730  0.5443  0.2156
 4424SOL     OW24907   4.486   2.612  10.874  0.3066  0.1255 -0.0593
 4424SOL    HW124908   4.504   2.633  10.966  0.1795 -0.5462  0.1164
 4424SOL    HW224909   4.572   2.634  10.839  0.5825 -0.2326  0.3980
 4425SOL     OW24910   1.466   4.599  12.714 -0.2317 -0.7432  0.2756
 4425SOL    HW124911   1.380   4.593  12.672 -0.2988 -0.2952  0.3462
 4425SOL    HW224912   1.486   4.674  12.657 -4.9841  0.2625 -0.1259
 4426SOL     OW24913   4.348   1.872   3.441 -0.6442  0.0996 -0.3394
 4426SOL    HW124914   4.437   1.892   3.415  0.2158 -1.0149  1.7557
 4426SOL    HW224915   4.336   1.937   3.510  1.3611  0.1187 -0.0113
 4427SOL     OW24916   2.932   0.582   1.786 -0.1787 -0.0143  0.1325
 4427SOL    HW124917   2.849   0.552   1.822  0.0913 -1.7026 -0.6307
 4427SOL    HW224918   2.951   0.498   1.745  0.2874  0.6889 -1.0918
 4428SOL     OW24919   3.015   3.946   4.711 -0.1783  0.3358 -0.2736
 4428SOL    HW124920   3.041   3.959   4.620  1.3984 -3.0530 -0.2922
 4428SOL    HW224921   2.926   3.979   4.709 -0.4719 -0.4954 -0.9460
 4429SOL     OW24922   4.409   2.465   3.294 -0.3286  0.6415 -0.8109
 4429SOL    HW124923   4.394   2.551   3.256 -0.7096  0.1799 -1.6985
 4429SOL    HW224924   4.446   2.484   3.380  1.2028 -0.7274 -1.1808
 4430SOL     OW24925   1.694   4.545  11.872  0.1825  1.2988 -0.0505
 4430SOL    HW124926   1.677   4.508  11.785 -0.6011 -0.5021  0.8779
 4430SOL    HW224927   1.733   4.466  11.910  1.2217  0.8182 -2.1015
 4431SOL     OW24928   0.581   2.582   4.982 -0.1059 -0.2560 -0.4918
 4431SOL    HW124929   0.560   2.606   5.073 -0.8725 -1.7008 -0.2971
 4431SOL    HW224930   0.510   2.630   4.939 -0.9258 -0.0238  1.1181
 4432SOL     OW24931   2.513   2.964   3.978  0.0513 -0.0154  0.3948
 4432SOL    HW124932   2.574   2.930   4.044  0.0692  0.4093  0.5959
 4432SOL    HW224933   2.546   2.918   3.901  0.3797 -1.9140  1.6774
 4433SOL     OW24934   3.174   2.493   2.415 -0.6510 -0.2346 -0.9764
 4433SOL    HW124935   3.162   2.463   2.326  1.0567 -2.5162 -0.4257
 4433SOL    HW224936   3.255   2.544   2.413 -1.0495  0.4005 -1.0131
 4434SOL     OW24937   1.894   0.918  14.368 -0.4520  0.6564  0.3065
 4434SOL    HW124938   1.819   0.966  14.404 -0.2048  1.3590 -0.1267
 4434SOL    HW224939   1.970   0.967  14.398 -0.9719  1.5729  0.1136
 4435SOL     OW24940   3.088   2.490   4.180 -0.2488 -0.6763  0.7080
 4435SOL    HW124941   3.140   2.430   4.232  0.5463 -0.7055 -0.1183
 4435SOL    HW224942   3.056   2.422   4.121  0.9983 -0.6150 -0.0440
 4436SOL     OW24943   2.955   4.147   6.716  0.2838 -0.2535 -0.1180
 4436SOL    HW124944   3.030   4.145   6.657  1.2324 -1.7825  1.1413
 4436SOL    HW224945   2.893   4.192   6.658  0.5521  0.7630  0.3874
 4437SOL     OW24946   0.500   1.335  10.781 -0.4387 -0.5811  0.6314
 4437SOL    HW124947   0.566   1.283  10.826 -2.0429 -1.5199  1.9175
 4437SOL    HW224948   0.540   1.340  10.694 -1.0388  0.9842  0.4557
 4438SOL     OW24949   2.989   3.861   2.466  0.0795  0.2215 -0.0279
 4438SOL    HW124950   3.041   3.934   2.500  0.3663  0.8092 -1.7499
 4438SOL    HW224951   2.965   3.813   2.545 -1.1837  0.3990 -0.3179
 4439SOL     OW24952   3.925   0.216  15.130  0.5629  0.5458 -0.4857
 4439SOL    HW124953   3.909   0.146  15.192  1.6647 -1.6428 -2.6771
 4439SOL    HW224954   3.844   0.268  15.127  0.2333  0.1208  1.4204
 4440SOL     OW24955   0.239   4.644  12.462  0.1927 -0.3700  0.4314
 4440SOL    HW124956   0.208   4.575  12.403  0.8954 -0.2511 -0.0783
 4440SOL    HW224957   0.323   4.614  12.496  0.2946  0.2305  0.7187
 4441SOL     OW24958   4.736   2.379   4.223 -0.6693  0.3516  0.4558
 4441SOL    HW124959   4.677   2.440   4.178  0.0924  0.3638 -0.5298
 4441SOL    HW224960   4.708   2.295   4.186 -0.4863 -0.1782  1.5230
 4442SOL     OW24961   2.019   0.395  13.945 -0.1670  0.2406 -0.5951
 4442SOL    HW124962   2.000   0.447  13.867  1.2661  0.8547 -0.5375
 4442SOL    HW224963   1.954   0.438  14.001  0.8987 -1.1856  1.7389
 4443SOL     OW24964   3.027   2.798   3.732  1.0020 -0.4427  0.9812
 4443SOL    HW124965   3.096   2.736   3.707  0.8750  0.8582 -2.5140
 4443SOL    HW224966   2.989   2.762   3.812 -1.0383  0.3636  0.3897
 4444SOL     OW24967   4.394   2.168   9.706 -0.1742 -0.2253  0.2056
 4444SOL    HW124968   4.413   2.103   9.774  2.6600  1.5638  1.0845
 4444SOL    HW224969   4.453   2.133   9.639  1.5291  3.0467  0.0016
 4445SOL     OW24970   2.403   0.323  15.778 -0.0059 -0.2708 -0.0253
 4445SOL    HW124971   2.450   0.351  15.857 -1.2284  0.9829  0.2438
 4445SOL    HW224972   2.375   0.232  15.788 -1.6053  0.2806  0.5531
 4446SOL     OW24973   0.166   4.668   3.904  0.2209 -0.0788  0.0079
 4446SOL    HW124974   0.210   4.726   3.967  0.6946  0.6595 -0.9889
 4446SOL    HW224975   0.228   4.596   3.902  0.3726  0.0868 -1.5445
 4447SOL     OW24976   1.582   0.528   1.418 -0.5830  0.4708  0.3224
 4447SOL    HW124977   1.604   0.561   1.505  0.0416  0.5469  0.1406
 4447SOL    HW224978   1.594   0.434   1.430  0.3826  0.6542  0.8305
 4448SOL     OW24979   4.026   1.024   4.480  0.2185  0.2211 -0.5885
 4448SOL    HW124980   4.102   1.036   4.423  1.2986  1.6285  1.1169
 4448SOL    HW224981   3.972   0.968   4.425  0.3475 -0.4969  0.0052
 4449SOL     OW24982   1.616   3.861  13.572  0.0334 -0.1390  0.2868
 4449SOL    HW124983   1.558   3.787  13.557 -0.3284  0.1703  0.1579
 4449SOL    HW224984   1.661   3.824  13.648  0.3171 -1.4544 -0.5230
 4450SOL     OW24985   2.119   1.913   6.592  0.3825 -0.0393 -0.0452
 4450SOL    HW124986   2.180   1.957   6.533  2.4435 -3.7183 -0.6487
 4450SOL    HW224987   2.152   1.824   6.580  2.7077  0.4605  2.4546
 4451SOL     OW24988   0.439   3.782   9.428 -0.2013  0.4027 -0.4031
 4451SOL    HW124989   0.462   3.763   9.519  1.1726  0.0832 -0.8236
 4451SOL    HW224990   0.507   3.845   9.404  0.4549 -0.0624  0.2333
 4452SOL     OW24991   0.429   2.430   8.963  0.0566  0.3544  0.4536
 4452SOL    HW124992   0.470   2.350   8.995 -1.6296 -1.2224 -1.3885
 4452SOL    HW224993   0.505   2.488   8.968  2.4678 -2.8354  0.8222
 4453SOL     OW24994   4.250   0.697   3.601 -0.3654 -0.0594 -0.1902
 4453SOL    HW124995   4.321   0.751   3.636  1.3747 -1.2475 -1.9104
 4453SOL    HW224996   4.254   0.625   3.664 -1.0660  0.3168  0.2868
 4454SOL     OW24997   3.409   3.556  10.266 -0.0792 -0.2398  0.6336
 4454SOL    HW124998   3.347   3.558  10.194 -0.4036  0.9527  0.9402
 4454SOL    HW224999   3.491   3.602  10.245  0.3672 -0.4566  1.8886
 4455SOL     OW25000   3.884   2.763   3.176  0.1813  0.3718 -0.2840
 4455SOL    HW125001   3.969   2.803   3.154  0.6899 -1.7244 -2.2100
 4455SOL    HW225002   3.903   2.709   3.252  0.1255 -0.2524 -0.7087
 4456SOL     OW25003   2.945   1.679   6.273  0.3778  0.3822 -0.0173
 4456SOL    HW125004   2.883   1.747   6.300  0.9496 -0.0799  2.4305
 4456SOL    HW225005   3.009   1.728   6.221 -1.0392 -0.3118 -2.4162
 4457SOL     OW25006   1.097   2.399   7.814  0.7445 -0.4305 -0.4024
 4457SOL    HW125007   1.192   2.409   7.808  0.7129  0.2241  0.2015
 4457SOL    HW225008   1.101   2.307   7.788  1.0926 -1.1189  2.0435
 4458SOL     OW25009   4.282   1.755   1.123  0.0298  0.1620 -0.1952
 4458SOL    HW125010   4.350   1.710   1.074  0.5910  0.2395  0.5134
 4458SOL    HW225011   4.275   1.838   1.075  0.3694  0.7721  0.8084
 4459SOL     OW25012   1.723   4.004   3.432 -0.1980  0.2176  0.5569
 4459SOL    HW125013   1.765   3.932   3.479  1.1957  0.5845 -0.1127
 4459SOL    HW225014   1.789   4.018   3.364  2.0084  1.6593  3.0146
 4460SOL     OW25015   0.440   3.129   1.519 -0.1185  0.0312  0.1496
 4460SOL    HW125016   0.421   3.138   1.425 -4.3321 -1.8079  0.8153
 4460SOL    HW225017   0.521   3.176   1.535  0.2019 -0.8249  1.0251
 4461SOL     OW25018   3.591   2.534  10.337 -0.0102 -0.2496  0.4777
 4461SOL    HW125019   3.638   2.576  10.409  0.2157 -0.1684  0.2873
 4461SOL    HW225020   3.652   2.551  10.265 -2.9435 -1.0286 -2.1616
 4462SOL     OW25021   1.938   0.765   4.840 -0.3040  0.1913 -0.2174
 4462SOL    HW125022   2.022   0.780   4.797  0.0968  0.4596  0.6457
 4462SOL    HW225023   1.957   0.799   4.928 -0.5444  0.9269 -0.4526
 4463SOL     OW25024   3.930   4.274   7.401 -0.2747  0.0340 -1.1557
 4463SOL    HW125025   3.990   4.348   7.401  1.2725 -1.2081  1.1805
 4463SOL    HW225026   3.849   4.320   7.422  0.6780  0.8499  0.6981
 4464SOL     OW25027   1.688   1.015   6.741 -0.3940 -0.7401 -0.0362
 4464SOL    HW125028   1.655   1.018   6.830 -1.6335  1.0705 -0.5517
 4464SOL    HW225029   1.772   0.970   6.753 -1.7622 -2.6803  2.2508
 4465SOL     OW25030   2.847   4.142   9.757  0.4436 -0.1670 -0.2419
 4465SOL    HW125031   2.765   4.095   9.774  0.8250 -0.3356  1.2112
 4465SOL    HW225032   2.907   4.073   9.786 -1.2907 -1.7511 -0.4147
 4466SOL     OW25033   0.583   2.731  15.962 -0.1524 -0.4281 -0.2530
 4466SOL    HW125034   0.595   2.715  16.056 -1.3336 -0.8703 -0.1837
 4466SOL    HW225035   0.601   2.825  15.959  0.2084 -0.5710 -2.1691
 4467SOL     OW25036   4.327   4.061   8.726 -0.1371  0.3303 -0.2319
 4467SOL    HW125037   4.280   4.086   8.646  1.9468  1.2896 -1.1503
 4467SOL    HW225038   4.351   4.151   8.749  0.4568  0.0278  0.3365
 4468SOL     OW25039   3.429   3.256  13.239  1.0822 -0.1446 -0.0180
 4468SOL    HW125040   3.350   3.258  13.185 -0.1842  0.0403  1.8737
 4468SOL    HW225041   3.425   3.339  13.286  0.8202 -0.0753 -0.1623
 4469SOL     OW25042   0.244   1.930   3.804  0.1939  0.1704 -0.4821
 4469SOL    HW125043   0.321   1.983   3.824  0.0586 -0.0830  0.6815
 4469SOL    HW225044   0.180   1.997   3.782 -0.7971 -0.0253  1.8518
 4470SOL     OW25045   2.476   1.903   4.855 -0.1770 -0.1616  0.2948
 4470SOL    HW125046   2.555   1.934   4.898  0.5489 -3.4911  1.3061
 4470SOL    HW225047   2.421   1.877   4.929 -0.0512 -1.4872 -0.0824
 4471SOL     OW25048   1.590   3.068   0.441  0.3906 -0.4321  0.3017
 4471SOL    HW125049   1.595   2.999   0.507  1.7866 -1.1374 -0.5544
 4471SOL    HW225050   1.495   3.056   0.438  0.4410 -0.5047 -0.9617
 4472SOL     OW25051   4.585   1.739  16.842  0.0781 -0.1831  0.0347
 4472SOL    HW125052   4.582   1.796  16.766  3.4985 -1.1591 -0.8170
 4472SOL    HW225053   4.630   1.797  16.904  0.8189  1.1960 -1.8118
 4473SOL     OW25054   0.941   4.016   6.541 -0.1352 -0.6497  0.0733
 4473SOL    HW125055   0.946   3.925   6.570  1.2742 -0.2443  1.0908
 4473SOL    HW225056   0.855   4.016   6.499 -0.2435 -0.1863  0.2975
 4474SOL     OW25057   3.814   3.574   8.328  0.4505  0.2894 -0.0563
 4474SOL    HW125058   3.865   3.531   8.397  1.0438  1.4426  0.2408
 4474SOL    HW225059   3.722   3.552   8.342  0.1959 -0.1566 -2.3309
 4475SOL     OW25060   3.755   4.191   6.619  0.3217  0.2910 -0.2572
 4475SOL    HW125061   3.750   4.272   6.670 -1.2336  0.2958 -0.4150
 4475SOL    HW225062   3.818   4.155   6.680  1.1135 -0.4004 -1.4931
 4476SOL     OW25063   0.947   1.746  14.512  0.1414 -0.7514  0.5510
 4476SOL    HW125064   0.890   1.684  14.467  1.3128 -0.0209 -1.8877
 4476SOL    HW225065   0.951   1.718  14.604  0.1367 -0.4533  0.6453
 4477SOL     OW25066   3.155   4.061   7.148 -0.0824  0.1870  0.1099
 4477SOL    HW125067   3.131   3.989   7.090 -0.7726  0.0010  0.6285
 4477SOL    HW225068   3.184   4.127   7.085 -0.6747  0.5563  0.2238
 4478SOL     OW25069   0.846   0.347   7.763 -0.0778  0.3460  0.2570
 4478SOL    HW125070   0.761   0.315   7.734 -1.1101  3.2359  0.0510
 4478SOL    HW225071   0.897   0.266   7.761 -0.5923  0.0560 -1.3970
 4479SOL     OW25072   2.117   3.643   0.616  0.3749  0.2324 -0.7035
 4479SOL    HW125073   2.165   3.724   0.634  1.7176 -0.5783 -0.6453
 4479SOL    HW225074   2.184   3.596   0.568  1.2348 -0.1630  0.9029
 4480SOL     OW25075   2.562   1.772  13.956  0.1211 -0.0098  0.3707
 4480SOL    HW125076   2.478   1.734  13.984  0.9337 -0.8732  1.6489
 4480SOL    HW225077   2.616   1.693  13.967 -0.7102 -0.8157 -1.3556
 4481SOL     OW25078   3.392   2.636   1.840 -0.2077 -0.2597 -0.7937
 4481SOL    HW125079   3.435   2.661   1.921 -0.4118  0.0655 -0.7885
 4481SOL    HW225080   3.318   2.697   1.845  0.8423  0.8693  0.6636
 4482SOL     OW25081   4.156   0.408  16.419  0.0368  0.1608  0.3674
 4482SOL    HW125082   4.241   0.418  16.375 -0.4728 -1.3704 -0.9366
 4482SOL    HW225083   4.141   0.315  16.402  0.0390 -0.2514  2.5556
 4483SOL     OW25084   2.903   2.516   8.235 -0.9874  0.1771  0.5304
 4483SOL    HW125085   2.979   2.464   8.262 -0.3373  0.9349  0.1299
 4483SOL    HW225086   2.896   2.498   8.141 -1.0689  0.1096  0.5487
 4484SOL     OW25087   0.166   3.124   7.081  0.4066  0.1807  1.0787
 4484SOL    HW125088   0.225   3.060   7.042 -1.2679 -1.7124  1.6135
 4484SOL    HW225089   0.117   3.081   7.152 -1.3244 -0.7314 -0.6585
 4485SOL     OW25090   0.820   3.370   4.881 -0.1501  0.0159  0.3092
 4485SOL    HW125091   0.806   3.360   4.787 -1.1814 -0.0336  0.4703
 4485SOL    HW225092   0.814   3.464   4.897 -2.1705  0.0750 -0.8026
 4486SOL     OW25093   4.735   3.113   5.473  0.0890 -0.6046 -0.4543
 4486SOL    HW125094   4.712   3.103   5.565  1.0043 -1.2686 -0.3025
 4486SOL    HW225095   0.051   3.034   5.478 -1.9009 -1.8286  1.3102
 4487SOL     OW25096   0.263   4.055   6.720  0.0206 -0.4696 -0.0845
 4487SOL    HW125097   0.311   4.050   6.803 -1.3794  0.5766  0.7997
 4487SOL    HW225098   0.323   4.002   6.668 -1.1829 -0.7712 -1.1844
 4488SOL     OW25099   4.460   4.266   7.998  0.1889  0.0143  0.5233
 4488SOL    HW125100   4.445   4.248   7.905 -0.3092  2.4573  0.1077
 4488SOL    HW225101   4.550   4.236   8.003  0.5687  0.8731 -1.1258
 4489SOL     OW25102   1.822   3.453  13.820  0.1810  0.0453  0.5433
 4489SOL    HW125103   1.805   3.450  13.914 -0.2824 -2.2643  0.3950
 4489SOL    HW225104   1.753   3.395  13.790 -0.1801 -0.1040  1.6456
 4490SOL     OW25105   0.568   1.477  12.097  0.2679  0.4592  0.4031
 4490SOL    HW125106   0.536   1.387  12.092  1.4274  0.0845 -0.1869
 4490SOL    HW225107   0.512   1.499  12.172 -3.1823  0.8236 -2.2659
 4491SOL     OW25108   4.354   3.526  14.929 -0.5334 -0.0728 -0.3548
 4491SOL    HW125109   4.306   3.457  14.975 -3.1033  1.4186 -0.8077
 4491SOL    HW225110   4.313   3.524  14.842 -2.4244  0.2353  0.5173
 4492SOL     OW25111   1.815   1.493   6.692 -0.0581  0.7794 -0.1409
 4492SOL    HW125112   1.746   1.426   6.693  0.9502 -0.2693 -0.8264
 4492SOL    HW225113   1.776   1.571   6.733 -1.0153  0.7272 -0.9441
 4493SOL     OW25114   1.268   2.253   1.377  0.1684  0.5970 -0.2155
 4493SOL    HW125115   1.184   2.274   1.337  1.7577  1.4083 -3.1714
 4493SOL    HW225116   1.320   2.310   1.321 -0.6811  1.5333 -0.0372
 4494SOL     OW25117   4.495   3.025   3.012 -0.6196  0.1510 -0.3253
 4494SOL    HW125118   4.513   2.931   3.015 -0.6893  0.0966 -1.6967
 4494SOL    HW225119   4.534   3.050   3.096 -1.0866  0.6061 -0.2419
 4495SOL     OW25120   3.578   1.430   6.496  0.2558  0.2027 -0.3870
 4495SOL    HW125121   3.582   1.334   6.485 -1.6313 -0.1902  2.3879
 4495SOL    HW225122   3.486   1.444   6.472 -0.1511 -1.0754  0.3867
 4496SOL     OW25123   2.272   3.298  16.111 -0.1648 -0.8067  0.2042
 4496SOL    HW125124   2.358   3.305  16.070 -0.3175 -0.0272  0.0111
 4496SOL    HW225125   2.219   3.304  16.031 -1.4200  2.4852  1.2762
 4497SOL     OW25126   1.662   3.099  14.777  0.1067 -0.3734 -0.2134
 4497SOL    HW125127   1.702   3.130  14.695 -1.5377  0.2620 -0.7834
 4497SOL    HW225128   1.663   3.180  14.829  0.1597  0.0527 -0.8664
 4498SOL     OW25129   1.521   2.477   4.925  0.0530  0.0988  0.3348
 4498SOL    HW125130   1.560   2.518   5.002  1.6336  1.5739 -1.2497
 4498SOL    HW225131   1.429   2.503   4.924 -0.2223 -0.9143 -1.1739
 4499SOL     OW25132   1.240   1.100   1.993  0.0704  0.1576 -0.2874
 4499SOL    HW125133   1.318   1.114   2.048  0.4251 -0.7038 -0.5757
 4499SOL    HW225134   1.186   1.175   2.016  0.7141 -0.0602  1.9304
 4500SOL     OW25135   3.551   3.937  14.337 -0.2996  0.0038 -0.2889
 4500SOL    HW125136   3.572   3.956  14.245  0.8939  0.9766  0.1862
 4500SOL    HW225137   3.538   3.843  14.328 -0.4644 -0.1413  1.5920
 4501SOL     OW25138   3.848   0.349   3.895 -0.4778  0.7919  0.8224
 4501SOL    HW125139   3.923   0.369   3.950  0.3785  2.5162 -0.9529
 4501SOL    HW225140   3.839   0.254   3.903  5.4078  0.1509  0.0469
 4502SOL     OW25141   0.532   2.323  14.125 -0.5970 -0.4637  0.1413
 4502SOL    HW125142   0.469   2.387  14.093 -1.0711 -0.0889  1.8067
 4502SOL    HW225143   0.536   2.343  14.219 -2.4755 -1.0805  0.3656
 4503SOL     OW25144   0.902   1.390   3.814 -0.3262 -0.4116  0.3163
 4503SOL    HW125145   0.850   1.456   3.859 -2.0676 -0.7711 -1.1836
 4503SOL    HW225146   0.844   1.366   3.741  0.5959  1.4932 -1.0469
 4504SOL     OW25147   2.562   1.488   5.089 -0.1502 -0.2878 -0.3136
 4504SOL    HW125148   2.472   1.477   5.121 -0.3150 -1.0720 -1.0392
 4504SOL    HW225149   2.597   1.399   5.090 -0.7858 -0.5278  0.8295
 4505SOL     OW25150   3.780   3.884  17.375 -0.0713 -0.1128  0.2170
 4505SOL    HW125151   3.696   3.917  17.407  0.0778 -0.4290  0.9249
 4505SOL    HW225152   3.835   3.961  17.358 -1.1999  0.8501  0.9053
 4506SOL     OW25153   3.963   1.503  14.914 -0.0975 -0.2033  0.8974
 4506SOL    HW125154   3.875   1.475  14.887  0.6584  0.5358 -2.2541
 4506SOL    HW225155   3.967   1.590  14.874  0.4152 -0.7906 -0.3409
 4507SOL     OW25156   0.702   4.021   8.469 -0.0356  0.1364  0.3731
 4507SOL    HW125157   0.700   4.001   8.563 -2.3946 -1.2997  0.0275
 4507SOL    HW225158   0.662   4.108   8.470 -1.7721 -0.6426 -1.6447
 4508SOL     OW25159   0.542   4.531   2.019  0.3129 -0.0175 -0.4392
 4508SOL    HW125160   0.585   4.572   1.944 -0.1217 -0.2772 -0.8292
 4508SOL    HW225161   0.601   4.458   2.037  1.2877  1.0051  0.5001
 4509SOL     OW25162   0.004   2.885   3.350  0.1034  0.3247  0.6588
 4509SOL    HW125163   0.030   2.977   3.339 -0.0333  0.5570  2.3123
 4509SOL    HW225164   0.067   2.846   3.411 -0.2669 -1.0931  0.1344
 4510SOL     OW25165   4.657   1.477   8.848  0.0799 -0.0282  0.1000
 4510SOL    HW125166   4.722   1.429   8.900 -0.6107  0.6745  1.5823
 4510SOL    HW225167   4.714   1.518   8.783  0.8724  0.0658  0.8574
 4511SOL     OW25168   0.975   0.170   5.962 -0.8709 -0.2047  0.3272
 4511SOL    HW125169   1.022   0.088   5.976  0.0780 -0.0577 -2.0263
 4511SOL    HW225170   0.956   0.150   5.871 -1.0462  0.3605  0.2405
 4512SOL     OW25171   4.576   1.530   5.889  0.0295  0.3253  0.3309
 4512SOL    HW125172   4.553   1.520   5.796  1.1333 -3.8804  0.5129
 4512SOL    HW225173   4.661   1.487   5.893 -0.3007 -0.4955 -1.3930
 4513SOL     OW25174   0.021   0.379   4.785  0.2407  0.1411 -0.0273
 4513SOL    HW125175   4.697   0.397   4.714 -1.3353 -2.8322  0.5973
 4513SOL    HW225176   4.712   0.302   4.817 -1.2012  1.5374  1.2697
 4514SOL     OW25177   2.202   0.674  11.830  0.2764  0.5675  0.3691
 4514SOL    HW125178   2.183   0.580  11.824 -0.9030  0.8423 -0.0704
 4514SOL    HW225179   2.273   0.677  11.895  0.9394 -0.3525 -0.3120
 4515SOL     OW25180   3.822   0.292  13.271 -0.3814 -0.2197  0.1981
 4515SOL    HW125181   3.906   0.338  13.277 -1.1071  1.1829 -0.2943
 4515SOL    HW225182   3.769   0.361  13.311 -1.0848  0.3279 -1.6733
 4516SOL     OW25183   3.160   0.999  10.028  0.2078 -0.2876 -0.4643
 4516SOL    HW125184   3.192   0.979  10.116 -1.5394 -2.1283 -0.2705
 4516SOL    HW225185   3.241   0.971   9.984  0.3014  0.8903 -1.0632
 4517SOL     OW25186   0.713   2.620   6.678  0.4182 -0.4094  0.1544
 4517SOL    HW125187   0.625   2.628   6.715  0.3389  1.3625 -0.4344
 4517SOL    HW225188   0.748   2.576   6.756 -0.2966 -0.3933  0.4879
 4518SOL     OW25189   0.148   2.657  17.048  0.3869  0.7738 -0.0854
 4518SOL    HW125190   0.191   2.663  16.963  0.7643  2.7618  0.2479
 4518SOL    HW225191   0.142   2.750  17.068  0.8940  0.7054  0.4024
 4519SOL     OW25192   0.807   3.597   0.831  0.3291  0.1049  0.0968
 4519SOL    HW125193   0.744   3.539   0.873 -1.3520  2.2931  0.5718
 4519SOL    HW225194   0.833   3.662   0.896 -0.7200  1.3784 -0.7608
 4520SOL     OW25195   3.169   1.797  14.259 -0.2384  0.2687 -0.5211
 4520SOL    HW125196   3.105   1.735  14.295 -0.4317  0.5152 -0.4350
 4520SOL    HW225197   3.107   1.863  14.228 -1.6452 -1.4442 -1.3731
 4521SOL     OW25198   3.545   2.149   8.772  0.4728  0.0715 -0.0324
 4521SOL    HW125199   3.564   2.058   8.793 -0.3842 -0.5621 -2.0077
 4521SOL    HW225200   3.549   2.189   8.859  0.6990  1.2906 -0.5957
 4522SOL     OW25201   1.294   3.686  17.329 -0.3293 -0.3216 -0.1595
 4522SOL    HW125202   1.380   3.727  17.337 -0.4678  0.4130 -2.5735
 4522SOL    HW225203   1.294   3.632  17.250  1.4083  1.8221 -1.6149
 4523SOL     OW25204   2.172   1.788   8.330 -0.2578 -0.2335 -0.3388
 4523SOL    HW125205   2.241   1.847   8.302  0.9247 -1.2794  0.3859
 4523SOL    HW225206   2.225   1.711   8.310  1.1316  0.7335 -0.3336
 4524SOL     OW25207   4.220   4.731  13.177 -0.8485  0.4917 -0.1245
 4524SOL    HW125208   4.153   4.677  13.135 -0.6238 -2.0008  2.6550
 4524SOL    HW225209   4.173   0.076  13.178  2.4911  2.4016 -0.1243
 4525SOL     OW25210   1.267   4.729  17.087  0.1954  0.7491  0.1049
 4525SOL    HW125211   1.301   0.053  17.022 -0.2680  0.5203 -0.3563
 4525SOL    HW225212   1.339   4.672  17.111 -0.5764 -0.8193 -1.3063
 4526SOL     OW25213   2.456   1.697  17.549  0.5076 -0.1537  0.0950
 4526SOL    HW125214   2.483   1.755  17.478 -3.8175 -0.9263 -2.2245
 4526SOL    HW225215   2.521   1.726  17.612 -1.2867  1.9292  1.0176
 4527SOL     OW25216   2.410   1.139   6.130 -0.5728  0.7252  0.2715
 4527SOL    HW125217   2.332   1.190   6.153 -1.0869 -0.1178  0.3770
 4527SOL    HW225218   2.402   1.117   6.037 -0.1641  0.3453  0.3270
 4528SOL     OW25219   1.732   2.818   5.238  0.7661 -0.5794 -0.1929
 4528SOL    HW125220   1.774   2.883   5.182 -0.7792  1.6841  1.2812
 4528SOL    HW225221   1.798   2.772   5.290  1.6435  2.3791  1.2779
 4529SOL     OW25222   2.916   0.980   3.502  0.3464 -0.1500  0.1158
 4529SOL    HW125223   2.952   1.004   3.417 -0.1379 -0.4324 -0.1712
 4529SOL    HW225224   2.823   0.999   3.487  0.4402 -0.6534 -1.1238
 4530SOL     OW25225   2.893   2.623   5.002 -0.0097  0.4174  0.0440
 4530SOL    HW125226   2.887   2.612   4.907 -0.0187  1.4939 -0.0853
 4530SOL    HW225227   2.975   2.672   5.004 -0.4240  1.0597  1.1537
 4531SOL     OW25228   0.699   0.799   5.169  0.0813 -0.0499 -0.4518
 4531SOL    HW125229   0.659   0.713   5.152 -0.0749 -0.3792  1.5688
 4531SOL    HW225230   0.718   0.828   5.080  0.1573  0.5556 -0.2348
 4532SOL     OW25231   2.503   3.175   8.735 -0.0518 -0.2252 -0.8499
 4532SOL    HW125232   2.595   3.159   8.758 -0.1289  0.9709  0.2928
 4532SOL    HW225233   2.467   3.193   8.822  1.7265 -1.5907  0.1719
 4533SOL     OW25234   1.455   0.108   9.233  0.1874 -0.3868  0.2939
 4533SOL    HW125235   1.547   0.131   9.216  0.4303 -1.1541  0.6003
 4533SOL    HW225236   1.433   0.076   9.145 -2.0759  2.2188 -0.0937
 4534SOL     OW25237   2.949   3.405   7.139  0.2837 -0.1151  0.3340
 4534SOL    HW125238   3.001   3.464   7.194  0.0460  1.7889 -1.4723
 4534SOL    HW225239   2.967   3.437   7.051  0.7635 -2.9015 -0.5723
 4535SOL     OW25240   3.260   2.746   7.285  0.5420  0.1871  0.6682
 4535SOL    HW125241   3.209   2.825   7.265 -0.3923 -0.3835  0.8123
 4535SOL    HW225242   3.329   2.788   7.337  0.4458  2.1190 -0.7501
 4536SOL     OW25243   4.294   0.918   4.870  0.6637 -0.3136 -0.6809
 4536SOL    HW125244   4.345   0.881   4.941 -0.8304 -0.2647  0.4192
 4536SOL    HW225245   4.362   0.943   4.807 -0.0713 -1.8792 -2.1164
 4537SOL     OW25246   2.577   0.189   4.816 -0.4572 -0.1803 -0.5694
 4537SOL    HW125247   2.552   0.280   4.800 -0.0337  0.0659  0.1785
 4537SOL    HW225248   2.491   0.147   4.817  0.8836 -2.9547 -1.2942
 4538SOL     OW25249   1.175   1.198   4.137 -0.3339 -0.1960 -0.2527
 4538SOL    HW125250   1.172   1.185   4.043 -1.3902 -0.3205 -0.1966
 4538SOL    HW225251   1.152   1.291   4.138  0.4894  0.0122 -0.7879
 4539SOL     OW25252   2.278   1.491  17.494  0.0952 -0.1381  0.3812
 4539SOL    HW125253   2.304   1.426  17.560 -0.6106 -1.1336 -0.3129
 4539SOL    HW225254   2.313   1.573  17.529 -0.7132  1.1055 -1.7808
 4540SOL     OW25255   4.153   3.055   8.020 -0.1712  0.3855 -0.0752
 4540SOL    HW125256   4.187   3.134   8.061  1.2028  0.7735 -1.9821
 4540SOL    HW225257   4.064   3.053   8.056 -1.0790  1.5426 -2.2581
 4541SOL     OW25258   4.337   1.856   6.400 -0.3749 -0.1785  0.0435
 4541SOL    HW125259   4.374   1.768   6.392 -2.8249 -1.4177  2.0190
 4541SOL    HW225260   4.282   1.841   6.477 -0.5206  0.0014 -0.0258
 4542SOL     OW25261   1.325   2.304   0.391  0.7011  0.3333  0.6486
 4542SOL    HW125262   1.240   2.306   0.434 -0.5391  1.0364 -1.8358
 4542SOL    HW225263   1.306   2.267   0.305 -0.4146  0.4733  0.8409
 4543SOL     OW25264   4.660   4.271  16.361  0.2285  0.3829  0.6785
 4543SOL    HW125265   4.590   4.243  16.301  0.5727  1.4274 -0.2228
 4543SOL    HW225266   0.002   4.283  16.309 -0.0786 -0.3232  0.0440
 4544SOL     OW25267   4.121   0.040  17.320 -0.4097 -0.2852 -0.5614
 4544SOL    HW125268   4.142   0.122  17.364  0.7423 -0.1469 -1.3818
 4544SOL    HW225269   4.032   0.019  17.347 -0.5753  1.9123  0.6224
 4545SOL     OW25270   0.758   4.360   8.717  0.0396  0.8621 -0.4218
 4545SOL    HW125271   0.726   4.271   8.732  0.9867  0.7379  0.8396
 4545SOL    HW225272   0.715   4.413   8.784 -1.1128 -0.3395 -0.2230
 4546SOL     OW25273   3.741   2.230   8.564 -0.0648  0.1069 -0.2234
 4546SOL    HW125274   3.672   2.192   8.618 -0.1177  1.3435  0.5696
 4546SOL    HW225275   3.771   2.144   8.535  2.7996  0.6923  1.0331
 4547SOL     OW25276   2.465   1.673   9.104 -0.1711 -0.0286 -0.1230
 4547SOL    HW125277   2.427   1.726   9.034  0.8182 -0.0588 -0.6891
 4547SOL    HW225278   2.442   1.586   9.072  1.3219  0.4097 -2.3908
 4548SOL     OW25279   1.954   3.075   7.642  0.1353 -0.4117  0.2168
 4548SOL    HW125280   1.949   3.132   7.565  0.1434 -0.0754  0.4662
 4548SOL    HW225281   1.888   3.010   7.618  0.5455 -0.8729  0.3204
 4549SOL     OW25282   4.181   3.283   8.486  0.4026  0.6982 -0.0661
 4549SOL    HW125283   4.175   3.188   8.495 -1.0800  0.8875  0.9228
 4549SOL    HW225284   4.094   3.316   8.465 -0.4418 -0.3572  1.7663
 4550SOL     OW25285   3.330   3.333  15.882 -0.8990  0.1899  0.0797
 4550SOL    HW125286   3.338   3.325  15.977  2.1705 -2.1546 -0.3866
 4550SOL    HW225287   3.276   3.412  15.876 -0.5387  0.5528  1.5678
 4551SOL     OW25288   0.452   3.848   2.607  0.3359 -0.0865 -0.0558
 4551SOL    HW125289   0.437   3.829   2.514 -0.7687  1.2368 -0.1444
 4551SOL    HW225290   0.502   3.770   2.633  1.6393  1.4092  1.9041
 4552SOL     OW25291   4.572   3.653   8.711  0.3002 -0.1530  0.0172
 4552SOL    HW125292   4.569   3.749   8.702 -1.8337 -0.2673 -0.6572
 4552SOL    HW225293   4.666   3.647   8.726 -0.1253 -3.6893  1.0956
 4553SOL     OW25294   1.273   0.589   0.929  0.3183  0.4139 -0.1886
 4553SOL    HW125295   1.250   0.667   0.878 -1.4675  0.5589  0.8472
 4553SOL    HW225296   1.367   0.603   0.942  0.4014  1.9876 -2.3497
 4554SOL     OW25297   3.582   2.662  13.476 -0.3947  0.1133  0.0757
 4554SOL    HW125298   3.637   2.649  13.553  1.1391 -2.0819 -1.4001
 4554SOL    HW225299   3.592   2.755  13.459  0.5375  0.2895  1.6224
 4555SOL     OW25300   0.287   3.785   7.433  0.5072  0.0087 -0.5302
 4555SOL    HW125301   0.226   3.852   7.403 -2.1887 -1.5249  1.5396
 4555SOL    HW225302   0.231   3.740   7.497 -0.7744  1.6127 -0.5091
 4556SOL     OW25303   4.164   2.230  13.733 -0.4541 -0.6432 -0.1128
 4556SOL    HW125304   4.167   2.321  13.702  0.0368  0.0945  2.0977
 4556SOL    HW225305   4.103   2.193  13.670  0.2353 -0.1927 -1.0432
 4557SOL     OW25306   2.882   3.070   3.150 -0.1242  0.6369  0.5190
 4557SOL    HW125307   2.940   3.139   3.181  1.2939 -0.5256  0.4793
 4557SOL    HW225308   2.913   2.986   3.183 -2.3103 -0.5849 -0.5593
 4558SOL     OW25309   0.853   0.206   8.208 -0.2742  0.4369  0.0540
 4558SOL    HW125310   0.900   0.143   8.264  1.4354  2.1670  0.5703
 4558SOL    HW225311   0.926   0.265   8.189  0.3548  0.4774  2.6082
 4559SOL     OW25312   2.452   0.152  14.801  0.0309  0.4237  0.1115
 4559SOL    HW125313   2.547   0.149  14.803  0.0422 -0.2308 -1.1819
 4559SOL    HW225314   2.430   0.117  14.887  0.3609  1.9785  0.8291
 4560SOL     OW25315   2.405   3.693   2.036 -0.3114 -0.7708  0.5747
 4560SOL    HW125316   2.409   3.637   1.958  1.4203 -0.3122  0.3442
 4560SOL    HW225317   2.353   3.636   2.093 -0.0632  0.2018  1.7696
 4561SOL     OW25318   3.360   3.407   2.749  0.0913 -0.1181  0.2783
 4561SOL    HW125319   3.412   3.428   2.672  1.6526  0.9592  1.6103
 4561SOL    HW225320   3.421   3.350   2.796 -2.0988 -1.3037  1.6602
 4562SOL     OW25321   4.350   0.161  16.669 -0.2336  0.1142  0.4699
 4562SOL    HW125322   4.326   0.146  16.761 -2.4561 -2.9396 -0.6127
 4562SOL    HW225323   4.280   0.104  16.637  0.5828 -1.1106  0.8623
 4563SOL     OW25324   2.689   1.723   7.750  0.0603  0.7402  0.0834
 4563SOL    HW125325   2.766   1.666   7.754 -1.1463 -0.9393 -0.9103
 4563SOL    HW225326   2.670   1.696   7.661 -0.4350  1.6430 -0.0886
 4564SOL     OW25327   1.926   3.371   8.626  0.1957  0.1880 -0.4213
 4564SOL    HW125328   1.944   3.277   8.635 -0.8144  0.0738  0.2887
 4564SOL    HW225329   1.917   3.373   8.531  0.8069 -0.0295 -0.4886
 4565SOL     OW25330   1.317   4.280   4.252 -0.8297 -0.2580 -0.2767
 4565SOL    HW125331   1.273   4.272   4.168 -1.7755 -0.0194  0.1931
 4565SOL    HW225332   1.348   4.371   4.254  0.3613 -0.6694  0.2881
 4566SOL     OW25333   4.660   1.670   2.869  0.3192  0.3008  0.3528
 4566SOL    HW125334   4.604   1.746   2.860 -1.5616 -1.0390  0.8547
 4566SOL    HW225335   0.008   1.709   2.887 -0.7173  2.8719 -0.4169
 4567SOL     OW25336   2.680   2.287   9.488  0.1107  0.0734  0.4339
 4567SOL    HW125337   2.675   2.193   9.476  1.3357 -0.1277  1.4166
 4567SOL    HW225338   2.585   2.302   9.486 -0.0826 -0.8626  2.5477
 4568SOL     OW25339   2.522   2.412   9.779 -0.8724 -0.2577 -0.2553
 4568SOL    HW125340   2.429   2.393   9.789 -0.4652 -1.9923  0.3848
 4568SOL    HW225341   2.564   2.326   9.790  1.6082  1.1169  1.0274
 4569SOL     OW25342   0.701   4.039   6.103 -0.5191 -0.3280 -0.3822
 4569SOL    HW125343   0.668   4.128   6.090 -1.5585 -0.4317  1.5485
 4569SOL    HW225344   0.787   4.073   6.125 -0.3965 -0.8966  0.0405
 4570SOL     OW25345   1.620   1.122   4.034 -0.0188 -0.4435 -0.4135
 4570SOL    HW125346   1.553   1.162   3.978 -1.6438 -1.0412  1.0730
 4570SOL    HW225347   1.584   1.127   4.123  0.9198 -1.9991  0.0486
 4571SOL     OW25348   2.798   0.557  17.186  0.3600 -0.1635  0.0308
 4571SOL    HW125349   2.795   0.490  17.117 -0.3371  1.5702 -1.6124
 4571SOL    HW225350   2.720   0.607  17.164  0.5588  1.4625  3.0993
 4572SOL     OW25351   4.554   3.422   8.113  0.1499 -0.1310 -0.8860
 4572SOL    HW125352   4.522   3.378   8.034 -0.5781 -0.5185 -0.3675
 4572SOL    HW225353   4.525   3.379   8.193 -1.3738  1.3249 -0.6342
 4573SOL     OW25354   2.318   4.066  15.597  0.1355  0.3328  0.1546
 4573SOL    HW125355   2.284   4.038  15.512  1.2351  0.8445 -0.4530
 4573SOL    HW225356   2.238   4.090  15.642  0.4712  1.3688  0.2036
 4574SOL     OW25357   4.404   2.179   7.570  0.0186 -0.1023  0.1598
 4574SOL    HW125358   4.395   2.240   7.643 -1.5277  0.1726 -0.2378
 4574SOL    HW225359   4.331   2.203   7.512 -0.7001  0.5304  1.3313
 4575SOL     OW25360   2.177   3.115   7.437 -0.2134 -0.4000  0.0955
 4575SOL    HW125361   2.155   3.022   7.443  1.6766 -0.7417  1.6421
 4575SOL    HW225362   2.268   3.106   7.409 -1.3585 -0.8804 -3.5867
 4576SOL     OW25363   0.170   4.308  16.199 -0.2511 -0.5012  0.0977
 4576SOL    HW125364   0.258   4.325  16.233  0.1809 -0.8651 -0.8283
 4576SOL    HW225365   0.164   4.377  16.133  2.1536 -0.3487  0.0279
 4577SOL     OW25366   2.242   0.952   9.471  0.6479  0.9631  0.0661
 4577SOL    HW125367   2.304   0.885   9.443  0.5762  0.0757  2.0410
 4577SOL    HW225368   2.159   0.908   9.487  0.4888  0.8277 -1.1354
 4578SOL     OW25369   2.777   4.157   4.596 -0.3179 -0.0087  0.7066
 4578SOL    HW125370   2.742   4.072   4.622  0.3643 -0.6393 -0.4930
 4578SOL    HW225371   2.705   4.194   4.545  0.1768  0.2526  0.2083
 4579SOL     OW25372   4.145   1.433   8.057  0.4010 -0.1516  0.3653
 4579SOL    HW125373   4.168   1.395   8.141  0.5439  0.7269  0.7197
 4579SOL    HW225374   4.157   1.528   8.068 -0.2730  0.0752 -0.8726
 4580SOL     OW25375   0.406   1.614  12.285 -0.4094  0.4344  0.2569
 4580SOL    HW125376   0.448   1.594  12.369  0.1723  1.3765  0.1788
 4580SOL    HW225377   0.347   1.684  12.314  0.6830  2.0502 -1.4464
 4581SOL     OW25378   3.510   3.209   6.831 -0.2219  0.2354  0.1490
 4581SOL    HW125379   3.547   3.126   6.860  1.7762  1.0776  0.0056
 4581SOL    HW225380   3.565   3.266   6.884 -0.8722  1.6081 -0.6476
 4582SOL     OW25381   3.904   3.302   8.445 -0.4836 -0.3768  0.5205
 4582SOL    HW125382   3.922   3.322   8.537  2.9769 -1.6859  0.1081
 4582SOL    HW225383   3.873   3.212   8.449  2.4066 -1.5106 -3.0720
 4583SOL     OW25384   1.984   0.461   7.842 -0.3032  0.6172  0.3157
 4583SOL    HW125385   1.911   0.448   7.902  0.2264 -1.2085  0.5856
 4583SOL    HW225386   2.030   0.533   7.885  1.4112 -1.5987  2.1978
 4584SOL     OW25387   4.228   4.682   6.975 -0.0008 -0.9156 -0.0205
 4584SOL    HW125388   4.314   4.659   6.941  0.5792  0.3954  0.5435
 4584SOL    HW225389   4.172   4.650   6.904  0.4903 -1.6067 -0.0813
 4585SOL     OW25390   3.484   4.003   6.786 -0.3197  0.3638 -0.0233
 4585SOL    HW125391   3.562   4.026   6.835  0.9397 -2.5011 -0.6823
 4585SOL    HW225392   3.506   3.916   6.752 -0.8024  2.0083 -4.6257
 4586SOL     OW25393   3.024   0.863  17.058 -0.7004  0.3766 -0.0151
 4586SOL    HW125394   2.990   0.792  17.004 -0.9490  1.5630 -1.4377
 4586SOL    HW225395   3.039   0.805  17.132 -0.4219  0.9087  0.3473
 4587SOL     OW25396   0.392   2.916  11.664  0.2703  0.4521 -0.2154
 4587SOL    HW125397   0.412   2.955  11.579 -0.8217  1.4445 -0.0227
 4587SOL    HW225398   0.483   2.894  11.682  0.1017  1.0605  1.3751
 4588SOL     OW25399   4.135   0.961   8.393 -0.2785 -0.0218 -0.1384
 4588SOL    HW125400   4.062   0.994   8.445  0.0934  0.4007  0.1152
 4588SOL    HW225401   4.207   0.962   8.457 -1.9501 -1.6024  1.7361
 4589SOL     OW25402   1.431   0.753   4.814 -0.6580  0.2993  0.0299
 4589SOL    HW125403   1.459   0.754   4.722  0.1369 -1.2782  0.2547
 4589SOL    HW225404   1.337   0.734   4.811 -0.4408 -0.5032 -2.1873
 4590SOL     OW25405   4.220   1.394   2.587  0.3191  0.1388 -0.6805
 4590SOL    HW125406   4.283   1.464   2.602 -0.4094  0.6102  0.1931
 4590SOL    HW225407   4.238   1.337   2.662  0.7815  0.9589 -0.1786
 4591SOL     OW25408   3.792   0.988   8.093  0.3799  0.1143  0.1463
 4591SOL    HW125409   3.758   1.026   8.174 -2.0187 -0.6503 -0.4953
 4591SOL    HW225410   3.789   0.894   8.111 -2.4075  0.0278 -0.7317
 4592SOL     OW25411   4.046   3.833   9.899  0.4342  0.4577  1.0245
 4592SOL    HW125412   4.059   3.831   9.804 -0.4304 -2.8394  0.9679
 4592SOL    HW225413   4.135   3.814   9.930 -0.3225 -1.5617  1.9576
 4593SOL     OW25414   4.342   2.716  17.689 -0.2621 -0.2796  0.3877
 4593SOL    HW125415   4.420   2.719  17.745 -2.0672 -0.2814  2.8883
 4593SOL    HW225416   4.338   2.801  17.644  2.4478 -0.4281 -0.1500
 4594SOL     OW25417   2.597   0.666  17.064 -0.1138 -0.3803 -0.3356
 4594SOL    HW125418   2.523   0.724  17.048 -0.9070 -1.2054  0.3478
 4594SOL    HW225419   2.611   0.624  16.979 -1.3167 -1.6045  0.0637
 4595SOL     OW25420   0.616   1.310   2.121  0.0983 -0.3123  0.9190
 4595SOL    HW125421   0.526   1.342   2.117 -0.4349 -1.8373  1.0731
 4595SOL    HW225422   0.610   1.219   2.092  3.5425 -0.2330 -0.1351
 4596SOL     OW25423   2.539   3.946   2.815 -0.2627  0.0041 -0.0173
 4596SOL    HW125424   2.514   3.894   2.739 -0.1172  0.8386 -0.6428
 4596SOL    HW225425   2.500   3.886   2.879  2.1942 -0.6206  0.8955
 4597SOL     OW25426   0.861   2.186  15.841 -0.2653  0.6159 -0.6801
 4597SOL    HW125427   0.837   2.268  15.797  1.9554  1.3377 -0.5682
 4597SOL    HW225428   0.870   2.209  15.934  0.1680  1.5943 -0.9661
 4598SOL     OW25429   1.760   4.667  16.071 -0.3700  0.5057 -0.5464
 4598SOL    HW125430   1.690   4.730  16.086 -1.5614 -1.3362  1.7481
 4598SOL    HW225431   1.829   4.732  16.062  0.5750 -0.8026 -2.7759
 4599SOL     OW25432   0.318   0.862   8.140 -0.3018 -0.4499 -0.2781
 4599SOL    HW125433   0.272   0.808   8.076 -1.2668 -0.2528  0.2357
 4599SOL    HW225434   0.409   0.834   8.134 -0.1982 -0.1979  0.1023
 4600SOL     OW25435   1.115   3.134   6.883 -0.6599 -0.3641  0.4257
 4600SOL    HW125436   1.090   3.106   6.971 -0.7943  0.7373  0.7403
 4600SOL    HW225437   1.173   3.063   6.856  0.0105 -0.3664  1.8715
 4601SOL     OW25438   2.423   3.293   4.654 -0.0863 -0.2123  0.0198
 4601SOL    HW125439   2.440   3.199   4.654  1.8855  0.1547 -1.2697
 4601SOL    HW225440   2.454   3.315   4.742  0.3741  0.4308 -0.3017
 4602SOL     OW25441   1.634   1.675   1.747  0.3956 -0.2880  0.3086
 4602SOL    HW125442   1.650   1.759   1.789  0.4612  0.0174 -0.3200
 4602SOL    HW225443   1.539   1.683   1.742  0.5458  1.1278 -0.4143
 4603SOL     OW25444   4.041   0.340   4.405  0.9728 -0.2882 -0.1692
 4603SOL    HW125445   4.048   0.248   4.380  1.2001  0.3924 -2.7146
 4603SOL    HW225446   4.119   0.365   4.455  0.7347 -0.0839  0.0992
 4604SOL     OW25447   0.923   2.141  13.676 -0.1155  0.0193 -0.2270
 4604SOL    HW125448   0.859   2.209  13.699  1.0034  1.0816 -0.2754
 4604SOL    HW225449   0.972   2.133  13.757 -0.3111 -0.3204 -0.1430
 4605SOL     OW25450   4.722   4.230   8.071 -0.5854  0.0398 -0.2361
 4605SOL    HW125451   0.071   4.189   8.069 -0.0696  1.1800 -1.5593
 4605SOL    HW225452   0.014   4.320   8.086 -0.8459  0.0206  0.3867
 4606SOL     OW25453   1.315   2.122   4.498 -0.0436 -0.0456  0.5516
 4606SOL    HW125454   1.377   2.052   4.480 -1.6970 -1.3348 -0.0988
 4606SOL    HW225455   1.362   2.170   4.566 -0.2752  1.9994 -0.7115
 4607SOL     OW25456   0.776   3.418   1.626 -0.5935  0.4494 -0.3151
 4607SOL    HW125457   0.706   3.412   1.561 -1.6188  0.2337  0.8239
 4607SOL    HW225458   0.788   3.513   1.628  1.2841  0.1282  3.2545
 4608SOL     OW25459   3.541   2.127   2.815 -0.1146  0.7625 -0.4635
 4608SOL    HW125460   3.493   2.048   2.788  1.1110  0.0335 -0.5002
 4608SOL    HW225461   3.628   2.100   2.786  0.0881 -0.2074  1.0751
 4609SOL     OW25462   0.641   0.791   6.805 -0.0923 -0.6729  0.6661
 4609SOL    HW125463   0.620   0.814   6.715  1.9139  2.3992  1.0032
 4609SOL    HW225464   0.713   0.848   6.831  1.6211 -2.0711 -1.0500
 4610SOL     OW25465   2.224   0.444   8.319  0.3692 -0.5433 -0.1274
 4610SOL    HW125466   2.256   0.365   8.274 -0.2883  0.4150 -2.2591
 4610SOL    HW225467   2.148   0.404   8.362  2.0697 -0.3537  3.0854
 4611SOL     OW25468   0.793   2.387   7.203 -0.3631  0.2807  0.1856
 4611SOL    HW125469   0.835   2.393   7.288  2.1438 -0.2961 -1.0003
 4611SOL    HW225470   0.753   2.474   7.208 -2.9627 -0.8533 -0.8088
 4612SOL     OW25471   3.471   2.401   5.206 -0.2837 -0.4648  0.6502
 4612SOL    HW125472   3.461   2.472   5.269  0.7956  0.8631 -0.6717
 4612SOL    HW225473   3.556   2.361   5.227  0.8020  1.0925 -0.7472
 4613SOL     OW25474   3.409   2.458   0.622  0.3500 -0.3761 -0.3712
 4613SOL    HW125475   3.450   2.512   0.689 -0.0157 -0.3884 -0.1365
 4613SOL    HW225476   3.323   2.500   0.629  0.8270  0.5643 -0.1344
 4614SOL     OW25477   1.101   0.632   2.318 -0.2939 -0.5564  0.4774
 4614SOL    HW125478   1.041   0.670   2.254  1.1337 -2.0655 -1.7275
 4614SOL    HW225479   1.111   0.710   2.373 -0.2970  1.1496 -1.9516
 4615SOL     OW25480   3.201   0.411   8.958 -0.2868  0.4003  0.1696
 4615SOL    HW125481   3.260   0.339   8.934 -0.6781  1.8247 -4.9633
 4615SOL    HW225482   3.136   0.398   8.889 -1.7195 -0.7266  1.7293
 4616SOL     OW25483   3.635   3.946  11.067 -0.3008 -0.5300 -0.2740
 4616SOL    HW125484   3.628   3.878  11.134 -1.4471  0.1804  0.3357
 4616SOL    HW225485   3.644   4.025  11.121  2.1057  0.6128 -2.3605
 4617SOL     OW25486   3.146   0.765   2.888 -0.1229 -0.1402 -0.1351
 4617SOL    HW125487   3.164   0.847   2.842  2.0884 -1.0277 -0.8511
 4617SOL    HW225488   3.113   0.791   2.974 -0.7433 -1.8512  0.1503
 4618SOL     OW25489   0.621   3.335   2.870 -0.0187 -0.1548 -0.2500
 4618SOL    HW125490   0.700   3.340   2.816  0.2527  1.2114  0.2778
 4618SOL    HW225491   0.639   3.411   2.925 -0.6373 -0.3932  0.2797
 4619SOL     OW25492   4.248   1.242   0.493  0.5294 -0.1579 -0.1680
 4619SOL    HW125493   4.162   1.271   0.523  0.4843 -1.2376  0.7772
 4619SOL    HW225494   4.273   1.299   0.420  0.3883 -0.2087 -0.2558
 4620SOL     OW25495   1.891   2.061   3.009 -0.0363  0.3648  0.0469
 4620SOL    HW125496   1.853   2.070   2.922  1.3423  1.1330 -0.4667
 4620SOL    HW225497   1.979   2.099   3.004 -0.6669  2.0469  1.2758
 4621SOL     OW25498   3.388   3.494  12.067  0.7889 -0.6554 -0.0574
 4621SOL    HW125499   3.298   3.518  12.088  0.5184 -1.1396 -0.6730
 4621SOL    HW225500   3.381   3.471  11.974 -1.3508  0.3561 -0.1453
 4622SOL     OW25501   0.233   0.639   9.040  0.2824 -0.3165  0.8600
 4622SOL    HW125502   0.204   0.568   8.984 -2.9520 -0.1128  2.2481
 4622SOL    HW225503   0.167   0.638   9.110  1.3263 -1.6082  1.8323
 4623SOL     OW25504   4.207   3.015   7.423  0.1298  0.1561  0.0067
 4623SOL    HW125505   4.175   2.935   7.381  0.5378  0.4552 -0.8495
 4623SOL    HW225506   4.147   3.018   7.499 -0.8597  1.7695 -0.8326
 4624SOL     OW25507   3.329   2.784   7.656  0.5440 -0.0487  0.0259
 4624SOL    HW125508   3.417   2.747   7.661  1.0500  1.4297  2.0438
 4624SOL    HW225509   3.343   2.877   7.643 -1.2532 -0.0659 -1.9146
 4625SOL     OW25510   3.038   2.164  12.220 -0.1505 -0.2012 -0.0747
 4625SOL    HW125511   2.955   2.117  12.213 -0.2791 -0.0550  0.4946
 4625SOL    HW225512   3.007   2.251  12.246  0.8872 -0.1643  1.0202
 4626SOL     OW25513   0.746   1.789   6.326 -0.5579  0.0591  0.2807
 4626SOL    HW125514   0.823   1.816   6.375 -1.8095  1.7927  1.3038
 4626SOL    HW225515   0.667   1.828   6.365  0.4231  3.3075 -0.9543
 4627SOL     OW25516   4.551   0.617   6.116  0.1075  0.0878  0.3595
 4627SOL    HW125517   4.542   0.695   6.172  1.5842 -0.3109  1.1442
 4627SOL    HW225518   4.456   0.604   6.116  0.2452 -0.9157  0.9293
 4628SOL     OW25519   4.412   2.610  17.372  0.1670 -0.4077  0.0135
 4628SOL    HW125520   4.407   2.545  17.302  0.6375 -1.3238  0.8302
 4628SOL    HW225521   4.482   2.567  17.422  0.6217 -0.7381 -0.8963
 4629SOL     OW25522   4.000   2.391  13.942  0.5623  0.1514 -0.4524
 4629SOL    HW125523   4.064   2.321  13.957 -0.5564 -0.8962 -0.5123
 4629SOL    HW225524   4.039   2.432  13.865  2.1477 -0.1734  0.1885
 4630SOL     OW25525   4.673   2.626   7.852 -0.2562  0.4767 -0.4789
 4630SOL    HW125526   4.612   2.700   7.852 -0.1683  0.5494 -0.2014
 4630SOL    HW225527   0.003   2.664   7.908  2.5105 -2.4497 -1.8437
 4631SOL     OW25528   2.376   2.859  11.598  0.1435  0.3065 -0.3599
 4631SOL    HW125529   2.389   2.950  11.573  2.8028 -0.3343 -1.3111
 4631SOL    HW225530   2.437   2.810  11.544  0.0535  0.1431 -0.3132
 4632SOL     OW25531   4.043   1.002  17.220  0.3965 -0.1879  0.2934
 4632SOL    HW125532   4.121   1.052  17.243  0.1517  0.6155 -0.6161
 4632SOL    HW225533   4.067   0.957  17.139 -0.0245  1.6931 -0.8971
 4633SOL     OW25534   1.115   2.693   3.932 -0.4541 -1.1414 -0.1914
 4633SOL    HW125535   1.049   2.726   3.871 -1.7463 -2.5627  0.4136
 4633SOL    HW225536   1.120   2.602   3.902  2.9646 -1.0857  0.2566
 4634SOL     OW25537   0.026   1.411  11.707  0.2209 -0.1013 -0.7196
 4634SOL    HW125538   0.062   1.499  11.693 -1.4588  0.6372 -0.3638
 4634SOL    HW225539   4.676   1.437  11.737  1.0836 -1.9857  3.4353
 4635SOL     OW25540   2.676   1.906   5.369 -0.3877  0.1775  0.3199
 4635SOL    HW125541   2.699   1.849   5.443 -2.8101 -2.8932 -1.2919
 4635SOL    HW225542   2.630   1.842   5.314 -0.5968  0.1146  0.5668
 4636SOL     OW25543   1.908   2.704   4.410 -0.1814  0.1800 -0.0080
 4636SOL    HW125544   1.813   2.713   4.420 -0.1524 -0.4577  0.8816
 4636SOL    HW225545   1.914   2.650   4.331 -1.0502  0.1852 -0.0762
 4637SOL     OW25546   3.745   0.523  15.006 -0.4751  0.2707  0.3596
 4637SOL    HW125547   3.698   0.552  14.928  0.7320 -0.0618 -0.4803
 4637SOL    HW225548   3.796   0.447  14.979  0.1395  0.2044  1.6692
 4638SOL     OW25549   3.927   3.961   7.970  0.0849  0.4911  0.3087
 4638SOL    HW125550   3.951   4.019   8.042 -2.2318 -1.8988  3.0183
 4638SOL    HW225551   3.869   3.898   8.014 -1.5012  0.2504 -2.1285
 4639SOL     OW25552   3.734   0.856   6.648 -0.3684  0.5085  0.6136
 4639SOL    HW125553   3.669   0.828   6.712 -2.4188  0.5667 -1.4219
 4639SOL    HW225554   3.819   0.825   6.679  0.3443  0.1034 -1.6862
 4640SOL     OW25555   0.260   3.666   2.266 -0.2022  0.0568 -0.0738
 4640SOL    HW125556   0.175   3.630   2.239 -0.3669 -0.3641  0.9994
 4640SOL    HW225557   0.259   3.660   2.361  0.1076  2.1104  0.0743
 4641SOL     OW25558   4.102   3.863   6.991 -0.0031 -0.1732  0.5490
 4641SOL    HW125559   4.017   3.821   7.009 -0.5398 -0.1750 -1.8972
 4641SOL    HW225560   4.152   3.789   6.956  0.9708 -0.2512  2.1397
 4642SOL     OW25561   4.165   4.529   4.582  0.2642  0.3105  0.5025
 4642SOL    HW125562   4.239   4.474   4.605  0.1736 -0.3355 -0.7706
 4642SOL    HW225563   4.104   4.485   4.642 -0.4415 -0.5393 -0.8477
 4643SOL     OW25564   0.873   3.035   9.579  0.2611  0.5647  0.5541
 4643SOL    HW125565   0.822   3.088   9.518  2.4381  0.9291 -0.9575
 4643SOL    HW225566   0.904   3.102   9.639  0.5290 -0.3656  1.4510
 4644SOL     OW25567   4.090   1.307   6.483 -0.4046  0.1408  0.1849
 4644SOL    HW125568   4.070   1.214   6.476  2.1147 -0.3850 -0.1438
 4644SOL    HW225569   4.003   1.346   6.476 -0.0560  0.9419  0.2708
 4645SOL     OW25570   4.665   4.196  14.315  0.8044 -0.3545 -0.0111
 4645SOL    HW125571   4.583   4.230  14.278  1.1949 -0.4350 -0.9698
 4645SOL    HW225572   4.661   4.114  14.265  1.0941  0.2567 -1.0521
 4646SOL     OW25573   2.423   3.251   7.064  0.3072  0.6452  0.0360
 4646SOL    HW125574   2.466   3.324   7.107  2.5930 -0.8614  0.3308
 4646SOL    HW225575   2.372   3.302   7.002 -1.9239 -1.4305  0.1703
 4647SOL     OW25576   0.985   0.699  12.819 -0.1886 -0.1504  0.3278
 4647SOL    HW125577   0.917   0.704  12.752 -1.5286 -0.5335  1.6806
 4647SOL    HW225578   0.962   0.778  12.868 -1.0478  0.4700 -1.0865
 4648SOL     OW25579   2.853   0.438   5.062 -0.0335  0.1263 -0.2407
 4648SOL    HW125580   2.883   0.417   4.974  0.8142 -0.7326  0.2645
 4648SOL    HW225581   2.933   0.432   5.113  0.5183  0.4812 -1.0628
 4649SOL     OW25582   3.574   3.687  14.708 -0.2383  0.3138 -0.3637
 4649SOL    HW125583   3.487   3.669  14.742  0.7198  0.1484  2.0227
 4649SOL    HW225584   3.631   3.627  14.756  0.6425  1.4988  0.0992
 4650SOL     OW25585   2.221   0.321   4.453 -0.0347  0.0457 -0.0974
 4650SOL    HW125586   2.200   0.413   4.470 -0.2495 -0.3540  1.7322
 4650SOL    HW225587   2.200   0.303   4.361  1.0026 -0.7900 -0.1737
 4651SOL     OW25588   4.212   2.988  13.329 -0.1096 -0.0949 -0.1528
 4651SOL    HW125589   4.172   2.904  13.305  1.7280 -1.3006  1.0077
 4651SOL    HW225590   4.130   3.024  13.362  0.2005  1.2063 -0.8260
 4652SOL     OW25591   0.061   3.839   5.303 -0.0306  0.4957 -0.0058
 4652SOL    HW125592   4.712   3.805   5.329 -0.4841  1.5601 -0.1284
 4652SOL    HW225593   0.051   3.928   5.336  2.3864  0.9728 -0.6239
 4653SOL     OW25594   4.377   2.961   1.553 -0.4172  0.3328 -0.5808
 4653SOL    HW125595   4.412   3.032   1.607 -0.1794  1.3726 -2.1045
 4653SOL    HW225596   4.432   2.954   1.476 -0.5545 -0.9148 -0.5587
 4654SOL     OW25597   1.306   4.102  10.426 -0.4306 -0.7941  0.5272
 4654SOL    HW125598   1.380   4.042  10.420 -1.9909 -2.5166 -1.0700
 4654SOL    HW225599   1.315   4.133  10.516 -0.7128  3.1141 -0.8004
 4655SOL     OW25600   0.101   1.946   6.053 -0.0536  0.4518  0.2109
 4655SOL    HW125601   0.114   1.852   6.042 -0.9171  0.8751 -4.1842
 4655SOL    HW225602   0.193   1.967   6.073 -0.1264  1.5487 -0.6554
 4656SOL     OW25603   2.337   1.616   0.337  0.5424 -0.2329 -0.1269
 4656SOL    HW125604   2.248   1.599   0.308  0.2124 -0.4942  1.0507
 4656SOL    HW225605   2.327   1.696   0.389 -1.0673 -0.0493 -0.7179
 4657SOL     OW25606   0.510   4.201   1.531 -0.2795 -0.4048  0.3936
 4657SOL    HW125607   0.563   4.274   1.561  0.6455 -0.1806 -1.7708
 4657SOL    HW225608   0.561   4.142   1.476 -0.7894 -0.1490 -0.3603
 4658SOL     OW25609   0.333   3.466   1.483 -0.0467  0.3950  0.0352
 4658SOL    HW125610   0.425   3.457   1.460 -0.5308 -1.9524 -0.9297
 4658SOL    HW225611   0.304   3.375   1.492 -2.7167  1.2166 -0.1346
 4659SOL     OW25612   4.485   0.090   2.566 -0.2068 -0.1398  0.2900
 4659SOL    HW125613   4.523   0.164   2.520  1.0655 -1.8558 -1.4082
 4659SOL    HW225614   4.488   0.121   2.657 -1.6547  2.3050 -0.4892
 4660SOL     OW25615   1.422   0.281   4.367  0.1214  0.0091  0.3619
 4660SOL    HW125616   1.399   0.373   4.363 -1.2634 -0.3845 -0.9282
 4660SOL    HW225617   1.367   0.246   4.296  0.7219  3.9780 -2.0371
 4661SOL     OW25618   3.986   2.518   2.991 -0.0268  0.3313 -0.4568
 4661SOL    HW125619   3.940   2.601   2.981  0.9974  0.6642 -2.4173
 4661SOL    HW225620   4.065   2.533   2.940  0.6267  0.0967  0.4877
 4662SOL     OW25621   3.119   3.498  15.861 -0.1952 -0.5208 -0.0702
 4662SOL    HW125622   3.077   3.581  15.882 -0.7197 -0.5368 -1.0582
 4662SOL    HW225623   3.105   3.500  15.767 -0.2049 -2.0386 -0.0990
 4663SOL     OW25624   4.001   0.276   1.551 -0.5001 -0.4774  0.2464
 4663SOL    HW125625   3.942   0.344   1.519  1.6371  2.3293  2.3705
 4663SOL    HW225626   3.986   0.207   1.486 -0.5244 -0.2539  0.0126
 4664SOL     OW25627   2.718   3.192   4.078 -0.2955  0.1918 -0.0283
 4664SOL    HW125628   2.799   3.242   4.089  0.3685 -1.7083  3.7200
 4664SOL    HW225629   2.704   3.166   4.169 -1.4966  0.1631 -0.2234
 4665SOL     OW25630   2.990   0.512   3.112 -0.2775 -0.4483  0.6121
 4665SOL    HW125631   2.952   0.503   3.025 -0.0076 -1.1048  0.5662
 4665SOL    HW225632   3.035   0.428   3.108 -0.8142 -0.7872  1.7600
 4666SOL     OW25633   2.571   1.234   5.015 -0.2178  0.6783 -0.9197
 4666SOL    HW125634   2.652   1.224   4.966 -0.0099  0.9981 -0.6452
 4666SOL    HW225635   2.589   1.165   5.078  0.9836  0.3431 -1.6405
 4667SOL     OW25636   2.903   2.666   8.465  0.9252  0.0819 -0.3938
 4667SOL    HW125637   2.846   2.739   8.444 -0.8650 -0.6143  2.1317
 4667SOL    HW225638   2.912   2.616   8.384  2.3111 -1.7935  0.9135
 4668SOL     OW25639   1.164   1.762   3.797  0.0965  0.4455  0.3450
 4668SOL    HW125640   1.138   1.835   3.741 -0.1909 -0.5714 -0.8582
 4668SOL    HW225641   1.185   1.803   3.881 -2.1460  0.7757  0.7686
 4669SOL     OW25642   1.146   1.470   5.237 -0.2477  0.2046  0.0083
 4669SOL    HW125643   1.124   1.550   5.189 -0.0621  0.3700  0.1948
 4669SOL    HW225644   1.150   1.496   5.329 -2.8156  1.5235 -0.2781
 4670SOL     OW25645   0.861   1.600   7.174 -0.1847  0.4098 -0.0801
 4670SOL    HW125646   0.931   1.544   7.139  0.3523  1.9054 -1.3880
 4670SOL    HW225647   0.853   1.669   7.109 -0.8398  0.0003 -0.4289
 4671SOL     OW25648   4.510   3.193   5.307 -0.1173 -0.4093 -0.2630
 4671SOL    HW125649   4.563   3.137   5.364  2.9705 -0.4944 -3.2284
 4671SOL    HW225650   4.561   3.275   5.302  2.6507 -2.2913 -2.9105
 4672SOL     OW25651   2.373   3.478   8.377  0.4347 -0.1335 -0.0738
 4672SOL    HW125652   2.449   3.427   8.350  0.6787  1.5343 -2.4958
 4672SOL    HW225653   2.345   3.427   8.453 -0.9273 -0.8880 -1.0821
 4673SOL     OW25654   3.961   1.236   2.816 -0.0125  0.4447 -0.1416
 4673SOL    HW125655   3.963   1.140   2.820 -2.7452  0.3898 -0.2484
 4673SOL    HW225656   4.028   1.266   2.876 -0.4821  0.7582  0.2243
 4674SOL     OW25657   3.243   4.638  11.021  0.0751 -0.1255  0.1227
 4674SOL    HW125658   3.198   4.573  11.075  2.7471 -2.3914 -0.4117
 4674SOL    HW225659   3.197   4.609  10.942 -0.7245 -0.0220  0.5498
 4675SOL     OW25660   3.141   2.099   3.055  0.0829  0.0448 -0.8356
 4675SOL    HW125661   3.197   2.164   3.013  1.2500  1.1008  2.3919
 4675SOL    HW225662   3.073   2.165   3.067 -0.1374 -0.1617 -0.9675
 4676SOL     OW25663   3.620   2.120   3.144  0.4575 -0.2645 -0.1863
 4676SOL    HW125664   3.579   2.038   3.173 -1.0713 -0.0066 -1.6241
 4676SOL    HW225665   3.570   2.126   3.063  1.6602  0.7906 -0.8522
 4677SOL     OW25666   3.409   1.613   0.759  0.4575  0.2550 -0.0736
 4677SOL    HW125667   3.379   1.703   0.763  0.1149  0.2067 -1.4078
 4677SOL    HW225668   3.353   1.575   0.691  2.6917  1.1505 -2.4206
 4678SOL     OW25669   2.821   4.020  16.418 -0.7468 -0.1759  0.3940
 4678SOL    HW125670   2.802   3.949  16.357  1.5008 -0.4622  0.0608
 4678SOL    HW225671   2.742   4.073  16.405 -0.3461 -0.1742 -1.8868
 4679SOL     OW25672   3.284   0.065   2.298  0.2711  0.7311 -0.1261
 4679SOL    HW125673   3.290   0.085   2.205  1.9135 -1.6002 -0.5197
 4679SOL    HW225674   3.371   0.031   2.320  0.1414 -0.1839 -1.0108
 4680SOL     OW25675   1.827   4.126  14.689 -0.5243 -0.2924  0.3006
 4680SOL    HW125676   1.751   4.167  14.650  1.3557  2.7096 -0.2060
 4680SOL    HW225677   1.845   4.062  14.620 -1.7128  0.2798 -0.5308
 4681SOL     OW25678   4.702   1.778   3.619 -0.1478 -0.0057 -0.0659
 4681SOL    HW125679   4.735   1.691   3.596  2.4190  1.2256 -0.9883
 4681SOL    HW225680   0.023   1.839   3.574 -0.5401  2.6168  2.9263
 4682SOL     OW25681   4.664   2.325   1.270 -0.8539  0.3226  0.4890
 4682SOL    HW125682   4.645   2.403   1.217 -1.3166  0.3355  0.6717
 4682SOL    HW225683   4.579   2.281   1.265 -1.0329  0.6993  0.2160
 4683SOL     OW25684   2.554   4.230   3.493  0.0740  0.3354 -0.4134
 4683SOL    HW125685   2.513   4.195   3.414 -1.0168  0.0560  0.2713
 4683SOL    HW225686   2.488   4.223   3.562 -1.1363  0.0045 -1.6121
 4684SOL     OW25687   0.758   1.514   5.178  0.4036  0.4081  0.6565
 4684SOL    HW125688   0.725   1.436   5.222  0.6447 -0.4015 -0.6178
 4684SOL    HW225689   0.764   1.575   5.252  0.5005 -1.5035  2.2248
 4685SOL     OW25690   0.439   4.064   5.833  0.0386  0.3761 -0.2800
 4685SOL    HW125691   0.508   4.101   5.778  0.9172  0.4062  0.8373
 4685SOL    HW225692   0.474   4.031   5.916  1.7580  0.0981 -1.1214
 4686SOL     OW25693   4.734   1.858   6.635 -0.4020 -0.5935 -0.4056
 4686SOL    HW125694   4.711   1.840   6.727 -2.1578  0.5817 -0.6174
 4686SOL    HW225695   4.650   1.893   6.605  0.2973  1.1112 -0.3197
 4687SOL     OW25696   3.221   0.311  12.933 -0.4115 -0.1330 -0.2877
 4687SOL    HW125697   3.219   0.401  12.901 -0.5192  0.3028  0.9315
 4687SOL    HW225698   3.164   0.259  12.876  0.3653 -1.6667  0.3377
 4688SOL     OW25699   3.629   0.638  14.037 -0.1968  0.1310 -0.0960
 4688SOL    HW125700   3.591   0.675  13.957 -0.8579  0.1887  0.2471
 4688SOL    HW225701   3.722   0.660  14.034  0.0476 -1.0389 -1.7150
 4689SOL     OW25702   3.164   0.024   3.556  0.0431 -0.2762 -0.5307
 4689SOL    HW125703   3.130   0.102   3.513 -0.8734 -1.5422 -2.0680
 4689SOL    HW225704   3.097   4.696   3.536 -0.1269 -0.0140 -0.8223
 4690SOL     OW25705   3.597   1.965  15.040  0.0332 -0.3459 -0.0216
 4690SOL    HW125706   3.677   1.912  15.038  0.8124  0.7947  0.7822
 4690SOL    HW225707   3.534   1.905  15.080  0.3676 -0.3167  0.5449
 4691SOL     OW25708   3.871   1.530   8.222 -0.0856  0.4976 -0.0770
 4691SOL    HW125709   3.853   1.506   8.131 -0.4861  0.9332 -0.1181
 4691SOL    HW225710   3.781   1.524   8.256 -0.1484 -0.2270 -0.3727
 4692SOL     OW25711   0.930   0.674   5.289 -0.9521  0.2876 -0.1849
 4692SOL    HW125712   0.990   0.743   5.318 -0.1161 -1.1745  1.5575
 4692SOL    HW225713   0.855   0.723   5.255 -2.6343 -1.2147  1.3183
 4693SOL     OW25714   1.329   3.717   6.493 -0.8234  0.2957 -0.3501
 4693SOL    HW125715   1.268   3.771   6.442 -0.2055  0.0300 -1.3673
 4693SOL    HW225716   1.270   3.693   6.564  1.9148 -1.7181  1.2223
 4694SOL     OW25717   2.375   4.444  11.046 -0.4842 -0.6554  0.1686
 4694SOL    HW125718   2.389   4.438  11.140  1.0690 -1.7866 -0.1467
 4694SOL    HW225719   2.440   4.383  11.013 -3.0331 -3.1075 -0.3500
 4695SOL     OW25720   1.843   1.069   8.320 -0.1836 -0.1498  0.1199
 4695SOL    HW125721   1.919   1.086   8.263 -0.5082  1.1248  0.0549
 4695SOL    HW225722   1.833   0.975   8.307 -0.6485 -0.0202 -0.4459
 4696SOL     OW25723   1.622   4.226   4.694  0.1228 -0.3911 -0.0196
 4696SOL    HW125724   1.562   4.153   4.706  0.2259 -0.6328 -0.9753
 4696SOL    HW225725   1.685   4.219   4.766 -2.2261 -1.3225  1.9214
 4697SOL     OW25726   1.648   2.168   7.953 -0.0493 -0.5272 -0.0278
 4697SOL    HW125727   1.695   2.228   7.895 -1.4156  2.6014  2.1604
 4697SOL    HW225728   1.574   2.152   7.894  0.5405  1.8012 -1.3816
 4698SOL     OW25729   4.575   0.515  10.327 -0.3387  0.0451  0.1672
 4698SOL    HW125730   4.517   0.591  10.335  0.0296  0.3899 -0.4388
 4698SOL    HW225731   4.510   0.453  10.360 -1.1415  1.1026  0.5652
 4699SOL     OW25732   4.361   3.047  10.084  0.2291  0.0737 -0.5960
 4699SOL    HW125733   4.384   3.007  10.168 -0.7785 -3.0558 -1.8035
 4699SOL    HW225734   4.392   2.981  10.022 -1.5503  0.7425 -2.1713
 4700SOL     OW25735   4.170   1.999   7.181  0.2461  0.1044 -0.0987
 4700SOL    HW125736   4.156   1.971   7.272  1.9030  0.3189  0.2233
 4700SOL    HW225737   4.095   2.056   7.167 -0.5008 -1.0297 -0.7615
 4701SOL     OW25738   2.102   0.710  16.786  0.1024 -0.3076  0.3146
 4701SOL    HW125739   2.097   0.702  16.691  0.2711  1.6742  0.1297
 4701SOL    HW225740   2.107   0.805  16.799 -0.9084 -0.0989 -0.8643
 4702SOL     OW25741   0.698   2.399   8.730 -0.1682 -0.2294  0.1647
 4702SOL    HW125742   0.629   2.450   8.687 -1.1741  0.0293  2.0812
 4702SOL    HW225743   0.773   2.457   8.719  0.9777 -1.8925 -0.8127
 4703SOL     OW25744   2.850   0.840  15.226 -0.0339 -0.3198  0.4795
 4703SOL    HW125745   2.757   0.818  15.221  0.1873 -1.2747  0.5808
 4703SOL    HW225746   2.891   0.776  15.167  1.2128  1.9294 -1.0811
 4704SOL     OW25747   2.817   0.817  13.029  0.2819 -0.0022  0.0547
 4704SOL    HW125748   2.798   0.733  12.988  1.7534 -1.3741  2.1810
 4704SOL    HW225749   2.908   0.813  13.059 -0.1207 -1.3807  1.0634
 4705SOL     OW25750   4.666   0.175   5.345 -0.0462  0.0797  0.0782
 4705SOL    HW125751   4.716   0.136   5.417 -2.4839 -1.8066  0.7891
 4705SOL    HW225752   4.734   0.183   5.279 -0.2713  1.4489  0.0169
 4706SOL     OW25753   2.190   4.132   9.177 -0.2326 -0.0488  0.4531
 4706SOL    HW125754   2.130   4.193   9.135  1.8877  1.7535  0.0639
 4706SOL    HW225755   2.252   4.187   9.225  1.3162 -0.8126 -0.6628
 4707SOL     OW25756   0.362   2.037   8.152 -0.1519  0.1283 -0.8544
 4707SOL    HW125757   0.426   2.071   8.215  1.0762 -2.4389 -0.7451
 4707SOL    HW225758   0.418   1.973   8.110 -2.2226 -0.8480 -2.1071
 4708SOL     OW25759   4.413   2.564   0.696 -0.3111 -0.6419  0.1095
 4708SOL    HW125760   4.465   2.540   0.620 -0.3654 -1.4614  0.3306
 4708SOL    HW225761   4.334   2.593   0.651  0.1636 -0.1494 -0.4092
 4709SOL     OW25762   2.920   2.606   9.131  0.0045  0.3469 -0.1561
 4709SOL    HW125763   2.942   2.670   9.199  0.2643  1.0091 -0.8625
 4709SOL    HW225764   2.944   2.655   9.053  3.0748 -0.5650  0.2200
 4710SOL     OW25765   3.010   4.225   4.105  0.4446 -0.1134 -0.2182
 4710SOL    HW125766   2.996   4.154   4.167 -0.0099  0.0017 -0.1859
 4710SOL    HW225767   3.085   4.202   4.050  0.6207  1.0594 -0.4787
 4711SOL     OW25768   1.956   0.518   8.987 -0.2760 -0.3352  0.1179
 4711SOL    HW125769   1.878   0.571   9.001  0.4312  0.1695  2.1261
 4711SOL    HW225770   2.023   0.570   9.031 -0.3065  0.6295 -0.9891
 4712SOL     OW25771   0.188   4.048   7.087  0.6076  0.2574  0.2282
 4712SOL    HW125772   0.128   4.084   7.022  1.0139 -0.0103 -0.2911
 4712SOL    HW225773   0.266   4.092   7.054 -0.0681  0.2136 -1.4050
 4713SOL     OW25774   0.247   2.426  15.623  0.0558 -0.1520 -0.3278
 4713SOL    HW125775   0.172   2.407  15.679  1.5480 -2.2850  1.0012
 4713SOL    HW225776   0.216   2.387  15.542  1.8589 -0.3865 -0.9088
 4714SOL     OW25777   2.361   0.291   1.286 -0.3183  0.5866 -0.2832
 4714SOL    HW125778   2.351   0.337   1.203  0.4798  0.4118 -0.4703
 4714SOL    HW225779   2.429   0.345   1.327  1.5212 -2.5155  0.7402
 4715SOL     OW25780   0.850   2.409  14.602 -0.1695 -0.1557 -0.8832
 4715SOL    HW125781   0.909   2.481  14.621  1.0638 -2.1389  2.9353
 4715SOL    HW225782   0.769   2.436  14.646 -0.4331  1.7099 -2.5419
 4716SOL     OW25783   3.741   3.458   5.789 -0.3042  0.0498  0.2370
 4716SOL    HW125784   3.656   3.425   5.820 -0.2997 -2.2501 -2.2221
 4716SOL    HW225785   3.776   3.373   5.762 -3.5349 -0.6963 -1.6088
 4717SOL     OW25786   2.463   0.342   5.698 -0.5641 -0.1194  0.1249
 4717SOL    HW125787   2.554   0.351   5.726 -0.0115  0.2204 -1.8342
 4717SOL    HW225788   2.473   0.366   5.606 -1.3895 -2.5303 -0.5934
 4718SOL     OW25789   0.560   2.705   8.006 -0.1420 -0.4966 -0.3505
 4718SOL    HW125790   0.621   2.643   8.046 -1.8847 -2.7320 -1.1045
 4718SOL    HW225791   0.605   2.714   7.922 -0.8629  1.2700 -0.5397
 4719SOL     OW25792   0.451   0.285   3.092 -0.2236 -0.2264  0.1061
 4719SOL    HW125793   0.515   0.215   3.105  0.3320  0.1425 -0.6257
 4719SOL    HW225794   0.481   0.312   3.005  0.8075 -0.7536  0.2951
 4720SOL     OW25795   2.202   3.012   7.763 -0.5194  0.5464 -0.3836
 4720SOL    HW125796   2.240   3.099   7.778 -1.7110  0.5982  2.3269
 4720SOL    HW225797   2.126   3.033   7.708 -1.5911 -3.2025 -0.3343
 4721SOL     OW25798   1.435   3.988   4.719  0.2127 -0.1815  0.0168
 4721SOL    HW125799   1.483   3.957   4.643 -3.1399 -1.2342 -1.6438
 4721SOL    HW225800   1.358   4.020   4.673  0.4992 -0.7460 -0.8549
 4722SOL     OW25801   2.375   1.679  10.780 -0.1595 -0.4597 -0.0642
 4722SOL    HW125802   2.408   1.589  10.775  0.9256 -0.1133  0.8530
 4722SOL    HW225803   2.294   1.668  10.829  0.0989  0.2981  0.5259
 4723SOL     OW25804   1.940   3.262   7.417  0.0229  0.9255 -0.9108
 4723SOL    HW125805   2.028   3.228   7.433 -0.5149  0.0779  0.2022
 4723SOL    HW225806   1.962   3.328   7.351  1.4135  0.7130 -0.6627
 4724SOL     OW25807   2.490   2.942   0.754 -0.2194 -0.4649 -0.3046
 4724SOL    HW125808   2.548   2.899   0.692 -0.9597 -1.5740 -0.2324
 4724SOL    HW225809   2.514   3.034   0.747 -1.6621  0.1911  3.2064
 4725SOL     OW25810   1.426   3.867   4.240 -0.2743  0.2707 -0.5416
 4725SOL    HW125811   1.408   3.791   4.296  0.8644  0.2397 -0.2247
 4725SOL    HW225812   1.487   3.911   4.298  0.9303  0.3252 -1.8624
 4726SOL     OW25813   0.526   1.293   7.154 -0.2902  0.1019 -0.5097
 4726SOL    HW125814   0.564   1.327   7.074  0.4639 -5.2082 -2.4277
 4726SOL    HW225815   0.604   1.266   7.204 -1.3099  0.1241  1.0864
 4727SOL     OW25816   3.644   3.253   8.645  0.1310 -0.3203  0.2663
 4727SOL    HW125817   3.623   3.223   8.557 -1.1554 -2.3968  1.2872
 4727SOL    HW225818   3.728   3.300   8.646 -0.3895  0.6172 -0.1518
 4728SOL     OW25819   2.853   1.431   7.389  0.2381 -0.0488 -0.6596
 4728SOL    HW125820   2.876   1.499   7.325 -1.8263  2.1052  0.9226
 4728SOL    HW225821   2.924   1.434   7.453 -0.0958 -1.6998 -0.2172
 4729SOL     OW25822   0.859   1.857  11.971 -0.4794  0.7506 -1.1063
 4729SOL    HW125823   0.948   1.852  12.006 -2.0501 -0.0458  2.7076
 4729SOL    HW225824   0.880   1.904  11.890 -0.3818  0.0081 -1.5111
 4730SOL     OW25825   3.919   0.343  14.879 -0.0568  0.4052 -0.5904
 4730SOL    HW125826   3.976   0.293  14.938 -0.5989  0.3138 -0.1520
 4730SOL    HW225827   3.961   0.338  14.793 -1.7381 -3.3388 -1.1957
 4731SOL     OW25828   2.425   0.866  17.029  0.0601 -0.5780 -0.3342
 4731SOL    HW125829   2.410   0.906  17.114 -0.6607  0.8133 -1.1160
 4731SOL    HW225830   2.475   0.939  16.992 -1.7476 -0.2086 -2.0074
 4732SOL     OW25831   0.399   2.775   1.656 -0.1752  0.1719  0.1941
 4732SOL    HW125832   0.397   2.681   1.670 -1.4686  0.0441 -0.8274
 4732SOL    HW225833   0.429   2.780   1.565 -2.7774 -0.6299 -0.6916
 4733SOL     OW25834   4.594   0.437   1.645  0.4930 -0.1311 -0.3424
 4733SOL    HW125835   4.509   0.400   1.622  1.0999 -1.5449 -0.3318
 4733SOL    HW225836   4.627   0.464   1.559  0.8952 -0.0248 -0.1553
 4734SOL     OW25837   1.382   1.778   1.731 -0.6560  0.7025 -0.3481
 4734SOL    HW125838   1.365   1.759   1.823  0.5948  0.2476 -0.2071
 4734SOL    HW225839   1.332   1.856   1.709 -1.4839 -0.0204 -1.0343
 4735SOL     OW25840   3.078   4.184   7.933 -0.4877 -0.5483 -0.0705
 4735SOL    HW125841   3.004   4.241   7.956  0.3899  1.7994 -3.0055
 4735SOL    HW225842   3.073   4.206   7.840  0.5427 -1.3052 -0.2966
 4736SOL     OW25843   3.066   0.159   5.288 -0.1436  0.3858  0.6570
 4736SOL    HW125844   3.130   0.179   5.220 -1.0295  0.2949 -0.2075
 4736SOL    HW225845   2.982   0.169   5.244  0.6081  0.5481 -0.7607
 4737SOL     OW25846   3.898   4.444   7.809  0.0041 -0.1896  0.1721
 4737SOL    HW125847   3.974   4.396   7.776 -0.0590  1.0951 -1.7918
 4737SOL    HW225848   3.918   4.440   7.903 -1.1781 -0.4118  0.4164
 4738SOL     OW25849   2.552   2.431   0.226  0.0055  0.0835  0.1226
 4738SOL    HW125850   2.628   2.424   0.167  0.4317 -2.5954  0.9805
 4738SOL    HW225851   2.567   2.520   0.259  0.5652 -0.2885  0.8651
 4739SOL     OW25852   3.984   0.545   6.360  0.3408 -0.2474  0.4828
 4739SOL    HW125853   3.909   0.604   6.373  0.6831  0.2487  0.2063
 4739SOL    HW225854   4.014   0.545   6.451  1.5904  2.8141  0.0517
 4740SOL     OW25855   2.776   3.316  16.985  0.2673  0.2539  0.2685
 4740SOL    HW125856   2.749   3.342  16.897  0.2971  1.2887  0.5630
 4740SOL    HW225857   2.725   3.238  17.005  0.5465 -0.5049 -2.0524
 4741SOL     OW25858   3.421   2.802   8.337  0.3065 -0.0730  0.2686
 4741SOL    HW125859   3.363   2.859   8.287 -0.3026 -1.3249 -0.4487
 4741SOL    HW225860   3.360   2.735   8.369 -0.6525 -0.0157 -1.4086
 4742SOL     OW25861   1.454   0.188   6.857  0.1649 -0.3800 -0.1245
 4742SOL    HW125862   1.359   0.179   6.852  0.1976 -0.7172 -0.1250
 4742SOL    HW225863   1.469   0.171   6.950 -0.4113  1.0719  0.2256
 4743SOL     OW25864   0.172   4.336   6.747 -0.1533  0.2695  0.3058
 4743SOL    HW125865   0.249   4.282   6.737  0.0599  0.5348  0.5000
 4743SOL    HW225866   0.203   4.427   6.749  0.9391 -0.1117  0.4557
 4744SOL     OW25867   1.316   2.934  17.174  0.6784 -0.1266  0.1939
 4744SOL    HW125868   1.390   2.874  17.174  0.2526 -0.6338  1.8157
 4744SOL    HW225869   1.256   2.894  17.237  2.7763  1.5311  3.2142
 4745SOL     OW25870   1.428   1.435   6.619  0.3866 -0.2710  0.2128
 4745SOL    HW125871   1.488   1.385   6.674  0.2655  2.4461  2.7612
 4745SOL    HW225872   1.476   1.424   6.536 -1.2169 -4.2857 -0.2162
 4746SOL     OW25873   1.174   2.511  11.155 -0.2107 -0.3938  0.3157
 4746SOL    HW125874   1.207   2.534  11.241  0.1174  2.7569 -0.6706
 4746SOL    HW225875   1.144   2.421  11.172 -1.5762 -0.0810 -0.4352
 4747SOL     OW25876   3.230   1.148  15.172  0.3975  0.2100 -0.0443
 4747SOL    HW125877   3.183   1.219  15.127  0.4002 -0.0229 -0.4090
 4747SOL    HW225878   3.160   1.083  15.169 -0.5474  1.1981  0.3427
 4748SOL     OW25879   2.024   1.272   2.326 -0.0784 -0.0194 -0.1242
 4748SOL    HW125880   1.948   1.325   2.352 -0.5663 -0.3408 -0.9194
 4748SOL    HW225881   1.992   1.183   2.312  0.6904 -0.3310  0.0948
 4749SOL     OW25882   2.056   0.472   0.377  0.0789  0.1529 -0.2520
 4749SOL    HW125883   2.028   0.544   0.434  0.3749 -0.2791  0.4290
 4749SOL    HW225884   2.016   0.400   0.426  0.2317  0.5690  0.4935
 4750SOL     OW25885   3.809   1.871   2.096 -0.0696  0.4476  0.0840
 4750SOL    HW125886   3.853   1.833   2.172  1.0565  0.5079 -0.5435
 4750SOL    HW225887   3.735   1.901   2.150  1.2433  0.4456  1.8968
 4751SOL     OW25888   0.309   3.842   1.275 -0.4771  0.4690 -0.0973
 4751SOL    HW125889   0.314   3.873   1.365 -2.4060  1.0215 -0.1811
 4751SOL    HW225890   0.367   3.907   1.234 -0.2740 -0.2517 -0.9598
 4752SOL     OW25891   2.985   1.343   0.515 -0.5702 -0.2938 -0.4712
 4752SOL    HW125892   3.057   1.279   0.511 -0.6993 -0.3043 -2.9704
 4752SOL    HW225893   2.984   1.375   0.605 -1.3583 -0.6101 -0.3738
 4753SOL     OW25894   3.474   1.206  15.229  0.2210  0.5934 -0.0846
 4753SOL    HW125895   3.384   1.212  15.195  0.5282 -0.7783 -1.1878
 4753SOL    HW225896   3.495   1.299  15.227 -0.6256  0.8147  1.8726
 4754SOL     OW25897   2.618   0.466   1.105  0.1742 -0.3295 -0.4701
 4754SOL    HW125898   2.649   0.383   1.140  0.1202  0.0936  0.5665
 4754SOL    HW225899   2.586   0.514   1.181 -3.2142 -0.6061 -1.6971
 4755SOL     OW25900   2.365   0.505   9.347 -0.3502  0.6724 -0.0178
 4755SOL    HW125901   2.418   0.445   9.400 -1.5476  0.0594  0.4675
 4755SOL    HW225902   2.352   0.458   9.264  1.9000  0.2663 -0.1421
 4756SOL     OW25903   3.809   1.925  14.616 -0.3265  0.1667 -0.2228
 4756SOL    HW125904   3.823   2.015  14.647 -0.5664 -0.3704  1.4339
 4756SOL    HW225905   3.812   1.945  14.522  0.1225  0.4345 -0.1525
 4757SOL     OW25906   2.929   1.659   6.943  0.3550 -0.1019  0.2821
 4757SOL    HW125907   2.921   1.668   6.848  0.9294 -0.5552  0.1960
 4757SOL    HW225908   3.008   1.710   6.959 -0.0341  0.9899 -1.2598
 4758SOL     OW25909   4.456   2.367   2.277  0.2221  0.3704 -0.0255
 4758SOL    HW125910   4.493   2.449   2.245 -0.9861  1.1018  0.4161
 4758SOL    HW225911   4.500   2.303   2.222 -1.4852  1.5102 -2.6844
 4759SOL     OW25912   0.116   0.725   8.662 -0.4027  0.1476  0.1139
 4759SOL    HW125913   0.198   0.740   8.613 -1.6418  2.4210 -1.2520
 4759SOL    HW225914   0.149   0.746   8.749  0.2988 -0.9798  0.1260
 4760SOL     OW25915   0.337   2.765   4.473 -0.1821 -0.0337 -0.3287
 4760SOL    HW125916   0.349   2.843   4.419  0.9518  0.1651  0.2243
 4760SOL    HW225917   0.254   2.729   4.441  1.3409 -2.0618 -1.9801
 4761SOL     OW25918   0.615   2.347   4.847 -0.2762 -0.9119 -0.1720
 4761SOL    HW125919   0.609   2.421   4.908  0.2464 -1.0172  0.0053
 4761SOL    HW225920   0.672   2.388   4.782  1.0286 -2.8185 -0.2472
 4762SOL     OW25921   1.327   4.376   0.355  0.0806 -0.1849 -0.0280
 4762SOL    HW125922   1.331   4.417   0.269  1.5098  1.5215  0.8514
 4762SOL    HW225923   1.243   4.334   0.339 -0.5410  1.2785 -0.5479
 4763SOL     OW25924   0.521   0.407  12.323 -0.2410  0.2568 -0.1309
 4763SOL    HW125925   0.440   0.360  12.303  0.2068 -0.0166 -1.2423
 4763SOL    HW225926   0.569   0.395  12.241 -0.0680 -2.8395  0.4531
 4764SOL     OW25927   2.641   4.446   2.554  0.0783 -0.0970  0.2451
 4764SOL    HW125928   2.646   4.494   2.637 -0.0621  2.3573 -1.1529
 4764SOL    HW225929   2.677   4.504   2.487  1.1029 -0.8370  0.1477
 4765SOL     OW25930   0.830   1.932   3.646  0.5366  0.0343 -0.3381
 4765SOL    HW125931   0.769   1.919   3.574 -0.7169  0.1825  0.6931
 4765SOL    HW225932   0.831   1.842   3.679  0.4343 -0.1300 -0.7878
 4766SOL     OW25933   2.847   0.042  17.680 -0.0686 -0.4588 -0.3425
 4766SOL    HW125934   2.759   0.011  17.658 -1.2810  1.1306  2.1963
 4766SOL    HW225935   2.834   0.131  17.645  0.5712  0.2124  1.1107
 4767SOL     OW25936   1.054   1.309   6.433  0.2344  0.0707 -0.0880
 4767SOL    HW125937   0.995   1.282   6.504  0.9436 -0.3678  0.3494
 4767SOL    HW225938   1.061   1.404   6.437  0.4531  0.1100 -1.4846
 4768SOL     OW25939   0.545   1.554   2.398 -0.0311  0.1830  0.0578
 4768SOL    HW125940   0.491   1.523   2.326  0.7658  0.3217 -0.5900
 4768SOL    HW225941   0.620   1.496   2.388 -1.1988 -0.7206 -3.1413
 4769SOL     OW25942   3.724   2.561   8.407  0.1323 -0.2612  1.0979
 4769SOL    HW125943   3.643   2.513   8.427 -0.0368 -0.4824 -0.1281
 4769SOL    HW225944   3.754   2.567   8.498  0.6434  3.6243  0.6550
 4770SOL     OW25945   4.423   1.402   3.752 -0.2841  0.5026  0.0962
 4770SOL    HW125946   4.368   1.324   3.764  1.0978 -0.3387  0.8992
 4770SOL    HW225947   4.382   1.460   3.688  0.3697  0.2849 -0.5118
 4771SOL     OW25948   4.048   0.071   3.367  0.2384 -0.0391  0.2332
 4771SOL    HW125949   3.976   0.116   3.411 -0.4397 -0.5918 -0.3257
 4771SOL    HW225950   4.123   0.115   3.409  0.0824  0.2053  0.2554
 4772SOL     OW25951   1.744   1.049   6.117  0.2150 -0.5014 -0.4597
 4772SOL    HW125952   1.764   0.959   6.089 -0.2068 -1.2287  1.6193
 4772SOL    HW225953   1.652   1.045   6.142  0.6557  0.4150  1.2477
 4773SOL     OW25954   2.086   1.764  17.183  0.5893  0.1246 -0.3867
 4773SOL    HW125955   2.138   1.820  17.240  0.7055 -1.4820  1.1071
 4773SOL    HW225956   2.047   1.713  17.254  1.6634 -2.0931 -1.3729
 4774SOL     OW25957   4.463   4.029  10.068 -0.1508 -0.1506  0.0233
 4774SOL    HW125958   4.386   4.082  10.087 -1.0568 -1.5018  0.0956
 4774SOL    HW225959   4.531   4.070  10.122 -0.0818 -0.9281  0.5144
 4775SOL     OW25960   2.650   3.316  16.748  0.5136 -0.2977 -0.4246
 4775SOL    HW125961   2.572   3.291  16.698  0.5849  2.2068 -1.8052
 4775SOL    HW225962   2.686   3.373  16.680 -0.6795  0.4618 -0.4224
 4776SOL     OW25963   3.890   4.340   2.595  0.4837  0.1586 -0.3866
 4776SOL    HW125964   3.974   4.380   2.575  0.4573 -0.5032 -1.8150
 4776SOL    HW225965   3.908   4.283   2.669 -2.7121  0.2889  0.4964
 4777SOL     OW25966   1.185   1.305   4.710  0.2968  0.4464 -0.9136
 4777SOL    HW125967   1.252   1.242   4.736  1.0709  2.0782  1.0950
 4777SOL    HW225968   1.105   1.253   4.722  1.1604 -1.4684 -3.5031
 4778SOL     OW25969   0.318   2.543   9.795  0.0155  0.4862  0.1680
 4778SOL    HW125970   0.239   2.504   9.832 -1.2131 -0.3518 -3.3238
 4778SOL    HW225971   0.365   2.565   9.876 -1.2379 -0.2852  1.1118
 4779SOL     OW25972   4.336   4.421   7.554 -0.1595  0.5574  0.1724
 4779SOL    HW125973   4.280   4.385   7.486 -0.4409 -0.1049  0.7615
 4779SOL    HW225974   4.309   4.513   7.552 -0.8404  0.3581  0.5531
 4780SOL     OW25975   1.049   1.291   2.003 -0.3717  0.2045  0.3771
 4780SOL    HW125976   0.973   1.347   2.020 -0.4027  0.3159 -0.0998
 4780SOL    HW225977   1.108   1.355   1.962  1.1379 -0.8984  0.8138
 4781SOL     OW25978   2.266   3.194   2.763 -0.6935  0.1401  0.1737
 4781SOL    HW125979   2.357   3.218   2.746 -0.6919 -0.5183 -0.7695
 4781SOL    HW225980   2.245   3.263   2.826 -1.2081  0.0429  0.1058
 4782SOL     OW25981   1.507   2.616  16.798  0.5455 -0.1927 -0.0454
 4782SOL    HW125982   1.595   2.583  16.776  0.2848  0.2889 -1.8296
 4782SOL    HW225983   1.532   2.692  16.850  1.1876  1.6070 -2.9559
 4783SOL     OW25984   4.682   1.348   3.835  0.6197  0.0309 -0.3250
 4783SOL    HW125985   4.728   1.429   3.856 -1.6375  0.8390  1.5709
 4783SOL    HW225986   4.608   1.388   3.789  0.5498  0.7906  0.4470
 4784SOL     OW25987   1.021   4.688   1.593  0.0592 -0.0067  0.5757
 4784SOL    HW125988   1.116   4.701   1.587  0.1619 -0.4381  1.2438
 4784SOL    HW225989   0.991   4.705   1.504  0.7662  1.3703  0.5980
 4785SOL     OW25990   2.769   1.012   3.837 -0.1341 -0.1043  0.4656
 4785SOL    HW125991   2.844   0.959   3.809 -1.4072 -1.1233 -1.0003
 4785SOL    HW225992   2.725   0.951   3.896  0.1008  0.3655  1.1338
 4786SOL     OW25993   1.654   4.469  10.449 -0.4124  0.2820 -0.5219
 4786SOL    HW125994   1.628   4.378  10.435  0.2067  0.3069 -1.8238
 4786SOL    HW225995   1.747   4.452  10.432 -0.7007 -0.8060 -1.0263
 4787SOL     OW25996   2.633   2.206   0.585 -0.8328  0.0001 -0.6240
 4787SOL    HW125997   2.619   2.202   0.679  0.8032  0.1303 -0.3750
 4787SOL    HW225998   2.548   2.250   0.574 -0.2719  1.2783  0.1932
 4788SOL     OW25999   4.417   1.053  11.365  0.5589  0.5210 -0.2317
 4788SOL    HW126000   4.443   1.144  11.380 -0.6978  0.7346  0.6557
 4788SOL    HW226001   4.503   1.012  11.355 -0.4254 -1.3404 -1.0462
 4789SOL     OW26002   1.173   1.681   6.066  0.2518 -0.7498  0.6629
 4789SOL    HW126003   1.091   1.721   6.034 -0.2498 -0.4207  2.3350
 4789SOL    HW226004   1.184   1.734   6.144  0.4239 -0.9889  0.7987
 4790SOL     OW26005   1.905   4.155   5.581 -0.4996 -0.0780 -0.0459
 4790SOL    HW126006   1.843   4.140   5.510  0.1655 -1.2574 -0.3822
 4790SOL    HW226007   1.854   4.200   5.648 -1.6277 -3.0188  1.0772
 4791SOL     OW26008   4.427   1.878   6.774 -0.7088  0.5572  0.3374
 4791SOL    HW126009   4.454   1.963   6.809 -0.0802 -0.4565  2.3197
 4791SOL    HW226010   4.354   1.864   6.833 -0.2661 -3.2157  0.0139
 4792SOL     OW26011   3.600   0.452   0.137 -0.7549  0.1933  0.1207
 4792SOL    HW126012   3.547   0.374   0.153 -0.1954  0.1415  1.7053
 4792SOL    HW226013   3.650   0.455   0.218 -0.1277  0.2380 -0.2700
 4793SOL     OW26014   2.428   1.213   2.325  0.1728  0.1773  0.1285
 4793SOL    HW126015   2.422   1.208   2.420 -1.8684  2.1610  0.1108
 4793SOL    HW226016   2.338   1.190   2.301 -0.2471  1.2168  0.6809
 4794SOL     OW26017   2.576   1.530   5.413 -0.2135  0.2945 -0.2079
 4794SOL    HW126018   2.481   1.518   5.415 -0.0318 -0.9601  1.0778
 4794SOL    HW226019   2.601   1.470   5.343 -1.5030 -0.6746  0.1558
 4795SOL     OW26020   1.483   0.705  15.819  0.3536  0.8135 -0.1091
 4795SOL    HW126021   1.412   0.684  15.757 -0.7886 -2.1426  2.2253
 4795SOL    HW226022   1.469   0.799  15.830 -0.8530  0.4617  1.2986
 4796SOL     OW26023   2.706   3.109   5.094 -0.5171  0.3903 -0.0644
 4796SOL    HW126024   2.651   3.095   5.171  0.3275  1.4469  0.7276
 4796SOL    HW226025   2.783   3.068   5.135 -0.2846  0.8612 -0.0316
 4797SOL     OW26026   3.783   3.017   3.154  0.0747  0.8116  0.1861
 4797SOL    HW126027   3.809   2.932   3.191 -1.7293  0.3426  0.4101
 4797SOL    HW226028   3.867   3.044   3.119  0.9428 -1.1924  0.6820
 4798SOL     OW26029   0.863   0.167  11.988 -0.1712  1.0073 -0.8543
 4798SOL    HW126030   0.873   0.212  11.904  1.3658  0.0039 -1.2089
 4798SOL    HW226031   0.787   0.201  12.036  0.0447 -1.2660  1.1231
 4799SOL     OW26032   3.260   1.810   4.964  0.0595 -0.0165 -0.1801
 4799SOL    HW126033   3.333   1.771   5.011  0.1357  0.5732  0.1944
 4799SOL    HW226034   3.196   1.739   4.971 -0.3362  0.1405 -2.0912
 4800SOL     OW26035   1.894   0.527   3.584  0.6517  0.4135 -0.3300
 4800SOL    HW126036   1.989   0.528   3.573  0.6161 -2.1807 -0.7329
 4800SOL    HW226037   1.895   0.467   3.659  0.2070  3.5161  2.1751
 4801SOL     OW26038   2.477   0.253   8.677 -0.1421  0.2754  0.4738
 4801SOL    HW126039   2.400   0.217   8.633 -0.3545  0.6244  0.5645
 4801SOL    HW226040   2.452   0.342   8.704 -2.2417 -0.0016 -0.5276
 4802SOL     OW26041   3.930   3.639   6.483 -0.3806  0.0906 -0.4023
 4802SOL    HW126042   3.892   3.570   6.429 -1.5298  0.6014 -0.2404
 4802SOL    HW226043   3.898   3.714   6.433 -0.2854  0.5897  0.2928
 4803SOL     OW26044   4.472   4.528  15.020 -1.0823 -0.2541 -0.3395
 4803SOL    HW126045   4.460   4.616  15.056  2.1574  0.5931 -1.3746
 4803SOL    HW226046   4.421   4.482  15.087 -0.3588 -0.2417  0.2281
 4804SOL     OW26047   4.621   3.461   1.553 -0.1000 -0.4288  0.2735
 4804SOL    HW126048   4.564   3.476   1.628 -0.3761 -2.8391  0.5141
 4804SOL    HW226049   4.651   3.552   1.542  1.4250 -1.0049 -0.2677
 4805SOL     OW26050   2.186   0.276  14.739  0.0990 -0.1568 -0.1558
 4805SOL    HW126051   2.203   0.316  14.654 -1.5236 -1.1475 -0.9536
 4805SOL    HW226052   2.273   0.265  14.775 -0.0435  0.5768  0.4203
 4806SOL     OW26053   3.474   2.355   1.141  0.2464  0.1093  0.1355
 4806SOL    HW126054   3.501   2.403   1.219  0.5474  0.5960 -0.2680
 4806SOL    HW226055   3.553   2.360   1.087 -1.0471 -1.4435 -1.9099
 4807SOL     OW26056   1.612   0.493   4.119 -0.5618  0.0505  0.0312
 4807SOL    HW126057   1.629   0.547   4.195 -0.1357 -0.9416  0.6366
 4807SOL    HW226058   1.650   0.408   4.144  0.9703  0.1545 -1.9379
 4808SOL     OW26059   2.687   4.445  16.466 -0.2873 -0.2084 -0.3679
 4808SOL    HW126060   2.695   4.386  16.541 -1.6492 -0.2546 -0.2633
 4808SOL    HW226061   2.627   4.395  16.411  0.6946 -0.2799 -1.3876
 4809SOL     OW26062   3.616   2.601   7.858  0.2624  0.0042 -0.0670
 4809SOL    HW126063   3.665   2.615   7.778 -2.3079  2.1306 -1.2619
 4809SOL    HW226064   3.658   2.670   7.911  3.6990 -1.8978 -0.2939
 4810SOL     OW26065   0.673   4.587   1.405 -0.2749  0.1110  0.8105
 4810SOL    HW126066   0.621   4.606   1.327  2.9095 -1.2361 -1.6435
 4810SOL    HW226067   0.674   4.677   1.437 -0.1236  1.1370 -2.0994
 4811SOL     OW26068   1.051   3.991   0.388  0.0123  0.1047  0.2373
 4811SOL    HW126069   1.091   4.015   0.304  2.3601 -1.8065  0.8201
 4811SOL    HW226070   1.047   4.078   0.428 -1.3260  0.2208 -0.1247
 4812SOL     OW26071   0.277   4.013  12.612  1.1434  0.1748 -0.3898
 4812SOL    HW126072   0.257   3.953  12.540  0.3881 -2.0551  1.6619
 4812SOL    HW226073   0.372   4.009  12.620  1.0191  0.9282  1.3218
 4813SOL     OW26074   0.357   1.094   7.266  0.6122  0.5391  0.0636
 4813SOL    HW126075   0.416   1.129   7.199  0.4256  0.9452  0.1073
 4813SOL    HW226076   0.317   1.171   7.307  0.9587  1.9292 -2.1900
 4814SOL     OW26077   3.983   2.163  13.561 -0.1987 -0.0106 -0.2182
 4814SOL    HW126078   3.955   2.074  13.579  0.0396 -0.1507 -0.5356
 4814SOL    HW226079   3.920   2.197  13.497  0.1710 -2.8570 -2.1066
 4815SOL     OW26080   3.814   3.677   4.032 -0.7984  0.0289  0.0225
 4815SOL    HW126081   3.755   3.602   4.019  1.2502 -1.5527 -0.0770
 4815SOL    HW226082   3.811   3.719   3.946  2.3786 -0.5767 -0.3802
 4816SOL     OW26083   3.537   2.878   3.249 -0.0523  0.0917  0.2875
 4816SOL    HW126084   3.445   2.873   3.224  0.0803  2.5723 -0.7783
 4816SOL    HW226085   3.580   2.892   3.164  0.4158  1.8183  0.8084
 4817SOL     OW26086   1.224   3.859  15.793 -0.5471  0.0231 -0.6843
 4817SOL    HW126087   1.227   3.928  15.859  2.1323 -0.8044  0.0894
 4817SOL    HW226088   1.135   3.875  15.763  0.3274  1.5267 -2.5045
 4818SOL     OW26089   2.085   3.185   4.070 -0.0611 -0.3693  0.2633
 4818SOL    HW126090   2.076   3.280   4.078  0.9693 -0.2842  0.4137
 4818SOL    HW226091   2.179   3.179   4.052 -0.1691  1.2291 -0.7808
 4819SOL     OW26092   2.844   1.401   5.878  0.1556 -0.3378 -0.1085
 4819SOL    HW126093   2.901   1.477   5.893 -0.3817  0.1442 -0.5140
 4819SOL    HW226094   2.898   1.377   5.802 -1.1574  0.3377 -1.2542
 4820SOL     OW26095   2.391   2.038   1.568 -0.2891 -0.2493  0.4044
 4820SOL    HW126096   2.362   1.949   1.548  0.6481 -0.2161 -1.1535
 4820SOL    HW226097   2.321   2.094   1.535  1.1761 -0.8060 -3.7629
 4821SOL     OW26098   3.169   3.728   9.865  0.2766 -0.2207  0.0598
 4821SOL    HW126099   3.213   3.811   9.845 -3.4663  1.5529 -0.7845
 4821SOL    HW226100   3.183   3.666   9.794  2.0935 -1.2005  1.2679
 4822SOL     OW26101   2.684   0.641  13.347 -0.0115  0.0493  0.2070
 4822SOL    HW126102   2.651   0.699  13.278 -2.6728 -1.2962  0.3156
 4822SOL    HW226103   2.651   0.682  13.427 -0.0576  0.6129 -0.1008
 4823SOL     OW26104   4.555   1.913   1.784  0.1497 -0.1521 -0.8332
 4823SOL    HW126105   4.648   1.908   1.761  0.0300 -0.1258 -1.3218
 4823SOL    HW226106   4.524   1.950   1.702  1.5962 -0.4490 -1.5093
 4824SOL     OW26107   2.601   4.178   1.071  0.5994  0.1047  0.2558
 4824SOL    HW126108   2.634   4.168   1.161 -1.1500 -1.6573  0.7115
 4824SOL    HW226109   2.588   4.087   1.047  0.4669  0.1647  0.1038
 4825SOL     OW26110   4.242   1.975   0.940  0.2577  0.2813  0.0616
 4825SOL    HW126111   4.244   2.069   0.955 -0.4057  0.1561  0.8926
 4825SOL    HW226112   4.147   1.975   0.933  0.4984 -2.3473 -3.2197
 4826SOL     OW26113   4.469   2.295  13.415 -0.7633  0.2619  0.0667
 4826SOL    HW126114   4.464   2.389  13.431  2.1508  0.3803  0.4224
 4826SOL    HW226115   4.444   2.292  13.323  1.6170 -0.5872 -0.5572
 4827SOL     OW26116   2.663   2.940  12.201 -0.2065  0.5329 -0.5583
 4827SOL    HW126117   2.644   2.852  12.168  0.1929  0.3060 -0.1805
 4827SOL    HW226118   2.600   2.950  12.272  1.9400 -0.6849  1.5175
 4828SOL     OW26119   3.776   0.102   8.539  0.4402 -0.2669  0.2855
 4828SOL    HW126120   3.813   0.186   8.566 -1.5544  0.2864  1.3320
 4828SOL    HW226121   3.849   0.050   8.506 -0.0864 -0.1852 -1.0285
 4829SOL     OW26122   1.870   1.192   7.200  0.0713  0.0254  0.3344
 4829SOL    HW126123   1.845   1.266   7.144  0.5560 -0.5495 -0.6313
 4829SOL    HW226124   1.940   1.154   7.147 -0.2123  0.3530 -0.2755
 4830SOL     OW26125   3.270   2.266  10.930  0.4311  0.5415  0.0229
 4830SOL    HW126126   3.273   2.287  10.837 -2.3587 -1.4418 -0.5047
 4830SOL    HW226127   3.290   2.351  10.970  1.2659  0.5048 -0.3291
 4831SOL     OW26128   4.160   0.768   2.923  0.1548 -0.4506  0.4954
 4831SOL    HW126129   4.106   0.693   2.898 -0.7597  0.9274 -1.6286
 4831SOL    HW226130   4.199   0.732   3.003 -1.2546 -1.0170  0.9233
 4832SOL     OW26131   3.876   3.266   7.197  0.7447  0.5125 -0.0261
 4832SOL    HW126132   3.971   3.275   7.202  1.1970 -3.0770 -2.3409
 4832SOL    HW226133   3.859   3.199   7.264 -1.1264  0.9584 -0.0428
 4833SOL     OW26134   4.225   2.426   4.674  0.6067  0.0503  0.2379
 4833SOL    HW126135   4.138   2.385   4.683  0.8041 -0.4175 -0.0036
 4833SOL    HW226136   4.209   2.493   4.740  0.1847 -1.0763  1.2909
 4834SOL     OW26137   4.074   2.971   4.752 -0.4188  0.3264  0.5372
 4834SOL    HW126138   4.095   3.003   4.664  0.9015 -0.1826  0.6557
 4834SOL    HW226139   4.115   3.042   4.801  0.4170  1.1576 -1.3487
 4835SOL     OW26140   0.622   0.655   4.346 -0.1301  0.1608  0.5703
 4835SOL    HW126141   0.603   0.561   4.340  2.5233 -0.4889  2.3413
 4835SOL    HW226142   0.663   0.666   4.260 -2.1075 -2.3860 -0.7119
 4836SOL     OW26143   3.696   1.495   0.552 -0.3804 -0.1801  0.4734
 4836SOL    HW126144   3.711   1.519   0.460  0.4255 -0.9616  0.4022
 4836SOL    HW226145   3.679   1.583   0.585 -3.6839 -0.1500 -1.3160
 4837SOL     OW26146   2.652   1.691   7.017 -0.3776  0.0585 -0.4069
 4837SOL    HW126147   2.599   1.611   7.010  0.6464 -0.6516  0.0393
 4837SOL    HW226148   2.742   1.659   7.009 -1.5998 -3.2718 -0.9645
 4838SOL     OW26149   3.124   4.539  10.767  0.3640  0.1356 -0.1853
 4838SOL    HW126150   3.073   4.483  10.708 -2.2981  2.1012  0.2687
 4838SOL    HW226151   3.194   4.475  10.783  1.1856  0.6045 -1.9873
 4839SOL     OW26152   4.512   2.762   6.075  0.6348 -0.5274 -0.1234
 4839SOL    HW126153   4.426   2.790   6.045  0.3230  0.0937  1.3847
 4839SOL    HW226154   4.498   2.690   6.136 -1.3113  1.0455  1.2812
 4840SOL     OW26155   2.726   1.244   5.599 -0.1998  0.1823 -0.0076
 4840SOL    HW126156   2.758   1.298   5.526  0.0690 -1.9681 -1.5103
 4840SOL    HW226157   2.647   1.294   5.614 -1.2285 -1.3523 -0.3097
 4841SOL     OW26158   2.264   2.383   1.585  0.5196  0.3919 -0.2210
 4841SOL    HW126159   2.221   2.326   1.521 -4.6656  0.3215  3.3646
 4841SOL    HW226160   2.237   2.364   1.675  2.1812 -2.9922 -0.4274
 4842SOL     OW26161   2.876   4.382  13.736 -0.2941  0.7068  0.7807
 4842SOL    HW126162   2.819   4.386  13.659 -1.1451 -0.2174  1.3698
 4842SOL    HW226163   2.843   4.305  13.781 -0.9147  1.4832  1.6400
 4843SOL     OW26164   4.568   0.327   2.470  0.2071 -0.4215 -0.2210
 4843SOL    HW126165   4.473   0.334   2.475  0.3986  0.7097  1.7005
 4843SOL    HW226166   4.582   0.409   2.423  3.0702 -1.4376 -1.1578
 4844SOL     OW26167   4.608   2.963   8.412  0.7260 -0.9362  0.1765
 4844SOL    HW126168   4.606   3.018   8.491  1.2794  1.1182 -1.2582
 4844SOL    HW226169   4.700   2.977   8.389  0.4485  0.2992 -0.1586
 4845SOL     OW26170   2.422   2.751   3.047 -0.3346 -0.2216 -0.1003
 4845SOL    HW126171   2.387   2.833   3.013  0.7664 -0.1956 -1.2059
 4845SOL    HW226172   2.342   2.702   3.064  0.8732 -2.3715 -0.6100
 4846SOL     OW26173   1.178   3.426   9.639  0.6686  0.1374  0.4664
 4846SOL    HW126174   1.164   3.335   9.614 -1.6302  0.8103 -0.6804
 4846SOL    HW226175   1.272   3.434   9.656  0.5579  0.8364  0.7504
 4847SOL     OW26176   2.500   4.607  13.885 -0.0028 -0.5473 -0.8185
 4847SOL    HW126177   2.423   4.642  13.929  0.8407 -0.1384  0.3277
 4847SOL    HW226178   2.452   4.542  13.834 -1.7059  1.2672 -1.5476
 4848SOL     OW26179   4.149   2.632  17.524 -0.0581 -0.2040 -0.6572
 4848SOL    HW126180   4.199   2.674  17.593  0.0598  4.2366 -3.4275
 4848SOL    HW226181   4.225   2.587  17.487  0.1066 -0.2168 -0.3030
 4849SOL     OW26182   3.608   4.541   9.355  0.0775 -0.0512  0.1037
 4849SOL    HW126183   3.617   4.629   9.319 -0.2171 -0.7242 -1.6097
 4849SOL    HW226184   3.575   4.505   9.273  0.8655 -1.1214  0.2571
 4850SOL     OW26185   3.000   2.763   2.649 -0.2486 -0.1422 -0.2152
 4850SOL    HW126186   3.055   2.692   2.616  0.8482  1.0292 -0.8545
 4850SOL    HW226187   2.962   2.797   2.569  0.8527  0.9316 -0.2740
 4851SOL     OW26188   0.933   2.371  15.437  0.2242  0.2235 -0.0034
 4851SOL    HW126189   0.999   2.387  15.504  1.7887  0.5690 -1.6162
 4851SOL    HW226190   0.958   2.286  15.402  3.2650  1.5710 -1.1019
 4852SOL     OW26191   0.363   0.409   4.453 -0.6956 -0.5224 -0.1313
 4852SOL    HW126192   0.296   0.463   4.410 -0.7800 -2.0948 -1.9876
 4852SOL    HW226193   0.345   0.319   4.428  0.2932 -0.8350  0.3285
 4853SOL     OW26194   0.273   1.733   2.692 -0.3771  0.0437  0.2228
 4853SOL    HW126195   0.352   1.753   2.642 -1.5855  2.4135 -0.7127
 4853SOL    HW226196   0.219   1.700   2.620  0.6082 -3.2123  0.9576
 4854SOL     OW26197   3.826   4.284   6.238 -0.6121  0.6171  0.1864
 4854SOL    HW126198   3.866   4.361   6.199  1.8601 -1.4676 -1.4042
 4854SOL    HW226199   3.760   4.325   6.294 -3.5663 -1.4339 -1.7344
 4855SOL     OW26200   3.190   3.181  15.720 -0.6645 -0.1216  0.1455
 4855SOL    HW126201   3.237   3.233  15.784  0.4523  0.3314 -1.0405
 4855SOL    HW226202   3.146   3.120  15.780 -0.2751  0.0467  0.5954
 4856SOL     OW26203   3.528   1.796   5.050 -0.2305 -0.0798  0.1132
 4856SOL    HW126204   3.581   1.748   4.987 -0.2911 -0.3680  0.2798
 4856SOL    HW226205   3.578   1.782   5.131  0.7759  1.5954 -0.2162
 4857SOL     OW26206   3.903   2.919   4.371  0.4231  0.4136 -0.5650
 4857SOL    HW126207   3.851   2.866   4.311 -1.0414 -1.1780  2.1116
 4857SOL    HW226208   3.957   2.971   4.311  1.0676 -0.0754 -0.4083
 4858SOL     OW26209   0.348   1.718   5.663 -0.0000  0.4012  0.6910
 4858SOL    HW126210   0.390   1.633   5.651 -0.0990  0.3240  0.8929
 4858SOL    HW226211   0.385   1.748   5.747 -2.0601  3.9102  0.3270
 4859SOL     OW26212   3.698   1.331   1.079 -0.2955  0.6763 -0.1613
 4859SOL    HW126213   3.774   1.278   1.055 -0.9873 -1.7529  2.9374
 4859SOL    HW226214   3.681   1.364   0.991 -1.2844  1.9619  0.5208
 4860SOL     OW26215   0.006   2.921   4.844  0.8197  0.0623 -0.2316
 4860SOL    HW126216   4.710   2.832   4.831 -2.4953  0.8677  2.7030
 4860SOL    HW226217   4.692   2.963   4.913  0.6557 -2.8243  1.4074
 4861SOL     OW26218   1.575   4.302   6.144 -0.6585  0.0593  0.5802
 4861SOL    HW126219   1.650   4.325   6.199  1.3120  2.4998 -3.1195
 4861SOL    HW226220   1.580   4.374   6.082 -1.0455 -1.2355 -0.9472
 4862SOL     OW26221   3.291   0.578   7.971 -0.1065  0.1733 -0.4082
 4862SOL    HW126222   3.259   0.649   7.916  0.1823  1.2901  0.8589
 4862SOL    HW226223   3.214   0.524   7.989 -1.5553  2.1331 -0.7830
 4863SOL     OW26224   0.268   3.246   3.757 -0.7449 -0.0536  0.2071
 4863SOL    HW126225   0.195   3.188   3.780 -0.0332 -0.4701  1.4275
 4863SOL    HW226226   0.283   3.290   3.841  3.0804 -0.5794 -0.1810
 4864SOL     OW26227   2.037   1.605   3.967 -0.4180 -0.3726  0.1589
 4864SOL    HW126228   2.076   1.693   3.966  0.2718 -0.6783 -1.2470
 4864SOL    HW226229   2.091   1.561   3.901  1.5893 -0.3950  1.8081
 4865SOL     OW26230   1.428   3.300   8.065  0.3524 -0.0541  0.2214
 4865SOL    HW126231   1.416   3.255   8.149 -1.1180  0.0923  0.0997
 4865SOL    HW226232   1.478   3.375   8.097 -0.6102  2.0202 -3.1646
 4866SOL     OW26233   3.255   2.016   1.722 -0.4681  0.0155  0.1510
 4866SOL    HW126234   3.194   1.960   1.674 -0.6281  0.9327 -0.7387
 4866SOL    HW226235   3.340   1.978   1.700  0.6962  2.1440  0.9110
 4867SOL     OW26236   2.933   0.107   0.864  0.1876 -0.2944 -1.0316
 4867SOL    HW126237   2.866   0.155   0.913 -0.1085 -2.0464  0.2437
 4867SOL    HW226238   2.997   0.061   0.918 -0.7314  1.2856  1.4081
 4868SOL     OW26239   2.399   3.878   1.323  0.4677  0.4626  0.2343
 4868SOL    HW126240   2.329   3.914   1.268 -0.6695  0.2262  1.5427
 4868SOL    HW226241   2.459   3.825   1.270  0.0440 -1.0624  1.2694
 4869SOL     OW26242   0.744   2.625   3.801  0.1330 -0.0995 -0.1474
 4869SOL    HW126243   0.723   2.635   3.894  4.0356 -1.6018  0.8905
 4869SOL    HW226244   0.676   2.563   3.779 -0.2678  0.7650 -1.3346
 4870SOL     OW26245   0.939   3.710   7.045  0.1926  0.8378  0.4695
 4870SOL    HW126246   0.926   3.704   6.950 -0.0039 -2.1830  0.6716
 4870SOL    HW226247   0.853   3.684   7.078 -0.0874  1.2611  0.0732
 4871SOL     OW26248   0.206   1.063   5.726  0.1392  0.4490 -0.3922
 4871SOL    HW126249   0.119   1.048   5.690  0.6320 -0.4495 -1.2113
 4871SOL    HW226250   0.206   1.026   5.815 -2.1035 -0.9496 -0.9753
 4872SOL     OW26251   3.469   2.198  15.182 -0.4332  0.3875 -0.1594
 4872SOL    HW126252   3.508   2.136  15.120 -0.2081  0.7688 -0.4055
 4872SOL    HW226253   3.544   2.259  15.179 -1.7681  2.0062 -0.8190
 4873SOL     OW26254   2.474   4.198   8.699  0.1882 -0.5325  0.7905
 4873SOL    HW126255   2.380   4.186   8.685 -0.0398 -0.0472  1.8475
 4873SOL    HW226256   2.496   4.124   8.755 -0.8353 -0.5558  1.1670
 4874SOL     OW26257   4.469   1.536   8.270 -0.0535 -0.0815  0.5023
 4874SOL    HW126258   4.477   1.541   8.175 -1.7563  1.3760  0.4357
 4874SOL    HW226259   4.392   1.592   8.274 -2.1311 -2.8821 -0.7998
 4875SOL     OW26260   3.106   2.059  17.464  0.4391  0.1635 -0.0695
 4875SOL    HW126261   3.087   2.054  17.557  1.1868 -1.4714 -0.0033
 4875SOL    HW226262   3.022   2.029  17.429 -1.1914  2.8774  1.5564
 4876SOL     OW26263   1.943   3.527   5.675  0.2614 -0.7963  0.0411
 4876SOL    HW126264   1.902   3.451   5.635 -0.6766 -0.4564  0.3702
 4876SOL    HW226265   2.020   3.486   5.717 -0.4002 -0.4893  1.5553
 4877SOL     OW26266   3.386   3.978  12.430  0.0066 -0.0798 -0.0582
 4877SOL    HW126267   3.334   4.009  12.357  1.2271  0.6860 -0.6017
 4877SOL    HW226268   3.440   3.908  12.392 -1.1695  0.1510 -2.1135
 4878SOL     OW26269   4.380   1.582   3.966 -0.9342  0.3854 -0.4870
 4878SOL    HW126270   4.424   1.522   4.027  3.1651  1.8072 -2.0797
 4878SOL    HW226271   4.365   1.519   3.895  0.1954 -0.7143  0.2524
 4879SOL     OW26272   2.471   3.970   8.510  0.2847  0.2905 -0.2166
 4879SOL    HW126273   2.547   3.991   8.564  0.8558  1.2090 -1.3978
 4879SOL    HW226274   2.394   4.003   8.557 -0.5713 -2.8461  0.6483
 4880SOL     OW26275   1.149   1.000   8.134 -0.1744 -0.1767 -0.1354
 4880SOL    HW126276   1.201   0.967   8.061  1.0163 -1.9020  1.4837
 4880SOL    HW226277   1.061   0.974   8.107  0.4853 -1.4148 -1.1002
 4881SOL     OW26278   0.084   3.100  11.995  0.2717 -0.0949  0.1026
 4881SOL    HW126279   0.110   3.060  11.912  3.1275  2.0711 -0.0617
 4881SOL    HW226280   0.138   3.064  12.065 -0.2064 -0.6727  0.1754
 4882SOL     OW26281   2.094   0.536   7.504 -0.4048  0.2829 -1.0805
 4882SOL    HW126282   2.028   0.467   7.510 -0.0547  0.1209  0.7825
 4882SOL    HW226283   2.106   0.556   7.597 -0.6458 -0.1598 -0.9548
 4883SOL     OW26284   3.821   3.605   2.253 -0.4112 -0.4975 -0.0991
 4883SOL    HW126285   3.726   3.612   2.246 -0.4099  2.1429  2.4220
 4883SOL    HW226286   3.839   3.672   2.320 -2.1023 -0.4050  0.2487
 4884SOL     OW26287   3.115   1.852   7.014 -0.9777 -0.3466 -0.0433
 4884SOL    HW126288   3.208   1.859   7.035 -0.6614  1.4230 -2.0411
 4884SOL    HW226289   3.099   1.921   6.950  0.8053 -0.0294 -0.1517
 4885SOL     OW26290   1.036   2.736   8.015  0.4549 -0.2519  0.2674
 4885SOL    HW126291   1.066   2.772   7.931  2.7340 -0.4646  0.9761
 4885SOL    HW226292   1.114   2.752   8.068  0.1722 -0.5057  0.7552
 4886SOL     OW26293   1.739   2.163   2.737 -0.1619  0.3495 -0.1332
 4886SOL    HW126294   1.654   2.190   2.702 -2.0667 -2.8151  2.0583
 4886SOL    HW226295   1.744   2.071   2.714 -1.1690  0.4156 -0.6059
 4887SOL     OW26296   3.622   1.442   0.831  0.7274  0.1018  0.1435
 4887SOL    HW126297   3.546   1.497   0.809  1.5347  1.2238  0.1711
 4887SOL    HW226298   3.660   1.446   0.743  2.3917  2.9790  0.9987
 4888SOL     OW26299   4.568   1.967   0.988 -0.0675 -0.0705 -0.1570
 4888SOL    HW126300   4.650   2.010   1.010 -0.3757  0.6924 -0.5235
 4888SOL    HW226301   4.503   2.038   0.989  0.4481  0.4181 -1.4509
 4889SOL     OW26302   1.956   0.702   6.433  0.4691  0.5091  0.4723
 4889SOL    HW126303   2.029   0.650   6.398 -1.4674 -0.3227 -2.2816
 4889SOL    HW226304   1.930   0.753   6.357 -1.5784 -0.6217  0.4061
 4890SOL     OW26305   0.109   4.422  12.804 -0.8577 -0.2010 -0.7781
 4890SOL    HW126306   0.030   4.392  12.850 -0.4395 -1.2631 -0.7421
 4890SOL    HW226307   0.066   4.464  12.730  1.1959  2.4422 -0.4603
 4891SOL     OW26308   2.974   3.283   8.016 -0.3640  0.2747  0.0036
 4891SOL    HW126309   2.941   3.337   8.087  3.6110  1.5086  0.8494
 4891SOL    HW226310   2.911   3.211   8.015  1.1861 -1.0907  0.5873
 4892SOL     OW26311   0.806   4.627   1.753 -0.6361  0.5131  0.1440
 4892SOL    HW126312   0.826   4.675   1.834 -0.0199 -0.3715  0.5108
 4892SOL    HW226313   0.887   4.654   1.710  0.3193 -1.0798  0.9327
 4893SOL     OW26314   4.023   3.149   5.606 -0.0310 -0.3021  0.0571
 4893SOL    HW126315   4.067   3.191   5.532  1.7492 -0.8317  0.7979
 4893SOL    HW226316   4.066   3.196   5.677 -1.2030  1.8442 -0.6684
 4894SOL     OW26317   3.059   0.674  17.252 -0.0565 -0.4995 -0.0421
 4894SOL    HW126318   2.981   0.620  17.263 -0.5271 -0.0039 -0.9338
 4894SOL    HW226319   3.127   0.609  17.232  1.2965  0.8110  0.2371
 4895SOL     OW26320   4.281   2.810   8.236 -0.1489 -0.1583 -0.2186
 4895SOL    HW126321   4.243   2.778   8.318 -0.4860  1.8228  0.3874
 4895SOL    HW226322   4.348   2.744   8.220  0.0566  0.3634 -1.5267
 4896SOL     OW26323   4.593   1.491   0.302  0.0291 -0.0060  0.1907
 4896SOL    HW126324   4.645   1.451   0.372  0.5981 -0.2267 -0.3552
 4896SOL    HW226325   4.622   1.438   0.227 -1.3563 -0.3424 -0.1073
 4897SOL     OW26326   2.642   3.994   6.386 -0.3785  0.4205 -0.4086
 4897SOL    HW126327   2.599   4.061   6.439 -0.0012 -1.7880  2.6504
 4897SOL    HW226328   2.732   4.014   6.412 -0.9215  2.0050  0.2408
 4898SOL     OW26329   1.279   2.088  17.524  0.0705  1.0192 -0.3564
 4898SOL    HW126330   1.327   2.047  17.597 -1.4673  3.2613  1.9216
 4898SOL    HW226331   1.337   2.067  17.451 -1.2249 -0.3188 -0.9863
 4899SOL     OW26332   1.094   3.870   6.099  0.0150 -0.1938  0.3938
 4899SOL    HW126333   1.143   3.881   6.181  1.3068  0.4887 -0.4498
 4899SOL    HW226334   1.164   3.867   6.033 -1.8857  1.0507 -1.6867
 4900SOL     OW26335   2.956   0.363   7.023 -0.2630 -0.7720 -0.0733
 4900SOL    HW126336   3.007   0.331   7.098 -4.1260 -0.1657  2.7920
 4900SOL    HW226337   3.026   0.371   6.958 -0.7587  0.7419 -0.4220
 4901SOL     OW26338   3.937   4.008  15.297 -0.1577 -0.0704 -0.2585
 4901SOL    HW126339   3.942   4.037  15.206 -0.3994 -1.7887 -0.8184
 4901SOL    HW226340   3.862   4.057  15.331 -1.3667 -2.2065  0.1447
 4902SOL     OW26341   0.743   2.647   4.068 -0.0822  0.3904  0.2370
 4902SOL    HW126342   0.783   2.715   4.122  0.0979  0.9201 -0.5612
 4902SOL    HW226343   0.811   2.581   4.082 -0.8322 -0.4476 -0.0683
 4903SOL     OW26344   0.548   2.364  14.754 -0.8392  0.4736  0.0120
 4903SOL    HW126345   0.612   2.347  14.823 -0.2584  0.2232 -0.5874
 4903SOL    HW226346   0.569   2.454  14.728  2.5114 -0.3717 -0.1674
 4904SOL     OW26347   0.320   0.764   4.828 -0.2288 -0.1527  0.2041
 4904SOL    HW126348   0.378   0.753   4.904 -0.7931  1.5378  0.8745
 4904SOL    HW226349   0.309   0.676   4.793  1.0168 -0.0778 -0.3905
 4905SOL     OW26350   1.651   3.115  15.649 -0.0251  0.2402  0.2719
 4905SOL    HW126351   1.730   3.165  15.628  1.8495 -1.9764  2.0379
 4905SOL    HW226352   1.614   3.120  15.561 -0.0626  1.2344  0.3440
 4906SOL     OW26353   3.766   1.858   3.020 -0.5507  0.2690  0.0261
 4906SOL    HW126354   3.672   1.840   3.028 -0.9054  1.6169 -1.1018
 4906SOL    HW226355   3.775   1.917   3.094  0.5616  0.3867 -0.2100
 4907SOL     OW26356   3.406   1.130  13.173  0.2664 -0.1975  0.3005
 4907SOL    HW126357   3.477   1.107  13.112 -0.7416  2.4720 -1.8660
 4907SOL    HW226358   3.434   1.119  13.264 -1.7032  1.8887  1.1380
 4908SOL     OW26359   0.687   2.639   1.990  0.4005 -0.5342  0.4698
 4908SOL    HW126360   0.769   2.678   1.959  0.2568 -0.2928  0.3934
 4908SOL    HW226361   0.714   2.588   2.067 -1.7728 -0.1414  1.4955
 4909SOL     OW26362   4.568   1.857   7.910 -0.2912 -0.2683 -0.3733
 4909SOL    HW126363   4.630   1.860   7.837  0.4819  3.3543  0.4047
 4909SOL    HW226364   4.626   1.895   7.977  0.2252  1.4309 -1.7718
 4910SOL     OW26365   0.161   3.398   7.244 -0.1421  0.5045 -0.5448
 4910SOL    HW126366   0.242   3.349   7.259  0.6603  1.8932 -0.3323
 4910SOL    HW226367   0.150   3.406   7.150 -2.1823 -2.7208 -0.5765
 4911SOL     OW26368   4.710   2.807   8.761  0.3223 -0.2442 -0.3787
 4911SOL    HW126369   4.631   2.785   8.712  0.3330  0.6598 -0.8101
 4911SOL    HW226370   4.713   2.715   8.786 -0.0923 -0.4844 -1.2019
 4912SOL     OW26371   1.053   3.089  12.517  0.0871 -0.1796  0.0167
 4912SOL    HW126372   1.088   3.138  12.443  2.1491 -0.2526  0.9607
 4912SOL    HW226373   1.023   3.157  12.576  1.0916  0.1886  0.1001
 4913SOL     OW26374   4.486   1.188   9.123  0.0456 -0.2179 -0.0189
 4913SOL    HW126375   4.534   1.258   9.168  1.3669 -0.9167 -0.3609
 4913SOL    HW226376   4.553   1.120   9.135 -1.6474 -1.4737  2.3443
 4914SOL     OW26377   4.111   4.698   5.518  0.2872 -0.3180  0.5126
 4914SOL    HW126378   4.174   4.694   5.446 -0.3894 -0.1724 -0.0937
 4914SOL    HW226379   4.042   4.644   5.480  0.8894  0.1219 -1.2198
 4915SOL     OW26380   3.240   2.563   7.059 -0.0374  0.0989 -0.1386
 4915SOL    HW126381   3.300   2.574   6.985  0.9070 -2.9982  0.1662
 4915SOL    HW226382   3.271   2.479   7.093 -0.2512  1.1824  2.7705
 4916SOL     OW26383   1.743   2.503   4.783  0.4459 -0.4334 -0.1331
 4916SOL    HW126384   1.658   2.480   4.820 -0.4103 -1.2726 -2.5846
 4916SOL    HW226385   1.752   2.595   4.809  2.0697 -0.2637 -1.2502
 4917SOL     OW26386   2.450   1.363  15.063  0.1778 -0.1118  0.0647
 4917SOL    HW126387   2.545   1.352  15.065  0.2975  1.2239  1.2508
 4917SOL    HW226388   2.447   1.440  15.006 -1.5508  0.0574  0.3762
 4918SOL     OW26389   4.453   2.729   1.666  0.2745 -0.1578 -0.0160
 4918SOL    HW126390   4.520   2.718   1.598  0.4622 -0.3945  0.2112
 4918SOL    HW226391   4.441   2.824   1.661 -1.2067 -0.4103 -1.3068
 4919SOL     OW26392   3.982   3.306   2.633  0.5898 -0.4371  0.3082
 4919SOL    HW126393   3.989   3.317   2.538 -1.8506  0.8161  0.2712
 4919SOL    HW226394   4.000   3.392   2.671 -0.7328  0.9683 -2.2591
 4920SOL     OW26395   4.657   0.302  11.962 -0.2452 -0.6189 -0.4515
 4920SOL    HW126396   4.713   0.241  12.011  1.2838  1.7440  0.7693
 4920SOL    HW226397   4.571   0.264  11.976  0.3669 -1.1696  1.8195
 4921SOL     OW26398   2.785   2.279   8.436 -0.7086 -0.2983  0.8985
 4921SOL    HW126399   2.810   2.368   8.463 -0.5265 -0.0147 -0.2062
 4921SOL    HW226400   2.690   2.283   8.423 -0.6498 -1.3368  0.2064
 4922SOL     OW26401   3.765   2.879   9.459  0.1405  0.5083 -0.4316
 4922SOL    HW126402   3.732   2.807   9.513  0.9828  0.8450  0.5355
 4922SOL    HW226403   3.853   2.848   9.442  0.5220 -0.1775  2.7191
 4923SOL     OW26404   0.131   2.137  13.511 -0.1017 -0.3401  0.1648
 4923SOL    HW126405   0.036   2.138  13.525  0.1517  1.9312  1.6219
 4923SOL    HW226406   0.130   2.150  13.416 -2.6542  3.6772  0.7339
 4924SOL     OW26407   0.362   4.423   2.653  0.0846 -0.2286 -0.2517
 4924SOL    HW126408   0.300   4.492   2.676  3.0426  2.2504  0.2875
 4924SOL    HW226409   0.335   4.396   2.565 -0.2650 -0.5580 -0.0410
 4925SOL     OW26410   2.081   4.113  15.719 -0.1402 -0.5857  0.0007
 4925SOL    HW126411   2.049   4.047  15.780  1.4192 -1.0225  0.3522
 4925SOL    HW226412   1.998   4.152  15.692  1.2906  1.6474 -1.2412
 4926SOL     OW26413   1.629   1.450   9.392  0.8845 -0.1829 -0.1906
 4926SOL    HW126414   1.686   1.408   9.328 -0.4842 -0.3339 -1.3186
 4926SOL    HW226415   1.671   1.536   9.385  0.9656 -0.2795 -0.9905
 4927SOL     OW26416   4.430   3.578   4.490 -0.3944  0.0856 -0.1865
 4927SOL    HW126417   4.520   3.562   4.518 -1.3533 -0.8660  2.4087
 4927SOL    HW226418   4.368   3.541   4.554 -0.4550  1.0799  0.3325
 4928SOL     OW26419   0.507   0.197   8.350  0.3891  0.6089 -0.1496
 4928SOL    HW126420   0.487   0.279   8.395  0.8783 -0.3933  1.8778
 4928SOL    HW226421   0.596   0.213   8.318  0.6923 -1.8370 -0.4946
 4929SOL     OW26422   0.707   3.965   7.038 -0.1401  0.1938  0.4013
 4929SOL    HW126423   0.800   3.986   7.050 -0.5243  2.1216 -0.0438
 4929SOL    HW226424   0.665   4.022   7.102  1.7328  0.1558  1.6943
 4930SOL     OW26425   0.090   2.033   5.146  0.2237 -0.0301  0.2391
 4930SOL    HW126426   0.171   2.065   5.107  0.1280  2.6075  2.2272
 4930SOL    HW226427   0.114   1.984   5.224  0.2282  0.8704  0.7954
 4931SOL     OW26428   2.822   0.762   2.895  0.6178  0.1719  0.2677
 4931SOL    HW126429   2.791   0.748   2.984 -0.7138  0.4439 -0.1504
 4931SOL    HW226430   2.733   0.765   2.860 -0.0655  0.4418  2.0373
 4932SOL     OW26431   4.274   2.333  17.245 -0.1227  0.3632 -0.2540
 4932SOL    HW126432   4.304   2.262  17.302 -0.8870 -1.2499 -1.8369
 4932SOL    HW226433   4.263   2.286  17.162  0.5254  2.0522 -1.3025
 4933SOL     OW26434   0.879   0.126   3.930 -0.0804 -0.0689 -0.3146
 4933SOL    HW126435   0.876   0.202   3.988  2.7014  0.2012 -0.4935
 4933SOL    HW226436   0.916   0.158   3.848  1.6059 -1.3437 -0.0602
 4934SOL     OW26437   3.892   3.023   5.324 -0.1167 -0.1674  0.1273
 4934SOL    HW126438   3.885   2.949   5.385  1.8890  0.1709  0.7608
 4934SOL    HW226439   3.968   3.004   5.268 -0.4407 -0.6236 -0.1604
 4935SOL     OW26440   2.915   2.531  13.935  0.1194 -0.0400  0.0999
 4935SOL    HW126441   2.919   2.622  13.907 -0.5768  0.1846  0.7146
 4935SOL    HW226442   2.865   2.485  13.867  1.7907  0.5944 -1.5416
 4936SOL     OW26443   4.447   3.554   2.067 -0.6049  0.2939  0.5783
 4936SOL    HW126444   4.387   3.485   2.095 -1.0607  1.0869  1.5835
 4936SOL    HW226445   4.407   3.635   2.099 -0.2339  0.7733 -0.1652
 4937SOL     OW26446   4.540   1.461  16.870 -0.2703 -0.2016  0.2664
 4937SOL    HW126447   4.571   1.545  16.837 -2.1582  1.5798  2.9401
 4937SOL    HW226448   4.620   1.422  16.906  1.0466  0.9053 -1.4900
 4938SOL     OW26449   0.707   0.434  11.470  0.0263 -0.1882 -0.2855
 4938SOL    HW126450   0.718   0.529  11.477 -1.3024 -0.2810  2.9594
 4938SOL    HW226451   0.651   0.422  11.546  0.4366 -0.3993 -0.0191
 4939SOL     OW26452   1.124   4.660  16.849  0.3662 -0.1334 -0.1766
 4939SOL    HW126453   1.154   4.641  16.938  0.1076 -0.2939 -0.1228
 4939SOL    HW226454   1.123   4.571  16.814  1.3476 -0.3607  0.3602
 4940SOL     OW26455   2.519   2.345   4.749 -0.6806 -0.1372 -0.5805
 4940SOL    HW126456   2.564   2.272   4.707  1.2737  1.0889 -0.6058
 4940SOL    HW226457   2.458   2.369   4.680  2.2916  3.0627 -2.0543
 4941SOL     OW26458   1.886   3.272   5.579 -0.2868 -0.0648 -0.1069
 4941SOL    HW126459   1.960   3.279   5.518 -1.0952 -1.4256 -1.2505
 4941SOL    HW226460   1.846   3.187   5.563 -1.7137  0.3915  1.0872
 4942SOL     OW26461   4.097   0.657  15.012 -0.6704  0.0846 -0.6906
 4942SOL    HW126462   4.089   0.653  14.917  1.0664  0.5798 -0.8421
 4942SOL    HW226463   4.024   0.716  15.030 -0.9683  0.1492 -2.0845
 4943SOL     OW26464   1.683   0.947  13.562  0.2519  0.0289  0.3483
 4943SOL    HW126465   1.634   0.905  13.633  0.3089 -0.1407  0.2877
 4943SOL    HW226466   1.632   0.923  13.485  1.4263  0.7109 -0.6223
 4944SOL     OW26467   0.971   4.619   0.743 -0.5495 -0.6900  0.0926
 4944SOL    HW126468   0.964   4.552   0.811  0.4661  0.0181  0.8762
 4944SOL    HW226469   1.057   4.595   0.709 -0.6955 -0.3251 -0.5353
 4945SOL     OW26470   1.207   3.562  16.772 -0.2987  0.4788  0.1017
 4945SOL    HW126471   1.288   3.602  16.740 -0.4646 -0.2831 -1.2668
 4945SOL    HW226472   1.227   3.485  16.825  1.4887 -0.2344 -1.6271
 4946SOL     OW26473   3.153   3.789  12.466  0.3088 -0.1187  0.0222
 4946SOL    HW126474   3.161   3.831  12.381 -0.6085  0.0989  0.0394
 4946SOL    HW226475   3.192   3.702  12.455 -0.8634 -0.6885  0.3544
 4947SOL     OW26476   4.023   2.403  14.591  0.1895 -0.3119  0.2002
 4947SOL    HW126477   4.005   2.497  14.591 -1.0559 -0.5571  2.4809
 4947SOL    HW226478   4.040   2.400  14.497 -1.2967 -1.2588 -0.0399
 4948SOL     OW26479   3.544   4.444   3.570 -0.2432 -0.7112 -0.2397
 4948SOL    HW126480   3.581   4.399   3.645  0.3201  1.4975  0.8003
 4948SOL    HW226481   3.508   4.522   3.613 -1.3210 -0.6164 -1.3043
 4949SOL     OW26482   2.678   0.880   2.166 -0.0318  0.0592 -0.1825
 4949SOL    HW126483   2.630   0.915   2.241  0.0493  0.8676 -0.4964
 4949SOL    HW226484   2.626   0.908   2.090 -0.3064 -2.0518 -0.7704
 4950SOL     OW26485   2.700   3.944  14.861  0.5631  0.4821 -0.0378
 4950SOL    HW126486   2.623   3.997  14.881 -0.1430 -0.2060 -0.9726
 4950SOL    HW226487   2.746   3.981  14.786  0.1488 -0.0705 -0.5635
 4951SOL     OW26488   2.945   0.003  13.182 -0.0896 -0.0272 -0.2791
 4951SOL    HW126489   2.860   4.731  13.138 -0.7170  1.8167  0.5187
 4951SOL    HW226490   2.977   0.089  13.152  1.5768 -1.1463 -1.6991
 4952SOL     OW26491   4.732   2.394  16.233  0.0828  0.7224 -0.0371
 4952SOL    HW126492   0.066   2.346  16.191 -0.2521 -0.2983  0.5531
 4952SOL    HW226493   4.702   2.329  16.296 -0.7632  2.3177  1.2117
 4953SOL     OW26494   1.457   4.187   0.541 -0.2654  0.5119 -0.6474
 4953SOL    HW126495   1.416   4.112   0.498  1.1660 -0.3626 -0.4566
 4953SOL    HW226496   1.426   4.259   0.486 -0.0484  0.1763 -1.2066
 4954SOL     OW26497   3.504   1.116   6.795  0.1055 -0.2236 -0.5171
 4954SOL    HW126498   3.451   1.129   6.874 -1.5557  0.3135 -1.7093
 4954SOL    HW226499   3.584   1.086   6.837 -0.6093 -0.7542  0.4557
 4955SOL     OW26500   4.525   0.202   8.315 -0.1109 -0.2676  0.4846
 4955SOL    HW126501   4.503   0.296   8.318  3.4747  0.6443 -1.7939
 4955SOL    HW226502   4.615   0.202   8.284 -0.3123 -1.8143 -0.0665
 4956SOL     OW26503   0.135   2.366  16.993  0.1686 -0.4850  0.0677
 4956SOL    HW126504   0.110   2.456  17.012  1.0498 -0.3220  0.4596
 4956SOL    HW226505   0.129   2.323  17.079  0.2563 -0.1330  0.2503
 4957SOL     OW26506   2.198   2.577  15.542  0.1658 -0.4619  0.1217
 4957SOL    HW126507   2.150   2.523  15.479  0.8679  1.4206 -2.0077
 4957SOL    HW226508   2.176   2.521  15.617  1.0024 -1.4236 -0.3579
 4958SOL     OW26509   4.243   4.461   8.067 -0.4881 -0.1149  0.0152
 4958SOL    HW126510   4.237   4.398   8.138  0.5605 -0.0936  0.1238
 4958SOL    HW226511   4.324   4.426   8.029  1.2322  1.6178  2.0604
 4959SOL     OW26512   1.435   4.592   4.369  0.1250 -0.6129  0.1030
 4959SOL    HW126513   1.433   4.616   4.462 -0.4591  2.3488 -0.6852
 4959SOL    HW226514   1.527   4.577   4.348  0.8760  2.7859  1.0535
 4960SOL     OW26515   3.454   0.358  15.053  0.1414 -0.0054  0.2381
 4960SOL    HW126516   3.397   0.303  15.000  0.6547 -0.7165  0.4325
 4960SOL    HW226517   3.533   0.311  15.027 -1.2448 -0.9357 -2.2670
 4961SOL     OW26518   1.150   3.779   4.355 -0.0064 -0.2252 -0.4050
 4961SOL    HW126519   1.232   3.734   4.332  1.8105  2.8549  0.0090
 4961SOL    HW226520   1.084   3.746   4.295  0.6023 -0.2130 -1.0781
 4962SOL     OW26521   3.245   1.685  15.685  0.1651  0.0247 -0.1690
 4962SOL    HW126522   3.268   1.592  15.677  0.5058  0.1357 -0.4473
 4962SOL    HW226523   3.284   1.727  15.609 -0.2283 -2.4953 -1.7682
 4963SOL     OW26524   2.302   3.421   9.403 -0.0930  0.2310  0.5819
 4963SOL    HW126525   2.236   3.433   9.472 -0.7106 -0.3052  0.0859
 4963SOL    HW226526   2.305   3.326   9.397  0.9289  0.3736 -1.2284
 4964SOL     OW26527   3.119   0.139  13.423 -0.0462  0.1329 -0.0262
 4964SOL    HW126528   3.112   0.166  13.331 -0.2112  1.2945  0.3310
 4964SOL    HW226529   3.209   0.170  13.439 -0.2916 -0.0770  1.6987
 4965SOL     OW26530   3.103   2.546   8.783 -0.4245  0.4180  0.1992
 4965SOL    HW126531   3.075   2.626   8.828 -0.7724  0.0366  0.6652
 4965SOL    HW226532   3.029   2.496   8.750  1.0335 -0.5650 -1.5835
 4966SOL     OW26533   2.599   4.216   6.213  0.4474  0.1442  0.5343
 4966SOL    HW126534   2.647   4.168   6.280  0.2956 -2.2665 -1.0880
 4966SOL    HW226535   2.509   4.200   6.241 -0.4346  0.9875 -1.8258
 4967SOL     OW26536   4.060   3.046   8.447  0.3073  0.2231  0.3555
 4967SOL    HW126537   3.983   3.003   8.486  0.2641  0.5479  0.6347
 4967SOL    HW226538   4.026   3.059   8.358 -0.7397  2.2845  1.0417
 4968SOL     OW26539   3.280   4.231   9.782  0.4096 -0.1213 -0.2601
 4968SOL    HW126540   3.322   4.244   9.867  3.9446  1.1608 -2.1957
 4968SOL    HW226541   3.348   4.238   9.715  1.1409 -1.1193  0.3776
 4969SOL     OW26542   3.227   3.943   7.789  0.8941  0.4217 -0.1437
 4969SOL    HW126543   3.152   4.000   7.804 -0.0901 -0.5261 -1.5445
 4969SOL    HW226544   3.183   3.876   7.738 -2.5349  2.7444 -0.2261
 4970SOL     OW26545   3.480   4.653  17.372  0.0788  0.5406  0.2177
 4970SOL    HW126546   3.496   4.693  17.287 -2.5266 -0.3030 -0.6839
 4970SOL    HW226547   3.541   4.693  17.434  0.6663 -0.8256  0.5336
 4971SOL     OW26548   2.657   0.736  12.257 -0.3294  0.9343 -0.2719
 4971SOL    HW126549   2.610   0.819  12.246 -2.4507 -0.2814 -0.3754
 4971SOL    HW226550   2.737   0.760  12.210  1.0647  0.3787  1.8017
 4972SOL     OW26551   3.059   0.640  15.124  0.3153 -0.6531 -0.3432
 4972SOL    HW126552   3.106   0.591  15.057 -0.4113 -0.2917 -1.1172
 4972SOL    HW226553   3.087   0.581  15.194 -0.1882 -1.5310 -0.8813
 4973SOL     OW26554   4.308   2.301  16.780 -0.3375  0.0163  0.0388
 4973SOL    HW126555   4.366   2.375  16.761  0.5643 -0.6605  0.1949
 4973SOL    HW226556   4.227   2.314  16.730  0.3896 -1.8546 -1.6311
 4974SOL     OW26557   1.415   2.958   9.059  0.6334 -0.4151 -0.2994
 4974SOL    HW126558   1.347   2.950   8.992  1.8793 -1.9762 -1.3757
 4974SOL    HW226559   1.373   3.001   9.133 -2.2676 -0.5567 -1.8599
 4975SOL     OW26560   0.769   1.495   8.308  1.1263  0.5183  0.8449
 4975SOL    HW126561   0.686   1.544   8.306 -0.2616 -1.7662  2.4554
 4975SOL    HW226562   0.765   1.446   8.226  1.3752  1.2312  0.3998
 4976SOL     OW26563   2.128   4.289   4.693  0.2054  0.3044 -0.1110
 4976SOL    HW126564   2.092   4.256   4.611 -0.0386  1.4294 -0.4571
 4976SOL    HW226565   2.117   4.382   4.676 -3.0896 -0.4987 -2.3129
 4977SOL     OW26566   1.177   0.332   4.957  0.1297  0.3999 -0.5369
 4977SOL    HW126567   1.227   0.359   4.879 -2.6407 -0.0875 -2.4832
 4977SOL    HW226568   1.130   0.412   4.980 -0.5561 -0.4613  1.0147
 4978SOL     OW26569   0.014   3.062   0.215  0.2759 -0.3860 -0.3409
 4978SOL    HW126570   0.092   3.049   0.161 -0.9478 -0.4117 -2.0952
 4978SOL    HW226571   0.018   3.155   0.237  0.3347 -0.4065 -0.2638
 4979SOL     OW26572   3.603   3.799  16.654  0.2132  0.5312 -0.6820
 4979SOL    HW126573   3.631   3.724  16.706  1.0810  0.0301 -1.8869
 4979SOL    HW226574   3.669   3.803  16.585 -0.1944 -1.6786 -1.1659
 4980SOL     OW26575   2.547   0.795   2.806 -0.6163 -0.0230  0.6900
 4980SOL    HW126576   2.476   0.746   2.847 -1.3463  1.6263  1.3889
 4980SOL    HW226577   2.503   0.868   2.762  0.2806 -0.5162 -1.0411
 4981SOL     OW26578   1.104   2.557   4.256 -0.6805  0.4546  0.7019
 4981SOL    HW126579   1.178   2.538   4.199 -0.6501 -0.2502  0.9785
 4981SOL    HW226580   1.144   2.516   4.332  1.1166 -0.2026 -0.6144
 4982SOL     OW26581   0.185   4.209   8.978 -0.1423  0.6240  0.2617
 4982SOL    HW126582   0.179   4.230   9.071  0.1097  1.4410  0.0969
 4982SOL    HW226583   0.280   4.200   8.973 -0.6348 -1.0315 -6.3769
 4983SOL     OW26584   3.422   1.762  15.096 -0.2492 -0.1447 -0.4735
 4983SOL    HW126585   3.370   1.707  15.155  0.1720 -0.7934 -0.7124
 4983SOL    HW226586   3.444   1.699  15.028 -0.4689  0.4992 -1.1357
 4984SOL     OW26587   3.703   3.293   2.526  0.4165  0.0249  0.0914
 4984SOL    HW126588   3.667   3.378   2.551  2.2410  0.7429  0.2427
 4984SOL    HW226589   3.760   3.324   2.456 -2.7098  2.4430 -1.4172
 4985SOL     OW26590   2.609   3.589  16.061 -0.3644 -0.1171 -0.7120
 4985SOL    HW126591   2.556   3.664  16.038 -0.2506  0.5068  1.0392
 4985SOL    HW226592   2.597   3.575  16.155  2.6229 -0.2904 -0.3320
 4986SOL     OW26593   0.960   0.133   7.553  0.4849  0.3577 -0.6061
 4986SOL    HW126594   0.867   0.135   7.573  0.9005  2.4833  1.1696
 4986SOL    HW226595   1.005   0.117   7.637 -1.9869  3.0583  1.2162
 4987SOL     OW26596   2.156   3.850  10.622 -0.1678  0.3953  0.2688
 4987SOL    HW126597   2.129   3.898  10.543 -1.7095 -0.3939  0.3129
 4987SOL    HW226598   2.070   3.843  10.664  0.9223 -0.2038  2.3565
 4988SOL     OW26599   0.320   1.606   3.640  0.2360  0.2758  0.4698
 4988SOL    HW126600   0.254   1.577   3.577  0.7680  0.5933 -0.2364
 4988SOL    HW226601   0.288   1.556   3.715 -1.7454 -0.2735 -0.7263
 4989SOL     OW26602   2.300   4.048   3.785  0.1067 -0.3173 -0.3829
 4989SOL    HW126603   2.214   4.076   3.753  1.0427  0.5235 -2.0902
 4989SOL    HW226604   2.301   3.959   3.751 -1.1555  0.8635 -3.5241
 4990SOL     OW26605   3.986   0.948   6.217  0.0628 -0.5657 -0.3615
 4990SOL    HW126606   3.911   0.889   6.226  1.2208 -1.8068  1.1798
 4990SOL    HW226607   4.004   0.961   6.310  2.4245  0.5904 -0.9811
 4991SOL     OW26608   1.881   0.253   4.751 -0.1096  0.1780  0.4097
 4991SOL    HW126609   1.891   0.345   4.778 -2.3303  1.2430 -2.3191
 4991SOL    HW226610   1.788   0.252   4.775 -1.0913 -0.5140 -3.3774
 4992SOL     OW26611   0.297   0.205  11.258  0.5994  0.3224  0.0354
 4992SOL    HW126612   0.332   0.201  11.347 -0.6683  0.7593  0.5627
 4992SOL    HW226613   0.269   0.115  11.241  1.2772  0.1081  0.0717
 4993SOL     OW26614   3.246   0.611  13.375  0.3461  0.8743 -0.2167
 4993SOL    HW126615   3.152   0.625  13.387 -0.4010 -2.5774 -1.9778
 4993SOL    HW226616   3.262   0.525  13.412 -1.3800  1.0177  0.8803
 4994SOL     OW26617   1.314   2.957  10.516  0.2614 -0.2623  0.5716
 4994SOL    HW126618   1.322   2.941  10.610  0.0573 -0.3928  0.5676
 4994SOL    HW226619   1.343   2.871  10.487 -0.7994 -0.1885 -0.7213
 4995SOL     OW26620   2.756   2.529  12.392  0.0323  0.5045  0.1939
 4995SOL    HW126621   2.707   2.593  12.340 -0.8830 -0.3462 -0.0108
 4995SOL    HW226622   2.798   2.572  12.466 -0.2277  3.6662 -1.4807
 4996SOL     OW26623   2.208   1.440   6.956 -0.2798  0.0186  0.0657
 4996SOL    HW126624   2.177   1.405   6.873 -1.1697  1.1756 -0.0886
 4996SOL    HW226625   2.207   1.536   6.950  3.9770  0.2806  3.3058
 4997SOL     OW26626   3.327   0.928   8.887  0.2962  0.6398  0.2635
 4997SOL    HW126627   3.333   1.021   8.866 -1.8113  0.0047 -3.1201
 4997SOL    HW226628   3.313   0.936   8.981 -1.2533 -0.4389  0.1218
 4998SOL     OW26629   1.083   3.821   3.615 -0.1096  0.5175  0.0100
 4998SOL    HW126630   1.145   3.837   3.687  1.3896 -1.8957 -0.7191
 4998SOL    HW226631   1.030   3.900   3.612 -0.1629  0.4262 -1.3727
 4999SOL     OW26632   1.653   2.416   1.906 -0.1141 -0.3003 -0.3900
 4999SOL    HW126633   1.691   2.424   1.993  3.2669 -1.3832 -1.7865
 4999SOL    HW226634   1.625   2.325   1.907 -0.0304 -0.3013  4.1920
 5000SOL     OW26635   2.738   0.647   1.347 -0.5703  0.0694 -0.4709
 5000SOL    HW126636   2.817   0.694   1.323  0.1578 -1.0853 -0.3084
 5000SOL    HW226637   2.697   0.705   1.412 -4.0607 -3.9913  0.9622
 5001SOL     OW26638   4.530   0.414   0.634 -0.4499  0.6691 -0.1208
 5001SOL    HW126639   4.510   0.324   0.661 -0.1215  0.2127 -1.3963
 5001SOL    HW226640   4.622   0.400   0.615 -0.3703  3.3567 -1.6896
 5002SOL     OW26641   1.469   2.824   2.443  0.3520 -0.3100  0.2844
 5002SOL    HW126642   1.477   2.777   2.360 -1.7531 -1.7190  0.8753
 5002SOL    HW226643   1.383   2.793   2.472 -1.1417  0.8158 -2.9282
 5003SOL     OW26644   2.750   0.004   3.703  0.3354  0.0122  0.4520
 5003SOL    HW126645   2.782   4.733   3.793  1.8298 -0.4503 -0.1254
 5003SOL    HW226646   2.747   4.648   3.681  1.0273  0.5643 -1.8972
 5004SOL     OW26647   0.997   0.409  13.075  0.0279 -0.2018  0.1010
 5004SOL    HW126648   1.037   0.322  13.072  1.6303  0.5583 -0.7145
 5004SOL    HW226649   0.954   0.408  13.161 -2.4747 -0.4331 -1.1743
 5005SOL     OW26650   1.602   3.405  11.568 -0.1284 -0.0661  0.0944
 5005SOL    HW126651   1.635   3.316  11.575 -1.6198 -0.5763  0.6860
 5005SOL    HW226652   1.550   3.400  11.488  1.7084  0.2393 -1.1062
 5006SOL     OW26653   4.572   1.322   7.883 -0.4971 -0.0239 -0.4231
 5006SOL    HW126654   4.537   1.239   7.851 -0.9466  0.8497 -2.1809
 5006SOL    HW226655   4.565   1.314   7.978 -2.4107  0.7117 -0.4901
 5007SOL     OW26656   1.059   0.677   6.176 -0.2678  0.1586  0.3188
 5007SOL    HW126657   1.066   0.586   6.147 -0.3324 -0.2032  1.4611
 5007SOL    HW226658   0.986   0.702   6.118  1.0546 -0.1630 -1.4948
 5008SOL     OW26659   4.357   4.473   4.886 -0.8950  0.2720  0.0300
 5008SOL    HW126660   4.444   4.453   4.920 -1.9883 -2.8075  1.0894
 5008SOL    HW226661   4.340   4.390   4.841  2.9899 -0.5735  0.1238
 5009SOL     OW26662   3.024   0.329  13.626  0.2680  0.1810 -0.6402
 5009SOL    HW126663   2.965   0.404  13.633 -0.2242 -0.2215 -0.4343
 5009SOL    HW226664   3.042   0.320  13.532 -3.0498 -2.4999 -1.0442
 5010SOL     OW26665   0.025   3.873   6.454  0.0850 -0.3125 -0.2734
 5010SOL    HW126666   0.112   3.847   6.484 -0.0323  1.4028  1.5273
 5010SOL    HW226667   4.730   3.804   6.397 -1.3643 -1.2930  1.7429
 5011SOL     OW26668   0.686   0.311   5.255 -0.5946  0.7299  0.1690
 5011SOL    HW126669   0.762   0.327   5.310 -0.9100  1.8386  0.2929
 5011SOL    HW226670   0.619   0.279   5.316 -0.7606 -1.2843 -1.0947
 5012SOL     OW26671   2.038   2.670   1.134  0.7548  0.3747 -0.4260
 5012SOL    HW126672   1.981   2.600   1.166 -0.7570  2.0924  0.5660
 5012SOL    HW226673   2.104   2.620   1.085 -0.1241  0.6522 -1.8974
 5013SOL     OW26674   4.703   3.177   6.877  0.1614 -0.0128 -0.1515
 5013SOL    HW126675   0.026   3.188   6.951 -1.0768  0.0452  0.8377
 5013SOL    HW226676   4.621   3.199   6.921 -0.2510 -2.0696  0.0683
 5014SOL     OW26677   1.713   4.146   7.550 -0.1339 -0.4278  0.0821
 5014SOL    HW126678   1.779   4.077   7.549 -1.9058 -2.0983 -1.1999
 5014SOL    HW226679   1.632   4.096   7.558 -1.0149  1.0636  0.3201
 5015SOL     OW26680   0.208   3.616  11.429  0.2157 -0.1594 -0.0049
 5015SOL    HW126681   0.291   3.595  11.386 -0.1363 -1.1855 -0.1971
 5015SOL    HW226682   0.146   3.620  11.356 -0.6518 -0.5193  0.7131
 5016SOL     OW26683   1.726   0.201   9.217  0.3155 -0.0395  0.3625
 5016SOL    HW126684   1.800   0.164   9.264  1.6554 -1.0551 -2.5076
 5016SOL    HW226685   1.753   0.178   9.128  1.6756  0.1486  0.7328
 5017SOL     OW26686   4.091   3.747   1.911  0.0543  0.6309 -0.2931
 5017SOL    HW126687   4.122   3.805   1.841 -2.4642 -0.5295 -2.4009
 5017SOL    HW226688   4.173   3.734   1.958  1.7735 -1.2992 -3.7695
 5018SOL     OW26689   0.094   3.773   0.741  0.0623  0.4092 -0.4333
 5018SOL    HW126690   0.170   3.819   0.776 -0.6191  1.2587 -0.0701
 5018SOL    HW226691   0.132   3.711   0.678  1.5720  1.2312 -0.3283
 5019SOL     OW26692   2.640   2.193   1.092  0.4030 -0.1652  0.3654
 5019SOL    HW126693   2.659   2.179   1.185  0.5464 -2.6453 -0.0571
 5019SOL    HW226694   2.691   2.274   1.081 -1.7279  0.6848 -3.3365
 5020SOL     OW26695   0.848   0.078  14.404 -0.0481 -0.1631  0.0440
 5020SOL    HW126696   0.836   0.019  14.479  0.1198  0.8191  0.8402
 5020SOL    HW226697   0.803   0.155  14.437  1.5026 -0.0115  1.8293
 5021SOL     OW26698   1.242   0.641   8.097 -0.1537 -0.2889 -0.9608
 5021SOL    HW126699   1.259   0.576   8.165  0.7426 -1.7877 -2.6035
 5021SOL    HW226700   1.148   0.626   8.091 -0.1486 -0.2779 -1.0742
 5022SOL     OW26701   3.525   1.591  14.845  0.1283 -0.7081 -0.7497
 5022SOL    HW126702   3.446   1.537  14.838 -0.5624  0.2041 -0.0129
 5022SOL    HW226703   3.493   1.664  14.793  1.2598  1.5757  1.7354
 5023SOL     OW26704   4.495   4.060   9.803 -0.1147 -0.2852  0.3168
 5023SOL    HW126705   4.464   4.051   9.893 -0.8213  0.1441  0.1172
 5023SOL    HW226706   4.510   3.968   9.779  0.8628  0.0824 -0.4693
 5024SOL     OW26707   2.724   1.508   6.416 -0.0634  0.3647  0.8414
 5024SOL    HW126708   2.677   1.446   6.360 -0.1055 -0.5571  1.8982
 5024SOL    HW226709   2.814   1.503   6.384 -0.6096  0.9209 -0.8128
 5025SOL     OW26710   3.263   2.085   7.469  0.1061 -0.1480 -0.4571
 5025SOL    HW126711   3.175   2.099   7.504 -0.0330  1.5905 -1.5169
 5025SOL    HW226712   3.253   2.119   7.381 -2.8610 -2.9220 -1.1952
 5026SOL     OW26713   0.040   0.689   2.922 -0.5997  0.2309 -0.4998
 5026SOL    HW126714   0.089   0.681   2.840 -1.0939 -0.0245 -0.7685
 5026SOL    HW226715   4.721   0.612   2.915 -2.9475  1.9498 -0.6344
 5027SOL     OW26716   3.054   4.367   2.777 -0.4206  0.0694  0.1745
 5027SOL    HW126717   3.010   4.322   2.705 -0.5978  0.8666 -0.2195
 5027SOL    HW226718   3.050   4.305   2.849  0.6053 -0.3494 -0.1286
 5028SOL     OW26719   2.340   2.313  14.410  0.0909  0.0963  0.2468
 5028SOL    HW126720   2.353   2.381  14.476  1.0310 -0.7508  0.9444
 5028SOL    HW226721   2.245   2.304  14.406  0.2531 -1.1955 -0.5672
 5029SOL     OW26722   3.874   0.565   7.163 -0.0427  0.1154  0.1181
 5029SOL    HW126723   3.870   0.649   7.208  1.5841 -0.1989  0.8553
 5029SOL    HW226724   3.783   0.540   7.145 -0.0995 -0.1524  0.7479
 5030SOL     OW26725   2.313   1.038   5.507  0.3640 -0.4166  0.0926
 5030SOL    HW126726   2.258   1.113   5.530 -0.2254 -0.9667  0.4886
 5030SOL    HW226727   2.380   1.095   5.469 -1.1557  0.7210 -0.8835
 5031SOL     OW26728   3.910   4.709   7.323 -0.0596 -0.0974 -0.2021
 5031SOL    HW126729   3.920   0.065   7.340 -3.1745  0.1203  0.5336
 5031SOL    HW226730   3.895   4.686   7.415  0.3089  0.1563 -0.0821
 5032SOL     OW26731   3.581   2.632   2.632  0.3685  0.0078 -0.1374
 5032SOL    HW126732   3.558   2.556   2.686 -0.2126  0.3221  0.0594
 5032SOL    HW226733   3.653   2.665   2.686 -1.2350  0.0731  1.9768
 5033SOL     OW26734   3.017   1.071  13.463  0.6613 -0.0454 -0.8524
 5033SOL    HW126735   3.076   1.136  13.501  0.3143 -0.7632  0.9244
 5033SOL    HW226736   3.085   1.011  13.432  0.1224 -0.2365 -1.6613
 5034SOL     OW26737   0.771   3.097   7.508 -0.4681 -0.1369  0.0634
 5034SOL    HW126738   0.677   3.085   7.496 -0.4014 -0.8831  0.2608
 5034SOL    HW226739   0.769   3.141   7.593  0.9310 -0.2024  0.1305
 5035SOL     OW26740   1.216   4.258   1.241  1.1287 -0.2791  0.1039
 5035SOL    HW126741   1.306   4.230   1.253  1.3371  1.1304  1.8245
 5035SOL    HW226742   1.236   4.347   1.213 -2.5099  0.0280 -1.5725
 5036SOL     OW26743   1.303   3.915  13.750 -0.5067 -0.2995  0.5661
 5036SOL    HW126744   1.368   3.863  13.797 -1.1478 -0.5039  1.2165
 5036SOL    HW226745   1.317   4.004  13.783 -1.8357  0.6433 -1.3936
 5037SOL     OW26746   1.811   3.760   5.639  0.1769  0.5889 -0.3590
 5037SOL    HW126747   1.853   3.675   5.656 -0.1187  1.1179  2.8779
 5037SOL    HW226748   1.877   3.801   5.583  0.0191  1.1194 -0.1521
 5038SOL     OW26749   0.318   3.238   5.104 -0.5253 -0.0238 -0.6057
 5038SOL    HW126750   0.265   3.160   5.119 -1.8740  0.5182 -2.4524
 5038SOL    HW226751   0.373   3.247   5.182  0.3352 -1.4668 -1.0470
 5039SOL     OW26752   4.376   1.142  17.048  0.3399  0.1159 -0.0384
 5039SOL    HW126753   4.322   1.197  17.105 -0.9114 -0.9700 -0.1562
 5039SOL    HW226754   4.322   1.148  16.969  0.3949 -0.1866 -0.0988
 5040SOL     OW26755   1.333   0.025  14.016 -0.3644 -0.3543 -0.4596
 5040SOL    HW126756   1.276   0.003  14.090  0.9941 -1.7359  0.1725
 5040SOL    HW226757   1.407   0.052  14.070  0.5479  1.0288 -2.4118
 5041SOL     OW26758   2.448   4.022  11.065  0.1660  0.0451  0.4645
 5041SOL    HW126759   2.499   3.973  11.001  1.8606  1.8669  0.3946
 5041SOL    HW226760   2.364   4.023  11.019  0.6683 -2.5710 -0.4537
 5042SOL     OW26761   0.568   0.366  11.704  0.2720 -0.4074 -0.2604
 5042SOL    HW126762   0.512   0.444  11.698  1.5112  0.5182  0.1248
 5042SOL    HW226763   0.514   0.297  11.741  1.4367 -0.0311  2.1000
 5043SOL     OW26764   1.105   2.675  11.424  0.0676  0.3690  0.2377
 5043SOL    HW126765   1.077   2.760  11.391  0.2353  0.9486  1.5645
 5043SOL    HW226766   1.191   2.675  11.383 -0.0721  1.5371 -0.0442
 5044SOL     OW26767   2.376   1.803   2.452 -0.3049 -0.4638  0.6130
 5044SOL    HW126768   2.346   1.717   2.481  0.1334 -0.6353  0.5602
 5044SOL    HW226769   2.452   1.818   2.510 -0.4752 -0.9504  0.9687
 5045SOL     OW26770   1.503   3.202   5.546  0.2256  0.1405  0.1966
 5045SOL    HW126771   1.461   3.152   5.616 -0.0746  0.7688  0.4665
 5045SOL    HW226772   1.586   3.221   5.589 -0.5570  2.3474  0.7260
 5046SOL     OW26773   1.741   3.830   7.732  0.1822  0.3782  0.2925
 5046SOL    HW126774   1.659   3.781   7.742 -1.1822  2.9137  1.5134
 5046SOL    HW226775   1.743   3.906   7.791  0.2391  0.3730  0.2974
 5047SOL     OW26776   2.105   3.455   8.078 -0.6691  0.5818  0.2414
 5047SOL    HW126777   2.025   3.410   8.052  0.3102  0.8406 -3.1825
 5047SOL    HW226778   2.137   3.395   8.146 -0.0237 -0.2749 -0.8205
 5048SOL     OW26779   0.431   1.732  15.675 -0.5722  0.8848 -0.6292
 5048SOL    HW126780   0.484   1.652  15.664 -1.1970  0.1336  1.6659
 5048SOL    HW226781   0.417   1.730  15.770  2.9889  0.8363 -0.0946
 5049SOL     OW26782   3.461   1.056   3.727 -0.0650 -0.4016  0.1902
 5049SOL    HW126783   3.379   1.104   3.712 -0.2758  0.2371  3.3077
 5049SOL    HW226784   3.446   0.983   3.667 -0.0148  0.6770 -1.1407
 5050SOL     OW26785   1.047   1.578   7.641  0.0734 -0.1754  0.0179
 5050SOL    HW126786   1.132   1.620   7.628 -0.8016  2.8065  3.8282
 5050SOL    HW226787   1.072   1.489   7.618  1.5507 -0.1208  1.4344
 5051SOL     OW26788   2.771   3.345   1.290 -0.0165  0.5910 -0.6306
 5051SOL    HW126789   2.776   3.368   1.197 -0.2665 -1.5197 -1.1651
 5051SOL    HW226790   2.721   3.422   1.316  1.0891  1.0546  0.1023
 5052SOL     OW26791   2.376   1.935  11.801  0.3289  0.1178  0.8240
 5052SOL    HW126792   2.319   1.869  11.838 -0.4474 -0.1905 -0.9022
 5052SOL    HW226793   2.405   1.978  11.881 -0.3101 -1.3017  1.8129
 5053SOL     OW26794   3.852   0.341  16.449  0.0072 -0.2565  0.3155
 5053SOL    HW126795   3.908   0.297  16.512 -0.1515 -1.1028 -0.1343
 5053SOL    HW226796   3.911   0.388  16.391  0.8616 -2.1616 -0.3651
 5054SOL     OW26797   3.556   0.753   3.414  0.4183 -0.0621  0.3553
 5054SOL    HW126798   3.545   0.660   3.394  0.9843 -0.0421 -0.0533
 5054SOL    HW226799   3.583   0.756   3.506  0.6400  1.5076  0.2458
 5055SOL     OW26800   4.185   0.707  15.793 -0.2934 -0.3230 -0.3086
 5055SOL    HW126801   4.114   0.654  15.757 -1.5468  1.2342 -0.1328
 5055SOL    HW226802   4.167   0.789  15.746  1.7052  0.5344  0.4539
 5056SOL     OW26803   0.627   1.739   9.185 -0.0914  0.4556  0.1813
 5056SOL    HW126804   0.573   1.802   9.232 -1.5763  0.8126 -2.0159
 5056SOL    HW226805   0.655   1.685   9.260  1.1619  0.4827 -0.2606
 5057SOL     OW26806   3.520   4.003   8.108  0.9634  0.0090 -0.2041
 5057SOL    HW126807   3.453   3.934   8.113 -1.0633  2.0691  1.1682
 5057SOL    HW226808   3.512   4.028   8.015  0.6412  0.5176 -0.0441
 5058SOL     OW26809   4.610   4.390   5.927  0.0783  0.0453  0.0642
 5058SOL    HW126810   4.572   4.470   5.964  2.4643  1.3564 -0.2515
 5058SOL    HW226811   4.544   4.372   5.860 -0.5903  2.0254  0.1962
 5059SOL     OW26812   0.264   3.111   8.591 -0.1905  0.0377  0.2396
 5059SOL    HW126813   0.275   3.028   8.638  2.5605 -0.2236 -0.8455
 5059SOL    HW226814   0.311   3.092   8.510  0.3252 -0.8273  0.7417
 5060SOL     OW26815   4.599   2.427   9.776 -0.2736 -0.2757 -0.3654
 5060SOL    HW126816   4.553   2.369   9.837  2.5317  1.9144  3.7983
 5060SOL    HW226817   4.690   2.414   9.803 -0.7361 -0.9504  0.8903
 5061SOL     OW26818   2.137   0.347   4.179  0.6932 -0.3227  0.3472
 5061SOL    HW126819   2.081   0.422   4.164  0.0762 -0.5536  1.4810
 5061SOL    HW226820   2.210   0.361   4.119 -1.0477  1.4085 -1.3563
 5062SOL     OW26821   0.674   3.267   5.080 -0.3211 -0.4086 -0.5747
 5062SOL    HW126822   0.704   3.301   4.996 -0.9151  2.1469  0.2695
 5062SOL    HW226823   0.579   3.267   5.067 -0.6673  2.0947  2.0481
 5063SOL     OW26824   0.371   2.796   8.208 -0.1730 -0.0212  0.0507
 5063SOL    HW126825   0.444   2.741   8.180 -0.4688 -0.1532 -0.4733
 5063SOL    HW226826   0.375   2.777   8.302 -1.2772  1.1388  0.3339
 5064SOL     OW26827   0.827   1.310  11.059  0.0778 -0.3064  0.2235
 5064SOL    HW126828   0.864   1.328  10.973 -1.1165 -0.1011 -0.2493
 5064SOL    HW226829   0.754   1.257  11.028  0.1494 -0.0154 -0.4559
 5065SOL     OW26830   3.516   4.381  14.415  0.3627 -0.2082  0.0044
 5065SOL    HW126831   3.549   4.456  14.366  1.4205 -0.1782  0.7657
 5065SOL    HW226832   3.463   4.335  14.350 -1.1955 -1.4735  2.1576
 5066SOL     OW26833   1.923   1.602   6.995 -0.0477 -0.0255 -0.4456
 5066SOL    HW126834   1.835   1.620   6.962 -0.7095  0.7167  1.7224
 5066SOL    HW226835   1.975   1.666   6.946  1.6110 -0.9297  0.1243
 5067SOL     OW26836   3.857   1.747   1.587  0.2658  0.2189  0.9451
 5067SOL    HW126837   3.948   1.721   1.570  0.4958  1.1189  0.8093
 5067SOL    HW226838   3.848   1.745   1.682 -1.8714  0.7229  0.7413
 5068SOL     OW26839   2.503   1.733   3.459 -0.9122  0.0341 -0.2223
 5068SOL    HW126840   2.492   1.722   3.553  0.0666 -1.2845 -0.2611
 5068SOL    HW226841   2.457   1.655   3.427  0.3282 -0.5452 -0.5862
 5069SOL     OW26842   3.513   3.591   6.021 -0.6181  0.7591  0.7498
 5069SOL    HW126843   3.462   3.578   6.102 -2.3040  0.2936 -0.3724
 5069SOL    HW226844   3.593   3.636   6.048 -0.2679 -1.2511  3.0675
 5070SOL     OW26845   4.681   0.452   2.860 -0.2152 -0.1047 -0.3479
 5070SOL    HW126846   4.637   0.399   2.927  2.6358 -1.9672  0.0364
 5070SOL    HW226847   4.618   0.444   2.789 -0.4954 -0.5546 -0.0488
 5071SOL     OW26848   2.305   2.148   4.951 -0.1577  0.4552  0.4062
 5071SOL    HW126849   2.391   2.137   4.992  0.6971 -1.6030 -1.9191
 5071SOL    HW226850   2.320   2.235   4.915 -1.6264  0.2037 -0.8174
 5072SOL     OW26851   4.270   2.829  17.014  0.0156 -0.1245 -0.4892
 5072SOL    HW126852   4.275   2.734  17.003 -0.6668 -0.1257 -0.7794
 5072SOL    HW226853   4.268   2.831  17.110 -1.0495  0.8628 -0.5240
 5073SOL     OW26854   3.398   4.713   3.400 -0.0512  0.9674  0.1408
 5073SOL    HW126855   3.338   4.707   3.474  0.2971 -2.1418  0.1699
 5073SOL    HW226856   3.349   4.695   3.320  0.1388  1.5683 -0.1087
 5074SOL     OW26857   4.571   3.161   9.263 -0.3811 -0.2046  0.4904
 5074SOL    HW126858   4.486   3.198   9.288 -1.4204 -3.0264  1.1042
 5074SOL    HW226859   4.557   3.075   9.225  2.2072 -0.3744 -0.0931
 5075SOL     OW26860   1.790   2.280   0.632 -0.4783 -0.0777 -0.0478
 5075SOL    HW126861   1.844   2.356   0.655 -0.6839 -0.0198  0.2499
 5075SOL    HW226862   1.793   2.292   0.537 -1.1891 -1.3841 -0.2286
 5076SOL     OW26863   1.781   3.980  13.250 -0.1685 -0.2183  0.4987
 5076SOL    HW126864   1.751   4.067  13.225 -0.6524  0.2140  2.6255
 5076SOL    HW226865   1.754   3.918  13.181 -2.2288  2.9294 -1.4960
 5077SOL     OW26866   1.226   2.896   8.873 -0.3567  0.1803 -0.3090
 5077SOL    HW126867   1.148   2.841   8.879  0.4295 -0.9625 -0.5315
 5077SOL    HW226868   1.233   2.903   8.778 -0.4375  1.0262 -0.2589
 5078SOL     OW26869   3.538   1.995   1.000 -0.7295 -0.0412 -0.0085
 5078SOL    HW126870   3.469   1.993   1.067 -1.8633 -0.9473 -1.1874
 5078SOL    HW226871   3.561   1.903   1.011  1.0520  0.7070  2.5956
 5079SOL     OW26872   2.460   2.076   9.933  0.4178 -0.7065 -0.2256
 5079SOL    HW126873   2.526   2.018   9.972 -0.3402 -0.6255  1.1888
 5079SOL    HW226874   2.511   2.121   9.867  1.0212 -1.0750 -0.0158
 5080SOL     OW26875   1.145   4.693   5.986 -0.3055 -0.8645  0.0814
 5080SOL    HW126876   1.141   4.646   6.070 -1.2966  0.8005  0.9633
 5080SOL    HW226877   1.126   4.624   5.923 -1.7722 -0.8057  0.4568
 5081SOL     OW26878   3.504   0.630   5.802  0.4120 -0.0265  0.3500
 5081SOL    HW126879   3.589   0.610   5.840  0.4777  0.2681  0.3539
 5081SOL    HW226880   3.504   0.725   5.802  0.8387 -0.0276  0.5365
 5082SOL     OW26881   0.484   4.042  13.097 -0.3149  0.7551 -0.3426
 5082SOL    HW126882   0.456   3.982  13.029  0.1335  0.6811 -0.4562
 5082SOL    HW226883   0.444   4.008  13.177  1.5626 -3.1488 -1.1069
 5083SOL     OW26884   1.161   1.061   7.801 -0.3086  0.5337 -0.7356
 5083SOL    HW126885   1.247   1.097   7.779 -0.9821  0.3359 -3.6639
 5083SOL    HW226886   1.185   0.993   7.864  0.3587  2.3178  0.9671
 5084SOL     OW26887   0.479   0.842   1.232 -0.4456  0.8827 -0.0646
 5084SOL    HW126888   0.497   0.895   1.309  0.4490  0.4477  0.0275
 5084SOL    HW226889   0.383   0.844   1.229 -0.4285  1.1477 -0.4895
 5085SOL     OW26890   3.155   0.351   5.098 -0.2786  0.0414  0.4969
 5085SOL    HW126891   3.221   0.288   5.068 -0.9740 -1.1239  1.4125
 5085SOL    HW226892   3.160   0.416   5.028  1.8120 -1.4711 -0.7888
 5086SOL     OW26893   0.314   0.034   2.496  0.1508 -0.2717 -0.2224
 5086SOL    HW126894   0.266   0.115   2.512 -0.1234 -0.7687  1.5375
 5086SOL    HW226895   0.348   0.062   2.411 -1.1544  1.9437 -0.0033
 5087SOL     OW26896   2.792   1.429   8.118  0.3227 -0.1563  0.2125
 5087SOL    HW126897   2.837   1.512   8.138  1.8761 -1.3661  1.7042
 5087SOL    HW226898   2.714   1.458   8.072 -0.2669 -0.6454  0.9046
 5088SOL     OW26899   1.775   1.692  13.386  0.2450  0.0220  0.3344
 5088SOL    HW126900   1.716   1.633  13.432 -1.5538  0.2097 -1.7383
 5088SOL    HW226901   1.712   1.706  13.315  1.8656 -0.8196 -1.2856
 5089SOL     OW26902   0.749   1.215   7.249  0.1305 -0.4347  0.1279
 5089SOL    HW126903   0.753   1.120   7.255  1.3622 -0.1674  3.9482
 5089SOL    HW226904   0.767   1.249   7.337  1.9007 -1.1184  0.0406
 5090SOL     OW26905   1.475   3.448   9.635  0.3138  0.1863  0.0575
 5090SOL    HW126906   1.516   3.531   9.658  1.8949 -0.6470  0.2399
 5090SOL    HW226907   1.550   3.398   9.603 -1.4929 -1.9367 -0.8578
 5091SOL     OW26908   0.795   1.227   5.130 -0.4275 -0.1707 -0.4193
 5091SOL    HW126909   0.716   1.177   5.150 -0.7106  0.2645 -0.4723
 5091SOL    HW226910   0.779   1.240   5.037  0.9142  1.7609 -0.3897
 5092SOL     OW26911   1.922   2.006   4.676 -0.0174 -0.2454  0.4563
 5092SOL    HW126912   1.987   1.992   4.745 -0.4165 -0.2681  0.8289
 5092SOL    HW226913   1.887   2.094   4.690 -2.6304 -0.7989 -2.6453
 5093SOL     OW26914   1.382   0.665  17.110  0.1094 -0.8940  0.0174
 5093SOL    HW126915   1.316   0.608  17.071  0.0569 -0.2371 -0.8486
 5093SOL    HW226916   1.342   0.704  17.188  0.8040 -0.7805  0.3231
 5094SOL     OW26917   4.509   1.187   3.259  0.3387 -0.4718 -0.2286
 5094SOL    HW126918   4.430   1.135   3.245  0.1921 -0.3355  0.0849
 5094SOL    HW226919   4.530   1.194   3.166  0.4871 -0.3569 -0.1866
 5095SOL     OW26920   0.503   1.776   2.541  0.3893 -0.6563 -0.9568
 5095SOL    HW126921   0.503   1.851   2.482 -3.5145  1.3554  1.6102
 5095SOL    HW226922   0.522   1.707   2.477 -0.7674 -1.5250 -0.3668
 5096SOL     OW26923   3.907   2.575   9.743  0.2935  0.3250  0.9022
 5096SOL    HW126924   3.887   2.587   9.650 -0.7262  1.0373  1.2107
 5096SOL    HW226925   3.821   2.601   9.777  0.2138 -0.9466  1.6725
 5097SOL     OW26926   0.199   2.044  10.490  0.0502  0.5029 -0.3460
 5097SOL    HW126927   0.290   2.040  10.518 -0.7114  0.3823  2.0441
 5097SOL    HW226928   0.153   2.047  10.574 -0.5650  1.0749 -0.6993
 5098SOL     OW26929   1.251   1.884   4.790  0.4497  0.4798 -0.1578
 5098SOL    HW126930   1.158   1.872   4.774 -0.0666  0.1807  3.0937
 5098SOL    HW226931   1.257   1.832   4.870 -1.8996  2.7718  1.4869
 5099SOL     OW26932   0.502   2.649   6.172 -0.2625  0.0391 -0.2346
 5099SOL    HW126933   0.562   2.637   6.245  0.6756  1.1455 -0.8254
 5099SOL    HW226934   0.416   2.628   6.209 -0.8531  1.5956 -0.7249
 5100SOL     OW26935   4.097   1.773   3.277 -0.2371  0.4926  0.0450
 5100SOL    HW126936   4.141   1.799   3.357  1.2915 -1.0436 -0.2801
 5100SOL    HW226937   4.167   1.734   3.225 -0.2197 -0.0528  0.4728
 5101SOL     OW26938   4.364   2.478   0.088  0.5490 -0.0458  0.2725
 5101SOL    HW126939   4.353   2.550   0.027 -4.3521 -1.3630 -0.4525
 5101SOL    HW226940   4.300   2.498   0.157  2.2857 -0.5663  2.0313
 5102SOL     OW26941   0.129   2.022  10.743 -0.2610 -0.5411 -0.0442
 5102SOL    HW126942   0.148   1.972  10.823  1.5134  2.6668  1.5658
 5102SOL    HW226943   0.034   2.027  10.752 -0.0659 -0.3440  2.0419
 5103SOL     OW26944   3.658   2.042   3.631  0.2328 -0.4074 -0.1153
 5103SOL    HW126945   3.634   1.974   3.568  0.2010  1.6633 -2.3558
 5103SOL    HW226946   3.678   2.107   3.564  2.4800 -3.7693 -2.7045
 5104SOL     OW26947   1.638   0.905   9.660 -0.0650 -0.6681  0.1812
 5104SOL    HW126948   1.553   0.928   9.697  0.5455  2.5342 -0.4204
 5104SOL    HW226949   1.662   0.985   9.614 -0.4269 -0.7637 -0.1864
 5105SOL     OW26950   3.638   0.320  13.013 -0.2996 -0.3899  0.0791
 5105SOL    HW126951   3.653   0.264  12.937  2.9641  0.9750 -0.3075
 5105SOL    HW226952   3.704   0.285  13.073 -0.8676  0.4270  1.1793
 5106SOL     OW26953   1.425   4.460   1.971  0.0963 -0.7035  0.8077
 5106SOL    HW126954   1.450   4.480   1.881 -2.2898  0.2538  0.3481
 5106SOL    HW226955   1.392   4.543   2.005  1.2993  0.0563  0.0877
 5107SOL     OW26956   3.565   1.093  14.723  0.2647 -0.0220  1.0372
 5107SOL    HW126957   3.609   1.025  14.774 -0.0658  0.5592  2.1002
 5107SOL    HW226958   3.619   1.103  14.645 -0.7993  1.5388  0.5084
 5108SOL     OW26959   0.897   0.310  14.853 -0.2632 -0.1952 -0.0130
 5108SOL    HW126960   0.819   0.362  14.834 -1.4933 -2.2562 -0.6479
 5108SOL    HW226961   0.896   0.298  14.948  0.6152  1.8118  0.2480
 5109SOL     OW26962   4.077   3.431  13.423  0.4190  0.1980 -0.3484
 5109SOL    HW126963   4.145   3.445  13.356 -0.5890 -0.9275 -1.5939
 5109SOL    HW226964   4.125   3.456  13.502 -0.1627  3.6684 -1.0701
 5110SOL     OW26965   1.369   0.211   5.777 -0.2622 -0.7277 -0.2067
 5110SOL    HW126966   1.381   0.161   5.858  0.0875 -1.3425 -0.6446
 5110SOL    HW226967   1.441   0.273   5.789  0.2807 -1.7026  1.6040
 5111SOL     OW26968   1.030   1.760  10.309  0.2632  0.0893  0.8595
 5111SOL    HW126969   0.979   1.727  10.383 -0.3945  1.8146  1.1901
 5111SOL    HW226970   0.983   1.844  10.312 -1.9673 -1.1258 -0.3484
 5112SOL     OW26971   2.792   4.036   7.388 -0.2140  0.1767 -0.0160
 5112SOL    HW126972   2.752   3.990   7.461 -0.5101 -0.5502 -0.6291
 5112SOL    HW226973   2.882   4.045   7.419  0.5814 -2.1110 -1.6751
 5113SOL     OW26974   3.443   1.829   5.705 -0.2238  0.6380  0.4527
 5113SOL    HW126975   3.396   1.768   5.649  0.2876  2.3613 -1.8529
 5113SOL    HW226976   3.521   1.780   5.729  1.6929  4.5225  2.1911
 5114SOL     OW26977   0.796   2.881   1.182  0.2174  0.2116 -0.1540
 5114SOL    HW126978   0.702   2.866   1.185  0.5129 -1.0280  2.9908
 5114SOL    HW226979   0.816   2.914   1.094  0.9501  3.7856  1.3611
 5115SOL     OW26980   2.243   3.639   2.522  0.2348  0.3622 -0.6270
 5115SOL    HW126981   2.149   3.642   2.539  0.3793  2.3113 -0.1230
 5115SOL    HW226982   2.263   3.550   2.494  1.4462  0.8389 -1.2401
 5116SOL     OW26983   4.650   1.058   5.779 -0.8303  0.1250  0.1497
 5116SOL    HW126984   4.575   1.044   5.721 -1.3691  0.3817  0.7919
 5116SOL    HW226985   4.618   1.018   5.860 -1.3459  0.0033 -0.1139
 5117SOL     OW26986   1.216   1.316   2.855 -0.0109 -0.7757 -0.2470
 5117SOL    HW126987   1.219   1.257   2.930 -4.3480 -2.8144 -1.6997
 5117SOL    HW226988   1.127   1.352   2.856  0.9508  1.5629  1.0024
 5118SOL     OW26989   3.617   2.519  11.193  0.0058  0.1668  1.2205
 5118SOL    HW126990   3.684   2.568  11.241 -0.6083  0.6543  1.5972
 5118SOL    HW226991   3.624   2.429  11.223  0.8777 -0.0093  0.4736
 5119SOL     OW26992   2.442   0.820  16.387  0.0089  0.1061  0.1950
 5119SOL    HW126993   2.431   0.823  16.482  0.8787  1.1762  0.2731
 5119SOL    HW226994   2.448   0.911  16.358 -1.1201  0.0255 -0.2736
 5120SOL     OW26995   2.003   0.091   3.461  0.4141 -0.0447  0.3516
 5120SOL    HW126996   2.025   0.184   3.466 -0.9945  0.3434 -0.6380
 5120SOL    HW226997   2.007   0.084   3.366  1.0586  0.2751  0.3578
 5121SOL     OW26998   3.582   2.590   3.360 -0.1659 -0.2488  0.3381
 5121SOL    HW126999   3.667   2.546   3.356 -0.3999 -0.6765  0.0317
 5121SOL    HW227000   3.586   2.622   3.270 -2.3201  2.5529  1.2539
 5122SOL     OW27001   2.766   0.872  11.803 -0.2853  1.0534 -0.3771
 5122SOL    HW127002   2.802   0.901  11.887 -1.8420  0.9764  0.3260
 5122SOL    HW227003   2.734   0.784  11.822 -0.6046  0.3088 -4.4646
 5123SOL     OW27004   2.405   1.970  17.737  0.3865  0.1811  0.7993
 5123SOL    HW127005   2.476   2.027   0.020  0.8009 -0.6461  1.3640
 5123SOL    HW227006   2.359   1.974   0.073 -0.0826  2.3888  0.4438
 5124SOL     OW27007   2.827   0.787   6.905  0.4063 -0.6980 -0.5428
 5124SOL    HW127008   2.781   0.769   6.987 -1.5430 -1.6394 -1.8263
 5124SOL    HW227009   2.912   0.809   6.944  0.4244  0.3927 -1.2073
 5125SOL     OW27010   1.995   2.175   6.602 -0.1626 -0.9409 -0.2229
 5125SOL    HW127011   1.974   2.134   6.518  0.4980 -0.0167 -0.8348
 5125SOL    HW227012   2.036   2.100   6.647  0.6168 -0.1283  0.4127
 5126SOL     OW27013   2.412   0.870   2.540 -0.1070 -0.2743 -0.0184
 5126SOL    HW127014   2.402   0.948   2.485 -0.4215 -0.3080 -0.0094
 5126SOL    HW227015   2.328   0.852   2.582 -0.4816 -1.0415 -1.0897
 5127SOL     OW27016   2.208   2.267  17.443 -0.0292  0.0567 -0.0142
 5127SOL    HW127017   2.194   2.344  17.389 -0.2012  1.3439  1.8631
 5127SOL    HW227018   2.124   2.221  17.439  0.1627 -0.3894  1.0120
 5128SOL     OW27019   0.331   0.882   2.693  0.1529 -0.5126  0.6441
 5128SOL    HW127020   0.363   0.950   2.751  1.1779 -0.9278  0.5582
 5128SOL    HW227021   0.341   0.924   2.608  0.7050  1.6510  1.7900
 5129SOL     OW27022   4.517   0.246   6.447 -0.4207  0.3392  0.0067
 5129SOL    HW127023   4.564   0.327   6.469 -2.5081  1.9707 -1.5558
 5129SOL    HW227024   4.430   0.285   6.448  0.1571  1.6529 -0.5285
 5130SOL     OW27025   2.582   4.295   8.393  0.2738  0.0205 -0.0377
 5130SOL    HW127026   2.515   4.359   8.419 -1.6028 -1.6999 -0.6254
 5130SOL    HW227027   2.532   4.220   8.360  1.0210  0.3705 -1.9936
 5131SOL     OW27028   2.254   2.671  16.761 -0.7806  0.1673  0.1995
 5131SOL    HW127029   2.327   2.681  16.700  0.3386  0.2652  1.5468
 5131SOL    HW227030   2.195   2.738  16.727 -0.5176 -0.0050 -0.6018
 5132SOL     OW27031   1.662   2.219   8.568 -0.0061  0.4905  0.0470
 5132SOL    HW127032   1.751   2.237   8.538  0.2420 -1.7196 -0.5062
 5132SOL    HW227033   1.669   2.257   8.656  2.3461 -0.0550  0.0964
 5133SOL     OW27034   2.262   3.371   2.452 -0.0677 -0.0067  0.3162
 5133SOL    HW127035   2.264   3.304   2.520  1.4796 -0.2745 -0.0054
 5133SOL    HW227036   2.166   3.376   2.446 -0.3833 -0.8065  4.5523
 5134SOL     OW27037   1.777   4.227  10.688  0.6946  0.1989 -0.4050
 5134SOL    HW127038   1.775   4.143  10.733 -2.1073  0.9826  0.8999
 5134SOL    HW227039   1.779   4.202  10.595  0.2770  0.4540 -0.4830
 5135SOL     OW27040   2.294   1.471  10.449 -0.1832 -0.0889 -0.1446
 5135SOL    HW127041   2.290   1.548  10.392  0.8531 -0.1718 -0.3294
 5135SOL    HW227042   2.296   1.398  10.386 -0.0679 -0.2941  0.0982
 5136SOL     OW27043   0.975   1.133   4.683 -0.0261  0.3600 -0.4925
 5136SOL    HW127044   0.919   1.165   4.611 -1.4768  0.7916  0.8202
 5136SOL    HW227045   0.936   1.056   4.724  1.2353 -0.6638 -1.2408
 5137SOL     OW27046   3.239   1.553   2.606  0.4715  0.2308  0.2680
 5137SOL    HW127047   3.253   1.644   2.578 -0.5473  0.0032 -0.9582
 5137SOL    HW227048   3.152   1.556   2.646  0.4290 -1.4632  0.2733
 5138SOL     OW27049   1.997   1.480   8.204  0.0247  0.1307 -0.3091
 5138SOL    HW127050   1.906   1.453   8.217  0.6819 -0.0270  3.7296
 5138SOL    HW227051   1.992   1.559   8.259 -1.3303 -0.5124  0.4951
 5139SOL     OW27052   2.702   2.816   4.681  0.6067  0.2515  0.3377
 5139SOL    HW127053   2.748   2.733   4.664 -0.3366  0.1366 -1.6845
 5139SOL    HW227054   2.645   2.783   4.751  1.1129 -0.9878  0.1781
 5140SOL     OW27055   2.901   4.530   5.230  0.1041  0.1811 -0.1090
 5140SOL    HW127056   2.859   4.616   5.229  0.0277  0.1569  0.5432
 5140SOL    HW227057   2.988   4.554   5.199  0.4656  3.1543  3.1538
 5141SOL     OW27058   2.602   3.859   3.183  0.6025  0.2935  0.0120
 5141SOL    HW127059   2.551   3.809   3.247  0.0388  0.3113 -0.4234
 5141SOL    HW227060   2.539   3.843   3.113  0.2851 -2.1732  0.8698
 5142SOL     OW27061   0.052   0.563   9.229  0.9293 -0.1457  0.1194
 5142SOL    HW127062   4.733   0.490   9.255  1.3059 -1.0867 -1.7087
 5142SOL    HW227063   0.137   0.521   9.244  1.9898  1.4557 -1.5476
 5143SOL     OW27064   2.953   1.649  14.319  0.1186  0.0742 -0.0775
 5143SOL    HW127065   2.881   1.694  14.276 -0.7979  0.7916  2.2557
 5143SOL    HW227066   2.909   1.565  14.332  0.0482  0.5482  2.8307
 5144SOL     OW27067   3.839   1.480  16.875  0.4308 -0.6518  0.2657
 5144SOL    HW127068   3.767   1.486  16.813  2.1110 -1.2707 -1.7620
 5144SOL    HW227069   3.920   1.478  16.823 -0.1414 -0.4442 -0.6205
 5145SOL     OW27070   1.910   0.439   4.433  0.2709  0.4200  0.1851
 5145SOL    HW127071   1.987   0.484   4.469  0.5146  0.1896 -0.0407
 5145SOL    HW227072   1.845   0.508   4.422  0.5220  0.6122 -0.0954
 5146SOL     OW27073   2.495   3.679   4.677  0.5617 -0.3838  0.4395
 5146SOL    HW127074   2.465   3.636   4.597 -0.7120  1.6739 -0.2017
 5146SOL    HW227075   2.576   3.630   4.690  0.4969 -1.0085 -1.5873
 5147SOL     OW27076   0.041   2.359   2.351 -0.1444  0.8016  0.2805
 5147SOL    HW127077   4.683   2.368   2.352 -0.3359 -1.3144  1.7999
 5147SOL    HW227078   0.056   2.452   2.368  0.5041  0.9613 -1.2280
 5148SOL     OW27079   3.218   0.896  13.408  0.0223  0.4729  0.4654
 5148SOL    HW127080   3.233   0.803  13.421 -0.4200  0.3493  0.0984
 5148SOL    HW227081   3.299   0.918  13.363 -0.1439  1.7097  0.7523
 5149SOL     OW27082   1.564   2.435   8.978  0.0630  0.3059 -0.5769
 5149SOL    HW127083   1.474   2.467   8.971  0.0949  0.5915  0.2022
 5149SOL    HW227084   1.580   2.448   9.072  0.9937  0.8610 -0.8046
 5150SOL     OW27085   0.249   0.375  12.022  0.6895 -0.5161 -0.6693
 5150SOL    HW127086   0.206   0.443  11.971  0.8023  0.1267  0.0930
 5150SOL    HW227087   0.271   0.416  12.106  0.9352  0.8793 -1.4166
 5151SOL     OW27088   2.285   0.978   2.210 -0.2327  0.5279 -0.2560
 5151SOL    HW127089   2.355   0.963   2.146 -0.0483  0.3574 -0.0179
 5151SOL    HW227090   2.218   1.012   2.151 -0.8456 -0.1189  0.0607
 5152SOL     OW27091   3.279   4.711   8.622 -0.0552 -0.3267  0.2929
 5152SOL    HW127092   3.226   4.634   8.601  1.4782 -0.9858 -1.1210
 5152SOL    HW227093   3.365   4.690   8.585 -0.4712 -0.9640 -0.3038
 5153SOL     OW27094   4.452   2.229   3.783  0.1870 -0.4068  0.5738
 5153SOL    HW127095   4.455   2.151   3.728 -0.5772  0.3263 -0.5022
 5153SOL    HW227096   4.432   2.204   3.873  2.1959 -3.0353  0.2945
 5154SOL     OW27097   4.541   1.840   6.105 -0.5043  0.1006  0.7368
 5154SOL    HW127098   4.529   1.746   6.088  1.1480 -0.1784  1.1535
 5154SOL    HW227099   4.564   1.871   6.018 -0.9977 -2.2043 -0.2388
 5155SOL     OW27100   1.067   2.932  11.389  0.3155  0.6368  0.3701
 5155SOL    HW127101   1.135   2.999  11.382  0.7276  0.2049  0.2933
 5155SOL    HW227102   0.990   2.979  11.356 -0.0728  1.0569  1.8727
 5156SOL     OW27103   0.335   3.854   3.668  0.4774  0.7171 -0.3619
 5156SOL    HW127104   0.415   3.815   3.703  1.4224  1.7823 -1.3472
 5156SOL    HW227105   0.365   3.874   3.579  0.0564 -0.1060 -0.6883
 5157SOL     OW27106   0.423   0.468   1.174 -0.4277  0.3898  0.0586
 5157SOL    HW127107   0.476   0.548   1.175  0.9909 -0.5529 -0.9852
 5157SOL    HW227108   0.469   0.402   1.123  2.3151  1.6066  0.9435
 5158SOL     OW27109   3.200   4.536   3.847  0.2415 -0.1115 -0.5367
 5158SOL    HW127110   3.272   4.599   3.849  1.9523 -2.0916  0.3452
 5158SOL    HW227111   3.156   4.562   3.766 -0.6700 -2.4174 -0.8090
 5159SOL     OW27112   0.779   4.113  12.016 -0.2264 -0.2208 -0.0154
 5159SOL    HW127113   0.833   4.043  11.979 -2.5424 -1.2149 -1.4713
 5159SOL    HW227114   0.806   4.195  11.974 -3.3593  1.8768  2.0109
 5160SOL     OW27115   0.776   0.074  13.939 -0.1123  0.5567 -0.6307
 5160SOL    HW127116   0.820   0.011  13.882  0.4759 -0.5891  1.0791
 5160SOL    HW227117   0.843   0.091  14.005  0.2137 -1.0991 -0.5343
 5161SOL     OW27118   1.864   4.520   5.989 -0.3134  0.2977 -1.1243
 5161SOL    HW127119   1.927   4.451   5.967 -1.2314 -0.7941 -0.3472
 5161SOL    HW227120   1.911   4.594   5.951 -0.8476  0.1188 -2.1359
 5162SOL     OW27121   0.635   3.065   4.263  0.0177 -0.1480 -0.1380
 5162SOL    HW127122   0.696   3.015   4.209  0.1761  1.7922 -1.7581
 5162SOL    HW227123   0.655   3.022   4.346  0.4679 -0.3463 -0.3503
 5163SOL     OW27124   4.592   0.352   5.746  0.3975  0.2775 -0.7967
 5163SOL    HW127125   4.681   0.384   5.732  0.5190 -0.9407 -2.9417
 5163SOL    HW227126   4.545   0.424   5.703 -3.2867 -1.7806 -0.1898
 5164SOL     OW27127   3.842   3.752  10.027  0.4302 -0.5042  0.0955
 5164SOL    HW127128   3.914   3.789   9.976  1.1636 -1.5472  0.4009
 5164SOL    HW227129   3.845   3.662   9.994  1.6318 -0.0976 -0.9128
 5165SOL     OW27130   4.405   0.151  14.486 -0.0765  0.5433  0.2026
 5165SOL    HW127131   4.345   0.166  14.560  0.6329 -0.9510  1.0829
 5165SOL    HW227132   4.375   0.063  14.464 -0.0132  0.7878 -0.8208
 5166SOL     OW27133   4.350   0.591  10.505 -0.3826 -0.1345  0.4986
 5166SOL    HW127134   4.304   0.661  10.460 -0.6077 -0.2940  0.4814
 5166SOL    HW227135   4.286   0.521  10.518  0.0147 -0.4269  0.8937
 5167SOL     OW27136   0.279   4.151   1.691  0.2762  0.3069 -0.0383
 5167SOL    HW127137   0.352   4.183   1.638  1.5170  0.7952  1.9860
 5167SOL    HW227138   0.274   4.216   1.761 -0.9815 -1.5023  1.5398
 5168SOL     OW27139   3.223   1.750  16.638 -0.2490  0.0190 -0.1181
 5168SOL    HW127140   3.250   1.716  16.553  0.4988  0.3046 -0.0013
 5168SOL    HW227141   3.308   1.738  16.681  1.2246 -0.0723 -3.0446
 5169SOL     OW27142   1.580   2.857   0.627  0.3870 -0.6255 -0.3532
 5169SOL    HW127143   1.602   2.816   0.711  0.4405  0.5603  0.2193
 5169SOL    HW227144   1.598   2.781   0.572  1.3590  0.1149 -1.0421
 5170SOL     OW27145   3.100   2.980  15.894  0.4174 -0.1726  0.2198
 5170SOL    HW127146   3.008   2.952  15.898  0.2159  0.6101  1.0156
 5170SOL    HW227147   3.106   3.047  15.961 -0.9898  1.2448 -1.0765
 5171SOL     OW27148   0.945   0.794   4.660  0.2546  0.2438 -0.1641
 5171SOL    HW127149   0.992   0.846   4.595  0.1246 -3.6990 -3.3829
 5171SOL    HW227150   0.861   0.790   4.614 -0.7977  0.0278  1.7718
 5172SOL     OW27151   1.730   1.143   2.219  0.0199  0.1689  0.8335
 5172SOL    HW127152   1.795   1.155   2.150 -0.9779  2.2537  0.2663
 5172SOL    HW227153   1.783   1.110   2.291 -1.4484 -1.6313  1.0929
 5173SOL     OW27154   3.489   1.287   6.109 -0.0908 -0.1867 -0.2427
 5173SOL    HW127155   3.572   1.253   6.076  0.0138 -0.4318  0.2647
 5173SOL    HW227156   3.451   1.209   6.149  2.6883 -0.5583  1.6705
 5174SOL     OW27157   3.377   1.207  11.906 -0.9304  0.0012  0.1086
 5174SOL    HW127158   3.306   1.144  11.891 -0.6153 -0.4349  0.4432
 5174SOL    HW227159   3.351   1.261  11.980 -0.7910 -0.8722  0.8017
 5175SOL     OW27160   3.374   0.941   8.205 -0.2639  0.2095 -0.8137
 5175SOL    HW127161   3.281   0.928   8.226 -0.0989 -0.2674 -0.3715
 5175SOL    HW227162   3.415   0.863   8.243 -2.0676 -0.9089 -1.1660
 5176SOL     OW27163   1.340   0.049  16.747  0.4530  0.2948  0.0067
 5176SOL    HW127164   1.334   0.065  16.652 -3.0877 -2.1776 -0.1924
 5176SOL    HW227165   1.260   4.735  16.758  0.2150  0.4329 -1.0038
 5177SOL     OW27166   1.435   0.553   4.545  0.0321 -0.2226  0.4855
 5177SOL    HW127167   1.486   0.633   4.556  0.9755 -0.5666 -1.3098
 5177SOL    HW227168   1.404   0.567   4.455  1.5607  1.1579  0.1742
 5178SOL     OW27169   0.550   2.987   9.337  0.1590 -0.1080  0.3938
 5178SOL    HW127170   0.585   2.905   9.371  2.2401  0.1127 -1.1388
 5178SOL    HW227171   0.468   2.990   9.386 -0.2998 -1.9555 -0.2593
 5179SOL     OW27172   3.361   2.563  15.711  0.0825  0.3344 -0.0439
 5179SOL    HW127173   3.434   2.623  15.726 -0.3708  0.8582  0.0642
 5179SOL    HW227174   3.400   2.488  15.757  1.8880  1.1144 -0.2836
 5180SOL     OW27175   0.910   4.597   6.912 -0.7528  0.0774 -0.1003
 5180SOL    HW127176   0.970   4.615   6.985 -0.7743 -0.7487  0.1171
 5180SOL    HW227177   0.879   4.681   6.877  1.3306  1.3959  1.2298
 5181SOL     OW27178   4.403   3.553  13.024  0.2856  0.0194  0.2750
 5181SOL    HW127179   4.396   3.591  12.936 -1.9834 -1.9927 -0.3828
 5181SOL    HW227180   4.474   3.607  13.060 -0.2800  0.0013  1.4133
 5182SOL     OW27181   0.908   2.818   4.580 -0.1725 -0.2756  0.3776
 5182SOL    HW127182   1.002   2.799   4.585 -0.2206  0.1298  3.0985
 5182SOL    HW227183   0.889   2.844   4.671  0.0867  2.1911 -0.2556
 5183SOL     OW27184   0.529   2.380  15.576  0.3102  0.5871 -0.0242
 5183SOL    HW127185   0.439   2.367  15.609  0.5569  0.4553  0.6070
 5183SOL    HW227186   0.526   2.418  15.489  1.3999  1.3924  0.2946
 5184SOL     OW27187   0.287   2.132  16.523 -0.6426 -0.1307  0.4321
 5184SOL    HW127188   0.346   2.178  16.463  2.0155 -1.5321  1.9582
 5184SOL    HW227189   0.353   2.089  16.578 -1.2419  0.5991  1.7060
 5185SOL     OW27190   4.034   2.540   4.167  0.0127 -0.1153  0.0032
 5185SOL    HW127191   4.073   2.621   4.199 -0.6711  0.5049 -0.7231
 5185SOL    HW227192   4.094   2.513   4.098  1.3634 -1.6432  1.7775
 5186SOL     OW27193   2.964   0.172   7.676 -0.0778 -0.3152 -1.2939
 5186SOL    HW127194   3.041   0.137   7.721  0.7167 -1.6204 -3.6718
 5186SOL    HW227195   2.944   0.109   7.606 -1.6767 -0.8657 -0.3531
 5187SOL     OW27196   0.311   4.051   0.127 -0.0401 -0.3625 -0.1597
 5187SOL    HW127197   0.307   4.114   0.199 -0.4733  1.1659 -1.5391
 5187SOL    HW227198   0.319   3.973   0.182 -2.2232 -0.7493 -0.3704
 5188SOL     OW27199   2.875   0.826   1.911 -0.2302 -0.1664 -0.0326
 5188SOL    HW127200   2.890   0.734   1.889 -0.6251 -0.1392 -0.4237
 5188SOL    HW227201   2.815   0.848   1.839  2.2848 -0.9706 -2.3749
 5189SOL     OW27202   2.913   0.132   8.462  0.2753 -0.4777  0.1810
 5189SOL    HW127203   2.865   0.049   8.472 -0.3791  0.0949  1.7244
 5189SOL    HW227204   2.850   0.204   8.469  0.2374 -0.1776 -3.2080
 5190SOL     OW27205   2.196   3.405  12.606 -0.3287  0.3561  0.1443
 5190SOL    HW127206   2.139   3.329  12.606 -0.7368  0.6809 -1.5821
 5190SOL    HW227207   2.233   3.389  12.519 -1.8661 -2.4858  0.0264
 5191SOL     OW27208   0.328   4.492   7.102  0.0966 -0.5228  0.8167
 5191SOL    HW127209   0.408   4.530   7.066 -0.4683  0.0759  0.1784
 5191SOL    HW227210   0.363   4.442   7.176 -0.4279  0.0666  1.4638
 5192SOL     OW27211   3.803   2.135  12.902  0.6251  0.6209  0.4168
 5192SOL    HW127212   3.819   2.229  12.891  1.1119  0.1268 -3.1939
 5192SOL    HW227213   3.882   2.101  12.944  1.9455 -0.9030 -3.2867
 5193SOL     OW27214   1.293   3.313   6.241  0.2270 -0.1311  0.1611
 5193SOL    HW127215   1.283   3.259   6.163  0.0539 -0.8682  0.6957
 5193SOL    HW227216   1.218   3.372   6.231  0.2437  0.0210  0.9311
 5194SOL     OW27217   3.858   1.815   8.750  0.1174  0.2317  0.5817
 5194SOL    HW127218   3.857   1.721   8.769  1.5126 -0.0107 -0.6260
 5194SOL    HW227219   3.912   1.816   8.672 -0.0879 -1.4505  0.4259
 5195SOL     OW27220   4.419   2.215  17.034  0.3750 -0.2744  0.6050
 5195SOL    HW127221   4.500   2.217  16.984 -0.0119 -1.3989 -0.0907
 5195SOL    HW227222   4.362   2.208  16.957 -0.4258  0.7077  1.1168
 5196SOL     OW27223   1.373   3.362   3.528  0.1732 -0.0227  0.6492
 5196SOL    HW127224   1.422   3.338   3.606  0.1454 -2.3947 -0.0627
 5196SOL    HW227225   1.349   3.451   3.554  0.4041  0.2043  0.0974
 5197SOL     OW27226   3.714   0.925  13.533  0.2345  0.2384 -0.1363
 5197SOL    HW127227   3.766   0.929  13.453 -0.6538 -0.2436 -0.7373
 5197SOL    HW227228   3.746   0.996  13.588 -1.6983 -0.0379  1.3552
 5198SOL     OW27229   3.962   2.709   6.479 -0.1144 -0.1212  0.2362
 5198SOL    HW127230   3.966   2.712   6.383 -1.3423  0.7686  0.2214
 5198SOL    HW227231   3.953   2.801   6.502 -2.3889 -0.3560  0.2895
 5199SOL     OW27232   0.363   4.561  11.311  0.9688  0.2385 -0.1696
 5199SOL    HW127233   0.448   4.518  11.304  1.0920  0.5304 -0.4537
 5199SOL    HW227234   0.343   4.565  11.404 -1.1965  2.2189 -0.7310
 5200SOL     OW27235   0.788   2.519   8.374 -0.3573  0.4297 -0.7965
 5200SOL    HW127236   0.722   2.545   8.439  0.2543 -3.7447  1.4990
 5200SOL    HW227237   0.867   2.550   8.418 -1.7263 -0.7707  2.5310
 5201SOL     OW27238   1.038   0.785   3.403 -0.3894 -0.8988  0.1803
 5201SOL    HW127239   1.132   0.795   3.390 -0.1429 -1.0137  1.8219
 5201SOL    HW227240   1.040   0.800   3.498  2.9076 -2.5041  0.3817
 5202SOL     OW27241   3.816   2.514   8.671  0.0745  0.5360 -0.0747
 5202SOL    HW127242   3.804   2.422   8.648 -2.0241 -0.1661  3.8647
 5202SOL    HW227243   3.797   2.515   8.765  1.0553 -0.1507  0.1373
 5203SOL     OW27244   4.228   0.127  14.719 -0.1755  0.0042 -0.0929
 5203SOL    HW127245   4.247   0.188  14.790  0.4228 -0.0357 -0.2208
 5203SOL    HW227246   4.247   0.047  14.769 -0.0502  1.7932  2.7165
 5204SOL     OW27247   3.503   1.130  11.488 -0.6068 -0.2749  0.4703
 5204SOL    HW127248   3.581   1.076  11.479 -0.0212  0.5319  0.6807
 5204SOL    HW227249   3.511   1.151  11.581  2.0630  1.3981 -0.1456
 5205SOL     OW27250   4.474   1.971   5.173  0.0531 -0.3130 -0.0301
 5205SOL    HW127251   4.497   2.022   5.251 -2.5438 -0.5634  0.8997
 5205SOL    HW227252   4.438   2.038   5.116 -2.3209  0.7314  2.6748
 5206SOL     OW27253   2.438   0.885   6.311 -0.5356  0.3859  0.3561
 5206SOL    HW127254   2.486   0.951   6.262  0.5037  0.9771  2.1770
 5206SOL    HW227255   2.349   0.920   6.313 -1.7517 -2.6424 -1.1649
 5207SOL     OW27256   0.610   3.011   7.994 -0.2399 -0.4852  0.5941
 5207SOL    HW127257   0.614   2.954   8.071 -0.7629  0.6400  1.4661
 5207SOL    HW227258   0.515   3.019   7.990 -0.0833  0.5207 -0.7544
 5208SOL     OW27259   4.279   4.617  11.163 -0.1725  0.0549  0.1608
 5208SOL    HW127260   4.228   4.684  11.118 -2.1888 -1.4125  0.2904
 5208SOL    HW227261   4.228   4.537  11.158  0.5128 -0.2830 -1.2980
 5209SOL     OW27262   1.903   1.538  14.568  0.4407  0.8065  0.1927
 5209SOL    HW127263   1.835   1.503  14.509  1.1613  1.1577 -0.8501
 5209SOL    HW227264   1.857   1.596  14.629  1.3914 -0.0017  1.6757
 5210SOL     OW27265   4.651   3.178  16.219  0.4793 -0.0562  0.2505
 5210SOL    HW127266   4.729   3.208  16.171  1.1485 -1.3115  0.5658
 5210SOL    HW227267   4.656   3.232  16.298 -2.2588  1.6404 -0.7432
 5211SOL     OW27268   0.089   0.775   5.857 -0.4277 -0.1552 -0.0244
 5211SOL    HW127269   0.111   0.847   5.916 -1.0323 -2.0189  2.4336
 5211SOL    HW227270   0.134   0.698   5.891  0.0934  0.0955 -0.1528
 5212SOL     OW27271   3.851   2.110   5.323 -0.3184  0.5954  0.1925
 5212SOL    HW127272   3.888   2.081   5.406 -1.2329 -2.2060 -0.3747
 5212SOL    HW227273   3.918   2.074   5.265  0.3603  0.5264  1.0236
 5213SOL     OW27274   3.348   1.099   4.379  0.4401  0.1179  0.0695
 5213SOL    HW127275   3.384   1.087   4.467  1.9623  0.5362 -0.4976
 5213SOL    HW227276   3.261   1.060   4.382 -0.1037  1.2107 -1.0801
 5214SOL     OW27277   1.332   1.186  16.143 -0.5899 -0.2697 -0.7542
 5214SOL    HW127278   1.410   1.224  16.101 -0.5339  1.6379  1.0825
 5214SOL    HW227279   1.270   1.185  16.070  0.9194  1.0499 -2.0542
 5215SOL     OW27280   2.423   2.654  12.020 -0.2564 -0.5767 -0.0114
 5215SOL    HW127281   2.451   2.730  11.970 -2.1685 -0.6270 -1.1876
 5215SOL    HW227282   2.332   2.644  11.992 -0.8517 -0.4041  1.9049
 5216SOL     OW27283   3.854   2.101  14.956  0.2326  0.1597 -0.5101
 5216SOL    HW127284   3.925   2.159  14.930 -1.3675  2.0636 -0.5992
 5216SOL    HW227285   3.778   2.121  14.902  0.6747  0.2262 -1.1028
 5217SOL     OW27286   3.921   3.223   6.452  0.0215  0.1046 -0.0346
 5217SOL    HW127287   3.829   3.216   6.479  0.1234 -2.0978 -0.2234
 5217SOL    HW227288   3.921   3.309   6.411  0.6585 -0.9308 -2.2149
 5218SOL     OW27289   4.282   3.634  13.396 -0.1598  0.3557 -0.0084
 5218SOL    HW127290   4.374   3.611  13.380 -0.7906 -1.5300 -0.9786
 5218SOL    HW227291   4.280   3.706  13.334  0.0452  0.7505  0.4402
 5219SOL     OW27292   4.514   0.120   6.868 -0.0791 -0.4422  0.3317
 5219SOL    HW127293   4.591   0.174   6.890  0.9280 -1.5171 -0.5841
 5219SOL    HW227294   4.446   0.147   6.930  0.3350  1.2575  0.0629
 5220SOL     OW27295   3.323   3.958   3.265  0.4996 -0.3077  0.4188
 5220SOL    HW127296   3.242   3.937   3.219  0.1972  0.7849  0.4481
 5220SOL    HW227297   3.388   3.900   3.225  1.3729  0.8760  0.1115
 5221SOL     OW27298   3.618   0.526   7.060 -0.0310 -0.0641  0.8145
 5221SOL    HW127299   3.581   0.500   6.976  1.6557 -1.1784  0.4198
 5221SOL    HW227300   3.541   0.516   7.116  0.3264  0.6278  1.4318
 5222SOL     OW27301   3.178   1.059   5.772  0.5432 -0.2258 -0.0700
 5222SOL    HW127302   3.205   1.119   5.703 -1.0052  0.9281  0.3115
 5222SOL    HW227303   3.088   1.049   5.741  0.5799 -2.3492  0.5026
 5223SOL     OW27304   1.606   2.248  14.543 -1.0566  0.4901  0.6680
 5223SOL    HW127305   1.623   2.255  14.637 -1.2526 -0.0649  0.7464
 5223SOL    HW227306   1.528   2.303  14.542 -0.2009  1.6578 -1.8499
 5224SOL     OW27307   2.993   4.178  16.019  0.2483 -0.0880  0.2472
 5224SOL    HW127308   2.996   4.211  15.929 -0.0827  0.2857  0.3729
 5224SOL    HW227309   3.086   4.168  16.039  0.5943 -0.6015 -1.6326
 5225SOL     OW27310   2.051   3.563  13.778  1.2166 -0.1616 -0.6870
 5225SOL    HW127311   1.961   3.531  13.790  0.4400  1.3915 -2.4333
 5225SOL    HW227312   2.031   3.634  13.717  0.6795  0.4711  0.2267
 5226SOL     OW27313   0.776   1.421   5.612 -0.4419 -0.0011  0.3038
 5226SOL    HW127314   0.868   1.392   5.607 -0.2767  0.5971 -0.0576
 5226SOL    HW227315   0.783   1.503   5.564 -0.2804  0.8741  1.8057
 5227SOL     OW27316   1.675   1.993  10.699  0.5484  0.2660  1.3645
 5227SOL    HW127317   1.644   1.923  10.755  1.8225 -0.6959  0.8719
 5227SOL    HW227318   1.753   1.951  10.663 -0.0049 -1.4935  2.2695
 5228SOL     OW27319   0.029   1.707  10.728 -0.3945  0.0115 -0.1696
 5228SOL    HW127320   0.060   1.630  10.775 -1.1745  0.8224  1.6855
 5228SOL    HW227321   4.727   1.677  10.646  0.4617  0.5023 -0.7601
 5229SOL     OW27322   2.964   1.672   1.634  0.2129 -0.3677 -0.4462
 5229SOL    HW127323   2.997   1.668   1.723 -1.0982  1.0234  0.0942
 5229SOL    HW227324   3.023   1.738   1.596  0.2368  0.7864  1.6570
 5230SOL     OW27325   3.025   2.439   2.639  0.3423  1.0312 -0.0029
 5230SOL    HW127326   2.997   2.349   2.622 -1.9577  1.6185  0.7309
 5230SOL    HW227327   3.067   2.457   2.555  0.4977  0.6750 -0.0043
 5231SOL     OW27328   1.134   2.843  11.646 -0.1353 -0.7651 -0.1053
 5231SOL    HW127329   1.160   2.762  11.602 -0.4853 -0.3413 -1.0923
 5231SOL    HW227330   1.078   2.886  11.581  0.0435 -0.1450  0.1555
 5232SOL     OW27331   0.653   0.462   8.291  0.2692  0.5692 -0.1246
 5232SOL    HW127332   0.669   0.430   8.202  0.2222 -0.4958  0.2458
 5232SOL    HW227333   0.739   0.464   8.333 -0.2970  0.7646  1.0257
 5233SOL     OW27334   0.201   0.413   8.714  0.2165 -0.5254  0.1376
 5233SOL    HW127335   0.149   0.336   8.689 -0.7804  0.3641 -0.5564
 5233SOL    HW227336   0.176   0.474   8.644  1.6578  0.3493  0.3869
 5234SOL     OW27337   4.722   1.523   8.389  0.4762  0.3717  0.4314
 5234SOL    HW127338   4.651   1.552   8.332  0.1130  1.2780  1.3491
 5234SOL    HW227339   4.680   1.462   8.449  1.0130 -1.2121 -0.8024
 5235SOL     OW27340   2.364   0.063   2.742  0.4675 -0.1414 -0.5327
 5235SOL    HW127341   2.322   4.722   2.775  1.9632 -1.6325 -2.1306
 5235SOL    HW227342   2.431   0.075   2.809  0.5299 -0.1457 -0.5939
 5236SOL     OW27343   1.841   1.552   7.472  0.1203 -0.3812 -0.2231
 5236SOL    HW127344   1.843   1.637   7.516  3.2952 -0.7715  0.3129
 5236SOL    HW227345   1.904   1.574   7.404 -0.4566  1.6023 -0.1135
 5237SOL     OW27346   1.711   3.766   5.291 -0.1273  0.0314  0.3458
 5237SOL    HW127347   1.616   3.767   5.303 -0.3612 -1.6416 -1.3717
 5237SOL    HW227348   1.713   3.774   5.196 -1.9273  0.7788  0.3749
 5238SOL     OW27349   1.295   1.727   2.000 -0.0045 -0.4568 -0.1833
 5238SOL    HW127350   1.240   1.777   2.061  0.2797  0.2136 -0.4736
 5238SOL    HW227351   1.375   1.721   2.053  0.1133  1.7419 -0.1064
 5239SOL     OW27352   3.898   1.244  10.716  1.2697 -0.0501  0.1466
 5239SOL    HW127353   3.880   1.310  10.783  0.2740 -1.2917  1.0902
 5239SOL    HW227354   3.807   1.240  10.687  0.7112  0.3417  1.8403
 5240SOL     OW27355   2.305   3.049   3.766 -0.1651  0.0083 -0.0700
 5240SOL    HW127356   2.378   3.010   3.814  0.2843  2.4881  1.2523
 5240SOL    HW227357   2.346   3.133   3.745  0.3108 -0.2758 -0.2430
 5241SOL     OW27358   1.770   0.180   7.023  0.3431  0.1799 -0.0951
 5241SOL    HW127359   1.773   0.257   7.079 -1.3608 -0.3344  0.7074
 5241SOL    HW227360   1.682   0.148   7.044  0.4524  0.7372  1.2167
 5242SOL     OW27361   3.082   2.409   4.769 -0.4147  0.0301  0.0082
 5242SOL    HW127362   3.048   2.333   4.816  0.2266 -0.8461 -0.9575
 5242SOL    HW227363   3.160   2.418   4.825  0.6893  0.4601 -1.5921
 5243SOL     OW27364   4.297   2.658  12.220  0.2462  0.3559 -0.3252
 5243SOL    HW127365   4.317   2.752  12.219  3.5077 -0.3439  0.2325
 5243SOL    HW227366   4.331   2.633  12.135  0.3446  0.2951 -0.2676
 5244SOL     OW27367   3.714   3.543   9.368  0.1695 -0.5857 -0.1810
 5244SOL    HW127368   3.703   3.589   9.452 -0.2362 -2.0748  0.5855
 5244SOL    HW227369   3.792   3.572   9.321 -0.4638 -2.2702 -2.2648
 5245SOL     OW27370   1.040   2.399   5.978 -0.0684  0.2770 -0.8301
 5245SOL    HW127371   1.015   2.317   6.022  0.9080  0.0170 -0.7682
 5245SOL    HW227372   0.968   2.404   5.915 -2.0637  0.1372  1.4345
 5246SOL     OW27373   4.246   0.907   7.923  0.4370 -0.0374 -0.4301
 5246SOL    HW127374   4.245   0.983   7.982 -0.3101  0.8793 -1.6143
 5246SOL    HW227375   4.153   0.914   7.903 -0.2790  2.6776  3.7113
 5247SOL     OW27376   4.038   0.299   5.830  0.4766  0.4396  0.4864
 5247SOL    HW127377   4.067   0.307   5.920  1.2580  0.2071  0.2513
 5247SOL    HW227378   4.065   0.381   5.787  2.1353  0.0066  0.7407
 5248SOL     OW27379   0.551   1.994  14.372 -0.0831 -0.1020  0.0693
 5248SOL    HW127380   0.566   1.929  14.304  1.3690 -1.4251  1.6573
 5248SOL    HW227381   0.617   1.974  14.438 -0.6349 -0.8171  0.4020
 5249SOL     OW27382   1.831   3.395   6.187 -0.8302  0.1612  0.0346
 5249SOL    HW127383   1.834   3.456   6.113  0.8423  0.5709  0.4455
 5249SOL    HW227384   1.757   3.338   6.166 -0.2259 -0.8846  0.7403
 5250SOL     OW27385   0.527   3.924   7.528 -0.4888 -0.3673 -0.5369
 5250SOL    HW127386   0.494   3.869   7.599  0.7089  1.5278  1.4925
 5250SOL    HW227387   0.465   3.894   7.462  0.7446 -3.8801 -0.1221
 5251SOL     OW27388   4.315   1.775   1.797 -0.4180 -0.1483  0.3922
 5251SOL    HW127389   4.306   1.733   1.882 -0.7759 -0.5453  0.1579
 5251SOL    HW227390   4.399   1.821   1.807 -0.6947  0.4259  0.0468
 5252SOL     OW27391   1.393   1.853   6.974  0.3113  0.0173  0.1296
 5252SOL    HW127392   1.302   1.860   7.002 -0.4901 -0.8457 -2.2943
 5252SOL    HW227393   1.418   1.945   6.968  1.0289 -0.1666  0.2139
 5253SOL     OW27394   4.419   2.949   9.099  0.7864  0.5088 -0.4701
 5253SOL    HW127395   4.414   2.905   9.184 -1.2506 -1.1576 -1.4455
 5253SOL    HW227396   4.330   2.939   9.065 -0.1443 -2.1387  2.6614
 5254SOL     OW27397   0.378   4.517   7.604  0.0882  0.0468  0.2132
 5254SOL    HW127398   0.343   4.587   7.660  0.6699  1.3091 -0.9898
 5254SOL    HW227399   0.382   4.448   7.670 -0.0584  0.5239  0.7325
 5255SOL     OW27400   3.347   2.697   2.517 -0.0539  0.2788  0.1409
 5255SOL    HW127401   3.321   2.787   2.533  0.4565  0.3771  0.4275
 5255SOL    HW227402   3.439   2.691   2.545  0.3821 -0.1411 -1.3467
 5256SOL     OW27403   2.517   3.939   7.807  1.2662 -0.2943 -0.1710
 5256SOL    HW127404   2.461   3.920   7.881  1.0456  0.3636 -0.1663
 5256SOL    HW227405   2.450   3.942   7.738 -0.9106  2.6834  2.0967
 5257SOL     OW27406   1.204   3.650   2.716  0.1863  0.1090  0.3913
 5257SOL    HW127407   1.179   3.584   2.652  2.0998 -2.1400  1.9740
 5257SOL    HW227408   1.261   3.602   2.776  1.5503  1.5487  0.2412
 5258SOL     OW27409   2.388   2.307   9.434 -0.1031  0.1300  0.0032
 5258SOL    HW127410   2.349   2.315   9.347 -0.8088 -2.8568  0.0455
 5258SOL    HW227411   2.372   2.397   9.463 -2.2071 -0.1260 -0.3732
 5259SOL     OW27412   0.686   2.456  10.996  0.1574  0.2613 -0.4197
 5259SOL    HW127413   0.749   2.456  10.924  3.9726 -2.8162  2.9561
 5259SOL    HW227414   0.604   2.452  10.947  0.9564  0.3321 -1.7588
 5260SOL     OW27415   1.709   2.359  17.497 -0.1826 -0.0025 -0.3314
 5260SOL    HW127416   1.653   2.431  17.526  3.0186  2.7438 -0.8849
 5260SOL    HW227417   1.795   2.373  17.536 -0.9462 -2.0105  2.0739
 5261SOL     OW27418   4.658   3.686   6.280 -0.0453  0.3400 -0.2781
 5261SOL    HW127419   4.619   3.655   6.362  0.9910 -0.0346  0.0798
 5261SOL    HW227420   4.625   3.615   6.226 -1.2697 -0.7064  1.8067
 5262SOL     OW27421   1.771   4.000   6.567  0.2463 -0.3870 -0.0236
 5262SOL    HW127422   1.691   3.951   6.547 -0.3896 -0.1429  1.8626
 5262SOL    HW227423   1.790   4.057   6.493  0.7858 -2.3829 -1.3976
 5263SOL     OW27424   0.714   1.274   9.754 -0.2931 -0.1446 -0.7184
 5263SOL    HW127425   0.767   1.224   9.693  1.6149  1.6721 -0.5485
 5263SOL    HW227426   0.672   1.332   9.691  1.4027  2.4877  0.5716
 5264SOL     OW27427   2.924   4.713  14.922  0.4361 -0.5890 -0.4646
 5264SOL    HW127428   2.969   4.642  14.967  1.7457  0.9290  0.5904
 5264SOL    HW227429   2.987   0.048  14.926 -0.0349 -0.2870  1.4455
 5265SOL     OW27430   1.179   2.003   1.700  0.8144  0.2696  0.1846
 5265SOL    HW127431   1.126   1.955   1.764 -0.5017 -0.0982 -1.1926
 5265SOL    HW227432   1.143   2.091   1.693  0.1592 -0.1006 -1.0160
 5266SOL     OW27433   1.009   2.141   6.036  0.0236  0.2622  0.3787
 5266SOL    HW127434   1.086   2.090   6.064  1.0817  0.2081 -2.6239
 5266SOL    HW227435   0.954   2.134   6.114 -0.1794 -3.3598 -0.0633
 5267SOL     OW27436   0.849   0.468   0.668  0.3204  0.2408 -0.2994
 5267SOL    HW127437   0.909   0.484   0.740  0.3893  0.2768 -0.3645
 5267SOL    HW227438   0.878   0.382   0.640 -2.0276 -0.8532  0.6611
 5268SOL     OW27439   1.479   1.344   6.348  0.1087 -0.2136  0.0764
 5268SOL    HW127440   1.397   1.328   6.300  0.7381  0.2494 -1.1611
 5268SOL    HW227441   1.504   1.253   6.365 -1.4371 -0.7592 -0.6125
 5269SOL     OW27442   0.676   1.853   5.552  1.1597  0.6292  0.2023
 5269SOL    HW127443   0.678   1.941   5.515 -0.1011 -0.2004 -1.8697
 5269SOL    HW227444   0.631   1.860   5.636  0.8010  1.2915 -0.0472
 5270SOL     OW27445   4.718   2.011  12.244  0.1260  0.1413  0.0462
 5270SOL    HW127446   4.662   1.946  12.286 -0.8214  0.6629 -0.4067
 5270SOL    HW227447   0.048   1.956  12.203  0.8626  0.1522  1.2367
 5271SOL     OW27448   1.774   4.511  17.303  0.5869 -0.2575  0.0885
 5271SOL    HW127449   1.858   4.466  17.315 -0.3628 -2.0426 -0.0965
 5271SOL    HW227450   1.716   4.458  17.357  0.4889  0.7301  0.9428
 5272SOL     OW27451   3.693   1.692  14.284  0.1941  0.3020 -0.3249
 5272SOL    HW127452   3.718   1.642  14.362 -0.6694  1.2967  0.5909
 5272SOL    HW227453   3.768   1.749  14.267  0.8995 -0.8891 -1.2535
 5273SOL     OW27454   3.478   2.550  14.461  0.0020 -0.1963  0.4803
 5273SOL    HW127455   3.412   2.527  14.396  1.7750 -2.6418 -0.4619
 5273SOL    HW227456   3.558   2.565  14.410  0.9810  1.6183  2.5556
 5274SOL     OW27457   3.166   0.741   8.796 -0.4646 -0.2213  0.5085
 5274SOL    HW127458   3.194   0.700   8.878  0.5456  0.4830  0.5153
 5274SOL    HW227459   3.220   0.820   8.804 -2.1128  1.0267 -0.7163
 5275SOL     OW27460   1.565   2.433   3.654  0.1826  0.2011 -0.6434
 5275SOL    HW127461   1.658   2.440   3.633  0.7650 -2.5485  0.9960
 5275SOL    HW227462   1.563   2.498   3.724  1.1735 -2.9800  2.3241
 5276SOL     OW27463   1.961   0.246   6.651  0.4848  0.1261 -0.4474
 5276SOL    HW127464   1.985   0.329   6.693 -2.4010  1.4242 -1.3066
 5276SOL    HW227465   2.044   0.199   6.653 -0.1245 -0.9737 -0.9034
 5277SOL     OW27466   3.553   3.377   3.393  0.0580  0.0855  0.3216
 5277SOL    HW127467   3.545   3.333   3.308 -2.7249 -0.3100  0.7986
 5277SOL    HW227468   3.517   3.460   3.361  0.5738 -0.1539 -0.9017
 5278SOL     OW27469   4.154   0.130  16.314  0.1692  0.3065  0.9371
 5278SOL    HW127470   4.102   0.091  16.244  1.2377 -0.0080  0.3047
 5278SOL    HW227471   4.245   0.127  16.282  0.0621  3.5916  0.3146
 5279SOL     OW27472   3.974   3.067   7.653  0.1107  0.1851 -0.0586
 5279SOL    HW127473   3.931   2.988   7.685  1.7719 -1.2322 -1.3085
 5279SOL    HW227474   3.994   3.109   7.738 -1.5762 -1.3910  1.1018
 5280SOL     OW27475   3.755   2.620  10.532  0.1834 -0.5085 -0.1630
 5280SOL    HW127476   3.792   2.533  10.548  1.0194  0.5294  3.5161
 5280SOL    HW227477   3.791   2.658  10.612 -2.3059  1.4737  0.0344
 5281SOL     OW27478   0.322   1.249   9.052 -0.4566 -0.0791  0.0784
 5281SOL    HW127479   0.322   1.198   8.972 -0.8723  1.0295 -0.6247
 5281SOL    HW227480   0.408   1.289   9.050 -0.9766  1.0304 -0.1135
 5282SOL     OW27481   2.767   4.130  14.611  0.1150  0.1825  0.0582
 5282SOL    HW127482   2.701   4.196  14.591 -0.1455 -0.1963 -0.3502
 5282SOL    HW227483   2.840   4.189  14.629  0.7413 -0.0950 -1.5973
 5283SOL     OW27484   4.237   0.688   4.658  0.0207  0.7117  0.6990
 5283SOL    HW127485   4.250   0.716   4.749 -0.8591 -0.4354  1.1775
 5283SOL    HW227486   4.184   0.611   4.680 -0.8827  0.5711 -2.0380
 5284SOL     OW27487   3.225   0.875   3.527  0.0269  0.3171 -0.0589
 5284SOL    HW127488   3.222   0.782   3.549 -0.5846  0.2167 -0.5663
 5284SOL    HW227489   3.167   0.876   3.450  0.0563  0.0866 -0.0843
 5285SOL     OW27490   4.179   1.294   8.290 -0.2277 -0.1668 -0.1528
 5285SOL    HW127491   4.251   1.290   8.354 -1.8513  0.7664  1.7138
 5285SOL    HW227492   4.102   1.286   8.346  0.3614 -2.6634  0.3016
 5286SOL     OW27493   1.059   1.471   9.009 -0.3217 -0.2963  0.0748
 5286SOL    HW127494   1.026   1.435   8.927 -2.3474  0.3319  0.5950
 5286SOL    HW227495   1.152   1.483   8.991 -0.7723  1.7001 -0.8835
 5287SOL     OW27496   1.122   0.104   1.866  0.0371  0.4008  0.7176
 5287SOL    HW127497   1.121   0.030   1.926 -1.4508 -1.5227 -1.6729
 5287SOL    HW227498   1.150   0.072   1.780  0.9800 -2.3605  2.0578
 5288SOL     OW27499   2.435   2.230   5.276  0.6999  0.2746  0.0410
 5288SOL    HW127500   2.379   2.296   5.315  0.2322 -0.6620  0.9348
 5288SOL    HW227501   2.464   2.278   5.198  1.0609  0.1529  0.0998
 5289SOL     OW27502   4.000   3.640  17.537 -0.2988 -0.4532 -0.4852
 5289SOL    HW127503   3.907   3.656  17.556 -0.4371 -0.4164 -1.1875
 5289SOL    HW227504   4.018   3.561  17.588  0.5346 -0.0673 -0.1890
 5290SOL     OW27505   3.860   0.688   4.581  0.3450 -0.0584 -0.2186
 5290SOL    HW127506   3.867   0.604   4.627 -0.9399 -0.0590 -0.0048
 5290SOL    HW227507   3.801   0.661   4.511  1.5294 -0.9569 -0.8682
 5291SOL     OW27508   4.715   2.122  13.232  0.9456 -0.0031  0.1336
 5291SOL    HW127509   4.637   2.068  13.221  0.2876  0.5949  1.9830
 5291SOL    HW227510   4.687   2.210  13.207 -0.8480  0.0579  2.4029
 5292SOL     OW27511   4.675   2.802  17.350 -0.0510 -0.5010 -0.4806
 5292SOL    HW127512   4.687   2.719  17.396  2.6020 -0.2548 -0.7124
 5292SOL    HW227513   4.639   2.774  17.267 -0.2447 -0.3045 -0.4646
 5293SOL     OW27514   3.234   1.994  15.499 -0.4099  0.4069 -0.4881
 5293SOL    HW127515   3.215   2.012  15.591  2.1557 -1.6647  0.4545
 5293SOL    HW227516   3.300   2.063  15.490 -0.9887  1.1743  1.2564
 5294SOL     OW27517   4.477   4.566   6.101 -0.2032  0.4072 -0.6403
 5294SOL    HW127518   4.491   4.659   6.116  0.7113  0.1306  0.1908
 5294SOL    HW227519   4.512   4.526   6.180  0.7835  3.3166  0.3935
 5295SOL     OW27520   3.105   2.714   7.771 -0.0100 -0.1573  0.0898
 5295SOL    HW127521   3.180   2.759   7.731  0.2844  0.0728  0.9078
 5295SOL    HW227522   3.144   2.626   7.764  0.4450  0.0646 -0.2183
 5296SOL     OW27523   0.248   2.560   2.980 -0.5571 -0.6141 -0.1335
 5296SOL    HW127524   0.215   2.568   2.891 -0.4657  1.8225  0.0579
 5296SOL    HW227525   0.322   2.621   2.982 -0.1704 -1.1004  0.6180
 5297SOL     OW27526   4.587   2.737   0.831 -0.1118  0.3496 -0.0083
 5297SOL    HW127527   4.557   2.819   0.792  0.5511 -0.1860 -1.6746
 5297SOL    HW227528   4.511   2.683   0.810 -1.3813  1.4995  1.6447
 5298SOL     OW27529   2.545   3.984  16.243 -0.1361  0.0989 -0.1698
 5298SOL    HW127530   2.508   3.973  16.156  0.2047  0.7513 -0.4006
 5298SOL    HW227531   2.635   3.959  16.221 -0.1859 -0.0106 -0.2463
 5299SOL     OW27532   3.365   2.475  11.083 -0.0637  0.4018  0.0181
 5299SOL    HW127533   3.454   2.502  11.106 -0.1491  0.5394  0.1914
 5299SOL    HW227534   3.318   2.483  11.167  0.5163  0.8987  0.2890
 5300SOL     OW27535   4.311   3.022   0.450 -0.2957  0.3064  0.4773
 5300SOL    HW127536   4.394   2.988   0.483  0.9208  3.5784  0.8709
 5300SOL    HW227537   4.282   2.943   0.405 -0.7856  1.9360 -2.0970
 5301SOL     OW27538   4.734   1.897   9.083 -0.1198  0.8647  0.4003
 5301SOL    HW127539   4.639   1.913   9.086 -0.4771 -1.3564  0.3856
 5301SOL    HW227540   0.027   1.988   9.073 -0.4966  0.7424 -1.7445
 5302SOL     OW27541   1.334   4.570  16.085 -0.5846  0.0041 -0.6466
 5302SOL    HW127542   1.248   4.534  16.061 -0.2038 -2.6249  1.9688
 5302SOL    HW227543   1.381   4.489  16.107  0.2244  0.7738  0.4265
 5303SOL     OW27544   3.818   3.911   4.479  0.0800 -0.3579 -0.0780
 5303SOL    HW127545   3.891   3.884   4.424 -2.3995 -4.5776 -1.2927
 5303SOL    HW227546   3.850   3.992   4.518  1.1495  1.0374 -3.8367
 5304SOL     OW27547   1.314   3.185  10.336 -0.5533  0.1811 -0.0850
 5304SOL    HW127548   1.399   3.146  10.315  0.4886  1.3237  1.9787
 5304SOL    HW227549   1.293   3.133  10.414 -1.6896  0.7354 -0.0327
 5305SOL     OW27550   1.308   3.624   4.788  0.3419 -0.1124 -0.3589
 5305SOL    HW127551   1.398   3.629   4.821 -0.1647 -0.0224  1.0066
 5305SOL    HW227552   1.294   3.716   4.767  0.8132  0.0622  0.0834
 5306SOL     OW27553   0.176   0.025  11.905  0.3242  0.1927  0.1618
 5306SOL    HW127554   0.087   4.729  11.895  0.6654 -0.1835 -1.6697
 5306SOL    HW227555   0.193   4.719  11.989 -0.7927  1.8210  1.2314
 5307SOL     OW27556   4.579   4.125  12.767 -0.5861  0.0996  0.3406
 5307SOL    HW127557   4.535   4.126  12.682  1.2825  0.2200 -0.6381
 5307SOL    HW227558   4.616   4.037  12.769 -2.5626 -0.7242  0.6511
 5308SOL     OW27559   0.570   3.728   5.389  0.1022  0.2287  0.6158
 5308SOL    HW127560   0.561   3.815   5.426  0.5317  0.3141  0.5106
 5308SOL    HW227561   0.626   3.681   5.450  0.0714  2.0600  2.0554
 5309SOL     OW27562   3.291   4.479   4.315 -0.3677  0.0156 -0.1403
 5309SOL    HW127563   3.366   4.423   4.299 -2.0063 -2.2707  0.1347
 5309SOL    HW227564   3.245   4.475   4.231 -1.0647 -0.3778  0.2613
 5310SOL     OW27565   1.284   3.616   7.639 -0.0513  0.1165 -0.1883
 5310SOL    HW127566   1.320   3.546   7.694  2.1591  0.4958 -1.1261
 5310SOL    HW227567   1.354   3.671   7.602  0.1140  0.2053  0.2642
 5311SOL     OW27568   2.560   3.934   8.128 -0.1806 -0.6251 -0.0810
 5311SOL    HW127569   2.550   3.839   8.134 -1.7892 -0.4585  0.0503
 5311SOL    HW227570   2.648   3.946   8.093  0.0007  1.6334  1.1384
 5312SOL     OW27571   0.892   1.010   3.856 -0.0816  0.2021  0.5078
 5312SOL    HW127572   0.960   1.077   3.854 -0.0654  0.1311 -1.0238
 5312SOL    HW227573   0.825   1.045   3.915  1.4508  3.1995  0.4827
 5313SOL     OW27574   0.012   1.136  11.640  0.4481 -0.0294  0.6339
 5313SOL    HW127575   0.004   1.210  11.700 -0.5879 -0.2915  0.8179
 5313SOL    HW227576   4.707   1.161  11.558  1.6624 -0.7812 -0.2243
 5314SOL     OW27577   4.075   1.807   4.963  0.0409 -0.0591  0.2648
 5314SOL    HW127578   4.083   1.711   4.959  0.1307 -0.0837  1.0342
 5314SOL    HW227579   4.023   1.817   4.884  1.0734  1.8217 -0.1621
 5315SOL     OW27580   0.647   4.341  11.119  0.3525  0.2519 -0.3917
 5315SOL    HW127581   0.634   4.246  11.114 -2.1290  0.5115  1.2881
 5315SOL    HW227582   0.622   4.361  11.029  1.5820  2.2779 -0.2786
 5316SOL     OW27583   3.971   1.070   8.599 -0.2663 -0.1232  0.1163
 5316SOL    HW127584   3.961   1.152   8.552 -0.8472 -1.5255 -2.2134
 5316SOL    HW227585   4.009   1.089   8.685  1.6433  0.7300 -0.9222
 5317SOL     OW27586   1.300   2.374   3.607  0.3800 -0.3268 -0.4573
 5317SOL    HW127587   1.394   2.391   3.613  0.7967 -3.4723  2.6545
 5317SOL    HW227588   1.276   2.367   3.700 -0.1304  0.6140 -0.5220
 5318SOL     OW27589   3.962   4.045   7.701  0.3430 -0.1871  0.3841
 5318SOL    HW127590   3.910   4.117   7.737  0.3240  0.2145 -0.4361
 5318SOL    HW227591   3.992   4.009   7.784  0.3685 -0.3825  0.2892
 5319SOL     OW27592   4.035   1.928   7.960  0.2217 -0.5163 -0.6532
 5319SOL    HW127593   4.120   1.885   7.944 -0.0798 -1.1224 -0.6135
 5319SOL    HW227594   4.062   2.010   8.001 -0.0379 -0.2865 -0.9393
 5320SOL     OW27595   3.605   2.285   7.635 -0.3971  0.2967  0.3048
 5320SOL    HW127596   3.693   2.248   7.648  0.4349  2.5754  1.1126
 5320SOL    HW227597   3.613   2.353   7.568  1.3272 -0.4027 -0.2224
 5321SOL     OW27598   2.703   0.099   7.302 -0.0511  0.0144 -0.1041
 5321SOL    HW127599   2.750   0.051   7.371  0.9665  0.1492 -0.6995
 5321SOL    HW227600   2.688   0.189   7.330 -0.5476  0.4353 -1.7422
 5322SOL     OW27601   4.641   2.324   8.353  0.0772 -0.2944  0.0270
 5322SOL    HW127602   4.602   2.358   8.272 -1.7035 -0.7207  0.6972
 5322SOL    HW227603   4.623   2.405   8.401 -0.7822 -0.8877  0.6971
 5323SOL     OW27604   2.535   1.770  10.453 -0.2272 -0.2813 -0.6448
 5323SOL    HW127605   2.563   1.692  10.502 -1.3544 -2.1207 -2.9703
 5323SOL    HW227606   2.467   1.810  10.507 -1.0074 -1.4158 -0.7940
 5324SOL     OW27607   1.024   3.884   5.282 -0.2115 -0.6434  0.2835
 5324SOL    HW127608   1.018   3.806   5.337  2.0643  0.4605  2.1374
 5324SOL    HW227609   1.072   3.931   5.350 -0.3188  1.0599 -0.8273
 5325SOL     OW27610   3.863   2.380  17.432  0.4128  0.1880  0.8043
 5325SOL    HW127611   3.939   2.336  17.469  0.5118 -3.0578 -3.2917
 5325SOL    HW227612   3.799   2.345  17.495  0.1145 -0.8510 -0.0844
 5326SOL     OW27613   3.753   1.004   2.778  0.4242 -0.0849 -0.0762
 5326SOL    HW127614   3.680   1.043   2.825  0.7607  0.7322 -0.2193
 5326SOL    HW227615   3.814   0.987   2.850 -0.5682  0.3122  0.8604
 5327SOL     OW27616   0.060   2.153   7.123  0.2047  0.0936 -0.1910
 5327SOL    HW127617   4.733   2.103   7.172 -1.2314 -0.5214 -2.6870
 5327SOL    HW227618   0.011   2.228   7.087  0.2067  0.5133  0.6752
 5328SOL     OW27619   3.810   3.152  16.757  0.1363 -0.9454 -0.3617
 5328SOL    HW127620   3.751   3.210  16.804 -0.6341 -2.2792  0.3086
 5328SOL    HW227621   3.813   3.083  16.824  0.9205 -1.0534 -0.5057
 5329SOL     OW27622   0.230   2.121  17.423  0.0388  0.3052  0.0963
 5329SOL    HW127623   0.292   2.192  17.437  0.9647 -0.3855 -0.5179
 5329SOL    HW227624   0.176   2.123  17.502  0.4338 -1.4594  0.4161
 5330SOL     OW27625   1.274   1.087   2.384 -0.1945 -0.1425 -0.3551
 5330SOL    HW127626   1.182   1.108   2.397  0.4798  1.1013  2.3444
 5330SOL    HW227627   1.283   0.995   2.411 -2.5335 -0.2465  0.0601
 5331SOL     OW27628   0.605   4.724   8.513  0.1941 -0.0337  0.7709
 5331SOL    HW127629   0.679   0.038   8.545  1.3081 -0.7076 -0.7412
 5331SOL    HW227630   0.549   0.057   8.480 -0.4382 -1.2131 -0.6343
 5332SOL     OW27631   2.730   0.434   5.384  0.0593  0.0349  0.5321
 5332SOL    HW127632   2.810   0.462   5.429 -0.5502  1.6508  0.6240
 5332SOL    HW227633   2.760   0.367   5.324  1.6336  0.6301  0.6607
 5333SOL     OW27634   4.244   3.994   6.555 -0.0219 -0.0023 -0.2776
 5333SOL    HW127635   4.223   3.901   6.557 -1.4650  0.2970 -1.5738
 5333SOL    HW227636   4.304   3.998   6.480 -1.1281  1.3644 -1.0925
 5334SOL     OW27637   3.416   1.451   2.807 -0.0427  0.6092  0.3440
 5334SOL    HW127638   3.407   1.380   2.743 -1.9458  0.6697  0.5382
 5334SOL    HW227639   3.367   1.522   2.767  0.0327 -0.0363 -0.9001
 5335SOL     OW27640   0.982   4.163   3.199  0.1625  0.1850  0.4350
 5335SOL    HW127641   0.905   4.177   3.144 -0.6284 -2.7322  0.7897
 5335SOL    HW227642   1.046   4.222   3.159  3.2538 -0.6796  4.1538
 5336SOL     OW27643   1.787   2.447  11.635  0.6322  0.6659  0.9472
 5336SOL    HW127644   1.856   2.396  11.592  0.6156  0.0855  1.6065
 5336SOL    HW227645   1.820   2.452  11.725  0.3613  0.5641  1.0530
 5337SOL     OW27646   3.122   0.593   6.028  0.0451  0.2532  0.0126
 5337SOL    HW127647   3.148   0.683   6.011  1.7241 -0.1000  0.6934
 5337SOL    HW227648   3.192   0.543   5.986 -0.0608  0.9922 -1.0279
 5338SOL     OW27649   0.709   4.641   0.960  0.0451 -0.3774 -0.4102
 5338SOL    HW127650   0.666   4.603   0.884 -1.5191 -0.0310  0.3016
 5338SOL    HW227651   0.754   4.714   0.917 -0.7129  1.7747  2.4419
 5339SOL     OW27652   1.918   0.700   5.527  0.2373  0.1628  0.2797
 5339SOL    HW127653   1.874   0.774   5.484 -0.7761 -0.6778 -0.1087
 5339SOL    HW227654   1.959   0.660   5.450 -3.6126 -1.1640 -1.0749
 5340SOL     OW27655   1.488   0.852   4.560  0.3024 -0.1360  0.0062
 5340SOL    HW127656   1.554   0.858   4.491  1.1727 -1.2975  0.7409
 5340SOL    HW227657   1.431   0.921   4.526  1.2237  0.2457 -0.7506
 5341SOL     OW27658   0.659   2.986   2.055 -0.4013  0.0409 -0.1288
 5341SOL    HW127659   0.638   2.952   1.969  1.9104 -0.5648 -0.4488
 5341SOL    HW227660   0.688   2.906   2.099 -2.3406 -0.4892  0.1841
 5342SOL     OW27661   4.235   2.405   1.293  0.1377  0.0335 -0.6241
 5342SOL    HW127662   4.141   2.404   1.277 -0.4076  1.2201  2.4558
 5342SOL    HW227663   4.244   2.402   1.388 -1.0731 -1.7617 -0.5700
 5343SOL     OW27664   0.088   0.008   6.557  0.2017  0.0545 -0.4773
 5343SOL    HW127665   0.091   0.063   6.478 -0.4179 -0.8266 -1.1150
 5343SOL    HW227666   0.073   4.661   6.516  1.2205 -0.9893  1.3234
 5344SOL     OW27667   1.050   0.353   2.286  0.6234  0.0859  0.3497
 5344SOL    HW127668   0.967   0.324   2.248 -0.0536  0.9430  1.1970
 5344SOL    HW227669   1.055   0.447   2.270 -0.5612 -0.0624 -0.8905
 5345SOL     OW27670   1.553   3.611  12.412 -0.2003 -0.3263 -0.7102
 5345SOL    HW127671   1.592   3.547  12.471 -0.7404  0.5157  0.5513
 5345SOL    HW227672   1.502   3.663  12.474  0.2136 -1.5916  0.6864
 5346SOL     OW27673   4.495   4.420   8.850 -0.3211 -0.2382 -0.8430
 5346SOL    HW127674   4.567   4.480   8.872 -3.2829  3.2876 -0.7507
 5346SOL    HW227675   4.499   4.381   8.937  0.1694  0.4891 -0.5380
 5347SOL     OW27676   2.247   0.585  11.373 -0.2229  0.4004 -0.4018
 5347SOL    HW127677   2.184   0.535  11.425 -0.4183  1.3808  0.2966
 5347SOL    HW227678   2.312   0.517  11.352  0.0949  0.8141 -0.7829
 5348SOL     OW27679   3.548   1.050   2.965 -0.3852 -0.7614  0.3810
 5348SOL    HW127680   3.535   1.131   3.013  1.5923  0.9026 -1.8924
 5348SOL    HW227681   3.498   0.986   3.015 -2.1915 -0.5310 -1.1116
 5349SOL     OW27682   0.199   3.055   6.296  0.2579  0.1946  0.4433
 5349SOL    HW127683   0.174   3.110   6.222 -0.3019  0.4150  0.8041
 5349SOL    HW227684   0.291   3.078   6.312  0.8956 -1.5372 -0.6200
 5350SOL     OW27685   2.661   3.071   3.540  0.6485 -0.9109  0.5702
 5350SOL    HW127686   2.687   2.984   3.510  2.0536 -0.1014 -0.5895
 5350SOL    HW227687   2.582   3.096   3.491 -0.2435 -0.9690  1.9751
 5351SOL     OW27688   0.481   2.747   3.959  0.4738 -0.1450 -0.1380
 5351SOL    HW127689   0.555   2.767   4.016 -0.0996 -1.2357  0.9883
 5351SOL    HW227690   0.449   2.663   3.991 -0.6625  0.0220 -0.8286
 5352SOL     OW27691   3.163   4.695   9.447  0.0014 -0.1992 -0.0999
 5352SOL    HW127692   3.214   4.614   9.459  1.4424  0.5100 -1.5225
 5352SOL    HW227693   3.115   4.711   9.529 -0.1975 -2.0396  0.1597
 5353SOL     OW27694   1.444   0.825   3.071 -0.2765  0.1210 -0.1944
 5353SOL    HW127695   1.511   0.773   3.114 -1.3721 -0.1236  1.2194
 5353SOL    HW227696   1.496   0.904   3.065 -1.0682  0.7065  0.6893
 5354SOL     OW27697   1.931   3.964  14.505  0.0469  0.8765  0.4703
 5354SOL    HW127698   2.019   3.999  14.497  0.8021 -1.4267 -1.5559
 5354SOL    HW227699   1.954   3.876  14.473  0.0685  1.0397  0.0306
 5355SOL     OW27700   1.327   1.718   3.468  0.3560  0.5781  0.0383
 5355SOL    HW127701   1.395   1.784   3.480  1.9020 -1.0822  0.4016
 5355SOL    HW227702   1.257   1.779   3.495 -2.3266 -2.0224 -1.0165
 5356SOL     OW27703   4.453   1.959   9.079  0.2429 -0.0342  0.2570
 5356SOL    HW127704   4.368   1.917   9.093 -0.1278  0.3830 -0.7783
 5356SOL    HW227705   4.423   2.047   9.102  1.1977 -0.0170  1.4788
 5357SOL     OW27706   4.010   0.904  11.582 -0.2365  0.1749  0.2747
 5357SOL    HW127707   4.083   0.957  11.613 -0.4846  1.0951 -0.7072
 5357SOL    HW227708   4.039   0.821  11.543  2.8211  1.2677  0.2148
 5358SOL     OW27709   0.988   1.987   0.562  0.1980 -0.0634 -0.2655
 5358SOL    HW127710   1.009   2.044   0.487  0.8908  0.4774  0.3342
 5358SOL    HW227711   1.068   1.934   0.561 -0.6620 -1.3820  2.2404
 5359SOL     OW27712   2.228   2.816   6.134 -0.1799  0.0203  0.1029
 5359SOL    HW127713   2.228   2.736   6.186  1.4821 -0.0623 -0.0207
 5359SOL    HW227714   2.253   2.883   6.198 -1.8011  0.2898  0.4471
 5360SOL     OW27715   1.971   0.879   5.069 -0.4009  0.1974  0.3544
 5360SOL    HW127716   1.978   0.963   5.114  0.7251  0.0658  0.4441
 5360SOL    HW227717   2.018   0.832   5.138  1.2560  1.9066  0.4025
 5361SOL     OW27718   2.420   1.923   3.250  0.2746 -0.6830 -0.5857
 5361SOL    HW127719   2.332   1.887   3.238 -1.1763  2.5859  0.0810
 5361SOL    HW227720   2.436   1.889   3.338  0.8142 -1.9547 -1.1749
 5362SOL     OW27721   2.628   3.546  10.386  0.1146 -0.2344 -0.4927
 5362SOL    HW127722   2.641   3.464  10.434  2.0715  0.0225 -0.5842
 5362SOL    HW227723   2.710   3.595  10.390  1.3654 -2.3843  0.1257
 5363SOL     OW27724   0.296   2.090  14.420  0.1596 -0.3437 -0.0623
 5363SOL    HW127725   0.383   2.062  14.392  0.2903  1.4075 -1.4439
 5363SOL    HW227726   0.302   2.102  14.515 -0.4844  2.2625 -0.3493
 5364SOL     OW27727   0.882   4.265  15.937 -0.1552  0.6398  0.2689
 5364SOL    HW127728   0.886   4.265  16.032  1.1894  1.5602  0.2250
 5364SOL    HW227729   0.963   4.316  15.924  0.5672 -0.1121  1.8086
 5365SOL     OW27730   1.113   0.835   8.865  0.2644  0.5909  0.2760
 5365SOL    HW127731   1.024   0.821   8.897  0.0877 -1.2828 -1.0393
 5365SOL    HW227732   1.099   0.844   8.770  1.0694  3.1646  0.4139
 5366SOL     OW27733   1.992   0.564   8.189 -0.0620  0.3030  0.9922
 5366SOL    HW127734   2.042   0.611   8.122 -2.7271  1.0774 -0.4741
 5366SOL    HW227735   2.064   0.540   8.247 -0.5024 -0.7070  1.1301
 5367SOL     OW27736   1.498   3.391   4.416 -0.0342  0.0407 -0.1076
 5367SOL    HW127737   1.559   3.372   4.488  2.1038  0.0636 -1.8923
 5367SOL    HW227738   1.438   3.317   4.412  1.2586 -1.0513  0.6300
 5368SOL     OW27739   4.109   2.841   2.990 -0.3121 -0.1588  0.0422
 5368SOL    HW127740   4.088   2.830   2.897  0.2860  0.5877 -0.1845
 5368SOL    HW227741   4.184   2.782   2.997  0.0206  0.1682 -0.7035
 5369SOL     OW27742   3.385   0.404   5.364 -0.3627 -0.4297 -0.4392
 5369SOL    HW127743   3.417   0.489   5.334 -0.2036 -0.6875 -1.0032
 5369SOL    HW227744   3.448   0.346   5.321  1.6717  2.5536 -1.4288
 5370SOL     OW27745   3.815   4.601   3.738 -0.0343 -0.2468  0.2089
 5370SOL    HW127746   3.791   4.528   3.681 -0.2994 -1.4614  1.8635
 5370SOL    HW227747   3.910   4.599   3.733 -0.2332 -0.6915 -3.4980
 5371SOL     OW27748   3.453   0.749  16.638 -0.0982  0.5343 -0.2167
 5371SOL    HW127749   3.403   0.818  16.682 -0.2730 -0.8074  1.7005
 5371SOL    HW227750   3.510   0.706  16.702  2.0113  0.5875 -2.0466
 5372SOL     OW27751   1.514   1.604  17.457 -0.0418  0.3601 -0.1476
 5372SOL    HW127752   1.491   1.624  17.366  0.6177  0.5368 -0.2799
 5372SOL    HW227753   1.475   1.519  17.474  0.9233 -0.5045 -2.2933
 5373SOL     OW27754   4.186   3.962   4.982 -0.4342  0.5017  0.0407
 5373SOL    HW127755   4.108   3.964   4.926 -0.0561 -1.6310 -0.5299
 5373SOL    HW227756   4.208   3.869   4.978 -0.0892  0.5190  1.5279
 5374SOL     OW27757   0.630   2.233  16.267 -0.2015 -0.7825  0.1858
 5374SOL    HW127758   0.570   2.159  16.260  0.3490 -1.2155  0.0501
 5374SOL    HW227759   0.597   2.273  16.186 -0.2763 -2.5991 -0.6964
 5375SOL     OW27760   1.881   2.117   8.197  0.0055  0.0744 -0.4616
 5375SOL    HW127761   1.865   2.027   8.226 -2.1489  0.5830 -0.1101
 5375SOL    HW227762   1.795   2.135   8.159 -0.0899  0.2189 -0.1679
 5376SOL     OW27763   1.072   1.636  15.792 -0.2820  0.2565  0.5063
 5376SOL    HW127764   1.123   1.704  15.746 -0.1174 -0.0198  0.2778
 5376SOL    HW227765   1.101   1.640  15.883 -3.0981 -0.6454  1.4359
 5377SOL     OW27766   3.702   1.865  16.800 -0.0061  0.5208  0.3975
 5377SOL    HW127767   3.746   1.819  16.872  0.7337 -1.1004 -1.1007
 5377SOL    HW227768   3.718   1.956  16.826  0.0980  0.2890  1.1599
 5378SOL     OW27769   2.258   3.568  16.181  0.4525 -0.2267  0.1811
 5378SOL    HW127770   2.335   3.544  16.233  0.5914  0.6756  0.3784
 5378SOL    HW227771   2.237   3.483  16.142  2.8195 -1.3703  1.3782
 5379SOL     OW27772   2.674   2.843   6.039 -0.5710 -0.0965 -0.1392
 5379SOL    HW127773   2.664   2.836   5.944 -0.1060 -0.2856 -0.1703
 5379SOL    HW227774   2.600   2.897   6.069 -1.5481 -1.2507 -0.4714
 5380SOL     OW27775   0.145   4.523  16.068 -0.9787 -0.1935  0.0335
 5380SOL    HW127776   0.233   4.545  16.039 -0.9202 -0.4345  0.0253
 5380SOL    HW227777   0.088   4.557  15.999  0.3620 -1.4905 -1.6920
 5381SOL     OW27778   0.426   3.006  14.653 -0.2307 -0.1183 -0.5066
 5381SOL    HW127779   0.475   2.958  14.721  0.1249 -1.5717 -1.7854
 5381SOL    HW227780   0.473   3.089  14.662  2.2795 -1.3492 -2.1930
 5382SOL     OW27781   3.967   1.166   2.189 -0.0442 -0.4175 -0.1392
 5382SOL    HW127782   4.013   1.088   2.221  0.7424 -1.5327 -3.9244
 5382SOL    HW227783   3.944   1.215   2.268  0.0635 -0.7278  0.0832
 5383SOL     OW27784   4.542   3.820   6.662  0.3445  0.3549  0.3413
 5383SOL    HW127785   4.624   3.831   6.710 -0.6624 -2.5395  2.7170
 5383SOL    HW227786   4.554   3.873   6.583  1.1984  0.6529  0.6665
 5384SOL     OW27787   3.899   2.459   1.489 -0.3021 -0.1666 -0.1938
 5384SOL    HW127788   3.951   2.465   1.569 -1.9988 -0.4958  0.9385
 5384SOL    HW227789   3.910   2.549   1.459 -0.0755 -0.2098 -0.2375
 5385SOL     OW27790   4.729   1.096  15.035 -0.1880  0.0680  0.0447
 5385SOL    HW127791   4.683   1.130  14.959 -0.2562  1.1847  0.5871
 5385SOL    HW227792   4.721   1.169  15.096  0.4560  1.3451 -1.4003
 5386SOL     OW27793   2.592   1.170   0.747 -0.0223  0.3404  0.0071
 5386SOL    HW127794   2.649   1.109   0.701 -1.2821 -0.5996 -0.2921
 5386SOL    HW227795   2.652   1.244   0.747 -0.4277  0.6735 -0.3557
 5387SOL     OW27796   2.840   3.276   0.326 -0.1288 -0.2029 -0.1877
 5387SOL    HW127797   2.835   3.198   0.270  0.4675  1.7379 -2.9896
 5387SOL    HW227798   2.840   3.328   0.246  0.3039  1.8622  1.1736
 5388SOL     OW27799   3.701   1.569  10.324 -0.2497  0.5886 -0.1199
 5388SOL    HW127800   3.709   1.513  10.247  1.6886 -1.6647  1.7187
 5388SOL    HW227801   3.794   1.593  10.331 -0.1508  0.1577  0.0734
 5389SOL     OW27802   3.964   3.408   2.356 -0.5661 -0.0646  0.3933
 5389SOL    HW127803   4.042   3.463   2.348  0.2665 -1.4619 -1.1014
 5389SOL    HW227804   3.899   3.464   2.315 -1.1575  0.1568  1.6434
 5390SOL     OW27805   0.853   2.620  15.853 -0.3535 -0.4413 -0.3176
 5390SOL    HW127806   0.854   2.561  15.928 -1.4683  0.2632  0.2365
 5390SOL    HW227807   0.819   2.558  15.788 -1.7911 -0.1677  0.1911
 5391SOL     OW27808   0.887   4.408   9.379 -0.9709 -0.0924 -0.0594
 5391SOL    HW127809   0.866   4.500   9.397  0.7853  0.0555  1.2142
 5391SOL    HW227810   0.905   4.419   9.286 -3.8455 -1.7068 -0.7901
 5392SOL     OW27811   0.231   4.628   7.342 -0.1637  0.1010  0.2149
 5392SOL    HW127812   0.253   4.571   7.269  0.6924 -0.4661  0.9076
 5392SOL    HW227813   0.137   4.612   7.345 -0.1738  0.2488  0.7320
 5393SOL     OW27814   0.868   0.346  10.614  0.2700  0.2473 -0.2312
 5393SOL    HW127815   0.788   0.340  10.562  0.3725 -1.9048 -0.1335
 5393SOL    HW227816   0.837   0.365  10.702  0.9743  0.7841 -0.0928
 5394SOL     OW27817   3.587   3.551   5.525 -0.0456 -0.5988 -0.1671
 5394SOL    HW127818   3.601   3.578   5.616  0.0695 -0.1573 -0.3195
 5394SOL    HW227819   3.539   3.470   5.543 -0.0575 -0.7456 -0.8569
 5395SOL     OW27820   1.888   1.720  10.854 -0.2256  0.7986  0.2178
 5395SOL    HW127821   1.909   1.797  10.802 -0.6111  0.3264 -0.6330
 5395SOL    HW227822   1.793   1.724  10.851 -0.3301 -1.4942 -0.1408
 5396SOL     OW27823   1.436   0.502   5.001 -0.4629  1.1060  0.2382
 5396SOL    HW127824   1.446   0.546   4.917  0.2274 -1.0475 -0.7938
 5396SOL    HW227825   1.482   0.565   5.057 -0.6099  1.3129  0.1283
 5397SOL     OW27826   1.037   4.289   8.083 -0.4553  0.6143 -0.5905
 5397SOL    HW127827   0.965   4.273   8.144 -0.3815 -0.9165 -0.8999
 5397SOL    HW227828   1.121   4.275   8.128 -1.0634  2.2150  1.0581
 5398SOL     OW27829   3.209   0.644   9.075  0.0037  0.1325 -0.4423
 5398SOL    HW127830   3.115   0.662   9.080  0.1593  0.2735  2.0366
 5398SOL    HW227831   3.219   0.564   9.024 -0.6238 -1.1912  1.5077
 5399SOL     OW27832   4.489   1.965   3.668 -0.6483 -0.0348  0.0117
 5399SOL    HW127833   4.556   1.899   3.652 -0.2481  0.9559 -2.3954
 5399SOL    HW227834   4.434   1.920   3.732 -2.9757  1.2620 -1.0544
 5400SOL     OW27835   0.186   1.950   6.348  0.0081 -0.1597 -0.4247
 5400SOL    HW127836   0.174   1.896   6.269  0.9067  0.6646 -1.1277
 5400SOL    HW227837   0.098   1.961   6.384  0.5271  1.8636  0.2057
 5401SOL     OW27838   4.616   4.427   4.973 -0.2034 -0.3614 -0.3089
 5401SOL    HW127839   4.697   4.380   4.953  0.9985  1.8684 -0.6738
 5401SOL    HW227840   4.648   4.516   4.980 -0.8259 -0.4867  4.0857
 5402SOL     OW27841   2.560   3.085   5.321 -0.3067 -0.5759 -0.1734
 5402SOL    HW127842   2.538   3.126   5.404  1.3764 -0.4993  0.2383
 5402SOL    HW227843   2.564   2.993   5.348 -1.5381 -0.8482 -0.9057
 5403SOL     OW27844   2.445   3.839   6.571  0.2941  0.4050 -0.6159
 5403SOL    HW127845   2.514   3.900   6.599 -1.8035  2.3688  0.3236
 5403SOL    HW227846   2.444   3.852   6.476 -2.0031 -1.6951 -0.8727
 5404SOL     OW27847   1.812   2.381   2.395  0.3298  0.1909  0.7819
 5404SOL    HW127848   1.760   2.301   2.383  1.9861 -0.7953  0.2243
 5404SOL    HW227849   1.782   2.410   2.309  1.6891 -0.0737  0.2206
 5405SOL     OW27850   1.705   3.059   2.165 -0.4460 -0.7185  0.1400
 5405SOL    HW127851   1.728   2.998   2.234 -0.5756  0.5256  1.2779
 5405SOL    HW227852   1.764   3.037   2.093  1.4206  0.9612  1.1567
 5406SOL     OW27853   3.415   1.746   2.306 -0.7783  0.0166 -0.1464
 5406SOL    HW127854   3.484   1.683   2.287  1.1119  2.5698 -1.7359
 5406SOL    HW227855   3.455   1.815   2.358 -0.3569 -1.7873  1.9047
 5407SOL     OW27856   4.513   3.511   6.107  0.3482 -0.6266  0.2320
 5407SOL    HW127857   4.486   3.427   6.071  0.2454 -0.3202 -0.4007
 5407SOL    HW227858   4.538   3.559   6.028  0.8054 -1.0255  0.1368
 5408SOL     OW27859   3.712   3.190   1.450 -0.1746 -0.3423  0.6590
 5408SOL    HW127860   3.763   3.117   1.416 -1.0220 -0.5772 -0.1107
 5408SOL    HW227861   3.627   3.188   1.406  1.6910 -2.4561 -2.8193
 5409SOL     OW27862   2.006   4.641   2.233  0.7060 -0.1998  0.1407
 5409SOL    HW127863   2.015   4.572   2.168  1.9791 -1.1941  1.3804
 5409SOL    HW227864   1.931   4.607   2.282 -1.5087 -0.8573 -3.7025
 5410SOL     OW27865   3.804   4.444   8.995 -0.1745 -0.0492  0.2432
 5410SOL    HW127866   3.857   4.428   9.073  1.1400 -1.6535 -0.9769
 5410SOL    HW227867   3.719   4.408   9.021 -0.1692 -1.5589 -1.8651
 5411SOL     OW27868   3.456   0.340   2.895 -0.6499  0.4325 -0.1316
 5411SOL    HW127869   3.508   0.321   2.817 -0.5220  0.9088 -0.1625
 5411SOL    HW227870   3.392   0.404   2.863 -2.1882  0.7318  3.6012
 5412SOL     OW27871   4.278   3.594  16.375  0.4099  0.2543 -0.2649
 5412SOL    HW127872   4.346   3.527  16.375  1.1846  1.0363 -1.6328
 5412SOL    HW227873   4.232   3.581  16.458 -2.1392  3.5113 -1.1655
 5413SOL     OW27874   1.729   3.351   1.162 -0.0106 -0.3533  0.2250
 5413SOL    HW127875   1.741   3.404   1.083 -0.6493 -1.4567 -0.6072
 5413SOL    HW227876   1.634   3.350   1.176 -0.1665  1.1512 -0.6977
 5414SOL     OW27877   2.943   0.823   2.575 -0.0351 -0.8163 -0.3420
 5414SOL    HW127878   2.865   0.777   2.605  0.0688 -0.8461 -0.1183
 5414SOL    HW227879   3.016   0.762   2.584 -0.1874 -1.1475 -1.3517
 5415SOL     OW27880   4.453   0.474   7.858  0.7700  0.3219  0.1456
 5415SOL    HW127881   4.407   0.425   7.926 -1.2749  0.4363 -1.1510
 5415SOL    HW227882   4.447   0.413   7.785  0.3675 -0.6215  0.9604
 5416SOL     OW27883   2.101   3.648   6.044  0.0273  0.2638  0.2901
 5416SOL    HW127884   2.141   3.706   5.979 -0.1357  0.7360  0.6155
 5416SOL    HW227885   2.066   3.713   6.106  1.0813  0.2913  0.8581
 5417SOL     OW27886   4.068   4.623   6.774 -0.0856 -0.2552  0.3541
 5417SOL    HW127887   4.068   4.533   6.741  0.0480  1.1999 -3.6002
 5417SOL    HW227888   3.990   4.613   6.829  0.9306  0.8736  1.9968
 5418SOL     OW27889   0.636   4.386  15.913  0.1806  0.3766 -0.0375
 5418SOL    HW127890   0.583   4.329  15.970  0.1425  1.4954  1.0403
 5418SOL    HW227891   0.723   4.347  15.920 -0.3839 -1.1691 -1.6446
 5419SOL     OW27892   3.600   0.690  11.298  0.0366  0.1668 -0.2556
 5419SOL    HW127893   3.588   0.676  11.204  0.1852 -1.3500 -0.0479
 5419SOL    HW227894   3.686   0.734  11.294  0.2409 -0.4233 -2.5657
 5420SOL     OW27895   3.280   1.712  16.922  0.1292 -0.0557  0.2032
 5420SOL    HW127896   3.334   1.658  16.980  0.7284 -0.1049 -0.3953
 5420SOL    HW227897   3.340   1.717  16.847  2.1397  2.8848  2.0059
 5421SOL     OW27898   4.259   0.904   8.869  0.0327  0.0944 -0.3491
 5421SOL    HW127899   4.323   0.967   8.835 -1.9396  1.6773 -1.1102
 5421SOL    HW227900   4.255   0.834   8.804  0.5656 -0.7936  0.5898
 5422SOL     OW27901   1.848   0.361  13.516  0.6432  0.0411 -0.4616
 5422SOL    HW127902   1.825   0.425  13.448  3.0470  1.3154 -0.0602
 5422SOL    HW227903   1.808   0.280  13.485  0.9988 -0.6346  0.8548
 5423SOL     OW27904   1.454   0.002   8.433  0.4825  0.2259  0.5048
 5423SOL    HW127905   1.380   0.034   8.484 -0.0089 -1.1227  0.6451
 5423SOL    HW227906   1.460   0.063   8.360 -3.2928  0.3765  0.3600
 5424SOL     OW27907   0.165   1.500   1.727 -0.3730  0.2878  0.2213
 5424SOL    HW127908   0.214   1.427   1.688  1.4515  1.3362  0.5535
 5424SOL    HW227909   0.154   1.455   1.811  2.0785 -1.6424 -0.4838
 5425SOL     OW27910   3.294   3.762   2.639  0.8422  0.0407  0.3595
 5425SOL    HW127911   3.353   3.802   2.575  0.5139 -1.6599 -1.0350
 5425SOL    HW227912   3.304   3.825   2.710 -0.1104 -1.7611  2.1149
 5426SOL     OW27913   2.047   0.866  11.674  0.5027  0.4956  0.3298
 5426SOL    HW127914   2.009   0.791  11.628 -0.1942  1.7735 -1.1675
 5426SOL    HW227915   2.088   0.820  11.748 -0.6605 -1.5978 -0.3094
 5427SOL     OW27916   1.062   4.125   6.801 -0.0179 -0.0198 -0.1522
 5427SOL    HW127917   0.991   4.088   6.748 -2.2171  1.0651  2.0165
 5427SOL    HW227918   1.018   4.203   6.836  0.2641  0.6159 -1.2266
 5428SOL     OW27919   1.828   0.172  16.404 -1.0565 -0.1272  0.2540
 5428SOL    HW127920   1.749   0.192  16.354 -0.2281  1.9103 -0.2718
 5428SOL    HW227921   1.903   0.218  16.366 -0.5990 -2.2644 -1.4431
 5429SOL     OW27922   1.338   3.570  10.622 -0.4960  0.2164  0.1326
 5429SOL    HW127923   1.299   3.486  10.642 -2.1577  0.7903 -0.6896
 5429SOL    HW227924   1.395   3.536  10.553 -2.2657  1.3170 -1.8865
 5430SOL     OW27925   2.536   0.439  16.006  0.7604 -0.0741 -0.8224
 5430SOL    HW127926   2.557   0.457  16.098  0.8276 -1.7158 -0.5136
 5430SOL    HW227927   2.506   0.524  15.973  1.0876  0.4043  0.0901
 5431SOL     OW27928   1.240   1.236   7.286  0.4824 -0.1173  0.3322
 5431SOL    HW127929   1.165   1.237   7.227 -0.0143  1.5472  0.9918
 5431SOL    HW227930   1.296   1.171   7.244 -0.7401 -0.9587  0.0191
 5432SOL     OW27931   1.582   1.529   7.441 -0.6467  0.3341  0.2353
 5432SOL    HW127932   1.583   1.620   7.410  0.5386 -0.2381 -1.4472
 5432SOL    HW227933   1.676   1.512   7.442 -0.7004 -0.1264 -2.8145
 5433SOL     OW27934   3.631   1.006  13.070 -0.0879 -0.9119  0.4639
 5433SOL    HW127935   3.725   1.008  13.053  0.2055 -3.6379  1.8661
 5433SOL    HW227936   3.625   0.927  13.123  1.4792 -1.1727  0.2307
 5434SOL     OW27937   0.760   0.856   7.874 -0.5017  0.4322  0.8462
 5434SOL    HW127938   0.688   0.794   7.864  1.0087 -1.1851  0.0688
 5434SOL    HW227939   0.729   0.922   7.813 -0.4491  0.0651  0.4229
 5435SOL     OW27940   2.530   1.421   1.560  0.8799  0.0181  0.6023
 5435SOL    HW127941   2.556   1.447   1.472 -1.6931  1.0918  0.1337
 5435SOL    HW227942   2.567   1.333   1.555 -1.9080 -1.1601  0.4354
 5436SOL     OW27943   1.699   1.679   6.860 -0.5096  0.3610  0.0277
 5436SOL    HW127944   1.713   1.772   6.877  1.9877  0.1480 -1.0081
 5436SOL    HW227945   1.612   1.662   6.898  0.1104 -2.2867  0.2666
 5437SOL     OW27946   3.669   3.641   7.923  0.0643 -0.0812 -0.1072
 5437SOL    HW127947   3.589   3.605   7.961 -0.1062  0.8193  0.3844
 5437SOL    HW227948   3.712   3.689   7.995  0.4973  0.6288 -0.8451
 5438SOL     OW27949   2.045   4.159   4.462 -0.3076  0.0154 -0.7846
 5438SOL    HW127950   2.050   4.241   4.412  0.1159 -0.2793 -1.2253
 5438SOL    HW227951   2.077   4.097   4.397  2.2280 -1.6545  2.0917
 5439SOL     OW27952   0.856   2.294  12.028  0.6171 -0.2576  0.0598
 5439SOL    HW127953   0.925   2.359  12.013 -0.3337  0.6340 -0.4512
 5439SOL    HW227954   0.903   2.212  12.014 -0.2784 -0.8175  0.3474
 5440SOL     OW27955   4.076   0.801   5.148  0.4777  0.0048  0.4045
 5440SOL    HW127956   4.038   0.801   5.060  0.3166  2.2825  0.4777
 5440SOL    HW227957   4.107   0.889   5.168 -0.8371  0.4523  0.4426
 5441SOL     OW27958   0.094   0.579   7.816  0.3810 -0.6541 -0.1178
 5441SOL    HW127959   0.143   0.523   7.756  1.3211 -0.6685  0.6638
 5441SOL    HW227960   0.056   0.523   7.884 -1.0453 -0.1341 -0.4803
 5442SOL     OW27961   1.684   4.141   7.828 -0.3473 -0.0080  0.2898
 5442SOL    HW127962   1.698   4.173   7.738  0.4691  1.5734  0.9762
 5442SOL    HW227963   1.762   4.174   7.871 -0.8495 -0.0635  1.2337
 5443SOL     OW27964   4.358   1.036   0.819  0.3489 -0.5216 -0.4292
 5443SOL    HW127965   4.453   1.027   0.830  0.8104  1.8558 -2.4547
 5443SOL    HW227966   4.355   1.023   0.725  1.6174 -2.1564 -0.2359
 5444SOL     OW27967   0.963   3.168   4.679 -0.0431  0.0628 -0.0347
 5444SOL    HW127968   0.969   3.233   4.750  1.4229 -0.1020 -0.0115
 5444SOL    HW227969   1.043   3.117   4.692  1.4201  2.3256 -0.1070
 5445SOL     OW27970   0.946   0.059   2.672 -0.4765  0.0237 -0.9948
 5445SOL    HW127971   0.984   0.123   2.612 -0.2530  0.5557 -0.2746
 5445SOL    HW227972   0.996   0.068   2.753  1.3876 -0.5294 -2.0801
 5446SOL     OW27973   0.265   0.522   4.723  0.4944 -0.3501  0.0029
 5446SOL    HW127974   0.189   0.475   4.757  1.0463 -1.5356 -0.4151
 5446SOL    HW227975   0.279   0.470   4.644 -1.2730 -0.2256 -0.3861
 5447SOL     OW27976   4.624   1.399   7.218  0.1277 -0.2233  0.3697
 5447SOL    HW127977   4.632   1.389   7.123  1.8084  2.0806  0.2892
 5447SOL    HW227978   4.624   1.305   7.235 -1.5852 -0.0613  1.2682
 5448SOL     OW27979   1.138   0.641  11.391 -0.1372 -0.7908  0.1363
 5448SOL    HW127980   1.217   0.693  11.386 -0.9222  0.1791 -2.0337
 5448SOL    HW227981   1.171   0.551  11.402 -1.7681 -1.3904  0.2256
 5449SOL     OW27982   2.505   1.704  10.199 -0.6980  0.3665  0.3446
 5449SOL    HW127983   2.515   1.743  10.286  1.4285  1.5210 -0.3993
 5449SOL    HW227984   2.414   1.681  10.215 -0.9203  0.8203 -0.2594
 5450SOL     OW27985   0.147   3.936   8.413 -0.2970 -0.1681 -0.1287
 5450SOL    HW127986   0.228   3.964   8.370  0.0211 -2.3658 -0.9643
 5450SOL    HW227987   0.159   3.843   8.433  2.3764 -0.0950 -1.3843
 5451SOL     OW27988   1.582   2.415   0.350  0.4770  0.4272  0.0923
 5451SOL    HW127989   1.498   2.369   0.358 -0.1956  1.4051 -1.3593
 5451SOL    HW227990   1.566   2.436   0.258  0.5960 -0.2240 -0.0813
 5452SOL     OW27991   1.339   2.328   7.249 -0.7934  0.4272 -0.7595
 5452SOL    HW127992   1.285   2.261   7.207 -1.0954 -0.2111  0.6169
 5452SOL    HW227993   1.415   2.331   7.191 -1.0543 -2.3489 -1.2668
 5453SOL     OW27994   3.433   3.877   5.782 -0.1230 -0.3684 -0.3566
 5453SOL    HW127995   3.356   3.894   5.728  0.7277  1.8333 -0.8728
 5453SOL    HW227996   3.412   3.934   5.856 -1.4736 -0.4150 -0.7074
 5454SOL     OW27997   1.740   2.655   7.645 -0.5985 -0.4773 -0.5342
 5454SOL    HW127998   1.832   2.649   7.617 -1.1489  0.9078 -2.7156
 5454SOL    HW227999   1.692   2.637   7.564 -2.5554  1.7503  0.1525
 5455SOL     OW28000   0.242   4.191   8.638  0.5203 -0.1076 -0.1631
 5455SOL    HW128001   0.238   4.285   8.655 -1.3606 -0.5716  1.9289
 5455SOL    HW228002   0.255   4.191   8.543 -0.0886 -0.0491 -0.2496
 5456SOL     OW28003   3.803   1.121   9.162  0.3233 -0.2487  0.1800
 5456SOL    HW128004   3.847   1.047   9.204  1.6517  0.6967  0.4366
 5456SOL    HW228005   3.856   1.196   9.186 -0.1740  0.7927 -1.9620
 5457SOL     OW28006   0.372   2.509   1.708  0.3094 -0.2128 -0.8306
 5457SOL    HW128007   0.364   2.422   1.748  0.6195 -0.2839 -0.9219
 5457SOL    HW228008   0.287   2.518   1.664 -0.7299 -2.9425  0.5926
 5458SOL     OW28009   0.045   0.728   8.111  0.2387 -0.6300  0.7193
 5458SOL    HW128010   0.018   0.768   8.029  0.9060 -2.2113 -0.2796
 5458SOL    HW228011   4.700   0.684   8.132  0.7476 -2.4918 -1.1991
 5459SOL     OW28012   1.744   3.124   3.085 -0.0525  0.3166 -0.0686
 5459SOL    HW128013   1.649   3.127   3.076 -0.0756 -0.7424 -0.1170
 5459SOL    HW228014   1.781   3.108   2.998 -1.6843  0.3775 -0.7629
 5460SOL     OW28015   0.801   2.068  10.014  0.3407  0.0111  0.3972
 5460SOL    HW128016   0.819   2.080   9.921 -2.4293  1.6757  0.0795
 5460SOL    HW228017   0.761   2.153  10.030 -2.7879 -1.4576  0.3569
 5461SOL     OW28018   0.398   2.914   7.021 -0.0909 -0.3672 -0.2248
 5461SOL    HW128019   0.422   2.889   7.110  2.2183  0.1534 -0.7106
 5461SOL    HW228020   0.479   2.941   6.978 -0.5152  0.6986 -0.3520
 5462SOL     OW28021   2.294   1.709   4.971  0.5291 -0.3303 -0.2924
 5462SOL    HW128022   2.308   1.616   4.953 -0.9229 -0.9160  1.5982
 5462SOL    HW228023   2.206   1.719   4.935  0.9144  2.9825 -0.3937
 5463SOL     OW28024   3.259   1.277   7.770 -0.1859 -0.3571  0.1499
 5463SOL    HW128025   3.231   1.282   7.862 -0.2457  0.2549  0.1001
 5463SOL    HW228026   3.336   1.334   7.771  0.0354 -0.6474 -0.6417
 5464SOL     OW28027   1.677   2.226   8.845  0.0282 -0.2696 -0.0294
 5464SOL    HW128028   1.660   2.313   8.879 -2.4156 -0.4067 -0.8641
 5464SOL    HW228029   1.599   2.182   8.879 -1.8235  3.3844  0.3746
 5465SOL     OW28030   0.706   4.244   9.163 -0.0432 -0.0048  0.0231
 5465SOL    HW128031   0.755   4.171   9.125 -1.1176 -0.9623  0.4797
 5465SOL    HW228032   0.706   4.225   9.257  0.9899  1.0807  0.2438
 5466SOL     OW28033   1.830   0.229  10.376  0.2467  0.4629 -0.3782
 5466SOL    HW128034   1.767   0.159  10.395  0.2239 -0.0486 -2.3473
 5466SOL    HW228035   1.872   0.199  10.295 -0.7138  0.7671 -0.9845
 5467SOL     OW28036   3.467   4.451   8.809 -0.4744 -0.2358  0.0768
 5467SOL    HW128037   3.391   4.447   8.751  0.1928 -1.7392 -0.6730
 5467SOL    HW228038   3.524   4.510   8.760 -0.7449  1.9525  2.3780
 5468SOL     OW28039   1.747   2.493   7.240  0.0927  0.0577  0.4317
 5468SOL    HW128040   1.833   2.527   7.265  1.1145  0.5284 -3.8547
 5468SOL    HW228041   1.710   2.572   7.201 -1.1768 -0.6895  0.1407
 5469SOL     OW28042   2.113   0.514  13.512  0.5456 -0.0642  0.0632
 5469SOL    HW128043   2.066   0.566  13.578  0.0973 -0.5007  0.0842
 5469SOL    HW228044   2.045   0.447  13.508  1.8991 -1.4660  0.8888
 5470SOL     OW28045   0.996   2.877   3.323  0.1275  0.0399  0.3096
 5470SOL    HW128046   1.059   2.945   3.300  2.1742 -1.6790  0.8507
 5470SOL    HW228047   0.923   2.898   3.264  1.3498 -0.0507 -1.2483
 5471SOL     OW28048   4.580   2.461   3.077  0.2995 -0.5321 -0.1941
 5471SOL    HW128049   4.530   2.445   3.158  0.4394  1.5840  0.3219
 5471SOL    HW228050   4.638   2.532   3.105  2.7142 -2.3814 -0.5174
 5472SOL     OW28051   2.300   2.387   6.628  0.1692  0.1126  0.0640
 5472SOL    HW128052   2.388   2.402   6.663 -0.1808  1.2425  0.4720
 5472SOL    HW228053   2.318   2.372   6.536 -0.9252 -1.2918  0.0687
 5473SOL     OW28054   4.511   3.857   5.444  0.4272  0.2877 -0.4693
 5473SOL    HW128055   4.520   3.774   5.398  1.0513 -0.5917  1.2465
 5473SOL    HW228056   4.431   3.894   5.406  0.6000 -0.8545 -1.9462
 5474SOL     OW28057   4.716   0.275   9.286  0.0481 -0.7801 -0.1431
 5474SOL    HW128058   4.669   0.203   9.328 -0.9781 -1.6786 -2.8024
 5474SOL    HW228059   0.047   0.222   9.244  0.1051  0.3012 -1.4205
 5475SOL     OW28060   2.845   0.106  14.041 -0.0108  0.6030  0.5671
 5475SOL    HW128061   2.850   0.175  13.975  0.4925 -1.3234 -1.4121
 5475SOL    HW228062   2.805   0.040  13.983 -0.2503  0.8520  0.4493
 5476SOL     OW28063   3.920   2.314   6.931 -0.5449  0.0068  0.1858
 5476SOL    HW128064   3.826   2.294   6.921 -0.5190  0.2465 -0.4979
 5476SOL    HW228065   3.945   2.238   6.983 -0.5667 -2.5016 -3.4749
 5477SOL     OW28066   2.483   0.087   6.006  0.5970  0.1547 -0.4742
 5477SOL    HW128067   2.392   0.115   6.013  0.7321  0.4195  0.2572
 5477SOL    HW228068   2.527   0.164   6.043 -0.5606  0.1088  1.0276
 5478SOL     OW28069   3.549   4.629   3.782 -0.5158 -0.0327  0.5264
 5478SOL    HW128070   3.640   4.614   3.757  0.3961  2.4620  2.3187
 5478SOL    HW228071   3.551   4.612   3.877 -2.7560 -2.5657  0.1092
 5479SOL     OW28072   2.317   3.680  14.373  0.6867 -0.3331  0.4583
 5479SOL    HW128073   2.372   3.691  14.296  1.3478  0.7132  1.0836
 5479SOL    HW228074   2.369   3.608  14.410  1.0748 -0.4670 -0.3539
 5480SOL     OW28075   0.410   3.787   0.205 -0.3941 -0.2319 -0.5562
 5480SOL    HW128076   0.491   3.768   0.251  0.2370  1.0994 -1.1263
 5480SOL    HW228077   0.432   3.780   0.112 -3.7554 -1.0865 -1.2951
 5481SOL     OW28078   0.016   3.197  10.190  0.1095 -0.0455 -0.0001
 5481SOL    HW128079   0.046   3.117  10.147  1.2616 -0.0980  0.9000
 5481SOL    HW228080   4.695   3.232  10.124 -3.6734 -1.2890  2.7036
 5482SOL     OW28081   0.370   4.546   7.978 -0.2066  0.0771 -0.7023
 5482SOL    HW128082   0.384   4.468   7.924  0.6756 -0.8223  0.8084
 5482SOL    HW228083   0.319   4.595   7.915 -0.9795 -0.8514 -0.7994
 5483SOL     OW28084   3.233   1.869   3.193  0.2581 -0.0247  0.0003
 5483SOL    HW128085   3.287   1.894   3.268  0.3857  0.4931 -0.2620
 5483SOL    HW228086   3.179   1.948   3.183  1.6273  0.8048 -0.8998
 5484SOL     OW28087   0.956   4.117   3.745  0.0447 -0.0237 -0.3068
 5484SOL    HW128088   0.907   4.058   3.687 -0.7795  2.6591 -2.3182
 5484SOL    HW228089   0.901   4.106   3.822  2.5792  1.6543  1.7526
 5485SOL     OW28090   3.239   2.320   1.397  0.1756  0.3346  0.2816
 5485SOL    HW128091   3.311   2.277   1.443  0.4078  2.9414  2.3142
 5485SOL    HW228092   3.185   2.354   1.468  1.3510  1.1759  0.7603
 5486SOL     OW28093   2.534   2.554   5.370  0.5920  0.3987  0.3893
 5486SOL    HW128094   2.594   2.548   5.296  2.3113  0.0961  1.7981
 5486SOL    HW228095   2.451   2.530   5.330  1.0084  1.3010 -0.9863
 5487SOL     OW28096   2.206   0.675   5.845 -0.2678 -0.4548 -0.1304
 5487SOL    HW128097   2.270   0.613   5.881  0.2276  1.1741  1.7887
 5487SOL    HW228098   2.269   0.721   5.790  0.7229 -1.5459  0.0752
 5488SOL     OW28099   0.110   2.520   7.650 -0.5974  0.1188  0.4555
 5488SOL    HW128100   0.048   2.515   7.722  0.1993  1.6565  1.2652
 5488SOL    HW228101   0.079   2.603   7.614  1.3812  0.9980  0.7472
 5489SOL     OW28102   3.892   1.055   3.552 -0.0973 -0.2345  0.2840
 5489SOL    HW128103   3.833   1.025   3.621 -1.3919 -0.0737 -0.7646
 5489SOL    HW228104   3.839   1.047   3.473  0.4581  1.3180 -0.2532
 5490SOL     OW28105   2.389   2.471  14.620 -0.0034  0.4340  0.0587
 5490SOL    HW128106   2.399   2.562  14.649  1.5173 -0.3549  1.9999
 5490SOL    HW228107   2.295   2.462  14.639  0.0182 -0.0139 -0.0376
 5491SOL     OW28108   0.464   4.083   2.061 -0.2444 -0.0371  0.4858
 5491SOL    HW128109   0.552   4.048   2.046 -0.2096  0.3701 -0.2892
 5491SOL    HW228110   0.425   4.020   2.121 -0.4597 -0.6520 -0.2944
 5492SOL     OW28111   1.212   2.228   9.022 -0.0793 -0.8259 -0.2664
 5492SOL    HW128112   1.141   2.183   8.976 -1.1721  0.2131  0.4128
 5492SOL    HW228113   1.273   2.157   9.040  0.8084 -0.5904 -2.2969
 5493SOL     OW28114   1.335   3.098   7.309 -0.5020  0.4735  0.0949
 5493SOL    HW128115   1.244   3.075   7.293 -0.5079  0.7143 -0.2012
 5493SOL    HW228116   1.331   3.193   7.308 -2.9165  0.3409 -1.3035
 5494SOL     OW28117   2.470   4.056  14.931  0.4543 -0.6518 -0.0785
 5494SOL    HW128118   2.402   4.122  14.919 -0.3254 -1.6673 -1.1376
 5494SOL    HW228119   2.424   3.993  14.986 -2.5212  1.2672 -0.3800
 5495SOL     OW28120   2.485   0.324   7.117  0.3120  0.0062 -0.1500
 5495SOL    HW128121   2.570   0.348   7.154  0.5826 -2.4082  0.7664
 5495SOL    HW228122   2.477   0.235   7.151  1.8746 -0.3877 -0.8047
 5496SOL     OW28123   4.281   4.058   9.645  0.0860  0.4962  0.0363
 5496SOL    HW128124   4.335   4.077   9.722  0.5014  2.3027 -0.7100
 5496SOL    HW228125   4.249   3.969   9.657  1.0853  0.0187 -0.8881
 5497SOL     OW28126   0.397   0.457   5.927  0.2656 -0.4444  0.1256
 5497SOL    HW128127   0.475   0.446   5.872 -0.3016 -0.1401 -0.7332
 5497SOL    HW228128   0.410   0.407   6.007 -2.1001 -1.4511 -0.1029
 5498SOL     OW28129   0.553   3.806  11.449  0.2227 -0.2748  0.0918
 5498SOL    HW128130   0.506   3.757  11.516  2.4570 -3.0376 -0.3584
 5498SOL    HW228131   0.517   3.776  11.365  1.6573 -0.3119 -0.5085
 5499SOL     OW28132   0.815   2.108   7.179 -0.0292 -0.0524 -0.3644
 5499SOL    HW128133   0.817   2.199   7.209 -0.8747  0.1791 -1.0159
 5499SOL    HW228134   0.740   2.094   7.121 -1.1192 -3.8500  1.9660
 5500SOL     OW28135   2.607   3.405   4.422 -1.1303 -0.1418  0.1405
 5500SOL    HW128136   2.548   3.330   4.434 -0.4892 -0.8349 -1.0068
 5500SOL    HW228137   2.644   3.400   4.510  0.8691  2.1369 -0.5760
 5501SOL     OW28138   1.871   0.309   9.907 -0.0488 -0.1208  0.4749
 5501SOL    HW128139   1.915   0.371   9.849  1.1468 -0.3986  1.1070
 5501SOL    HW228140   1.797   0.361   9.938  0.6958  0.8116  0.6609
 5502SOL     OW28141   3.644   4.197   5.397 -0.2344  0.2073 -0.3942
 5502SOL    HW128142   3.737   4.199   5.420 -0.4857  0.4336  0.5916
 5502SOL    HW228143   3.627   4.131   5.464 -0.0191  0.6487  0.1002
 5503SOL     OW28144   3.178   4.329   8.325  0.8896 -0.1326  0.0174
 5503SOL    HW128145   3.205   4.419   8.303  0.5394  0.1746  0.8462
 5503SOL    HW228146   3.215   4.293   8.244 -1.3505  1.3449 -1.6675
 5504SOL     OW28147   4.089   3.736  10.198 -0.0071 -0.0290 -0.1795
 5504SOL    HW128148   4.175   3.744  10.156  0.3117  1.0141  0.6706
 5504SOL    HW228149   4.035   3.741  10.119 -0.0613 -1.9117 -0.2848
 5505SOL     OW28150   2.423   3.813   2.620 -0.3103 -0.6710 -0.2673
 5505SOL    HW128151   2.386   3.901   2.619 -2.6511 -1.6568 -1.6134
 5505SOL    HW228152   2.348   3.757   2.599 -2.2663  1.1140  2.0954
 5506SOL     OW28153   3.318   1.566   8.322 -0.6534  0.4589  0.4389
 5506SOL    HW128154   3.290   1.493   8.377 -3.6154  1.5851  0.4059
 5506SOL    HW228155   3.322   1.531   8.233  1.1404  2.3348 -0.2089
 5507SOL     OW28156   2.053   3.754   7.056 -0.7925 -0.4688 -0.2494
 5507SOL    HW128157   2.130   3.789   7.011 -0.4486 -1.3028 -0.3056
 5507SOL    HW228158   1.990   3.755   6.984  0.7399  1.7829 -1.5676
 5508SOL     OW28159   1.504   2.898   4.562  0.5532 -0.1809  0.0991
 5508SOL    HW128160   1.520   2.894   4.657 -0.2348 -0.9439  0.1963
 5508SOL    HW228161   1.464   2.981   4.537 -0.4241 -0.6452  0.1111
 5509SOL     OW28162   1.335   2.200   2.890  0.5535 -0.2552  0.2335
 5509SOL    HW128163   1.365   2.280   2.932 -1.4239  0.6618 -0.0886
 5509SOL    HW228164   1.260   2.173   2.942  1.1607  0.3245  1.4186
 5510SOL     OW28165   3.434   1.759  14.615  0.1487 -0.1309 -0.1298
 5510SOL    HW128166   3.339   1.774  14.609  0.3646  1.9119  1.4820
 5510SOL    HW228167   3.467   1.823  14.552  1.3694  0.8813  1.5425
 5511SOL     OW28168   4.460   1.908   9.791  0.0665 -0.2299 -0.3829
 5511SOL    HW128169   4.457   1.874   9.880  0.7540  1.4128  0.2696
 5511SOL    HW228170   4.443   1.832   9.736 -0.4078  1.4072 -2.5024
 5512SOL     OW28171   0.567   1.003   9.167 -0.5807  0.4007  0.5166
 5512SOL    HW128172   0.647   1.055   9.168  0.0080 -0.3993 -2.9223
 5512SOL    HW228173   0.576   0.955   9.084 -1.6558 -1.1875  1.3242
 5513SOL     OW28174   4.343   0.692  12.411  0.3366 -0.2642  0.2566
 5513SOL    HW128175   4.338   0.774  12.459  0.0732  0.5564 -1.1818
 5513SOL    HW228176   4.276   0.704  12.345 -0.7491  0.1254  1.4393
 5514SOL     OW28177   1.852   2.819  12.156 -0.0894 -0.1899 -0.2873
 5514SOL    HW128178   1.909   2.884  12.115 -3.6786  2.4487 -1.0875
 5514SOL    HW228179   1.765   2.850  12.135 -0.7111  1.3491  4.5935
 5515SOL     OW28180   0.903   0.047   5.353 -0.1863  0.4169 -0.2043
 5515SOL    HW128181   0.955   0.101   5.294  3.6206 -2.5316  0.4972
 5515SOL    HW228182   0.972   0.028   5.416 -0.3019 -2.2138 -0.8750
 5516SOL     OW28183   4.462   4.285   8.616 -0.0156  0.0475  0.5510
 5516SOL    HW128184   4.447   4.355   8.553 -0.3784 -1.1642 -0.7318
 5516SOL    HW228185   4.481   4.326   8.700  2.2419 -0.3455  0.2328
 5517SOL     OW28186   0.691   2.081   9.248  0.2916 -0.8253 -0.1508
 5517SOL    HW128187   0.740   2.042   9.321  0.1707 -0.4233  0.1494
 5517SOL    HW228188   0.758   2.145   9.226  0.7534 -2.1204 -2.4153
 5518SOL     OW28189   0.503   3.460  15.840 -0.1670 -0.0344 -0.1658
 5518SOL    HW128190   0.582   3.485  15.791 -0.6856  1.2065 -0.3762
 5518SOL    HW228191   0.505   3.512  15.921  1.0431 -1.5837  0.7925
 5519SOL     OW28192   1.672   1.837   4.685  0.2409  0.0251 -0.2990
 5519SOL    HW128193   1.767   1.835   4.672  0.6412 -0.7632  2.6585
 5519SOL    HW228194   1.653   1.760   4.738 -0.7964 -0.7811 -1.8395
 5520SOL     OW28195   1.210   2.474  13.022  0.2141  0.4421  0.1773
 5520SOL    HW128196   1.291   2.510  12.987 -1.0451  0.0841 -3.0894
 5520SOL    HW228197   1.242   2.389  13.051  0.2157  0.1610 -0.6453
 5521SOL     OW28198   0.094   4.269   4.977  0.3730  0.0132  0.0806
 5521SOL    HW128199   0.095   4.184   5.020  0.4119  0.1249  0.3007
 5521SOL    HW228200   0.141   4.317   5.045 -2.7712 -1.9549  3.6970
 5522SOL     OW28201   1.172   0.845   3.081  0.0960  0.3340  0.3826
 5522SOL    HW128202   1.257   0.829   3.040  0.9008  1.0597  1.7911
 5522SOL    HW228203   1.177   0.941   3.081 -0.2244  0.3441  1.4263
 5523SOL     OW28204   2.013   3.103   3.820  0.4954 -0.0611 -0.2819
 5523SOL    HW128205   1.993   3.150   3.901  0.0282  0.1649 -0.5351
 5523SOL    HW228206   2.108   3.093   3.829  0.6491  0.1903 -1.6500
 5524SOL     OW28207   1.509   2.262   3.266 -0.1510 -0.0896  0.1107
 5524SOL    HW128208   1.536   2.347   3.300 -2.3973 -0.1349  1.9968
 5524SOL    HW228209   1.553   2.271   3.181 -0.8103  1.0696 -0.1138
 5525SOL     OW28210   2.765   2.977  12.520  0.2657 -0.2622 -0.1689
 5525SOL    HW128211   2.775   3.040  12.591  0.0229 -0.6817  0.2389
 5525SOL    HW228212   2.682   3.016  12.490  0.9210 -0.3564 -2.1043
 5526SOL     OW28213   3.106   4.143   8.514  0.1602 -0.3209 -0.2592
 5526SOL    HW128214   3.169   4.079   8.481 -0.2547 -1.5082  1.2891
 5526SOL    HW228215   3.103   4.198   8.435  1.0872  1.1740  0.7412
 5527SOL     OW28216   2.832   1.135   0.418  0.4927 -0.3185  0.1074
 5527SOL    HW128217   2.875   1.215   0.446  0.5943 -0.3570  0.0643
 5527SOL    HW228218   2.741   1.163   0.420  0.3293 -0.8168 -0.1789
 5528SOL     OW28219   1.178   4.719   8.098 -0.1915  1.1610 -0.4357
 5528SOL    HW128220   1.263   4.716   8.054 -0.8979 -0.6603 -1.6893
 5528SOL    HW228221   1.189   4.638   8.149 -3.1234  0.0131 -1.6062
 5529SOL     OW28222   1.307   2.335  14.745  0.4641 -0.1560 -0.0985
 5529SOL    HW128223   1.387   2.298  14.783  0.8136 -3.4720 -4.1013
 5529SOL    HW228224   1.261   2.262  14.703 -2.7771  2.0808 -0.4298
 5530SOL     OW28225   3.358   1.512   5.913 -0.3619 -0.2262  0.0751
 5530SOL    HW128226   3.396   1.435   5.954 -2.1854 -1.0279  0.2793
 5530SOL    HW228227   3.409   1.513   5.832  0.5782  1.2954  0.6960
 5531SOL     OW28228   4.090   1.719   6.202  0.0848  0.5085  0.0438
 5531SOL    HW128229   4.134   1.765   6.130 -1.2223 -0.8409 -1.6312
 5531SOL    HW228230   4.103   1.626   6.182 -0.0703  0.8143 -1.5500
 5532SOL     OW28231   4.603   0.599   2.356 -0.3758  0.1223 -0.1718
 5532SOL    HW128232   4.674   0.646   2.312 -0.3197 -0.9768 -1.2353
 5532SOL    HW228233   4.538   0.594   2.286 -1.3478  1.2750  0.6408
 5533SOL     OW28234   4.645   2.389   7.408  0.8728 -0.2155 -0.4001
 5533SOL    HW128235   4.711   2.439   7.456 -0.2008  2.1753 -1.4037
 5533SOL    HW228236   4.642   2.307   7.458  1.3908  0.5570  0.8877
 5534SOL     OW28237   3.351   3.694   3.505  0.8759  0.9406  0.3601
 5534SOL    HW128238   3.271   3.744   3.489  1.1004  0.6583 -1.6402
 5534SOL    HW228239   3.315   3.606   3.518  0.5763  0.5745 -3.0475
 5535SOL     OW28240   1.565   3.239  13.071 -0.3296  0.2844  0.0377
 5535SOL    HW128241   1.545   3.163  13.015  0.8005  0.6307 -0.8382
 5535SOL    HW228242   1.653   3.253  13.035  0.6951 -3.7132  1.0092
 5536SOL     OW28243   4.527   2.120  12.886 -0.5405 -0.7883 -0.1373
 5536SOL    HW128244   4.616   2.155  12.892 -0.8448 -0.2726  1.4432
 5536SOL    HW228245   4.503   2.153  12.800  1.5811 -0.1863 -0.4975
 5537SOL     OW28246   1.936   1.635   5.871  0.4321  0.3718  0.5640
 5537SOL    HW128247   1.916   1.600   5.958  0.5605 -1.5102 -0.1549
 5537SOL    HW228248   1.875   1.586   5.815  1.4925 -1.4037  0.9377
 5538SOL     OW28249   1.415   2.407   1.717  0.2765  0.4019  0.2705
 5538SOL    HW128250   1.497   2.430   1.762 -0.5619  2.9560  0.4928
 5538SOL    HW228251   1.448   2.335   1.664 -0.0659  0.7205 -0.3693
 5539SOL     OW28252   0.650   1.433   1.672 -0.0549 -0.1052  0.0200
 5539SOL    HW128253   0.707   1.360   1.697 -0.2130 -0.3096 -0.2183
 5539SOL    HW228254   0.683   1.497   1.736  1.4025  0.0827 -0.9150
 5540SOL     OW28255   1.866   1.846   1.616 -0.3008 -0.3507  0.2096
 5540SOL    HW128256   1.882   1.806   1.531 -1.5259  0.7255 -0.5237
 5540SOL    HW228257   1.881   1.775   1.678  0.2986 -0.7722 -0.4185
 5541SOL     OW28258   0.090   2.896   7.278 -0.6110  0.6209  0.3901
 5541SOL    HW128259   0.184   2.876   7.285 -0.8326 -0.2722  0.8278
 5541SOL    HW228260   0.055   2.907   7.366  1.4722  0.9700  1.1670
 5542SOL     OW28261   2.730   0.961   5.906 -0.3155 -0.0443  0.4410
 5542SOL    HW128262   2.794   0.994   5.969  0.7777 -4.0275  1.4145
 5542SOL    HW228263   2.659   1.024   5.914 -1.4694 -0.9550 -2.5311
 5543SOL     OW28264   2.466   0.589   8.302  0.0265 -0.5362 -0.2219
 5543SOL    HW128265   2.443   0.663   8.246 -0.6996  0.8291  1.8598
 5543SOL    HW228266   2.385   0.538   8.300 -0.2687 -0.1344  1.0306
 5544SOL     OW28267   0.898   2.920  17.525 -0.1933  0.6733  0.5559
 5544SOL    HW128268   0.880   2.964  17.608 -0.8027 -0.5317  1.0547
 5544SOL    HW228269   0.944   2.841  17.554 -0.6602  0.7142  1.3978
 5545SOL     OW28270   2.087   0.531   3.851 -0.7061 -0.3128 -0.4367
 5545SOL    HW128271   2.000   0.556   3.881 -0.4617 -0.6460  0.5678
 5545SOL    HW228272   2.065   0.439   3.837 -2.7395  0.4234 -1.9910
 5546SOL     OW28273   3.217   2.588   6.282  1.1966  0.4036 -0.6502
 5546SOL    HW128274   3.276   2.653   6.321  2.7141 -1.9853  1.0108
 5546SOL    HW228275   3.167   2.558   6.358 -1.1189  0.3938 -2.1711
 5547SOL     OW28276   2.898   0.130   6.900 -0.3993 -0.3579 -0.3688
 5547SOL    HW128277   2.919   0.059   6.961 -0.2417  1.1611  1.3358
 5547SOL    HW228278   2.900   0.202   6.962  1.5205 -0.4900 -0.2814
 5548SOL     OW28279   2.437   2.411   2.951  0.1330 -0.6710 -0.3762
 5548SOL    HW128280   2.374   2.483   2.953  0.5929 -0.2939  0.4208
 5548SOL    HW228281   2.388   2.349   2.897 -1.1361 -0.9856  1.1478
 5549SOL     OW28282   2.645   3.277   4.882  0.7044  0.4120  0.0898
 5549SOL    HW128283   2.676   3.227   4.957  0.6696 -0.4979 -0.5007
 5549SOL    HW228284   2.660   3.368   4.908  2.5717  0.4665 -1.1114
 5550SOL     OW28285   1.421   3.727   2.034  0.7037  0.1871  0.4987
 5550SOL    HW128286   1.379   3.645   2.006  0.3480  0.8215 -0.8252
 5550SOL    HW228287   1.489   3.707   2.098  1.8216  0.0309 -0.7557
 5551SOL     OW28288   2.339   2.037   6.483  0.3975  0.1418  0.4288
 5551SOL    HW128289   2.403   2.037   6.412  0.2105 -0.4820  0.2606
 5551SOL    HW228290   2.293   2.115   6.452 -2.1900 -0.8439  1.7769
 5552SOL     OW28291   2.837   4.185   8.353  0.4857 -0.3826  0.9318
 5552SOL    HW128292   2.745   4.211   8.353  0.9232  1.1414  2.5688
 5552SOL    HW228293   2.882   4.267   8.333 -1.8263  0.2912 -1.5837
 5553SOL     OW28294   2.382   2.261   5.653 -0.1229 -0.2473  0.2701
 5553SOL    HW128295   2.331   2.257   5.572  0.4107 -0.3838 -0.0653
 5553SOL    HW228296   2.456   2.321   5.644  0.0206 -0.5548 -0.5975
 5554SOL     OW28297   4.198   0.818   9.842 -0.3963  0.5031  0.3633
 5554SOL    HW128298   4.284   0.860   9.844 -0.9662  1.6875  0.4093
 5554SOL    HW228299   4.211   0.753   9.773 -1.6605  2.0538 -1.3661
 5555SOL     OW28300   4.479   0.895  13.695  0.3141  0.2105 -0.1815
 5555SOL    HW128301   4.407   0.863  13.749 -0.3660  0.1001 -1.1595
 5555SOL    HW228302   4.522   0.954  13.756 -0.8720  2.8884 -1.9285
 5556SOL     OW28303   1.145   2.094   7.202 -0.2025  0.0990  0.2913
 5556SOL    HW128304   1.058   2.126   7.228  0.2024 -0.7226  2.7155
 5556SOL    HW228305   1.145   2.003   7.231 -2.1528 -0.5031 -1.5739
 5557SOL     OW28306   0.518   2.676  12.120 -0.3899 -0.0972  0.5393
 5557SOL    HW128307   0.611   2.663  12.101 -0.4371  0.7313 -0.2892
 5557SOL    HW228308   0.523   2.708  12.210  2.4551  0.5114  0.1408
 5558SOL     OW28309   3.250   1.849   0.540  0.1576  0.2189  0.3116
 5558SOL    HW128310   3.282   1.850   0.630 -0.9741 -3.4632  0.7447
 5558SOL    HW228311   3.315   1.801   0.489  0.2824 -1.0442  1.6610
 5559SOL     OW28312   3.167   3.139  16.099 -0.2527 -0.4744  0.2400
 5559SOL    HW128313   3.090   3.107  16.144  0.1048  0.8711  1.7996
 5559SOL    HW228314   3.234   3.121  16.165  1.9845  2.3459 -1.2358
 5560SOL     OW28315   0.466   0.549  12.541 -0.1712 -0.4936 -0.2466
 5560SOL    HW128316   0.373   0.567  12.555 -0.0927 -1.9107  2.0612
 5560SOL    HW228317   0.471   0.510  12.454 -1.4600 -1.4357  0.1017
 5561SOL     OW28318   0.374   3.652   8.697  0.1939  0.1460  0.1190
 5561SOL    HW128319   0.384   3.671   8.790 -1.5883 -0.9422  0.5305
 5561SOL    HW228320   0.387   3.557   8.698 -0.7959  0.0219  0.8316
 5562SOL     OW28321   3.653   3.966   4.143  1.0981 -0.1582  0.0336
 5562SOL    HW128322   3.689   3.959   4.055  1.0076  0.9237 -0.0940
 5562SOL    HW228323   3.722   4.011   4.191  0.0381 -0.4803  1.8612
 5563SOL     OW28324   4.380   3.779   3.771 -0.1732  0.0366 -0.4479
 5563SOL    HW128325   4.421   3.710   3.720 -0.8228  0.1500 -1.1219
 5563SOL    HW228326   4.364   3.843   3.702  1.4690  2.8540  1.7679
 5564SOL     OW28327   1.288   2.429   4.120  0.1423  0.3886  0.1606
 5564SOL    HW128328   1.339   2.496   4.165  0.3195  0.6761 -0.4794
 5564SOL    HW228329   1.313   2.345   4.158  1.7159  0.9011  0.2348
 5565SOL     OW28330   1.949   2.424   1.792  0.3227 -0.2966 -0.1038
 5565SOL    HW128331   1.871   2.390   1.749  0.5909 -1.4872  0.3406
 5565SOL    HW228332   2.014   2.355   1.781  1.0169  0.4686 -0.7507
 5566SOL     OW28333   3.045   0.584  10.589 -0.1385 -0.3251  0.3191
 5566SOL    HW128334   3.096   0.615  10.514  0.5577 -0.3976  0.7550
 5566SOL    HW228335   2.956   0.608  10.563  0.7691  1.8376 -0.7902
 5567SOL     OW28336   0.312   4.460  12.264  0.7397 -0.4211 -0.1867
 5567SOL    HW128337   0.406   4.473  12.265  0.5711  0.8353 -0.6732
 5567SOL    HW228338   0.311   4.388  12.328 -0.0637  1.8171  2.3609
 5568SOL     OW28339   2.609   1.787   4.156  0.0711  0.1481  0.0785
 5568SOL    HW128340   2.676   1.782   4.224  0.5353 -1.0267 -0.4652
 5568SOL    HW228341   2.618   1.878   4.128 -2.0209  0.5071  0.5372
 5569SOL     OW28342   3.608   4.398   3.310  0.6658  0.2960 -0.5906
 5569SOL    HW128343   3.569   4.427   3.393 -0.6048  0.1692 -1.1497
 5569SOL    HW228344   3.530   4.362   3.269  1.4098  0.1079 -1.8514
 5570SOL     OW28345   0.652   1.785   7.778  0.4282 -0.4726 -0.5192
 5570SOL    HW128346   0.615   1.797   7.690  1.7903  1.2571 -0.8805
 5570SOL    HW228347   0.707   1.709   7.761 -0.0504 -0.5937 -1.5444
 5571SOL     OW28348   2.662   0.285   8.418 -0.0685  0.6519 -0.4534
 5571SOL    HW128349   2.598   0.232   8.466 -0.5206  0.1224 -1.6249
 5571SOL    HW228350   2.642   0.374   8.446  0.0521  0.7690 -0.7391
 5572SOL     OW28351   4.108   4.128   7.058 -0.1555 -0.1855  0.3826
 5572SOL    HW128352   4.202   4.133   7.072  0.2851  1.1839 -3.0268
 5572SOL    HW228353   4.110   4.037   7.028 -0.4065 -0.2949  0.7023
 5573SOL     OW28354   3.936   0.047  16.870  0.1278 -0.0480  0.0930
 5573SOL    HW128355   3.953   0.104  16.945 -0.2091  1.6895 -1.1603
 5573SOL    HW228356   3.852   0.005  16.891  0.3749 -0.1214  0.9481
 5574SOL     OW28357   3.196   0.426  16.968  0.0577 -0.3276  0.1097
 5574SOL    HW128358   3.282   0.393  16.995 -1.4115 -1.3800  3.4524
 5574SOL    HW228359   3.215   0.482  16.892 -0.4680 -1.8030 -1.1139
 5575SOL     OW28360   3.014   3.596   7.353 -0.0901  0.1351  0.3260
 5575SOL    HW128361   3.090   3.654   7.344  1.0076 -1.2957  0.2412
 5575SOL    HW228362   2.937   3.650   7.337  0.1017  0.1571 -0.5235
 5576SOL     OW28363   0.570   4.233  12.698  0.2238  0.0562 -0.2192
 5576SOL    HW128364   0.594   4.211  12.608  2.1640  0.4566  0.2118
 5576SOL    HW228365   0.624   4.310  12.711  0.1147  0.1628 -0.4028
 5577SOL     OW28366   4.453   1.980   3.054  0.2004  0.1526 -0.2615
 5577SOL    HW128367   4.480   1.947   2.969 -0.0354 -2.2548  0.5979
 5577SOL    HW228368   4.365   1.942   3.056  0.4481 -0.4212 -0.1969
 5578SOL     OW28369   0.436   0.410   7.475  0.3019  0.3302  0.0436
 5578SOL    HW128370   0.459   0.447   7.390 -0.9838 -0.6635 -0.7394
 5578SOL    HW228371   0.401   0.326   7.444 -1.9122  0.2268  2.8123
 5579SOL     OW28372   0.599   2.043   7.015 -0.7522 -0.1215 -0.6199
 5579SOL    HW128373   0.521   2.010   7.059 -0.3664 -0.9148 -0.5291
 5579SOL    HW228374   0.582   2.137   7.008  2.5892  0.5551  0.3477
 5580SOL     OW28375   0.695   2.359   7.994  0.5936 -0.8776  0.1322
 5580SOL    HW128376   0.769   2.299   7.999  1.6854  0.4913  0.3702
 5580SOL    HW228377   0.735   2.445   8.003  1.0724 -0.9335 -1.5139
 5581SOL     OW28378   3.033   3.271   3.252 -0.2974 -0.2499  0.0729
 5581SOL    HW128379   2.987   3.260   3.335 -2.4030 -2.2746 -1.3394
 5581SOL    HW228380   3.126   3.252   3.262  0.1699  2.7909  1.4659
 5582SOL     OW28381   0.102   1.080   9.032  0.5239 -0.1808 -0.1585
 5582SOL    HW128382   0.179   1.036   9.069  0.4880  0.7488  1.0469
 5582SOL    HW228383   0.131   1.171   9.033  3.6544 -1.2063  1.1517
 5583SOL     OW28384   3.583   2.519   1.323  0.1167  0.1240 -0.0064
 5583SOL    HW128385   3.573   2.614   1.320  1.2354  0.3239  2.5827
 5583SOL    HW228386   3.677   2.506   1.331  0.3089  2.2588  1.3044
 5584SOL     OW28387   4.458   4.493  13.212  0.3977  0.0396 -0.3013
 5584SOL    HW128388   4.454   4.575  13.164 -1.4253 -1.3105 -2.4458
 5584SOL    HW228389   4.554   4.495  13.220  0.3354 -0.1483  0.5129
 5585SOL     OW28390   1.963   1.937  10.673 -0.4485  0.0712  0.3659
 5585SOL    HW128391   2.056   1.922  10.690 -0.4228 -0.2202 -0.0364
 5585SOL    HW228392   1.969   2.029  10.646  2.9680 -0.2146  0.1751
 5586SOL     OW28393   1.288   4.256   6.927 -0.9514 -0.4233  0.1681
 5586SOL    HW128394   1.345   4.278   6.854  0.0336  0.2960  1.1550
 5586SOL    HW228395   1.224   4.210   6.873 -1.0758 -1.1739  0.9526
 5587SOL     OW28396   4.058   1.162   6.007  0.0178 -0.8071  0.0778
 5587SOL    HW128397   4.111   1.151   5.928  0.1342  0.2280  0.0080
 5587SOL    HW228398   4.125   1.195   6.066  0.3460 -2.2905  0.5316
 5588SOL     OW28399   3.160   4.484   3.054 -0.0921  0.1302  0.1575
 5588SOL    HW128400   3.203   4.563   3.086 -1.8611  1.0705  0.1739
 5588SOL    HW228401   3.162   4.500   2.960  0.0014  0.8997  0.2942
 5589SOL     OW28402   4.166   1.537   7.681  0.6329 -0.1980  0.3238
 5589SOL    HW128403   4.204   1.456   7.714 -0.3993 -0.5167  0.7006
 5589SOL    HW228404   4.214   1.600   7.735  1.8462 -2.8869  2.3867
 5590SOL     OW28405   4.173   3.528  16.824 -0.5970  0.4641  0.5431
 5590SOL    HW128406   4.227   3.455  16.856 -0.9101 -0.2335 -0.5066
 5590SOL    HW228407   4.154   3.570  16.908  0.2461  1.2464  0.3386
 5591SOL     OW28408   0.921   4.112   7.388 -0.4817  0.9927 -0.2454
 5591SOL    HW128409   0.951   4.134   7.300  0.0841 -0.3723 -0.3901
 5591SOL    HW228410   0.872   4.032   7.369  1.0892  0.2017 -0.9529
 5592SOL     OW28411   3.377   1.526   4.971 -0.2934  0.5415  0.1179
 5592SOL    HW128412   3.458   1.572   4.948 -1.3307  1.9469 -0.7672
 5592SOL    HW228413   3.406   1.492   5.056  1.6054 -1.2869 -1.2832
 5593SOL     OW28414   1.757   4.624   5.618 -0.3373 -0.0945 -0.1703
 5593SOL    HW128415   1.680   4.583   5.657 -0.8527  1.3836  0.3423
 5593SOL    HW228416   1.720   4.685   5.554 -0.6526 -0.1141 -0.0055
 5594SOL     OW28417   0.031   2.837   5.398 -0.2958  0.0123  0.1779
 5594SOL    HW128418   0.078   2.811   5.477 -2.1512 -0.5051  1.1194
 5594SOL    HW228419   4.692   2.778   5.396 -0.4797  0.3538 -2.7865
 5595SOL     OW28420   1.402   3.656   4.396 -0.0002  0.6214 -0.4299
 5595SOL    HW128421   1.386   3.562   4.381 -0.7998  1.0309 -2.0906
 5595SOL    HW228422   1.479   3.646   4.453 -0.7618  0.7331  0.6092
 5596SOL     OW28423   3.175   0.601   5.318  0.1587 -0.4192 -0.1128
 5596SOL    HW128424   3.198   0.509   5.304 -0.6116 -0.5560 -0.5166
 5596SOL    HW228425   3.081   0.596   5.336  0.7019 -1.8634  2.3581
 5597SOL     OW28426   0.511   1.643   2.112 -0.1029  0.0930 -0.0904
 5597SOL    HW128427   0.464   1.695   2.048  2.1967  0.9543 -1.0570
 5597SOL    HW228428   0.452   1.567   2.109 -1.5774  1.2219  0.5381
 5598SOL     OW28429   4.545   2.584  13.470 -0.7790  0.1859  0.5248
 5598SOL    HW128430   4.497   2.596  13.552 -0.3013 -0.6988  0.9282
 5598SOL    HW228431   4.531   2.667  13.424  0.2478 -0.4507 -0.9581
 5599SOL     OW28432   1.655   3.220   1.917 -0.4173 -0.4949  0.4074
 5599SOL    HW128433   1.623   3.308   1.896 -1.0527 -1.0819 -1.0513
 5599SOL    HW228434   1.636   3.204   2.009  0.7602  0.9896  0.9179
 5600SOL     OW28435   3.351   2.240   9.802  0.1282 -0.1587 -0.4447
 5600SOL    HW128436   3.326   2.277   9.717  0.7784  1.2064 -0.0529
 5600SOL    HW228437   3.265   2.203   9.821 -0.7128  2.7887  1.5479
 5601SOL     OW28438   2.926   4.593   2.667  0.1307 -0.2304  0.2969
 5601SOL    HW128439   2.963   4.529   2.728 -0.9988  1.5024  2.7768
 5601SOL    HW228440   2.983   4.581   2.592  1.3714  0.9719  1.0537
 5602SOL     OW28441   1.966   2.273   2.614 -0.0930  0.1989 -0.0699
 5602SOL    HW128442   1.889   2.263   2.670 -1.1266 -0.6466 -1.6486
 5602SOL    HW228443   1.931   2.282   2.526 -3.8584  1.0011  1.4850
 5603SOL     OW28444   4.125   4.430  10.806  0.0289 -0.6874 -0.0232
 5603SOL    HW128445   4.145   4.427  10.899  0.0596 -1.3714 -0.0523
 5603SOL    HW228446   4.177   4.364  10.761 -0.1187  0.7020 -2.2722
 5604SOL     OW28447   4.650   4.677   8.074 -0.1581  0.7162 -0.2036
 5604SOL    HW128448   4.685   0.027   8.095  0.6094 -0.0513  1.7325
 5604SOL    HW228449   4.638   4.676   7.980  1.0239  0.4137 -0.3518
 5605SOL     OW28450   3.909   1.131   0.421  0.1669 -0.0437 -0.1829
 5605SOL    HW128451   3.824   1.176   0.423 -1.0336 -2.3813  0.9441
 5605SOL    HW228452   3.922   1.086   0.338 -1.7863  0.7859 -0.9609
 5606SOL     OW28453   1.464   1.148   8.336  0.1823  0.4087  0.0135
 5606SOL    HW128454   1.543   1.171   8.386 -0.0878  0.6441  0.3314
 5606SOL    HW228455   1.410   1.227   8.342 -0.7684 -0.1369 -1.5361
 5607SOL     OW28456   2.620   1.104   7.037  0.0039  1.0238 -0.3189
 5607SOL    HW128457   2.681   1.128   7.107 -0.5846 -1.4270  1.0465
 5607SOL    HW228458   2.612   1.180   6.980 -0.6843  0.5651 -0.8220
 5608SOL     OW28459   1.239   3.344   7.289 -0.4196 -0.8682 -0.3215
 5608SOL    HW128460   1.292   3.423   7.305 -1.2354 -0.6136  1.1292
 5608SOL    HW228461   1.175   3.390   7.235 -0.4852 -1.8610 -1.0936
 5609SOL     OW28462   2.225   1.898  10.691 -0.3866  0.2777 -0.0677
 5609SOL    HW128463   2.272   1.934  10.616  0.6512 -0.8900  0.0320
 5609SOL    HW228464   2.293   1.847  10.734  0.6119  0.5338 -1.3507
 5610SOL     OW28465   2.572   2.697   4.411 -0.3775 -0.0058 -0.4051
 5610SOL    HW128466   2.532   2.634   4.351  0.6722 -0.0062 -1.0999
 5610SOL    HW228467   2.532   2.666   4.492 -2.5652  2.0074 -0.6964
 5611SOL     OW28468   2.476   1.386  11.505  0.5182 -0.1847  0.3961
 5611SOL    HW128469   2.554   1.335  11.526  0.1947 -0.2710  1.4042
 5611SOL    HW228470   2.454   1.412  11.594 -1.0024 -1.0017  0.2652
 5612SOL     OW28471   1.143   0.335   5.428  0.1258 -0.5098  0.4686
 5612SOL    HW128472   1.165   0.242   5.422  0.5112 -0.1687 -3.3395
 5612SOL    HW228473   1.204   0.373   5.365  0.7084 -1.4785  0.4477
 5613SOL     OW28474   1.671   0.422   7.714  0.1668 -0.1091 -0.2095
 5613SOL    HW128475   1.635   0.509   7.731 -1.6697 -0.8646 -0.1875
 5613SOL    HW228476   1.730   0.413   7.789  0.6913  1.7295 -0.4180
 5614SOL     OW28477   4.315   4.344   4.083 -0.2566  0.2035 -0.5791
 5614SOL    HW128478   4.404   4.338   4.118 -0.0175 -1.0814 -1.4087
 5614SOL    HW228479   4.298   4.251   4.072  0.6004 -0.0501  0.1812
 5615SOL     OW28480   0.088   3.706   1.320  0.0287 -0.7142  0.8890
 5615SOL    HW128481   0.164   3.764   1.311 -0.7419 -0.0943 -1.5140
 5615SOL    HW228482   0.053   3.733   1.405  0.7638 -0.7546  1.2070
 5616SOL     OW28483   1.819   0.739   8.770 -0.7844  0.0888 -0.4340
 5616SOL    HW128484   1.782   0.779   8.692 -1.9872  1.2236  0.7336
 5616SOL    HW228485   1.904   0.783   8.771  0.3538 -2.1077  2.7865
 5617SOL     OW28486   0.085   4.328  17.147  0.1253  0.1471  0.1985
 5617SOL    HW128487   0.066   4.253  17.203 -0.6227 -0.7322 -1.2471
 5617SOL    HW228488   0.000   4.332  17.104  0.3384 -0.7425 -0.2963
 5618SOL     OW28489   3.623   2.202   1.627 -0.1844 -0.3525  0.4054
 5618SOL    HW128490   3.604   2.160   1.711  0.3362  1.1596  1.2774
 5618SOL    HW228491   3.601   2.293   1.647  0.5393  0.1598 -1.0831
 5619SOL     OW28492   1.956   3.847   6.212 -0.0467 -0.2401  0.3504
 5619SOL    HW128493   1.866   3.814   6.215  0.2974 -1.3235 -1.0100
 5619SOL    HW228494   1.941   3.931   6.169 -2.1260 -1.2522 -0.8751
 5620SOL     OW28495   4.026   3.314   4.838 -0.1734 -0.3348  0.4939
 5620SOL    HW128496   4.018   3.266   4.757 -0.3170  1.9081 -0.8333
 5620SOL    HW228497   3.950   3.371   4.830  0.9828  0.8155 -2.1737
 5621SOL     OW28498   2.582   1.750   1.666 -0.4153 -0.3019  0.3624
 5621SOL    HW128499   2.663   1.706   1.693  0.1349  0.4116 -0.1086
 5621SOL    HW228500   2.519   1.726   1.734 -0.9305  2.5098  0.9081
 5622SOL     OW28501   4.131   3.459  10.732 -0.3808  0.4688  0.6165
 5622SOL    HW128502   4.081   3.407  10.669 -1.5254 -0.5771  2.3651
 5622SOL    HW228503   4.196   3.393  10.757 -0.4874  0.3658  0.6250
 5623SOL     OW28504   1.821   0.776   6.039  0.5005 -0.5075  0.5515
 5623SOL    HW128505   1.909   0.770   6.075  1.3390 -0.6181 -1.5129
 5623SOL    HW228506   1.827   0.718   5.963 -1.8221 -1.1403  0.8458
 5624SOL     OW28507   3.006   0.260   2.195  0.2321  0.1328  0.0269
 5624SOL    HW128508   3.010   0.165   2.184  0.0150  0.0476  0.7230
 5624SOL    HW228509   2.986   0.255   2.288  3.4612 -2.5014  0.5821
 5625SOL     OW28510   3.022   2.412  11.045  0.4536 -0.6319  0.2790
 5625SOL    HW128511   3.034   2.506  11.053 -0.1665 -0.2372 -3.3377
 5625SOL    HW228512   3.030   2.394  10.951 -0.3193  4.0009 -0.6442
 5626SOL     OW28513   3.314   3.190   3.270  0.5122  0.6325  0.0517
 5626SOL    HW128514   3.298   3.104   3.309  0.9992 -0.2554 -1.7024
 5626SOL    HW228515   3.400   3.184   3.230  0.4737  0.7186 -0.0439
 5627SOL     OW28516   1.607   4.368   9.069 -0.2696 -0.3084 -0.3348
 5627SOL    HW128517   1.617   4.274   9.057  2.0621  0.1852 -2.3649
 5627SOL    HW228518   1.606   4.404   8.980  2.0472 -0.2760 -0.3480
 5628SOL     OW28519   2.306   1.056   0.700  0.2121  0.3583  0.3579
 5628SOL    HW128520   2.360   1.017   0.769  1.5216  2.1986  0.3796
 5628SOL    HW228521   2.372   1.113   0.662  1.7806 -0.6917  1.5096
 5629SOL     OW28522   1.364   2.021   5.286  0.0658  0.5375  0.0113
 5629SOL    HW128523   1.364   2.095   5.226  1.2679  0.2511 -0.3340
 5629SOL    HW228524   1.270   2.023   5.308 -0.2214  1.4960 -1.3147
 5630SOL     OW28525   2.057   2.413   0.707  0.3452 -0.5104 -0.7839
 5630SOL    HW128526   2.073   2.423   0.614  1.0949  0.4921 -0.5431
 5630SOL    HW228527   2.095   2.326   0.721  3.1414  0.9415  0.7067
 5631SOL     OW28528   0.545   1.521   9.624 -0.0755 -0.2518 -0.3860
 5631SOL    HW128529   0.561   1.537   9.531  0.8585 -0.5871 -0.2799
 5631SOL    HW228530   0.479   1.588   9.642 -1.8743 -1.4259 -2.5779
 5632SOL     OW28531   1.374   3.484   5.113  0.4111 -0.2840  0.8164
 5632SOL    HW128532   1.353   3.400   5.155 -1.1688 -0.4615 -0.3336
 5632SOL    HW228533   1.322   3.547   5.163 -0.1461  1.0045 -1.3704
 5633SOL     OW28534   1.106   0.883   9.807  0.2989  0.0637 -0.1210
 5633SOL    HW128535   1.190   0.911   9.772 -1.2495  3.4229 -1.1347
 5633SOL    HW228536   1.110   0.794   9.773 -1.1343  0.0126 -0.1606
 5634SOL     OW28537   3.435   4.236   2.816 -0.0703 -0.2284  0.3205
 5634SOL    HW128538   3.402   4.305   2.873 -1.4309  0.7888 -1.7032
 5634SOL    HW228539   3.517   4.207   2.857  0.8616  1.1335 -0.5568
 5635SOL     OW28540   0.611   4.066   3.297  0.0052 -0.4979 -0.1916
 5635SOL    HW128541   0.576   4.003   3.361  1.0112  0.3654  1.2161
 5635SOL    HW228542   0.656   4.003   3.241 -0.9768 -0.1094 -1.4137
 5636SOL     OW28543   3.584   4.691   8.734  0.3048  0.6293 -0.1791
 5636SOL    HW128544   3.601   0.048   8.732 -0.7910  0.8324  0.2491
 5636SOL    HW228545   3.632   4.665   8.655 -0.6269  2.7679 -1.4545
 5637SOL     OW28546   3.432   0.210   8.925  0.0120  0.3676 -0.0452
 5637SOL    HW128547   3.513   0.190   8.877 -2.0396 -1.9601 -2.5542
 5637SOL    HW228548   3.471   0.214   9.012 -0.4005 -0.4938  0.1751
 5638SOL     OW28549   1.174   2.366   4.461 -0.9969 -0.4517 -0.1505
 5638SOL    HW128550   1.198   2.323   4.544  1.3159  2.2840  0.5857
 5638SOL    HW228551   1.183   2.284   4.412 -0.8699 -0.8204  0.4784
 5639SOL     OW28552   0.102   3.708   3.642 -0.4310  0.4095  0.2760
 5639SOL    HW128553   0.186   3.753   3.649 -0.3936  0.3695  0.0999
 5639SOL    HW228554   0.047   3.779   3.609 -0.5383  0.3219  0.2671
 5640SOL     OW28555   0.116   0.464   4.386 -0.0549  0.0310  0.2868
 5640SOL    HW128556   0.075   0.394   4.436 -1.0216  0.8982  0.7163
 5640SOL    HW228557   0.111   0.425   4.299  1.1203  0.7826 -0.1128
 5641SOL     OW28558   3.579   2.410   2.823  0.5050 -0.5596 -0.2740
 5641SOL    HW128559   3.656   2.357   2.805 -0.7278 -1.4562 -2.8784
 5641SOL    HW228560   3.509   2.344   2.817  0.7301 -1.0744  2.4848
 5642SOL     OW28561   0.954   4.341  16.712 -0.0902  0.2017  0.3731
 5642SOL    HW128562   0.938   4.355  16.806  1.1094  1.8775  0.3172
 5642SOL    HW228563   1.039   4.383  16.702 -0.6232  1.0567 -0.5154
 5643SOL     OW28564   2.216   1.666   6.632 -0.4616 -0.1187  0.4590
 5643SOL    HW128565   2.228   1.617   6.551  0.5788  0.0487  0.5018
 5643SOL    HW228566   2.174   1.591   6.673 -0.5716  0.9610  2.3310
 5644SOL     OW28567   4.424   4.721  11.616 -0.0652 -0.4637  0.4604
 5644SOL    HW128568   4.369   0.062  11.624 -0.5371 -0.5868 -1.5972
 5644SOL    HW228569   4.449   4.714  11.524 -0.9929 -1.6657  0.2950
 5645SOL     OW28570   3.452   0.972   0.231  0.4271  0.5879  0.1671
 5645SOL    HW128571   3.400   1.046   0.200 -0.9394  0.2375  1.5963
 5645SOL    HW228572   3.434   0.902   0.168  2.0971  0.0680  0.2819
 5646SOL     OW28573   1.718   1.266   9.174  0.1629  0.3443  0.7709
 5646SOL    HW128574   1.629   1.267   9.139  0.7333  1.0562 -0.6624
 5646SOL    HW228575   1.721   1.176   9.205  0.9145  0.1767  0.2197
 5647SOL     OW28576   4.505   4.557   1.030  0.2562  0.4040 -0.5472
 5647SOL    HW128577   4.502   4.476   0.979  0.5807  1.5869 -2.4426
 5647SOL    HW228578   4.512   4.624   0.961 -1.2485  0.8946 -0.2310
 5648SOL     OW28579   2.567   3.440   5.700  0.2625 -1.2360 -0.1227
 5648SOL    HW128580   2.493   3.501   5.693  0.6532 -0.4769  2.6676
 5648SOL    HW228581   2.608   3.457   5.784 -0.1908 -1.9641  0.2437
 5649SOL     OW28582   2.059   2.911   2.090 -0.2755 -0.1209 -0.0750
 5649SOL    HW128583   2.128   2.871   2.037 -0.5617 -0.1090 -0.4580
 5649SOL    HW228584   1.991   2.923   2.023 -3.6601 -1.0863  3.2128
 5650SOL     OW28585   4.438   2.395  16.467 -0.3138  0.1029  1.1719
 5650SOL    HW128586   4.401   2.308  16.473 -0.6806  0.0856 -1.0390
 5650SOL    HW228587   4.396   2.437  16.392 -1.4790 -2.7169  0.2606
 5651SOL     OW28588   4.489   3.471   9.422 -0.3733  0.7491 -0.2398
 5651SOL    HW128589   4.528   3.538   9.366  0.1214  1.4077  0.8942
 5651SOL    HW228590   4.566   3.429   9.461 -0.5854 -1.0698 -1.8144
 5652SOL     OW28591   1.397   0.625   6.796 -0.0442 -0.0260 -0.1459
 5652SOL    HW128592   1.320   0.618   6.853  0.6436 -3.1753  0.3758
 5652SOL    HW228593   1.403   0.718   6.819 -2.0204 -0.0844  0.6422
 5653SOL     OW28594   1.454   3.832   7.878 -0.4306  0.5119 -0.2768
 5653SOL    HW128595   1.465   3.737   7.873 -2.2002  0.2902  0.0821
 5653SOL    HW228596   1.385   3.847   7.943  0.3108 -1.2923  0.9147
 5654SOL     OW28597   2.812   2.572  14.446  0.2016  0.1748  0.6373
 5654SOL    HW128598   2.794   2.563  14.353  0.6441 -0.1614  0.5821
 5654SOL    HW228599   2.791   2.663  14.467 -1.5085 -0.5730  2.1675
 5655SOL     OW28600   2.884   1.166   7.211  0.1242 -0.0702 -0.3917
 5655SOL    HW128601   2.874   1.208   7.296 -1.9931  1.4926 -1.4308
 5655SOL    HW228602   2.961   1.216   7.184  0.0646 -0.4234 -1.2180
 5656SOL     OW28603   0.753   3.671   8.113 -0.0485 -0.1763  0.1705
 5656SOL    HW128604   0.746   3.762   8.141  0.5330 -0.5623  1.5600
 5656SOL    HW228605   0.731   3.624   8.193  2.4649  0.3799  1.1971
 5657SOL     OW28606   0.149   4.132   6.480 -0.8300 -0.0872 -0.0281
 5657SOL    HW128607   0.096   4.055   6.466  0.6532 -1.0269 -0.4981
 5657SOL    HW228608   0.154   4.135   6.576  1.8313 -1.9831 -0.0895
 5658SOL     OW28609   2.882   0.879   4.163 -0.0207 -0.1483  0.2979
 5658SOL    HW128610   2.873   0.785   4.153  0.4392 -0.0194 -1.2702
 5658SOL    HW228611   2.918   0.897   4.076  1.7209  0.2187  1.0824
 5659SOL     OW28612   1.467   2.860   3.172  0.4708 -0.3291 -0.3484
 5659SOL    HW128613   1.468   2.764   3.173 -1.9122 -0.3586 -0.9937
 5659SOL    HW228614   1.466   2.882   3.079 -1.6306  2.3812  0.3033
 5660SOL     OW28615   0.673   0.732   4.591 -0.9510 -0.8624 -0.0373
 5660SOL    HW128616   0.660   0.698   4.502  1.6811  2.3089 -1.6452
 5660SOL    HW228617   0.613   0.806   4.600 -0.7132 -1.0840  3.2418
 5661SOL     OW28618   1.073   2.451  17.568  0.2287 -0.2523 -0.0859
 5661SOL    HW128619   1.157   2.488  17.541  0.4727  1.0242  2.4549
 5661SOL    HW228620   1.077   2.371  17.516 -0.1885 -0.9998  1.0463
 5662SOL     OW28621   3.167   1.241   8.032  0.3048 -0.2742 -0.2501
 5662SOL    HW128622   3.079   1.249   7.994  0.5782  2.1270 -0.3667
 5662SOL    HW228623   3.170   1.314   8.094  0.5816 -1.6736  1.3733
 5663SOL     OW28624   0.506   0.332  14.629  0.2860  0.0975 -0.4812
 5663SOL    HW128625   0.484   0.385  14.706  3.2917  0.1285  0.3757
 5663SOL    HW228626   0.458   0.251  14.644  2.0517 -0.8492  0.0211
 5664SOL     OW28627   1.352   4.642   0.453 -0.6627 -0.6508  0.2097
 5664SOL    HW128628   1.321   4.554   0.430 -0.0045 -0.8431  0.0561
 5664SOL    HW228629   1.311   4.658   0.538 -1.0962  1.3692 -0.3803
 5665SOL     OW28630   1.499   3.614  13.098  0.2755 -0.2450  0.1535
 5665SOL    HW128631   1.513   3.705  13.124 -2.1474 -0.1556  1.1880
 5665SOL    HW228632   1.442   3.588  13.170  0.9573 -1.2489  0.3315
 5666SOL     OW28633   4.406   1.823   4.419 -0.1237 -0.5851  0.3572
 5666SOL    HW128634   4.335   1.799   4.359  0.9357  0.7430 -1.4567
 5666SOL    HW228635   4.460   1.887   4.374  2.4220 -1.4127  2.2348
 5667SOL     OW28636   3.541   0.445  12.032  0.1333  0.3023  0.6886
 5667SOL    HW128637   3.500   0.433  11.946 -0.6189  1.0211  0.9434
 5667SOL    HW228638   3.469   0.405  12.079  0.8401 -2.0402 -0.2255
 5668SOL     OW28639   0.010   1.863   7.714 -0.4438 -0.4190  0.1008
 5668SOL    HW128640   0.099   1.855   7.747 -0.8085 -0.6971  1.0231
 5668SOL    HW228641   4.728   1.771   7.696  0.6249 -0.7603  0.6750
 5669SOL     OW28642   4.627   2.667   4.504 -0.2470 -0.6479 -0.0816
 5669SOL    HW128643   4.552   2.608   4.497 -1.3156  0.6862 -0.0150
 5669SOL    HW228644   4.570   2.729   4.550 -1.7058 -2.1165  0.1121
 5670SOL     OW28645   2.023   2.906  12.455  0.1978  0.1360  0.1400
 5670SOL    HW128646   1.999   2.919  12.363 -1.5589 -0.9922  0.4381
 5670SOL    HW228647   1.982   2.820  12.467  0.8303 -0.4231 -1.7132
 5671SOL     OW28648   1.499   4.153   1.924 -0.4304  0.2913 -0.1124
 5671SOL    HW128649   1.445   4.124   1.998  0.4907 -0.3605  0.3049
 5671SOL    HW228650   1.478   4.246   1.922  3.4728  1.1644 -0.3294
 5672SOL     OW28651   1.943   2.209   8.458  0.1548 -0.4758 -0.0762
 5672SOL    HW128652   1.976   2.297   8.439  0.9426 -1.1994 -2.0160
 5672SOL    HW228653   1.936   2.181   8.367  0.1763  0.2323 -0.2980
 5673SOL     OW28654   0.790   2.490   6.927  0.4186  0.1984  0.2568
 5673SOL    HW128655   0.724   2.537   6.979 -3.1637 -0.1100 -4.0985
 5673SOL    HW228656   0.792   2.403   6.967 -0.5695 -0.4036 -0.9891
 5674SOL     OW28657   4.253   3.878   0.810  0.4348 -0.0572  0.2898
 5674SOL    HW128658   4.181   3.901   0.869 -1.6266  1.8561 -2.9810
 5674SOL    HW228659   4.321   3.856   0.875  0.3986  0.5597  0.5395
 5675SOL     OW28660   4.681   3.394  15.079  0.2940 -0.3781 -0.6097
 5675SOL    HW128661   4.695   3.377  15.172 -0.5250 -2.0462 -0.8046
 5675SOL    HW228662   0.025   3.435  15.051  0.0934 -0.7718 -1.7849
 5676SOL     OW28663   2.738   3.996   5.907 -0.3781 -0.1974  0.3178
 5676SOL    HW128664   2.792   4.076   5.908  0.8975 -1.0037 -2.8165
 5676SOL    HW228665   2.652   4.037   5.917 -0.5102 -0.2730 -0.4677
 5677SOL     OW28666   4.622   3.297   0.338 -0.4157  0.3465 -0.1767
 5677SOL    HW128667   4.535   3.336   0.347 -1.3734 -1.4844 -1.4445
 5677SOL    HW228668   4.672   3.379   0.343 -0.5060  0.2533  2.0540
 5678SOL     OW28669   2.668   0.509   9.571  0.1301 -0.1170 -0.1701
 5678SOL    HW128670   2.642   0.435   9.515 -0.2303  1.0034 -1.4918
 5678SOL    HW228671   2.763   0.498   9.558  0.0463 -0.6278 -0.3718
 5679SOL     OW28672   3.152   1.817   1.489 -0.3591  0.2883 -0.0367
 5679SOL    HW128673   3.163   1.866   1.407 -0.2944 -2.0252 -1.4166
 5679SOL    HW228674   3.216   1.748   1.473  0.0462  1.2291 -2.6510
 5680SOL     OW28675   3.712   3.760   8.157 -0.0063 -0.0493 -0.1922
 5680SOL    HW128676   3.719   3.836   8.214 -0.2654  1.1879 -1.8283
 5680SOL    HW228677   3.741   3.687   8.213 -3.0557 -2.7908 -2.1655
 5681SOL     OW28678   0.396   3.573   8.957 -0.0758  0.6037 -0.3988
 5681SOL    HW128679   0.442   3.490   8.953 -1.6373 -0.1780 -2.0940
 5681SOL    HW228680   0.386   3.588   9.051 -0.8369  0.3775 -0.4460
 5682SOL     OW28681   0.534   4.599   1.175 -0.3875 -0.6324  0.0824
 5682SOL    HW128682   0.528   4.505   1.187 -0.9186 -0.8814 -2.1861
 5682SOL    HW228683   0.570   4.609   1.087  2.1662  2.7621  1.4892
 5683SOL     OW28684   4.290   4.698   0.749  0.3008 -0.4963  0.4664
 5683SOL    HW128685   4.207   4.689   0.796  0.4266 -0.9706  0.5981
 5683SOL    HW228686   4.283   0.054   0.730 -1.0971 -0.0972  2.9302
 5684SOL     OW28687   3.121   0.360   6.245  0.0217  0.1295 -0.8666
 5684SOL    HW128688   3.133   0.266   6.235 -0.5463  0.1188 -1.4211
 5684SOL    HW228689   3.188   0.399   6.189  0.5541  0.0620 -0.2759
 5685SOL     OW28690   4.086   4.438   5.176 -0.4824 -0.5032 -0.1902
 5685SOL    HW128691   4.141   4.414   5.102  1.1517  2.0091  0.2425
 5685SOL    HW228692   4.145   4.419   5.248 -0.3547 -1.6425 -0.5856
 5686SOL     OW28693   1.187   3.440  12.671  1.1166  0.2496 -0.2249
 5686SOL    HW128694   1.229   3.477  12.748  0.0394  1.7156 -0.3325
 5686SOL    HW228695   1.170   3.351  12.699 -2.1575 -0.1434 -3.4362
 5687SOL     OW28696   3.391   2.976   3.600  0.0385  0.2186 -0.0565
 5687SOL    HW128697   3.361   2.907   3.660  1.2944  0.4606  0.8552
 5687SOL    HW228698   3.331   2.973   3.526 -2.0812  0.3752  1.6679
 5688SOL     OW28699   0.756   4.540   4.828  0.0603 -0.2446 -0.1365
 5688SOL    HW128700   0.762   4.543   4.923 -0.1415 -2.1233 -0.0715
 5688SOL    HW228701   0.668   4.574   4.810  0.3253  0.8986  0.7587
 5689SOL     OW28702   4.112   1.977   7.465 -0.4021 -0.2316 -0.0572
 5689SOL    HW128703   4.030   2.023   7.483  0.8228  1.0959  2.0650
 5689SOL    HW228704   4.099   1.887   7.493 -0.4475 -0.0024  0.6560
 5690SOL     OW28705   0.918   1.579   2.975  0.0447 -0.4151  0.2217
 5690SOL    HW128706   0.948   1.556   3.063 -0.2254 -0.5205  0.2842
 5690SOL    HW228707   0.869   1.656   3.003 -0.8443  0.1383 -2.9361
 5691SOL     OW28708   3.144   3.084   5.943  0.0804 -0.4106 -0.5738
 5691SOL    HW128709   3.112   3.142   6.012  0.6206 -1.4242  0.5273
 5691SOL    HW228710   3.063   3.050   5.906  0.5793 -0.5108 -1.5587
 5692SOL     OW28711   2.312   2.268   8.197  0.3179  0.4530 -0.2132
 5692SOL    HW128712   2.394   2.273   8.147  0.6425 -0.0548  0.2692
 5692SOL    HW228713   2.310   2.361   8.217 -1.5247 -0.2180  2.6530
 5693SOL     OW28714   3.315   0.375  12.675 -0.1181  0.0463  0.2086
 5693SOL    HW128715   3.336   0.380  12.581  0.8707 -1.8730  0.3289
 5693SOL    HW228716   3.342   0.286  12.699 -0.1049 -0.1687 -0.5869
 5694SOL     OW28717   1.416   4.059   6.576  0.2361 -0.4363  0.1367
 5694SOL    HW128718   1.473   4.002   6.525  2.0680  0.0912  1.5557
 5694SOL    HW228719   1.337   4.073   6.526  0.6191  1.2682  0.0025
 5695SOL     OW28720   2.237   2.644   6.634 -0.0713  0.7110  0.6007
 5695SOL    HW128721   2.271   2.561   6.602 -0.6579  0.3831  0.8234
 5695SOL    HW228722   2.310   2.672   6.690 -0.3146 -0.2458  1.3974
 5696SOL     OW28723   2.294   3.246   8.523 -0.1919 -0.1178 -0.5484
 5696SOL    HW128724   2.322   3.270   8.612 -1.3421 -1.3712  0.1500
 5696SOL    HW228725   2.213   3.200   8.543  0.5249 -1.3681 -0.5019
 5697SOL     OW28726   0.119   2.695   8.508  0.2680 -0.0817  0.4588
 5697SOL    HW128727   0.139   2.709   8.415  1.3224 -1.6943  0.4466
 5697SOL    HW228728   0.034   2.652   8.502  0.1121  0.2062  0.5918
 5698SOL     OW28729   3.889   0.713  13.995 -0.2999 -0.5205  0.1201
 5698SOL    HW128730   3.963   0.702  13.935 -1.1811  0.1775 -1.0898
 5698SOL    HW228731   3.861   0.801  13.971 -0.0463 -0.9778 -1.8368
 5699SOL     OW28732   2.680   0.929   1.189 -0.4465  0.4105 -0.0262
 5699SOL    HW128733   2.730   0.876   1.127  0.0928  2.4413 -1.3176
 5699SOL    HW228734   2.738   0.910   1.262 -0.9290 -0.0542  0.2295
 5700SOL     OW28735   4.163   0.997   2.761  0.3249  0.2850  0.5740
 5700SOL    HW128736   4.082   0.947   2.772  0.0679  0.9746  1.7259
 5700SOL    HW228737   4.211   0.943   2.823 -0.5256 -0.4059  0.6255
 5701SOL     OW28738   0.710   4.368   6.338 -0.1436 -0.4221  0.6162
 5701SOL    HW128739   0.667   4.453   6.353 -1.8674 -1.3953  1.1713
 5701SOL    HW228740   0.727   4.341   6.428 -1.6161  0.4062  1.1513
 5702SOL     OW28741   3.948   4.094  15.009  0.0327 -0.0975  0.2545
 5702SOL    HW128742   4.013   4.116  14.943 -0.0085 -1.4193 -0.2294
 5702SOL    HW228743   3.899   4.174  15.028  0.9869  0.9332 -1.7271
 5703SOL     OW28744   0.929   0.629   8.711 -0.4857 -0.1142  0.0024
 5703SOL    HW128745   0.863   0.689   8.747 -1.4021 -0.4185 -1.1576
 5703SOL    HW228746   0.938   0.568   8.784 -1.1726  0.2568  0.3966
 5704SOL     OW28747   0.524   1.359  12.759  0.4371  0.0800 -0.4615
 5704SOL    HW128748   0.469   1.423  12.804  0.4286  0.2648 -0.7380
 5704SOL    HW228749   0.492   1.274  12.789  1.1821 -0.4564 -1.1903
 5705SOL     OW28750   1.802   4.075  13.557 -0.7039 -0.6989 -0.1431
 5705SOL    HW128751   1.769   4.154  13.513  1.8406 -0.4347 -1.5752
 5705SOL    HW228752   1.748   4.012  13.510 -0.8834 -2.4558  2.3918
 5706SOL     OW28753   4.555   0.842   7.433 -0.9736 -0.4716 -0.1842
 5706SOL    HW128754   4.570   0.801   7.518  0.0250 -0.5118 -0.3793
 5706SOL    HW228755   4.639   0.886   7.429 -1.1753 -0.1028 -0.4022
 5707SOL     OW28756   0.250   2.676   5.088 -0.0180 -0.4339 -0.2635
 5707SOL    HW128757   0.319   2.722   5.135 -0.0413  1.3180 -1.9838
 5707SOL    HW228758   0.267   2.590   5.126  1.5109 -0.0329 -0.0368
 5708SOL     OW28759   4.077   2.449   2.671  0.8996 -0.1058  0.2085
 5708SOL    HW128760   4.163   2.412   2.691  0.9110 -0.1795  0.0289
 5708SOL    HW228761   4.082   2.469   2.577  2.3233  2.6205  0.8688
 5709SOL     OW28762   4.099   2.407   3.549 -0.0345  0.2681  0.6007
 5709SOL    HW128763   4.178   2.443   3.588  0.2516  0.7598 -0.4103
 5709SOL    HW228764   4.126   2.315   3.549 -1.4909 -0.1845 -2.3177
 5710SOL     OW28765   4.122   3.335   5.083 -0.0672  0.3714 -0.2150
 5710SOL    HW128766   4.051   3.330   5.148  0.5123  0.5735  0.4351
 5710SOL    HW228767   4.081   3.291   5.009  1.1187  0.4547 -0.9145
 5711SOL     OW28768   4.083   0.215  17.740 -0.0196  0.7425  0.6023
 5711SOL    HW128769   3.990   0.195   0.001 -0.1599  1.0462 -0.1546
 5711SOL    HW228770   4.119   0.148   0.050 -1.4880 -0.9045 -0.3851
 5712SOL     OW28771   3.386   0.054  12.979  0.5000 -0.0058  0.1262
 5712SOL    HW128772   3.316   4.735  13.012  0.3034 -0.3298 -0.8492
 5712SOL    HW228773   3.333   0.121  12.936  1.5733  0.9524  0.2920
 5713SOL     OW28774   2.824   3.149   3.823 -0.0470  0.1075  0.7286
 5713SOL    HW128775   2.757   3.143   3.754 -0.2516 -0.7480  1.0053
 5713SOL    HW228776   2.776   3.140   3.905 -2.9546  1.8435 -0.7661
 5714SOL     OW28777   2.330   0.874   5.204  0.1656 -0.3057 -0.3430
 5714SOL    HW128778   2.396   0.857   5.272 -0.7006  1.7123  1.0259
 5714SOL    HW228779   2.248   0.892   5.249  0.9251  2.3338  0.0259
 5715SOL     OW28780   3.183   2.672  11.045  0.2287  0.1465  0.2349
 5715SOL    HW128781   3.222   2.712  11.123 -0.6885 -0.8483  1.2223
 5715SOL    HW228782   3.248   2.602  11.038  0.3165  0.1091  1.4252
 5716SOL     OW28783   4.416   0.595   5.656  0.7595  0.4977 -0.2057
 5716SOL    HW128784   4.475   0.660   5.694  0.4971  0.2944  0.5297
 5716SOL    HW228785   4.342   0.618   5.712  0.8989  0.6022 -0.0672
 5717SOL     OW28786   0.736   1.604  10.728  0.2041 -0.1005 -0.2582
 5717SOL    HW128787   0.754   1.614  10.634  1.4640 -2.9996 -0.3510
 5717SOL    HW228788   0.767   1.516  10.749 -1.9302 -0.5379  1.0564
 5718SOL     OW28789   1.632   0.466  12.642 -0.0975  0.1084  0.3161
 5718SOL    HW128790   1.701   0.418  12.594 -0.4827 -0.5717  0.4484
 5718SOL    HW228791   1.550   0.425  12.615  0.7386 -0.9538 -0.6365
 5719SOL     OW28792   3.314   1.713  15.415 -0.0152 -0.0267  0.1453
 5719SOL    HW128793   3.264   1.642  15.374 -2.3222  1.4237  0.4194
 5719SOL    HW228794   3.259   1.790  15.397 -0.6129 -0.0328  1.8993
 5720SOL     OW28795   2.666   2.817   5.284  0.2080  0.2299 -0.1775
 5720SOL    HW128796   2.601   2.813   5.214 -1.3307  1.1047  1.2170
 5720SOL    HW228797   2.631   2.763   5.354 -2.8091  1.5821 -0.6506
 5721SOL     OW28798   3.875   0.118  10.200 -0.7067 -0.2163  0.2206
 5721SOL    HW128799   3.808   0.050  10.200 -0.4218 -0.5033 -1.1909
 5721SOL    HW228800   3.826   0.189  10.242 -1.4314 -0.3229 -0.4381
 5722SOL     OW28801   4.083   2.027   8.532  0.2512  0.3292 -0.3134
 5722SOL    HW128802   4.048   1.939   8.516 -0.3685  0.3788  0.8061
 5722SOL    HW228803   4.145   2.005   8.601  2.3809  0.4956 -2.1601
 5723SOL     OW28804   3.282   3.091   6.712 -0.3206 -0.1846 -0.2996
 5723SOL    HW128805   3.354   3.128   6.763 -3.2476  3.6736  1.0637
 5723SOL    HW228806   3.295   2.997   6.722  0.4795  0.0539  0.8868
 5724SOL     OW28807   3.741   4.033   2.714 -0.0657  0.0558 -0.7384
 5724SOL    HW128808   3.738   3.957   2.772  0.3234  1.5722  1.2693
 5724SOL    HW228809   3.757   4.107   2.773 -1.0026 -0.6563  0.3989
 5725SOL     OW28810   3.085   2.243   9.949  0.3729 -0.4471 -0.6915
 5725SOL    HW128811   3.019   2.177   9.969  0.1828 -0.2446 -0.6547
 5725SOL    HW228812   3.034   2.301   9.892 -0.6168  0.0591  0.7074
 5726SOL     OW28813   2.592   4.367   7.330  0.3995  0.4767  0.3717
 5726SOL    HW128814   2.525   4.423   7.293 -1.1871 -0.7551  1.3621
 5726SOL    HW228815   2.570   4.371   7.423  1.1137  0.4410  0.5406
 5727SOL     OW28816   4.728   0.183   2.189 -0.3587 -0.0334  0.6590
 5727SOL    HW128817   0.032   0.270   2.191  0.0004 -0.1920 -0.0630
 5727SOL    HW228818   4.643   0.203   2.150 -0.3849 -0.1279  0.6691
 5728SOL     OW28819   0.554   1.955   1.539  0.4880 -0.3460 -0.2900
 5728SOL    HW128820   0.571   1.861   1.543  0.7713 -0.3076 -0.6376
 5728SOL    HW228821   0.644   1.985   1.540  0.6867 -0.9146 -0.7365
 5729SOL     OW28822   4.289   3.342   2.170  0.9112  0.1219 -0.3026
 5729SOL    HW128823   4.236   3.263   2.179  0.1209  0.7035  0.2015
 5729SOL    HW228824   4.365   3.296   2.136 -0.4263 -1.6926 -0.7806
 5730SOL     OW28825   0.149   0.366   8.975 -0.4229  0.2542 -0.1767
 5730SOL    HW128826   0.163   0.381   8.882 -2.3332  0.6216 -0.4174
 5730SOL    HW228827   0.199   0.287   8.997  0.9839  1.8137  2.1972
 5731SOL     OW28828   0.595   0.800   8.170  0.4089 -0.3839 -0.1578
 5731SOL    HW128829   0.559   0.736   8.231  0.6558  0.1692  0.5705
 5731SOL    HW228830   0.605   0.751   8.088 -0.0009 -1.0078  0.1663
 5732SOL     OW28831   0.742   4.173   2.373 -0.4808 -0.5504  0.1347
 5732SOL    HW128832   0.736   4.181   2.468  0.6284  3.0685 -0.0782
 5732SOL    HW228833   0.769   4.084   2.350 -1.7985 -0.6877 -0.8969
 5733SOL     OW28834   2.942   2.216   2.140  0.9781 -0.0257  0.2288
 5733SOL    HW128835   2.862   2.170   2.163 -0.3818  1.4980 -1.4728
 5733SOL    HW228836   2.923   2.299   2.184  1.0185  0.7562 -1.2179
 5734SOL     OW28837   2.629   4.133   9.455  0.2811  0.2462 -0.4146
 5734SOL    HW128838   2.715   4.144   9.414  1.0336  0.0479  1.1333
 5734SOL    HW228839   2.623   4.038   9.450 -3.7632  0.5575 -1.3064
 5735SOL     OW28840   3.830   0.076   4.424  0.2196  0.1013  0.0781
 5735SOL    HW128841   3.818   0.034   4.509  2.1278 -0.8910 -0.1529
 5735SOL    HW228842   3.925   0.080   4.417  0.1391 -0.3404 -1.3795
 5736SOL     OW28843   2.645   0.961   4.317  0.3393 -0.4465 -0.2115
 5736SOL    HW128844   2.741   0.964   4.317  0.3404 -0.3107  0.7399
 5736SOL    HW228845   2.620   0.891   4.257  1.5244  1.2240 -2.6193
 5737SOL     OW28846   4.610   1.764   0.379  0.3715 -0.0339 -0.3905
 5737SOL    HW128847   4.673   1.781   0.309  0.3031  0.6600 -0.2874
 5737SOL    HW228848   4.601   1.671   0.358 -0.9332 -0.5325  2.4225
 5738SOL     OW28849   0.036   0.978   2.516  0.1647 -0.1212 -0.3535
 5738SOL    HW128850   4.696   0.969   2.572  0.3645 -1.4515 -0.2955
 5738SOL    HW228851   0.085   0.896   2.524 -0.0471 -0.1865  0.2520
 5739SOL     OW28852   3.050   4.270   3.215 -0.4543 -0.4056 -0.0315
 5739SOL    HW128853   2.955   4.273   3.205 -0.3106  2.1868 -0.5165
 5739SOL    HW228854   3.081   4.340   3.157 -4.3488  0.5390 -0.9795
 5740SOL     OW28855   4.020   2.985   7.125 -0.7112 -0.6848 -0.1396
 5740SOL    HW128856   4.083   3.056   7.137  0.9122 -2.0413 -0.6432
 5740SOL    HW228857   4.075   2.907   7.131  1.0883  0.6216  0.4849
 5741SOL     OW28858   4.629   0.760   7.696 -0.3577  0.4995  0.1158
 5741SOL    HW128859   4.622   0.846   7.737  0.8945  0.3545  0.6350
 5741SOL    HW228860   4.710   0.724   7.731 -1.2794 -0.3145  1.4459
 5742SOL     OW28861   2.105   1.099   7.058 -0.0103  0.1616 -0.3494
 5742SOL    HW128862   2.196   1.089   7.086 -0.8466 -2.3831  1.5012
 5742SOL    HW228863   2.109   1.167   6.991 -0.7227 -1.2224 -1.7858
 5743SOL     OW28864   3.021   4.152   4.994 -0.1995 -0.6272 -0.1489
 5743SOL    HW128865   2.966   4.219   4.954 -0.1594 -0.1131  0.6686
 5743SOL    HW228866   3.057   4.099   4.923 -1.3366 -1.5937 -0.0095
 5744SOL     OW28867   1.259   2.626   2.453 -0.7810 -0.4365 -0.3201
 5744SOL    HW128868   1.173   2.612   2.494 -0.8636  1.7152  0.2158
 5744SOL    HW228869   1.223   2.625   2.365  0.6603 -1.4103 -0.8925
 5745SOL     OW28870   0.948   3.527   1.346 -0.0827 -0.6325  0.2481
 5745SOL    HW128871   0.866   3.526   1.397  0.0734 -2.2540  0.4638
 5745SOL    HW228872   1.003   3.479   1.408 -0.0226 -1.0211 -0.1028
 5746SOL     OW28873   2.357   3.176   4.076 -0.1774 -0.2105  0.4154
 5746SOL    HW128874   2.410   3.110   4.030  1.5474  1.7803 -0.4642
 5746SOL    HW228875   2.419   3.200   4.145  1.2798  1.6356 -1.5395
 5747SOL     OW28876   2.598   3.009   2.566 -0.1591 -0.0109 -0.5444
 5747SOL    HW128877   2.605   3.095   2.607  1.9998  0.0423 -1.0123
 5747SOL    HW228878   2.574   2.948   2.636 -1.0950 -0.0487 -0.9043
 5748SOL     OW28879   2.695   3.534  13.555 -0.1973  0.8397  0.0242
 5748SOL    HW128880   2.682   3.499  13.466 -0.3605 -0.6346  0.6373
 5748SOL    HW228881   2.787   3.559  13.548  0.2049 -0.4214  0.8781
 5749SOL     OW28882   0.634   1.246   2.745 -0.2712 -0.5478  0.0729
 5749SOL    HW128883   0.615   1.295   2.825  1.3046  0.9061 -0.4434
 5749SOL    HW228884   0.639   1.157   2.780 -1.1262 -0.8735 -0.6357
 5750SOL     OW28885   0.296   0.020   5.955  0.5654  0.0344  0.0064
 5750SOL    HW128886   0.357   0.078   5.909 -1.0931  0.6700 -1.4162
 5750SOL    HW228887   0.357   4.709   6.009  1.2664  1.3806  0.4357
 5751SOL     OW28888   1.020   4.132   8.706  0.2197  0.3184  0.5004
 5751SOL    HW128889   0.967   4.081   8.768 -2.3968  0.9976 -1.2353
 5751SOL    HW228890   1.029   4.071   8.633  0.8526  0.0580  0.7905
 5752SOL     OW28891   3.034   4.213  14.705  0.5107 -0.3163 -0.0519
 5752SOL    HW128892   3.124   4.217  14.673  0.5549 -3.0270 -0.2545
 5752SOL    HW228893   2.999   4.301  14.694 -0.2931 -0.6622 -0.2442
 5753SOL     OW28894   3.404   1.097   2.221  0.3026 -0.5382  0.0841
 5753SOL    HW128895   3.480   1.125   2.170  0.3804  1.9349  1.5762
 5753SOL    HW228896   3.352   1.177   2.214 -0.3501 -0.9657 -0.0253
 5754SOL     OW28897   2.404   3.028   1.709 -0.5031 -0.3783 -0.3580
 5754SOL    HW128898   2.414   2.976   1.629 -0.5630 -0.9433  0.0027
 5754SOL    HW228899   2.404   2.963   1.779 -0.0059 -1.3935 -1.2993
 5755SOL     OW28900   2.930   1.136  10.335  0.0388 -0.0832 -0.2276
 5755SOL    HW128901   2.851   1.183  10.358 -1.1210 -2.2849  0.2814
 5755SOL    HW228902   2.949   1.071  10.403 -1.9686 -0.4660 -0.0576
 5756SOL     OW28903   2.500   0.997  12.292  0.6526 -0.1835  0.0801
 5756SOL    HW128904   2.426   1.053  12.313  0.7996 -0.6543  1.8487
 5756SOL    HW228905   2.535   0.988  12.381  3.6765 -0.3282 -1.1093
 5757SOL     OW28906   2.552   2.404   6.710  0.5944 -0.0573 -0.2657
 5757SOL    HW128907   2.610   2.332   6.735 -1.2609 -1.7131 -0.7028
 5757SOL    HW228908   2.615   2.472   6.685 -0.0204  0.5560 -0.1457
 5758SOL     OW28909   1.899   2.848   1.255  0.3479  0.6181 -0.6673
 5758SOL    HW128910   1.946   2.780   1.207  0.6638  0.5515 -0.2671
 5758SOL    HW228911   1.933   2.847   1.345  2.2136  0.9958 -1.3567
 5759SOL     OW28912   0.105   2.943  17.077 -0.0086 -0.1903  0.3508
 5759SOL    HW128913   0.086   3.023  17.027 -0.1829 -0.6593 -0.3341
 5759SOL    HW228914   0.017   2.930  17.112 -0.5209 -0.0813 -0.8664
 5760SOL     OW28915   4.031   1.856  15.229 -0.0751 -0.0546  0.3274
 5760SOL    HW128916   3.936   1.858  15.242 -0.0773  1.7755 -0.0442
 5760SOL    HW228917   4.034   1.902  15.145  2.6338 -1.6639 -0.4550
 5761SOL     OW28918   4.661   0.906   8.806  0.3315  0.2936  0.3681
 5761SOL    HW128919   4.598   0.977   8.796 -0.7102 -0.7345 -0.3136
 5761SOL    HW228920   4.696   0.881   8.720  2.0417  1.0504  0.8318
 5762SOL     OW28921   3.689   4.647  10.248  0.6208 -0.1709  0.4087
 5762SOL    HW128922   3.723   4.671  10.334  1.3091 -2.4614  0.7820
 5762SOL    HW228923   3.648   4.564  10.273 -2.3203  0.6410 -1.6513
 5763SOL     OW28924   0.901   0.912   8.102 -0.1593  0.0212 -0.1514
 5763SOL    HW128925   0.829   0.892   8.163  0.7761  0.8458  1.2333
 5763SOL    HW228926   0.857   0.896   8.019  1.7388 -0.2601 -1.1034
 5764SOL     OW28927   2.636   2.813   8.703  0.7537 -0.0710  0.1966
 5764SOL    HW128928   2.605   2.885   8.758 -0.6859  0.0384 -0.7536
 5764SOL    HW228929   2.617   2.733   8.752 -1.1320 -0.0043 -0.4183
 5765SOL     OW28930   0.206   4.032   4.275  0.5952 -0.0991  0.0880
 5765SOL    HW128931   0.243   3.944   4.282 -1.6615 -0.9157  1.8795
 5765SOL    HW228932   0.230   4.079   4.355  1.5130  1.0358 -0.8605
 5766SOL     OW28933   4.302   3.917   9.156 -0.0030 -0.2224 -0.2589
 5766SOL    HW128934   4.389   3.933   9.120 -0.2025 -1.3747 -1.2559
 5766SOL    HW228935   4.330   3.924   9.247 -0.3019  1.5103 -0.2797
 5767SOL     OW28936   4.327   2.895   5.876  0.1558  0.5483 -0.0304
 5767SOL    HW128937   4.371   2.835   5.815  0.9335  0.0055  1.0625
 5767SOL    HW228938   4.272   2.839   5.931 -0.7149  2.0155  0.5828
 5768SOL     OW28939   1.592   2.340   5.335 -0.2669  0.3374 -0.7846
 5768SOL    HW128940   1.647   2.345   5.413 -0.0416 -1.6751 -0.7985
 5768SOL    HW228941   1.585   2.431   5.307 -1.2642  1.0328  1.7302
 5769SOL     OW28942   3.846   0.897  13.266 -0.6721 -0.0755  0.7814
 5769SOL    HW128943   3.925   0.950  13.274 -0.3990 -0.5781  1.4245
 5769SOL    HW228944   3.881   0.822  13.217  1.2266  0.5833  1.1487
 5770SOL     OW28945   1.105   2.509   8.975  0.0516  0.4906  0.8266
 5770SOL    HW128946   1.017   2.539   8.952 -0.1576 -0.4043  0.4570
 5770SOL    HW228947   1.077   2.430   9.023  1.2565 -0.9070 -0.7683
 5771SOL     OW28948   1.583   3.184   7.730 -0.0012 -0.2588  0.1200
 5771SOL    HW128949   1.647   3.255   7.741  1.6585 -1.4551 -1.8672
 5771SOL    HW228950   1.621   3.131   7.660 -1.7113  0.3210 -1.2439
 5772SOL     OW28951   1.031   1.473   5.988  0.1067  0.0875  0.0633
 5772SOL    HW128952   0.959   1.502   6.045 -0.1532  0.9516 -0.7055
 5772SOL    HW228953   1.089   1.549   5.998  0.3947  0.4124 -4.0232
 5773SOL     OW28954   2.816   4.369   9.606  0.2248 -0.3686  0.2856
 5773SOL    HW128955   2.723   4.392   9.610 -0.2107 -2.0120 -0.0481
 5773SOL    HW228956   2.817   4.288   9.657 -1.4202 -1.7280 -1.8287
 5774SOL     OW28957   3.467   3.451   6.700  0.4003  0.1042  0.1891
 5774SOL    HW128958   3.473   3.363   6.738 -0.3664  0.8622  2.0763
 5774SOL    HW228959   3.372   3.463   6.705  0.5258  1.0611  0.1472
 5775SOL     OW28960   1.891   3.439   3.381  0.0312 -0.0475  0.4535
 5775SOL    HW128961   1.809   3.411   3.422 -0.1858 -1.1116 -0.7020
 5775SOL    HW228962   1.954   3.407   3.446 -0.5571  1.6092  1.8155
 5776SOL     OW28963   2.149   2.819  11.065  0.4423 -0.2205 -0.3942
 5776SOL    HW128964   2.116   2.907  11.079  1.7267  0.1983 -0.0688
 5776SOL    HW228965   2.217   2.804  11.130 -0.7025 -1.5974  0.4751
 5777SOL     OW28966   4.507   1.509  11.757  0.1073 -0.3014  0.6778
 5777SOL    HW128967   4.450   1.583  11.777 -0.2635 -0.7472  1.2713
 5777SOL    HW228968   4.444   1.440  11.738 -2.5290  1.6202  2.3666
 5778SOL     OW28969   0.718   3.107   5.297  0.7203 -0.5893 -0.4185
 5778SOL    HW128970   0.795   3.063   5.260  1.6371 -0.9213  1.8821
 5778SOL    HW228971   0.707   3.185   5.244 -0.6913  0.5643  1.5899
 5779SOL     OW28972   3.675   2.546   6.568 -0.0911 -0.1203 -0.3432
 5779SOL    HW128973   3.728   2.625   6.584  0.1903 -0.0535 -1.5871
 5779SOL    HW228974   3.632   2.580   6.490 -3.0364  2.2735  2.3553
 5780SOL     OW28975   0.973   4.361  11.300 -0.5207 -0.0323 -0.1843
 5780SOL    HW128976   0.890   4.405  11.280  0.3648  0.9293 -1.8544
 5780SOL    HW228977   1.003   4.408  11.378 -1.5483  1.0325 -0.4282
 5781SOL     OW28978   0.226   3.634   2.538 -0.3869 -0.0448  0.7087
 5781SOL    HW128979   0.285   3.645   2.613 -0.0123 -0.4204  0.4710
 5781SOL    HW228980   0.165   3.566   2.567 -0.6863  0.4426  1.2202
 5782SOL     OW28981   3.228   1.488  16.722 -0.1704 -0.6711  0.6542
 5782SOL    HW128982   3.147   1.456  16.684 -0.3455 -0.5280  0.9098
 5782SOL    HW228983   3.219   1.582  16.708  1.3394 -0.5635  0.3929
 5783SOL     OW28984   0.696   1.817   2.289 -0.3316 -0.2646 -0.1957
 5783SOL    HW128985   0.634   1.756   2.248 -1.3375  0.1522  0.7076
 5783SOL    HW228986   0.638   1.890   2.308  0.9452  0.7664 -0.2174
 5784SOL     OW28987   0.138   4.500   8.183  0.3435 -0.1010  0.3297
 5784SOL    HW128988   0.061   4.548   8.154  0.4405 -0.5589 -0.7030
 5784SOL    HW228989   0.203   4.531   8.121 -0.2118 -1.3186 -0.8698
 5785SOL     OW28990   2.751   0.772   1.592  0.4015 -0.2754  0.1075
 5785SOL    HW128991   2.839   0.740   1.576  1.0043  0.8069  1.2297
 5785SOL    HW228992   2.771   0.862   1.619 -2.9208 -0.0795  1.9973
 5786SOL     OW28993   0.902   4.084   9.265 -0.0228  0.0642  0.1285
 5786SOL    HW128994   0.924   4.136   9.342 -3.2618 -0.3064  1.3030
 5786SOL    HW228995   0.980   4.028   9.262 -0.3644 -0.4970  1.9008
 5787SOL     OW28996   0.525   2.315   6.530 -0.6730  0.3997  0.1581
 5787SOL    HW128997   0.475   2.342   6.607 -1.9140 -1.9035  0.1479
 5787SOL    HW228998   0.458   2.269   6.479 -1.1350  1.2174  0.0230
 5788SOL     OW28999   1.970   0.646   3.250  0.5008  0.4478  0.5722
 5788SOL    HW129000   2.044   0.638   3.191 -0.1592 -1.9067  0.0950
 5788SOL    HW229001   1.937   0.558   3.268  0.1490  0.1032 -1.7735
 5789SOL     OW29002   3.475   3.903   2.207 -0.3000 -0.0009 -0.2286
 5789SOL    HW129003   3.475   3.985   2.157  0.1443  0.6745  0.9076
 5789SOL    HW229004   3.399   3.862   2.165 -0.6140 -0.1966  0.5474
 5790SOL     OW29005   1.423   1.693  17.710  0.1739  0.0750 -0.4829
 5790SOL    HW129006   1.457   1.695  17.621  0.5361  0.0541 -0.3432
 5790SOL    HW229007   1.329   1.709  17.697  0.3947  0.6720 -1.2908
 5791SOL     OW29008   3.298   1.704   1.987  0.8274 -0.1609 -0.2836
 5791SOL    HW129009   3.324   1.694   2.079  0.2409  0.0469 -0.0935
 5791SOL    HW229010   3.268   1.795   1.989 -3.0933 -1.5048  1.6302
 5792SOL     OW29011   1.617   2.245  15.336 -0.4118  0.2318  0.7060
 5792SOL    HW129012   1.589   2.301  15.263  0.1732 -1.4755 -0.8415
 5792SOL    HW229013   1.581   2.159  15.315 -0.1712 -0.5054  3.3232
 5793SOL     OW29014   0.572   4.162   6.588  0.1534  0.2184 -0.6903
 5793SOL    HW129015   0.659   4.200   6.576  0.6616 -0.5450  0.4869
 5793SOL    HW229016   0.523   4.244   6.588  1.5077  1.0257 -1.0280
 5794SOL     OW29017   1.221   4.121   2.661 -0.2048  0.7694  0.0388
 5794SOL    HW129018   1.306   4.099   2.621 -0.5791 -0.8540  0.1445
 5794SOL    HW229019   1.233   4.077   2.745  3.3753  0.8183 -0.4332
 5795SOL     OW29020   0.369   0.368   3.434 -0.8364  0.6525  0.1901
 5795SOL    HW129021   0.348   0.293   3.490 -1.9458  1.1285  0.4121
 5795SOL    HW229022   0.442   0.324   3.392 -0.0377  1.0143  1.1737
 5796SOL     OW29023   1.450   3.814   5.231 -0.4147 -0.3765 -0.5438
 5796SOL    HW129024   1.404   3.829   5.314  0.1523 -0.7252 -0.1732
 5796SOL    HW229025   1.398   3.752   5.180  1.1987 -0.8456 -1.6119
 5797SOL     OW29026   0.003   2.302   5.208  0.1318 -0.0538 -0.0168
 5797SOL    HW129027   4.647   2.318   5.223  0.0418 -1.1146  0.5317
 5797SOL    HW229028   0.008   2.207   5.217 -0.1917 -0.0660  0.0603
 5798SOL     OW29029   1.002   4.034   4.659 -0.7087  0.2577 -0.0291
 5798SOL    HW129030   1.005   3.938   4.661 -0.2544  0.2799  0.3536
 5798SOL    HW229031   0.912   4.050   4.630 -0.6858 -1.0676 -0.8085
 5799SOL     OW29032   0.556   0.730   2.987 -0.2382 -0.1070 -0.3485
 5799SOL    HW129033   0.496   0.669   2.943  0.1217  1.0441 -2.4568
 5799SOL    HW229034   0.631   0.673   3.005 -1.7610 -1.0669  2.9454
 5800SOL     OW29035   4.504   4.046  10.403 -0.5950 -0.2216 -0.3492
 5800SOL    HW129036   4.579   3.992  10.378  0.7297  1.1261  0.6972
 5800SOL    HW229037   4.558   4.116  10.438  0.1486 -0.3973 -1.1486
 5801SOL     OW29038   1.570   3.837   3.050  0.0433 -0.0672  0.1483
 5801SOL    HW129039   1.481   3.806   3.032 -0.1072  0.5104 -0.1127
 5801SOL    HW229040   1.582   3.794   3.135  1.5992 -0.7431 -0.4144
 5802SOL     OW29041   1.303   0.313   1.496  0.2653 -0.3575 -0.1535
 5802SOL    HW129042   1.338   0.382   1.552  0.8523 -2.2673  1.8560
 5802SOL    HW229043   1.380   0.291   1.443  0.3318  0.3683 -0.3532
 5803SOL     OW29044   1.071   4.237   2.932 -0.1789 -0.0912  0.2657
 5803SOL    HW129045   1.022   4.183   2.870 -0.4641  0.1645  0.2698
 5803SOL    HW229046   1.161   4.222   2.904 -0.1165 -0.3378  0.5923
 5804SOL     OW29047   0.491   1.496   5.626 -0.0809 -0.2157  0.2793
 5804SOL    HW129048   0.582   1.475   5.646  1.1275  1.5533 -3.3449
 5804SOL    HW229049   0.447   1.411   5.637  2.6155 -1.6698 -0.2472
 5805SOL     OW29050   1.282   4.611   4.161 -0.9316 -0.0536 -0.1475
 5805SOL    HW129051   1.195   4.593   4.198 -0.8754 -1.8919 -0.9266
 5805SOL    HW229052   1.338   4.618   4.238 -2.7895 -3.2572  1.4525
 5806SOL     OW29053   0.468   4.221   2.409  0.8849  0.2548 -0.3711
 5806SOL    HW129054   0.443   4.129   2.411 -1.5533  0.9605  0.9562
 5806SOL    HW229055   0.547   4.217   2.354 -0.0957 -2.8025 -1.5269
 5807SOL     OW29056   4.196   4.461   2.166 -0.3354 -0.8891  0.1304
 5807SOL    HW129057   4.166   4.371   2.152 -0.1180 -0.3633 -3.8880
 5807SOL    HW229058   4.234   4.474   2.079 -0.5701 -1.7805 -0.1073
 5808SOL     OW29059   3.813   0.636  13.569  0.2745  0.1696  0.0588
 5808SOL    HW129060   3.749   0.628  13.640 -0.4587 -4.1416 -1.0942
 5808SOL    HW229061   3.791   0.729  13.556  2.2159  0.4917 -0.9093
 5809SOL     OW29062   2.035   2.408   4.501  0.4633  0.0104  0.2161
 5809SOL    HW129063   2.073   2.469   4.565 -0.1587 -0.0753  0.6638
 5809SOL    HW229064   1.977   2.354   4.555  1.1797 -1.0331 -0.0558
 5810SOL     OW29065   3.929   2.585   6.930  0.3529  0.2315  0.1593
 5810SOL    HW129066   3.950   2.493   6.917 -0.7462 -0.1568  1.1342
 5810SOL    HW229067   3.991   2.631   6.874  1.0427  0.4729  1.1294
 5811SOL     OW29068   3.893   4.678  12.875  0.2800 -0.6539  0.2188
 5811SOL    HW129069   3.861   4.588  12.881 -0.4716 -0.4292 -0.3471
 5811SOL    HW229070   3.814   4.725  12.903  0.5315 -0.4437  0.5684
 5812SOL     OW29071   0.642   0.374  12.708 -0.4395 -0.0881  0.4491
 5812SOL    HW129072   0.582   0.304  12.685 -1.9462  1.2609  0.2715
 5812SOL    HW229073   0.594   0.452  12.680 -0.5904 -0.5437 -0.5437
 5813SOL     OW29074   3.286   3.750   2.066 -0.1181  0.0114  0.1719
 5813SOL    HW129075   3.320   3.661   2.078  0.3091  0.0178 -0.9727
 5813SOL    HW229076   3.215   3.754   2.130 -0.2345 -0.5155  0.0713
 5814SOL     OW29077   3.919   4.270   1.815  0.0392 -0.5667 -0.2191
 5814SOL    HW129078   3.847   4.275   1.753  1.6169 -3.4580 -2.2452
 5814SOL    HW229079   3.985   4.243   1.751  0.1643  1.3972 -0.9284
 5815SOL     OW29080   0.901   1.082   9.651  0.1183  0.2456 -0.5184
 5815SOL    HW129081   0.890   1.042   9.737 -0.7656  1.1084 -0.2194
 5815SOL    HW229082   0.995   1.066   9.641  0.0645 -0.7361  0.5437
 5816SOL     OW29083   0.537   1.748   4.565  0.0127  0.5662 -0.2357
 5816SOL    HW129084   0.511   1.773   4.654 -0.5553  0.6242 -0.4246
 5816SOL    HW229085   0.466   1.785   4.514  0.0338 -2.1361 -2.2652
 5817SOL     OW29086   3.206   0.829   6.252  0.2464 -0.1366 -0.3112
 5817SOL    HW129087   3.119   0.788   6.259 -1.2516  2.9477 -0.8780
 5817SOL    HW229088   3.213   0.852   6.159 -1.1060  1.3864 -0.0342
 5818SOL     OW29089   1.838   1.304   0.193 -0.1817  0.4295  0.4617
 5818SOL    HW129090   1.824   1.377   0.253 -0.7094  0.4805  0.2713
 5818SOL    HW229091   1.762   1.250   0.215  0.4794 -0.8303 -0.3609
 5819SOL     OW29092   4.080   4.603   4.321 -0.4478  0.0540 -0.8144
 5819SOL    HW129093   4.054   4.562   4.404 -0.1066  1.4703  0.0036
 5819SOL    HW229094   4.019   4.566   4.258 -1.9240  0.8024  0.1664
 5820SOL     OW29095   3.361   3.797   7.991  1.3000 -0.2596  0.0794
 5820SOL    HW129096   3.296   3.837   7.933  1.9652 -0.2301 -0.6449
 5820SOL    HW229097   3.379   3.708   7.961  1.5745  0.0202 -0.5894
 5821SOL     OW29098   1.779   1.558  11.207 -0.3070  0.0836 -0.1120
 5821SOL    HW129099   1.734   1.639  11.184  0.6989  0.9889  1.1006
 5821SOL    HW229100   1.705   1.528  11.260  0.1488 -0.7993  0.0341
 5822SOL     OW29101   0.081   2.263  17.237 -0.2625 -0.2511 -0.0408
 5822SOL    HW129102   0.012   2.199  17.219  0.4008 -1.2402  0.8826
 5822SOL    HW229103   0.129   2.223  17.310  0.8998  2.2402  0.5381
 5823SOL     OW29104   0.082   0.608  13.731 -0.1190  0.2840 -0.5089
 5823SOL    HW129105   0.051   0.593  13.821  0.8738  2.9562  0.2745
 5823SOL    HW229106   0.017   0.559  13.681 -0.8802  2.5395 -1.7560
 5824SOL     OW29107   4.635   2.094   6.186 -0.2432 -0.2783  0.3191
 5824SOL    HW129108   4.573   2.032   6.148  0.4674 -0.5917 -0.3315
 5824SOL    HW229109   4.721   2.066   6.153  0.0832 -0.2325  1.1191
 5825SOL     OW29110   0.250   4.099   3.055  0.3322  0.2209 -0.4271
 5825SOL    HW129111   0.204   4.119   3.137 -0.2931  0.2357 -0.7867
 5825SOL    HW229112   0.329   4.154   3.059 -0.4130  1.2494  0.4119
 5826SOL     OW29113   3.340   0.956   1.686  0.0521 -0.2651 -0.2318
 5826SOL    HW129114   3.260   0.974   1.637 -0.6141  1.0507  1.3109
 5826SOL    HW229115   3.403   1.009   1.637  1.1521 -0.5738  0.8203
 5827SOL     OW29116   1.058   4.539   6.473  0.4230 -0.4285 -0.1326
 5827SOL    HW129117   0.973   4.568   6.508  1.2277  2.2379 -0.3670
 5827SOL    HW229118   1.119   4.589   6.527  0.3928  1.0991 -1.5056
 5828SOL     OW29119   4.492   4.705   6.529  0.1587 -0.5620  0.3813
 5828SOL    HW129120   4.525   0.055   6.509  1.0960 -0.7435  1.1211
 5828SOL    HW229121   4.404   4.734   6.549  0.7772  1.6302 -0.0871
 5829SOL     OW29122   2.675   1.627   3.897 -0.3824  0.6244  0.0379
 5829SOL    HW129123   2.768   1.603   3.900 -0.4653  0.3619  0.5008
 5829SOL    HW229124   2.653   1.601   3.986 -2.3191 -0.2462 -0.7094
 5830SOL     OW29125   1.689   0.655   7.309  0.4687  0.1703 -0.2922
 5830SOL    HW129126   1.778   0.659   7.345  0.7037 -0.0155 -0.8534
 5830SOL    HW229127   1.703   0.667   7.215  1.9557  1.8088  0.1360
 5831SOL     OW29128   2.386   2.573   6.850  0.4309 -0.1271  0.0612
 5831SOL    HW129129   2.367   2.510   6.920  1.1539 -0.3990  0.0079
 5831SOL    HW229130   2.472   2.537   6.829  1.1232  1.6505 -0.1251
 5832SOL     OW29131   1.260   3.646   0.589 -1.2379 -0.3902  0.3338
 5832SOL    HW129132   1.280   3.636   0.496 -1.3378  0.7433  0.1859
 5832SOL    HW229133   1.303   3.570   0.628 -0.3215 -0.1486 -0.2036
 5833SOL     OW29134   4.309   0.598   6.204 -0.0881 -0.1802 -0.5248
 5833SOL    HW129135   4.253   0.660   6.250 -1.5344  0.8779 -3.6870
 5833SOL    HW229136   4.307   0.523   6.264  1.6142 -0.3377 -0.6619
 5834SOL     OW29137   2.209   0.316   5.840 -0.3872  0.0318  0.2704
 5834SOL    HW129138   2.291   0.311   5.791 -0.1035  0.7099  0.6849
 5834SOL    HW229139   2.152   0.324   5.763 -0.1213 -1.6797 -0.1110
 5835SOL     OW29140   1.971   2.726   0.020  0.3845  0.5648 -0.6220
 5835SOL    HW129141   2.026   2.803   0.037 -1.1176  1.6354 -0.5810
 5835SOL    HW229142   2.028   2.682  17.705 -0.4903 -1.4041 -0.0575
 5836SOL     OW29143   0.893   2.733   5.964  0.2098  0.3065 -0.2876
 5836SOL    HW129144   0.863   2.822   5.951 -0.2016 -0.0293 -1.6782
 5836SOL    HW229145   0.875   2.730   6.058  0.5247 -0.3056 -0.2463
 5837SOL     OW29146   1.741   4.731  15.066 -0.1949  0.2116 -0.1767
 5837SOL    HW129147   1.705   4.644  15.083 -2.2223  1.1457  0.3603
 5837SOL    HW229148   1.801   0.004  15.140  0.6577 -1.0002 -0.7123
 5838SOL     OW29149   1.461   2.238  11.545  0.2348  0.0727 -0.1170
 5838SOL    HW129150   1.416   2.164  11.584 -0.5241  0.8868  0.5589
 5838SOL    HW229151   1.540   2.190  11.519  0.3939  0.1365  0.2389
 5839SOL     OW29152   0.453   0.826   0.553  0.1395 -0.2664 -0.4902
 5839SOL    HW129153   0.394   0.775   0.608  2.2121 -1.0294  1.0262
 5839SOL    HW229154   0.387   0.885   0.517  0.5365  0.8988  0.6730
 5840SOL     OW29155   1.905   3.892   7.238 -0.2998  0.2572  0.5626
 5840SOL    HW129156   1.918   3.984   7.215 -1.4505  0.2581 -0.0991
 5840SOL    HW229157   1.954   3.851   7.166  0.0406  0.1775  0.8409
 5841SOL     OW29158   0.815   2.578   8.100 -0.3164 -0.3525  0.5312
 5841SOL    HW129159   0.818   2.559   8.193 -0.6247 -0.3084  0.5483
 5841SOL    HW229160   0.902   2.612   8.078 -0.9772  1.3429  0.5088
 5842SOL     OW29161   2.538   4.125  16.684 -0.2596  0.2466 -0.1450
 5842SOL    HW129162   2.481   4.184  16.635 -1.2671  0.6714  1.5406
 5842SOL    HW229163   2.623   4.169  16.690 -0.8159  1.5779 -2.1919
 5843SOL     OW29164   2.774   3.346   3.100  0.1776  0.4346 -0.2185
 5843SOL    HW129165   2.757   3.279   3.167  0.4030  0.1044 -0.4915
 5843SOL    HW229166   2.869   3.346   3.112  0.1478 -3.6114 -0.0664
 5844SOL     OW29167   0.337   1.931   3.032 -0.2143  0.6602 -0.4167
 5844SOL    HW129168   0.377   1.947   2.946  0.6206  0.7192 -0.0236
 5844SOL    HW229169   0.412   1.952   3.089 -0.7426  0.4315  0.3659
 5845SOL     OW29170   4.639   1.442   5.590 -0.4559  0.7811 -0.2020
 5845SOL    HW129171   4.624   1.474   5.501  0.1817 -0.8107 -0.8885
 5845SOL    HW229172   4.686   1.361   5.570  3.0871  2.1433  2.6581
 5846SOL     OW29173   2.203   3.203   1.706  0.0338  0.2000  0.0486
 5846SOL    HW129174   2.151   3.124   1.690  1.3206 -0.7438  0.5256
 5846SOL    HW229175   2.292   3.166   1.711 -0.9269 -2.1831 -0.4496
 5847SOL     OW29176   1.765   2.474   9.811 -0.5587  0.3569  0.2451
 5847SOL    HW129177   1.771   2.436   9.899  2.4339  1.3293  0.4581
 5847SOL    HW229178   1.679   2.516   9.809 -0.3527  0.8725  1.9620
 5848SOL     OW29179   0.989   0.686   7.826 -0.0678  0.4821  0.0276
 5848SOL    HW129180   1.007   0.635   7.905  0.7110 -1.8294 -1.6403
 5848SOL    HW229181   0.916   0.742   7.850  0.7495  0.5927  2.2167
 5849SOL     OW29182   1.512   1.437  14.203  0.2585 -0.9724 -0.0193
 5849SOL    HW129183   1.435   1.405  14.250 -0.1810 -1.2343 -0.9000
 5849SOL    HW229184   1.481   1.429  14.112  0.5431 -1.2533 -0.0932
 5850SOL     OW29185   0.641   4.526  11.330  0.0957  0.3475 -0.5573
 5850SOL    HW129186   0.670   4.616  11.314  1.2366 -0.0868 -0.8929
 5850SOL    HW229187   0.656   4.483  11.246 -4.4171 -2.2356 -0.0479
 5851SOL     OW29188   1.234   0.925  10.210 -0.4535  0.1289 -0.2405
 5851SOL    HW129189   1.156   0.937  10.265 -1.1100  0.0879 -1.1749
 5851SOL    HW229190   1.302   0.902  10.274 -2.4174 -0.4480  1.6330
 5852SOL     OW29191   3.124   2.226   8.792  0.4721 -0.2603  0.2073
 5852SOL    HW129192   3.094   2.145   8.750  0.9708  0.1703 -1.0015
 5852SOL    HW229193   3.040   2.269   8.809  0.6051  0.6902 -1.5424
 5853SOL     OW29194   1.448   4.461   5.593 -0.3315 -0.1991 -0.3848
 5853SOL    HW129195   1.370   4.438   5.643 -0.7827  0.6297 -0.7098
 5853SOL    HW229196   1.399   4.501   5.521  0.3283  3.1752  1.0032
 5854SOL     OW29197   2.463   1.419   9.387  0.0861 -0.1244  0.0029
 5854SOL    HW129198   2.500   1.397   9.302  2.7867  3.2498  0.3167
 5854SOL    HW229199   2.411   1.340   9.402  2.5704 -1.9194 -1.0415
 5855SOL     OW29200   0.077   0.414   7.442 -0.3063 -0.4424  0.0972
 5855SOL    HW129201   0.089   0.507   7.460  1.4651 -0.5197 -0.6957
 5855SOL    HW229202   0.007   0.395   7.504 -0.7530 -2.3186 -0.9813
 5856SOL     OW29203   4.156   1.260   3.083  0.4165  0.3140 -0.3397
 5856SOL    HW129204   4.131   1.353   3.081  1.4998  0.6605  1.7665
 5856SOL    HW229205   4.204   1.248   3.001 -2.3754 -2.5243 -1.5335
 5857SOL     OW29206   0.372   2.156   6.355 -0.3361  0.1651  0.5815
 5857SOL    HW129207   0.298   2.095   6.348  0.1480 -0.4211  0.4929
 5857SOL    HW229208   0.359   2.217   6.283 -0.4252 -1.2546 -0.6089
 5858SOL     OW29209   0.570   0.149   7.328 -0.1087  0.3196 -0.5667
 5858SOL    HW129210   0.615   0.075   7.369 -2.0478 -0.5667 -0.0333
 5858SOL    HW229211   0.626   0.173   7.254 -0.9680  2.3845 -0.5557
 5859SOL     OW29212   2.833   1.070   2.314  0.3656 -0.4387 -0.1726
 5859SOL    HW129213   2.875   0.986   2.295  1.4559 -0.1381  0.8967
 5859SOL    HW229214   2.891   1.121   2.371  1.1863  0.2765 -1.6344
 5860SOL     OW29215   2.776   1.247  15.000  0.0652  0.5185  0.0660
 5860SOL    HW129216   2.761   1.300  14.922  0.5797 -0.4750 -0.7082
 5860SOL    HW229217   2.721   1.173  14.975  0.6628 -0.1073  0.6136
 5861SOL     OW29218   0.779   3.271  10.658 -0.6969  0.4646  0.3352
 5861SOL    HW129219   0.811   3.205  10.597 -0.0498  0.4873  0.6519
 5861SOL    HW229220   0.787   3.357  10.616  0.1364 -0.0131 -0.4693
 5862SOL     OW29221   0.697   3.243  10.284 -0.5412 -0.3515 -0.2397
 5862SOL    HW129222   0.676   3.176  10.349 -0.1083 -0.1132  0.1441
 5862SOL    HW229223   0.771   3.279  10.333 -0.8057 -1.3007  0.8588
 5863SOL     OW29224   2.591   3.673  13.798 -0.3905 -0.1826 -0.2076
 5863SOL    HW129225   2.531   3.612  13.843  0.0593 -0.5028 -0.0433
 5863SOL    HW229226   2.618   3.621  13.722  1.4436 -0.9556  0.9641
 5864SOL     OW29227   2.504   2.281   7.666  0.4961 -0.1132  0.0374
 5864SOL    HW129228   2.506   2.318   7.577  0.1329 -3.5197 -1.3653
 5864SOL    HW229229   2.483   2.362   7.714  1.4056  0.8403 -1.1646
 5865SOL     OW29230   0.063   3.254   6.131  0.4501  0.8930  0.3844
 5865SOL    HW129231   0.088   3.252   6.038 -0.9202 -0.2193  0.0293
 5865SOL    HW229232   4.720   3.202   6.135  0.4442  0.9075  0.4440
 5866SOL     OW29233   3.664   0.619   8.564 -0.6178 -0.4255 -0.0282
 5866SOL    HW129234   3.747   0.633   8.609 -1.4201 -0.4183  1.4630
 5866SOL    HW229235   3.601   0.613   8.637 -1.7981 -0.5246 -1.0602
 5867SOL     OW29236   1.047   1.036   1.806  0.0146  0.1964  0.8659
 5867SOL    HW129237   1.135   1.009   1.832 -0.1119 -0.2243  0.8452
 5867SOL    HW229238   1.035   1.004   1.717 -0.0517  0.0181  0.9388
 5868SOL     OW29239   1.534   3.499   1.877  0.3359  0.2200  0.4217
 5868SOL    HW129240   1.612   3.555   1.881  1.0786 -0.8880  1.4446
 5868SOL    HW229241   1.504   3.528   1.791  0.4040 -2.2330 -0.4073
 5869SOL     OW29242   3.253   3.806  11.319 -0.6513 -0.2391  0.1707
 5869SOL    HW129243   3.327   3.757  11.283  0.0245 -0.2969  1.6349
 5869SOL    HW229244   3.186   3.785  11.255  0.2860 -0.6074 -0.6881
 5870SOL     OW29245   1.857   3.330  17.067  0.0708 -0.2636  0.2091
 5870SOL    HW129246   1.786   3.357  17.126  1.0481 -0.1667  1.3541
 5870SOL    HW229247   1.856   3.405  17.008 -2.0918 -1.8159 -1.7520
 5871SOL     OW29248   0.955   3.994  14.521 -0.2036 -0.3006 -0.2485
 5871SOL    HW129249   0.927   3.907  14.492 -2.5079  0.9183 -1.6269
 5871SOL    HW229250   0.999   4.026  14.442 -0.3940  0.4534 -0.0434
 5872SOL     OW29251   2.079   4.217  10.261  0.0193  0.1497 -0.1046
 5872SOL    HW129252   2.119   4.229  10.176  1.9432  1.9972  1.0712
 5872SOL    HW229253   2.004   4.276  10.253 -0.1589 -0.4093 -2.4221
 5873SOL     OW29254   2.929   0.944   7.947  0.2938 -0.0385  0.5924
 5873SOL    HW129255   2.844   0.902   7.937  1.4369 -2.1172 -0.4829
 5873SOL    HW229256   2.918   1.036   7.973  0.8787 -0.3459  1.9053
 5874SOL     OW29257   3.476   1.509   1.798 -0.4107  0.7446 -0.2030
 5874SOL    HW129258   3.489   1.416   1.820  0.4314  0.2338 -2.8772
 5874SOL    HW229259   3.444   1.543   1.881  0.0555 -0.2682  0.3860
 5875SOL     OW29260   4.225   2.217   6.920  0.0119 -0.2035 -0.0357
 5875SOL    HW129261   4.189   2.160   6.852 -1.7415  0.3025  0.4422
 5875SOL    HW229262   4.174   2.298   6.916 -0.0764 -0.2513  0.1027
 5876SOL     OW29263   1.348   1.032   4.429  0.2127  0.2604 -0.2806
 5876SOL    HW129264   1.329   1.124   4.409 -0.7814  0.5683  2.0874
 5876SOL    HW229265   1.363   1.015   4.336 -1.7525 -1.3033 -0.3125
 5877SOL     OW29266   4.278   1.544   3.571  0.0088  0.1060  0.1582
 5877SOL    HW129267   4.304   1.623   3.522 -0.2198 -0.3111 -0.6282
 5877SOL    HW229268   4.241   1.482   3.509  0.6399  2.6308 -2.7236
 5878SOL     OW29269   3.894   2.145   6.174 -0.5551 -0.3045 -0.0367
 5878SOL    HW129270   3.876   2.069   6.230  2.5367 -0.4683  0.7079
 5878SOL    HW229271   3.902   2.219   6.234 -1.5815 -0.8588  0.7947
 5879SOL     OW29272   4.109   0.577  17.713  0.4461 -0.3847 -0.3520
 5879SOL    HW129273   4.093   0.666  17.683  1.6696 -0.0693 -0.0749
 5879SOL    HW229274   4.034   0.531  17.676 -1.0366 -0.0033  2.2080
 5880SOL     OW29275   3.597   2.450   9.660 -0.3133  0.0996  0.0428
 5880SOL    HW129276   3.650   2.421   9.735 -0.1477  1.2705  0.3794
 5880SOL    HW229277   3.629   2.390   9.593 -0.1900 -1.4875  1.5007
 5881SOL     OW29278   4.632   0.871  11.337  0.6136  0.1730 -0.2617
 5881SOL    HW129279   4.694   0.913  11.278  0.7337 -0.3630 -0.5119
 5881SOL    HW229280   4.652   0.779  11.323  2.6220  0.7054 -0.8897
 5882SOL     OW29281   1.194   0.542   8.673  0.0462  0.1351 -0.1367
 5882SOL    HW129282   1.221   0.618   8.621  1.8875 -0.0076  0.6006
 5882SOL    HW229283   1.106   0.573   8.693 -0.6278 -1.0643 -1.2016
 5883SOL     OW29284   3.640   4.514   7.708 -0.4251  0.1974  0.1057
 5883SOL    HW129285   3.649   4.465   7.626  0.2487  2.0412 -0.9222
 5883SOL    HW229286   3.728   4.515   7.747 -0.3247  0.9776 -0.1422
 5884SOL     OW29287   2.364   2.736  14.697  0.0993  0.3943  0.3984
 5884SOL    HW129288   2.370   2.827  14.724  0.1436 -0.2899  2.7179
 5884SOL    HW229289   2.270   2.727  14.678  0.0029  2.1271  0.0324
 5885SOL     OW29290   4.432   0.560  12.118  0.0555  0.0960  0.5154
 5885SOL    HW129291   4.395   0.646  12.096  2.3144  1.3482  1.6640
 5885SOL    HW229292   4.520   0.594  12.132  0.3329 -0.4125 -0.0124
 5886SOL     OW29293   3.536   4.481   2.592  0.8343  0.3103  0.2698
 5886SOL    HW129294   3.518   4.470   2.686  2.8360  1.9435  0.8354
 5886SOL    HW229295   3.594   4.557   2.594 -1.0879  1.7619  0.9891
 5887SOL     OW29296   2.978   1.044  12.901 -0.0537 -0.3427 -0.5619
 5887SOL    HW129297   3.063   1.004  12.917  1.9405  4.4117  0.6400
 5887SOL    HW229298   2.943   0.982  12.837 -2.2733  0.2974  0.0073
 5888SOL     OW29299   0.343   1.473   1.088  0.5377  0.2672  0.1561
 5888SOL    HW129300   0.270   1.524   1.052 -0.6448 -1.7230 -0.2263
 5888SOL    HW229301   0.346   1.414   1.013  2.7174  0.9027 -0.2560
 5889SOL     OW29302   3.070   2.358   4.497 -0.0582  0.1827 -0.4386
 5889SOL    HW129303   3.073   2.389   4.588  0.1148 -1.1772  0.0223
 5889SOL    HW229304   3.165   2.355   4.483 -0.0372  0.0834 -0.2844
 5890SOL     OW29305   2.521   0.497  11.456  0.0545 -0.1220  0.7690
 5890SOL    HW129306   2.544   0.585  11.485 -1.4119  0.1418  1.1216
 5890SOL    HW229307   2.535   0.449  11.537  1.4712  1.2188  1.3276
 5891SOL     OW29308   4.702   3.454   7.832  0.4556 -0.3603  0.0147
 5891SOL    HW129309   4.621   3.427   7.789  0.1777  0.8298 -0.1844
 5891SOL    HW229310   4.670   3.452   7.923  1.3592 -0.4884  0.3294
 5892SOL     OW29311   2.815   2.317   7.348 -0.8140 -0.5132  0.0324
 5892SOL    HW129312   2.781   2.404   7.327  1.3879  0.5690  0.9445
 5892SOL    HW229313   2.735   2.264   7.357 -0.8469 -0.1892  1.6189
 5893SOL     OW29314   0.334   3.554   2.026  0.6664  0.1460 -0.0414
 5893SOL    HW129315   0.339   3.614   2.101  1.1841  0.6434 -0.4748
 5893SOL    HW229316   0.420   3.585   1.999  0.1520  0.8503 -0.8976
 5894SOL     OW29317   2.966   2.466   1.318  0.2509  0.6468  0.4561
 5894SOL    HW129318   2.975   2.462   1.413  1.5002 -0.2538  0.2991
 5894SOL    HW229319   3.025   2.539   1.302 -2.0936  1.8173 -2.7450
 5895SOL     OW29320   1.154   2.631   6.078 -0.4205 -0.4746 -0.1190
 5895SOL    HW129321   1.068   2.658   6.044  0.1910  1.1759 -0.3733
 5895SOL    HW229322   1.149   2.537   6.061 -2.2790 -0.0996 -1.7319
 5896SOL     OW29323   1.275   0.102  10.069  0.0716  0.4576  0.3318
 5896SOL    HW129324   1.369   0.115  10.078  0.0528 -0.0733  1.2885
 5896SOL    HW229325   1.263   0.009  10.088 -1.4916  0.3029 -1.4207
 5897SOL     OW29326   3.558   2.041  11.812 -0.2736  0.6146 -0.0409
 5897SOL    HW129327   3.629   2.102  11.793 -2.0309  3.0571  1.2978
 5897SOL    HW229328   3.611   1.966  11.837 -0.8610  1.2991  3.2302
 5898SOL     OW29329   0.066   0.969   7.397 -0.1039 -0.6641 -0.1927
 5898SOL    HW129330   0.071   1.032   7.326 -0.3229 -1.1800 -0.6624
 5898SOL    HW229331   0.147   0.982   7.447  0.2915 -3.0313 -0.2394
 5899SOL     OW29332   3.902   1.695   5.312  0.6463  0.0553  0.9208
 5899SOL    HW129333   3.987   1.678   5.353  0.9793  2.0668  1.0418
 5899SOL    HW229334   3.925   1.782   5.281 -0.0701 -0.1832 -0.2820
 5900SOL     OW29335   2.733   3.255  14.612  0.6481 -0.4709  0.3575
 5900SOL    HW129336   2.809   3.293  14.568 -1.1863 -0.3553 -2.6763
 5900SOL    HW229337   2.665   3.284  14.552  1.5222  0.8215 -0.0210
 5901SOL     OW29338   3.559   4.328   0.876  0.4915  0.0921 -0.5258
 5901SOL    HW129339   3.490   4.391   0.898  0.0790 -0.6914  0.4173
 5901SOL    HW229340   3.562   4.280   0.958  0.4553 -0.4761 -0.8596
 5902SOL     OW29341   1.469   2.437   2.432 -0.4278  0.3301  0.3278
 5902SOL    HW129342   1.393   2.487   2.462 -0.8142 -0.9980  1.5730
 5902SOL    HW229343   1.517   2.506   2.386  0.3532  0.8187  1.8820
 5903SOL     OW29344   0.955   2.531   8.695  0.6922 -0.5474  0.7220
 5903SOL    HW129345   0.996   2.467   8.637  1.3271 -0.2509  0.8425
 5903SOL    HW229346   1.034   2.566   8.736  0.2820 -0.0510  1.0895
 5904SOL     OW29347   2.666   0.790   7.118 -0.3660 -0.1548  0.4185
 5904SOL    HW129348   2.682   0.846   7.193 -2.0359  1.3708 -0.3650
 5904SOL    HW229349   2.689   0.712   7.168  2.8411 -0.8168 -2.0828
 5905SOL     OW29350   0.326   1.105   8.825  0.2814  0.6685 -0.0135
 5905SOL    HW129351   0.343   1.139   8.738 -2.2973 -1.6251 -1.4176
 5905SOL    HW229352   0.308   1.011   8.818 -0.9545  0.8500  0.6544
 5906SOL     OW29353   0.804   1.477  14.042  0.0462 -0.3684  0.5327
 5906SOL    HW129354   0.807   1.459  14.136 -1.1728  1.1168  0.8458
 5906SOL    HW229355   0.736   1.544  14.040 -0.2344 -0.6274  1.5773
 5907SOL     OW29356   0.140   2.105   8.536  0.2411  0.4029 -0.3965
 5907SOL    HW129357   0.133   2.010   8.533  0.8277  0.3767 -0.8143
 5907SOL    HW229358   0.212   2.110   8.599  0.4357  0.0074 -0.5885
 5908SOL     OW29359   1.241   0.693   7.015  0.3629  0.2586  0.4845
 5908SOL    HW129360   1.178   0.734   7.074 -1.1045 -1.8441  0.3488
 5908SOL    HW229361   1.325   0.711   7.058  0.4741  1.7991 -0.3800
 5909SOL     OW29362   1.909   1.082   0.415 -0.0077  0.3577  0.2827
 5909SOL    HW129363   1.820   1.089   0.382 -0.3969 -0.6917  1.1234
 5909SOL    HW229364   1.931   1.171   0.445 -0.1139  0.2012  0.8161
 5910SOL     OW29365   2.844   4.315   7.981 -0.4067 -0.5947 -0.3254
 5910SOL    HW129366   2.780   4.330   8.050  0.7796  1.4205  0.3214
 5910SOL    HW229367   2.782   4.304   7.908  0.6078 -1.7437 -1.0231
 5911SOL     OW29368   4.006   0.082   2.872 -0.0640  0.0363 -0.5401
 5911SOL    HW129369   4.091   0.038   2.868 -0.3698 -0.6229  0.2287
 5911SOL    HW229370   4.036   0.168   2.841 -0.4629  0.7978  1.1549
 5912SOL     OW29371   0.857   0.784   1.098  0.2466 -0.2142 -0.4248
 5912SOL    HW129372   0.874   0.856   1.159  0.1002 -0.1079 -0.5092
 5912SOL    HW229373   0.880   0.829   1.017  2.5363 -1.2908 -0.3713
 5913SOL     OW29374   0.979   1.225   7.060 -0.0250  0.1750 -0.5927
 5913SOL    HW129375   0.898   1.218   7.109 -0.1549  2.6360 -0.4552
 5913SOL    HW229376   0.944   1.234   6.972  2.2839  3.3934 -1.1903
 5914SOL     OW29377   3.237   2.653  16.587  0.5854  0.0436 -0.2080
 5914SOL    HW129378   3.228   2.563  16.556  0.7718  0.1874 -0.6932
 5914SOL    HW229379   3.234   2.627  16.679 -0.6357 -0.9391 -0.5204
 5915SOL     OW29380   4.676   3.388   9.152  0.1467 -0.5353 -0.2359
 5915SOL    HW129381   4.718   3.347   9.076  0.4162  3.0635 -2.0145
 5915SOL    HW229382   4.621   3.313   9.176  0.6759  0.0985  2.8754
 5916SOL     OW29383   1.689   2.011  16.451 -0.0225 -0.2204 -0.0519
 5916SOL    HW129384   1.728   2.089  16.411 -0.5978  0.7459  1.2963
 5916SOL    HW229385   1.728   1.940  16.398  0.3844 -1.4333  1.8834
 5917SOL     OW29386   1.123   3.461   8.045  0.4134  0.3736  0.1604
 5917SOL    HW129387   1.197   3.400   8.041 -0.6533 -0.9681  0.9676
 5917SOL    HW229388   1.051   3.415   8.001 -0.0801  0.9102  0.4150
 5918SOL     OW29389   0.881   2.767  11.795  0.0006 -0.0653 -0.1768
 5918SOL    HW129390   0.881   2.686  11.744  2.9769  0.0612 -0.3685
 5918SOL    HW229391   0.971   2.799  11.791  0.5004 -1.5899 -1.2875
 5919SOL     OW29392   3.418   4.071   3.781  0.5747 -0.4151  0.0417
 5919SOL    HW129393   3.415   4.132   3.707 -0.1342 -1.7797 -1.0489
 5919SOL    HW229394   3.463   3.992   3.751  0.7430  0.5216 -2.1546
 5920SOL     OW29395   2.131   2.507   8.089  0.0772  0.0148  0.0499
 5920SOL    HW129396   2.186   2.584   8.108 -0.5251  0.6411 -0.7562
 5920SOL    HW229397   2.102   2.522   7.999 -2.5002 -1.3121  0.6690
 5921SOL     OW29398   2.855   0.885  12.151  0.1391  0.1077 -0.1479
 5921SOL    HW129399   2.947   0.907  12.138  0.4922 -0.6849  1.0376
 5921SOL    HW229400   2.820   0.972  12.173 -1.2687 -0.5638  0.2651
 5922SOL     OW29401   2.204   1.795   5.236  0.3684 -0.0809  0.0408
 5922SOL    HW129402   2.112   1.817   5.244  0.8843  2.0189  0.1578
 5922SOL    HW229403   2.221   1.789   5.142  0.8219  1.1151  0.0551
 5923SOL     OW29404   2.574   2.207   4.988 -0.2060 -0.4324 -0.1611
 5923SOL    HW129405   2.547   2.245   4.905  1.4402  0.7255 -0.1645
 5923SOL    HW229406   2.655   2.252   5.012 -1.1289  1.5851 -0.8601
 5924SOL     OW29407   2.909   2.757  17.652 -0.6245  0.1235 -0.1297
 5924SOL    HW129408   2.957   2.726  17.576 -1.5266  0.7390 -0.9603
 5924SOL    HW229409   2.853   2.822  17.609 -0.3168  0.2015 -0.4133
 5925SOL     OW29410   0.101   3.803  13.757 -0.4389 -0.5737 -0.4608
 5925SOL    HW129411   0.193   3.780  13.764  0.0145  2.1850  2.6268
 5925SOL    HW229412   0.053   3.768  13.832  0.8931  1.5208  1.3428
 5926SOL     OW29413   4.628   2.697  17.745  0.6150 -0.4346 -0.3905
 5926SOL    HW129414   4.658   2.774  17.696 -2.0202  1.4861  1.0755
 5926SOL    HW229415   4.661   2.639  17.675  1.7325 -0.2845  0.0030
 5927SOL     OW29416   0.801   2.539  10.476 -0.1549 -0.2710 -0.4148
 5927SOL    HW129417   0.894   2.558  10.464 -0.2145  1.1150  1.3179
 5927SOL    HW229418   0.777   2.607  10.539 -0.4852  0.4846 -1.3421
 5928SOL     OW29419   3.775   0.261   0.040 -0.2776  0.4169  0.4398
 5928SOL    HW129420   3.726   0.325   0.091  1.1736  1.2659  0.7735
 5928SOL    HW229421   3.763   0.291  17.698 -0.2986 -1.2572 -0.1210
 5929SOL     OW29422   1.020   1.767  15.243  0.8428  0.4654 -0.0902
 5929SOL    HW129423   1.075   1.732  15.173  0.2685  0.7298 -0.6743
 5929SOL    HW229424   1.014   1.861  15.226  0.3970  0.4830  0.1631
 5930SOL     OW29425   1.515   3.837   1.792 -0.2537 -0.2345  0.1674
 5930SOL    HW129426   1.605   3.872   1.792 -0.0161 -0.8353  1.4270
 5930SOL    HW229427   1.514   3.783   1.872  0.0666  0.6066  0.7381
 5931SOL     OW29428   2.701   0.371   9.919  0.0012  1.1967 -0.0829
 5931SOL    HW129429   2.726   0.464   9.918  1.3726  0.8153 -1.1934
 5931SOL    HW229430   2.772   0.343   9.861 -0.3989  2.5681 -1.2560
 5932SOL     OW29431   1.561   3.482  13.953 -0.1903 -0.6210 -0.2202
 5932SOL    HW129432   1.549   3.561  13.900  2.1991  0.0593  0.2392
 5932SOL    HW229433   1.474   3.472  13.991 -0.0697 -2.0454 -0.3501
 5933SOL     OW29434   0.001   0.866  13.565  0.4072 -0.1862 -0.9748
 5933SOL    HW129435   4.650   0.893  13.591  1.2278  2.3091 -0.7913
 5933SOL    HW229436   0.032   0.811  13.637 -0.5766 -1.6064 -1.6360
 5934SOL     OW29437   4.021   1.517   3.070 -0.4987 -0.1850  0.4871
 5934SOL    HW129438   4.098   1.557   3.111 -0.5480  0.6284 -0.2364
 5934SOL    HW229439   3.947   1.555   3.118 -0.3577  0.0755  0.4944
 5935SOL     OW29440   1.123   0.615  10.423 -0.0050 -0.1658  0.8041
 5935SOL    HW129441   1.098   0.645  10.511  1.8986 -0.8192  1.5556
 5935SOL    HW229442   1.083   0.690  10.380  1.7884 -0.3012 -1.0612
 5936SOL     OW29443   1.440   1.380   2.705 -0.1433 -0.0032  0.2026
 5936SOL    HW129444   1.403   1.354   2.789  0.6361  1.3648  0.9710
 5936SOL    HW229445   1.381   1.453   2.687 -2.1092 -2.0773 -1.7736
 5937SOL     OW29446   2.063   4.466  15.824  0.1522  0.1146  0.3811
 5937SOL    HW129447   2.142   4.508  15.858  1.1626 -1.3319 -0.1899
 5937SOL    HW229448   2.101   4.387  15.786  0.7213 -0.2226  1.6626
 5938SOL     OW29449   3.135   2.368   9.116 -0.0474  0.3071 -0.1712
 5938SOL    HW129450   3.152   2.444   9.171 -0.4890  1.3712 -1.5235
 5938SOL    HW229451   3.061   2.412   9.074 -1.0559 -0.3378  0.9150
 5939SOL     OW29452   3.593   2.186   6.926  0.0172 -0.5521 -0.3651
 5939SOL    HW129453   3.650   2.147   6.860 -0.7911  0.2850 -1.5552
 5939SOL    HW229454   3.579   2.272   6.886 -0.6804  0.5778  2.2925
 5940SOL     OW29455   4.505   4.273   5.178 -0.3970  0.1740  0.8292
 5940SOL    HW129456   4.523   4.330   5.253  0.1655  0.8128  0.2134
 5940SOL    HW229457   4.560   4.307   5.108 -0.1695 -0.9482  0.4671
 5941SOL     OW29458   0.350   4.652  13.512  0.4290 -0.2722 -0.2572
 5941SOL    HW129459   0.360   4.600  13.432  0.3270 -1.4398  0.4859
 5941SOL    HW229460   0.296   4.725  13.482 -0.6104 -1.1016 -0.3856
 5942SOL     OW29461   3.893   1.609   7.278  0.0338 -0.2127  0.6298
 5942SOL    HW129462   3.927   1.583   7.193 -1.4159  3.2715 -1.0138
 5942SOL    HW229463   3.815   1.557   7.297 -0.2012 -0.2495 -0.4704
 5943SOL     OW29464   1.626   3.079   3.533  0.4916  0.3537 -0.6247
 5943SOL    HW129465   1.637   3.079   3.628 -1.1149 -0.6823 -0.4332
 5943SOL    HW229466   1.580   2.996   3.519 -0.6697  0.8685  0.0887
 5944SOL     OW29467   4.548   4.578   2.463 -0.7656 -0.2674  0.1517
 5944SOL    HW129468   4.629   4.607   2.422 -1.0388  0.9659  0.4792
 5944SOL    HW229469   4.530   4.662   2.505  0.5556 -0.7282  1.6383
 5945SOL     OW29470   0.964   3.289  10.401 -0.1963  0.3002 -1.0219
 5945SOL    HW129471   1.011   3.208  10.379 -0.0449 -0.0530  0.6258
 5945SOL    HW229472   1.024   3.320  10.468  0.2445 -1.8150 -0.4209
 5946SOL     OW29473   0.151   0.862  14.959 -0.4688 -0.4192 -0.1891
 5946SOL    HW129474   0.090   0.934  14.974 -0.5756  0.1357 -3.3296
 5946SOL    HW229475   0.221   0.878  15.022  0.1179  0.3299 -1.0174
 5947SOL     OW29476   2.652   1.999  10.319 -0.5721 -0.3078 -0.3960
 5947SOL    HW129477   2.646   1.933  10.389  2.4472 -1.4173 -1.1708
 5947SOL    HW229478   2.597   2.075  10.335 -0.3043 -0.2896  0.4421
 5948SOL     OW29479   2.637   2.598   9.150 -0.3998 -0.0362 -0.3491
 5948SOL    HW129480   2.730   2.596   9.125 -0.0289 -2.1422  1.2063
 5948SOL    HW229481   2.626   2.505   9.131 -2.2199  0.3460 -1.1910
 5949SOL     OW29482   1.104   2.115  12.003 -0.7407  0.7008  0.4189
 5949SOL    HW129483   1.111   2.020  12.014  1.8578  0.5851 -2.2706
 5949SOL    HW229484   1.146   2.121  11.917 -0.2880 -0.3828  0.5656
 5950SOL     OW29485   4.357   4.307   6.433 -0.4987  0.0004  0.2795
 5950SOL    HW129486   4.316   4.268   6.357  1.1110 -0.3869 -0.3961
 5950SOL    HW229487   4.357   4.395   6.395  0.5263  0.0717  0.4412
 5951SOL     OW29488   0.183   4.491   8.638 -0.1536  0.3406 -0.0703
 5951SOL    HW129489   0.267   4.481   8.683 -1.0447 -1.6718  1.1448
 5951SOL    HW229490   0.200   4.453   8.551  2.4355 -1.9714  1.4486
 5952SOL     OW29491   2.702   1.727   5.560 -0.2500  0.3001 -0.1672
 5952SOL    HW129492   2.663   1.725   5.647 -1.8007  0.5201 -0.8511
 5952SOL    HW229493   2.653   1.650   5.530  0.2253 -0.4000  0.8382
 5953SOL     OW29494   4.545   0.077   5.703 -0.5900  0.4937  0.4774
 5953SOL    HW129495   4.618   0.065   5.765 -0.1172 -1.0834 -0.3752
 5953SOL    HW229496   4.537   0.171   5.716  1.8406  0.8807 -0.9377
 5954SOL     OW29497   3.325   3.297   6.108 -0.2595  0.0118 -0.1859
 5954SOL    HW129498   3.241   3.266   6.074 -1.1611 -0.2555  2.3180
 5954SOL    HW229499   3.311   3.387   6.135  2.8158  0.7882 -1.1905
 5955SOL     OW29500   3.422   0.466   3.635  1.1244  0.2706 -0.1427
 5955SOL    HW129501   3.394   0.399   3.573  1.3975 -0.4356  0.4936
 5955SOL    HW229502   3.511   0.437   3.657  0.7454  0.2334  1.3329
 5956SOL     OW29503   0.472   1.796   4.825  0.3590 -0.3803 -0.2907
 5956SOL    HW129504   0.537   1.805   4.896 -0.9098  1.2507  0.6708
 5956SOL    HW229505   0.387   1.790   4.868  0.8035  1.1246  0.8258
 5957SOL     OW29506   1.408   2.164   8.651  0.4383  0.2595 -0.0375
 5957SOL    HW129507   1.488   2.190   8.605  0.7625  1.0591  0.9666
 5957SOL    HW229508   1.396   2.069   8.641  2.0688  0.2123 -1.5538
 5958SOL     OW29509   3.403   4.416  17.470  0.4666  0.2844 -0.4404
 5958SOL    HW129510   3.445   4.354  17.410  0.4500 -0.8845  0.7563
 5958SOL    HW229511   3.442   4.497  17.436  1.9000 -0.7092 -1.1926
 5959SOL     OW29512   0.858   2.292   3.133  0.2817  0.0231  0.5020
 5959SOL    HW129513   0.894   2.378   3.153 -0.5555  0.5256 -0.1608
 5959SOL    HW229514   0.896   2.241   3.205  1.5146 -1.2902 -1.1111
 5960SOL     OW29515   1.057   0.165   5.143 -0.1473  1.0795 -0.9239
 5960SOL    HW129516   1.140   0.180   5.098  0.6498 -0.3312  0.0545
 5960SOL    HW229517   0.999   0.190   5.071  1.1140  1.5262 -1.7710
 5961SOL     OW29518   1.274   4.523   1.215  0.1465  0.1871 -0.0290
 5961SOL    HW129519   1.291   4.522   1.121  0.1103  0.6456 -0.0380
 5961SOL    HW229520   1.188   4.564   1.227 -0.6532 -1.1226 -1.1990
 5962SOL     OW29521   0.402   2.161   4.010  0.1810  0.3288 -0.0820
 5962SOL    HW129522   0.446   2.099   3.952  0.7127  1.5052 -0.9166
 5962SOL    HW229523   0.473   2.181   4.071 -0.0290 -0.8396  0.5619
 5963SOL     OW29524   4.218   3.873  11.964 -0.7228  0.6072 -0.0245
 5963SOL    HW129525   4.279   3.895  11.894 -0.4268  0.5535  0.2156
 5963SOL    HW229526   4.265   3.797  11.997 -1.1104  1.5194  2.6375
 5964SOL     OW29527   3.749   4.266   2.333 -0.6718  0.0840 -0.8481
 5964SOL    HW129528   3.786   4.329   2.395 -2.0800 -0.8369  0.9411
 5964SOL    HW229529   3.802   4.277   2.254  0.3655  0.4328 -0.1127
 5965SOL     OW29530   2.484   4.149   2.345 -0.3390 -0.0698 -0.1229
 5965SOL    HW129531   2.477   4.068   2.294 -2.1864  0.3546 -0.5419
 5965SOL    HW229532   2.570   4.183   2.320 -0.4510 -0.1940 -0.6751
 5966SOL     OW29533   1.938   0.843   3.867  0.5865  0.5452 -0.2375
 5966SOL    HW129534   1.845   0.845   3.889  0.3579 -0.4268 -1.1678
 5966SOL    HW229535   1.956   0.750   3.874  0.1618  0.3327 -2.1506
 5967SOL     OW29536   3.320   4.292   6.213  0.4254 -0.3847  0.1546
 5967SOL    HW129537   3.361   4.377   6.223 -1.5991  0.4732  1.2748
 5967SOL    HW229538   3.389   4.232   6.239  1.1745  0.9539  1.2055
 5968SOL     OW29539   4.232   1.438  15.049  0.2154 -0.2328 -0.4422
 5968SOL    HW129540   4.141   1.429  15.024  0.1811 -1.9963  0.3093
 5968SOL    HW229541   4.232   1.501  15.122 -2.5500 -0.8693  0.0767
 5969SOL     OW29542   3.577   0.368  13.840 -0.5865  0.3773  0.1128
 5969SOL    HW129543   3.497   0.416  13.819 -1.1284 -1.1297 -1.2714
 5969SOL    HW229544   3.620   0.435  13.893  1.5824 -1.1147  0.2741
 5970SOL     OW29545   4.167   2.723   2.085  0.6409  0.0640 -0.1628
 5970SOL    HW129546   4.230   2.792   2.067  2.8176 -1.5135  1.3932
 5970SOL    HW229547   4.202   2.653   2.031 -2.6812 -1.5530 -0.2454
 5971SOL     OW29548   2.957   1.457  13.247 -0.0382  0.4037 -0.3483
 5971SOL    HW129549   2.930   1.383  13.193  0.8532  0.2934 -0.6378
 5971SOL    HW229550   3.052   1.445  13.259  0.2855  1.7685 -1.6260
 5972SOL     OW29551   2.373   1.894   0.726 -0.1009 -0.5277 -0.3164
 5972SOL    HW129552   2.362   1.808   0.766 -1.5673 -0.7845 -1.2802
 5972SOL    HW229553   2.371   1.945   0.807 -0.3364  0.2090 -0.7864
 5973SOL     OW29554   3.277   4.428   8.596  0.1601 -0.3388  0.5268
 5973SOL    HW129555   3.232   4.379   8.528 -0.0269  0.4992  0.0542
 5973SOL    HW229556   3.342   4.455   8.531 -0.5786  0.7537  0.2472
 5974SOL     OW29557   1.963   0.759  13.345  0.2118 -0.0650 -0.2943
 5974SOL    HW129558   1.885   0.813  13.355 -0.2905 -1.2503  2.1600
 5974SOL    HW229559   1.994   0.761  13.435  0.8383  0.6435 -0.5253
 5975SOL     OW29560   0.915   0.103   1.302  0.4205 -0.2035  0.0457
 5975SOL    HW129561   0.975   0.177   1.307  0.2762 -0.1299  0.6490
 5975SOL    HW229562   0.878   0.110   1.214  0.5957  0.9236  0.0573
 5976SOL     OW29563   2.627   4.612   6.412 -1.0293  0.7093 -0.3828
 5976SOL    HW129564   2.673   4.687   6.374 -1.3415  0.4367 -1.3116
 5976SOL    HW229565   2.661   4.549   6.349 -0.6521 -0.7520  1.2850
 5977SOL     OW29566   0.262   0.218   1.963 -0.4076  0.6025  0.0760
 5977SOL    HW129567   0.213   0.280   1.909  0.1316  0.4275 -0.6152
 5977SOL    HW229568   0.217   0.133   1.960 -1.6166  1.2746 -0.6755
 5978SOL     OW29569   2.767   1.468  16.990  0.4651 -0.7492  0.5868
 5978SOL    HW129570   2.709   1.397  17.017 -1.5356  0.4300 -0.5741
 5978SOL    HW229571   2.773   1.435  16.900 -1.4792 -1.8638  0.8624
 5979SOL     OW29572   0.991   2.555  11.637  0.4959 -0.4397  0.0315
 5979SOL    HW129573   1.039   2.475  11.618  1.0880  0.2046 -1.1665
 5979SOL    HW229574   1.004   2.604  11.556  0.3192 -0.8544 -0.2495
 5980SOL     OW29575   4.599   1.644  13.686 -0.2657  0.6974 -0.2047
 5980SOL    HW129576   4.681   1.671  13.726  0.8444 -1.1618 -1.2540
 5980SOL    HW229577   4.579   1.723  13.635 -0.0166  0.6886 -0.3165
 5981SOL     OW29578   3.764   1.326   4.047 -0.2630 -0.0113 -0.7802
 5981SOL    HW129579   3.768   1.276   3.965 -2.6135 -0.5401 -0.5685
 5981SOL    HW229580   3.682   1.285   4.073  0.6307 -0.3795  1.4387
 5982SOL     OW29581   2.855   3.113  10.075  0.3709 -0.1238 -1.0483
 5982SOL    HW129582   2.921   3.159  10.023 -0.6768  1.6253 -0.8507
 5982SOL    HW229583   2.862   3.028  10.032  0.1359 -0.7802  0.2115
 5983SOL     OW29584   1.578   0.046   2.649  0.1588 -0.7312 -0.0164
 5983SOL    HW129585   1.544   0.126   2.610 -2.7814 -1.8972  0.1446
 5983SOL    HW229586   1.657   0.065   2.700  0.7223  0.4095 -1.3196
 5984SOL     OW29587   2.721   4.390   3.252 -0.0453 -0.3530 -0.2537
 5984SOL    HW129588   2.651   4.335   3.288 -0.4281  0.0878 -0.3255
 5984SOL    HW229589   2.731   4.370   3.159  0.5067  0.2123 -0.3139
 5985SOL     OW29590   1.366   4.373   5.919 -0.0212 -0.6452  0.1131
 5985SOL    HW129591   1.320   4.448   5.882 -2.1060 -2.2533 -0.5782
 5985SOL    HW229592   1.442   4.418   5.956 -0.7270  0.5827  0.0717
 5986SOL     OW29593   4.229   0.686   5.854 -0.1211  0.2318  0.5392
 5986SOL    HW129594   4.267   0.639   5.929  2.2242 -0.0156 -0.8067
 5986SOL    HW229595   4.180   0.749   5.907  1.8912  2.0312  0.2264
 5987SOL     OW29596   3.097   2.535  15.662  0.1161  0.0768  0.2084
 5987SOL    HW129597   3.045   2.583  15.727 -0.1049  1.3422 -0.8953
 5987SOL    HW229598   3.182   2.574  15.680  1.3439 -2.6315  0.2969
 5988SOL     OW29599   1.163   0.323   9.442 -0.3347 -0.3645  0.0893
 5988SOL    HW129600   1.173   0.371   9.524 -1.5606 -3.2325  1.9344
 5988SOL    HW229601   1.225   0.250   9.451  1.3614  1.2926  1.6860
 5989SOL     OW29602   3.532   0.083   8.386 -0.0332  0.3256 -0.1248
 5989SOL    HW129603   3.559   0.087   8.294 -0.0986 -1.2867 -0.2082
 5989SOL    HW229604   3.618   0.096   8.426  0.3883 -1.6189 -0.4248
 5990SOL     OW29605   2.046   3.136  12.924  0.3054  0.0502 -0.1615
 5990SOL    HW129606   2.046   3.061  12.864 -0.1497 -0.5313  0.5666
 5990SOL    HW229607   2.115   3.110  12.985  0.3068  1.2777  0.3496
 5991SOL     OW29608   3.791   4.382   4.923 -0.0349 -0.4438  0.9304
 5991SOL    HW129609   3.699   4.368   4.901  0.1353 -1.0471  0.6092
 5991SOL    HW229610   3.787   4.466   4.969  1.4149 -1.4715  2.9175
 5992SOL     OW29611   2.781   1.511   4.357 -0.5514  0.5374 -0.3379
 5992SOL    HW129612   2.873   1.538   4.360 -0.9326  1.9237 -0.9095
 5992SOL    HW229613   2.738   1.596   4.370 -1.4511 -0.1782  1.3235
 5993SOL     OW29614   4.100   1.521  10.263  0.1988  0.0218 -0.0919
 5993SOL    HW129615   4.057   1.569  10.333  0.8841  0.2979  0.1370
 5993SOL    HW229616   4.072   1.430  10.269 -1.4124  0.7263  2.8182
 5994SOL     OW29617   1.330   3.654   6.068  0.1489  0.5858 -0.3924
 5994SOL    HW129618   1.397   3.700   6.118 -1.2947  0.6643  1.4817
 5994SOL    HW229619   1.373   3.571   6.047  1.0919  0.7698  0.8761
 5995SOL     OW29620   4.086   2.093   0.060 -0.4225  0.1163 -0.1783
 5995SOL    HW129621   4.046   2.131   0.138  1.3728 -1.4657  1.5502
 5995SOL    HW229622   4.084   2.001   0.087 -4.0498  0.5621  1.0041
 5996SOL     OW29623   3.176   1.350   1.629 -0.1281  0.7688 -0.3353
 5996SOL    HW129624   3.263   1.336   1.593 -1.1667  0.4204 -2.6806
 5996SOL    HW229625   3.188   1.330   1.722 -2.3596 -2.7386 -0.8014
 5997SOL     OW29626   0.264   4.564   5.502  0.0154  0.2216 -0.5096
 5997SOL    HW129627   0.314   4.516   5.569  0.3778  1.6961  0.2763
 5997SOL    HW229628   0.178   4.559   5.543  0.7205 -1.2334  0.7966
 5998SOL     OW29629   1.647   2.818   1.131  0.2873  0.2307  0.3065
 5998SOL    HW129630   1.686   2.807   1.045 -0.7920 -1.2911  0.0135
 5998SOL    HW229631   1.725   2.828   1.186  1.0219 -0.4434 -0.6202
 5999SOL     OW29632   4.402   1.045   3.677  0.3185 -0.5791  0.3445
 5999SOL    HW129633   4.394   0.984   3.603 -0.9282 -0.6624  0.5527
 5999SOL    HW229634   4.309   1.055   3.697  0.5056 -0.8414  1.3296
 6000SOL     OW29635   1.374   0.760  10.671 -0.1049  0.6841 -0.5446
 6000SOL    HW129636   1.288   0.802  10.670 -0.5242 -0.0861  2.4015
 6000SOL    HW229637   1.353   0.696  10.739  0.6887  0.4802 -0.4917
 6001SOL     OW29638   2.478   4.294   3.945 -0.2729 -0.8580  0.3802
 6001SOL    HW129639   2.536   4.254   4.010 -0.7084 -1.2038  0.5570
 6001SOL    HW229640   2.442   4.222   3.893 -0.9444  0.8305 -1.4784
 6002SOL     OW29641   3.788   2.752   4.202 -0.3097 -0.2705 -0.1158
 6002SOL    HW129642   3.849   2.710   4.141 -1.9645 -2.5810 -0.1595
 6002SOL    HW229643   3.726   2.680   4.216 -2.4692  1.3084 -1.6908
 6003SOL     OW29644   0.616   0.650   8.588  0.2024  0.5941  0.0591
 6003SOL    HW129645   0.644   0.566   8.552  0.8380  0.5146  0.7475
 6003SOL    HW229646   0.583   0.624   8.674  2.7736  2.5824  1.6522
 6004SOL     OW29647   2.403   4.493   8.426  0.1880 -0.6357  0.6681
 6004SOL    HW129648   2.351   4.476   8.504 -0.8821 -0.3392  0.0213
 6004SOL    HW229649   2.438   4.579   8.451 -0.0728 -0.3130 -0.0880
 6005SOL     OW29650   4.236   4.077   4.039 -0.2203 -0.6298  0.1321
 6005SOL    HW129651   4.225   4.104   3.947  2.2817  1.6113  0.4755
 6005SOL    HW229652   4.222   3.985   4.020 -2.2221 -0.7584  2.3297
 6006SOL     OW29653   1.409   4.150  12.996  0.2567 -0.1447  0.2141
 6006SOL    HW129654   1.346   4.197  13.050 -0.8561  0.0422 -1.2306
 6006SOL    HW229655   1.441   4.229  12.951 -0.6452  1.3679  2.2782
 6007SOL     OW29656   2.175   1.272   5.616  0.7637  0.0717  0.3481
 6007SOL    HW129657   2.087   1.287   5.584  0.9445 -0.3626 -0.3565
 6007SOL    HW229658   2.155   1.258   5.708 -1.7545 -0.0129 -0.2115
 6008SOL     OW29659   1.019   2.515   5.234 -0.1458  0.4277 -0.0436
 6008SOL    HW129660   1.042   2.423   5.217  3.6046  1.3534 -0.0663
 6008SOL    HW229661   0.924   2.507   5.226 -0.0087  2.6361 -3.7364
 6009SOL     OW29662   2.785   2.104  12.148  0.5364  0.0574  0.3841
 6009SOL    HW129663   2.711   2.045  12.139 -0.2734  0.7570  2.4537
 6009SOL    HW229664   2.753   2.179  12.098 -2.7075 -2.1090 -0.7128
 6010SOL     OW29665   0.399   4.517  12.669  0.2072  0.1532 -0.0315
 6010SOL    HW129666   0.490   4.492  12.658  0.2810  0.3087  0.2239
 6010SOL    HW229667   0.350   4.437  12.648 -0.2600  1.0142 -2.2664
 6011SOL     OW29668   1.346   0.071  16.489  0.5715 -0.2960  0.6845
 6011SOL    HW129669   1.397   0.133  16.436  1.4520  0.2997  2.2316
 6011SOL    HW229670   1.256   0.100  16.474  0.6044  1.0701  3.0819
 6012SOL     OW29671   2.267   3.008   5.118  0.3769 -0.1114  0.3441
 6012SOL    HW129672   2.255   3.102   5.103  0.4277 -0.0016  1.0001
 6012SOL    HW229673   2.340   2.979   5.063  1.5566 -0.0755  1.9132
 6013SOL     OW29674   0.111   2.743   0.745 -0.4203  0.4382  0.0853
 6013SOL    HW129675   0.018   2.762   0.744 -0.0170  2.4832  1.7148
 6013SOL    HW229676   0.111   2.701   0.831  0.7791 -3.1152 -1.6336
 6014SOL     OW29677   2.698   0.278   6.091 -0.1467 -0.4448  0.2069
 6014SOL    HW129678   2.737   0.195   6.119  0.6218  0.4265  1.6819
 6014SOL    HW229679   2.771   0.338   6.104  1.4095 -2.6374  1.6145
 6015SOL     OW29680   1.425   3.476   6.966  0.8837 -0.2406  0.6574
 6015SOL    HW129681   1.331   3.475   6.984  0.6154  0.6651 -0.6774
 6015SOL    HW229682   1.428   3.438   6.878 -3.1218  0.5938  0.1552
 6016SOL     OW29683   1.816   1.319   4.367 -0.0898  0.1016 -0.1113
 6016SOL    HW129684   1.839   1.389   4.427 -1.9774  1.2126 -0.6775
 6016SOL    HW229685   1.854   1.359   4.289 -1.4244  3.0554  0.7819
 6017SOL     OW29686   1.938   2.678   2.209 -0.0285  0.0429 -0.6599
 6017SOL    HW129687   1.962   2.764   2.174  0.8795  0.9591  2.1850
 6017SOL    HW229688   1.971   2.683   2.299 -0.7529 -1.0015 -0.3346
 6018SOL     OW29689   4.093   4.571   3.664 -0.6086 -0.2764  0.7370
 6018SOL    HW129690   4.113   4.657   3.702  0.1259 -0.3163  0.4251
 6018SOL    HW229691   4.164   4.572   3.600 -1.0103 -0.0877  0.2973
 6019SOL     OW29692   2.820   2.081   4.734 -0.1575 -0.4658  0.2007
 6019SOL    HW129693   2.877   2.045   4.665  0.5729 -0.8869  1.0251
 6019SOL    HW229694   2.732   2.060   4.703 -0.4026 -0.6822  1.0677
 6020SOL     OW29695   1.137   2.278  11.487  0.2302  0.3917 -0.4323
 6020SOL    HW129696   1.179   2.194  11.468  2.2952  1.9082 -2.6328
 6020SOL    HW229697   1.086   2.277  11.406  1.6111 -1.0783 -1.2803
 6021SOL     OW29698   2.709   3.019   2.318  0.2343  0.0369  0.3405
 6021SOL    HW129699   2.672   3.017   2.406  1.4765 -1.9677  0.8102
 6021SOL    HW229700   2.643   2.987   2.257 -1.3688  1.0227  1.5485
 6022SOL     OW29701   2.362   4.259   5.380  0.0920 -0.3622  0.0756
 6022SOL    HW129702   2.357   4.339   5.327  1.8538 -0.3646 -0.0937
 6022SOL    HW229703   2.282   4.254   5.432  0.0440  0.1060  0.0538
 6023SOL     OW29704   2.628   1.149   1.531 -0.4794  0.5300 -0.2233
 6023SOL    HW129705   2.694   1.084   1.506 -1.1523  0.5663 -2.0733
 6023SOL    HW229706   2.551   1.099   1.504 -0.1045 -0.4960  0.6007
 6024SOL     OW29707   0.634   3.662   2.671  0.2551 -0.0871  0.1695
 6024SOL    HW129708   0.714   3.712   2.688  0.2330  0.1001 -0.2901
 6024SOL    HW229709   0.657   3.613   2.592  1.5352 -0.4543  0.7815
 6025SOL     OW29710   0.878   0.239   4.928 -0.1340 -0.5512  0.1293
 6025SOL    HW129711   0.813   0.170   4.920 -3.0650  2.0426  1.6589
 6025SOL    HW229712   0.834   0.324   4.927  0.9267 -0.0042  0.2591
 6026SOL     OW29713   2.834   0.293  17.555  0.3134  0.4677  0.0390
 6026SOL    HW129714   2.751   0.298  17.507  1.2360  0.0899 -1.5867
 6026SOL    HW229715   2.866   0.383  17.563  1.5670 -0.2197  2.9700
 6027SOL     OW29716   0.644   2.671  13.733 -0.5203  0.5773  0.5771
 6027SOL    HW129717   0.701   2.643  13.805 -0.1327 -0.3009 -0.0659
 6027SOL    HW229718   0.711   2.689  13.667 -0.6110 -3.2791 -0.5970
 6028SOL     OW29719   2.485   1.121   9.057 -0.0638  0.2622 -0.1707
 6028SOL    HW129720   2.515   1.184   9.122 -3.0125  1.4220  0.0692
 6028SOL    HW229721   2.528   1.041   9.088 -3.9964 -1.5491  0.5774
 6029SOL     OW29722   0.729   0.438   8.011 -0.0486  0.3326  0.1435
 6029SOL    HW129723   0.761   0.371   7.952 -1.5020  0.6306 -0.9990
 6029SOL    HW229724   0.691   0.503   7.951 -1.2385  1.0777  1.6908
 6030SOL     OW29725   1.055   2.199  17.430 -0.2066  0.3281 -0.3826
 6030SOL    HW129726   1.065   2.135  17.360 -0.9639 -0.9662  0.7021
 6030SOL    HW229727   1.126   2.168  17.486 -1.9117  2.8726  3.2256
 6031SOL     OW29728   3.324   1.422   0.231 -0.5829  0.1456 -0.1862
 6031SOL    HW129729   3.338   1.364   0.156  2.0576  2.3532 -1.3810
 6031SOL    HW229730   3.246   1.470   0.205 -1.6500 -2.3797 -1.6294
 6032SOL     OW29731   2.222   2.571   3.098 -0.1687  0.2373 -0.0683
 6032SOL    HW129732   2.178   2.645   3.140  0.2590  1.8270 -2.4104
 6032SOL    HW229733   2.145   2.546   3.046  0.3857  0.3207 -0.9299
 6033SOL     OW29734   1.740   1.682  17.163  0.1773 -0.1333  0.0215
 6033SOL    HW129735   1.747   1.647  17.252 -0.1401 -0.9621 -0.2776
 6033SOL    HW229736   1.645   1.677  17.151  0.0518 -1.1407  1.3768
 6034SOL     OW29737   1.685   0.194   8.511 -0.0778  0.7319  0.1593
 6034SOL    HW129738   1.762   0.200   8.454 -0.8389 -0.7721 -1.0261
 6034SOL    HW229739   1.619   0.220   8.447 -0.0027  0.9029  0.1519
 6035SOL     OW29740   0.828   0.455   6.866 -0.0647  0.3766 -0.0204
 6035SOL    HW129741   0.818   0.492   6.954  0.9978 -0.2653  0.3749
 6035SOL    HW229742   0.920   0.479   6.850  0.6461 -2.4452 -0.1042
 6036SOL     OW29743   2.333   1.573   8.269 -0.1782  0.8363 -0.2256
 6036SOL    HW129744   2.335   1.543   8.178  2.1716 -1.1298  0.4772
 6036SOL    HW229745   2.394   1.515   8.315  1.2939  1.4608 -1.4253
 6037SOL     OW29746   4.573   1.763  16.139 -0.1474 -0.0798 -0.0370
 6037SOL    HW129747   4.543   1.772  16.049 -3.6523  2.0523  1.3549
 6037SOL    HW229748   4.582   1.667  16.145  2.0387  0.1489  0.1314
 6038SOL     OW29749   2.410   3.881   0.097 -0.2990  0.4256  0.4583
 6038SOL    HW129750   2.349   3.952   0.117 -2.3149 -1.0844 -0.3316
 6038SOL    HW229751   2.411   3.889   0.001 -1.5233 -2.2989  0.2099
 6039SOL     OW29752   4.025   3.085   3.048 -0.1833  0.8023  0.4322
 6039SOL    HW129753   4.040   2.992   3.028  0.4827  0.5130  2.2790
 6039SOL    HW229754   4.037   3.124   2.962  1.7659 -3.6518 -1.3188
 6040SOL     OW29755   0.807   4.631   6.193  0.0113 -0.3973  0.4143
 6040SOL    HW129756   0.898   4.628   6.220  0.3897  1.3374 -0.6307
 6040SOL    HW229757   0.758   4.607   6.272  0.5601  0.0840  0.8963
 6041SOL     OW29758   4.406   0.213   5.279 -0.2810 -0.0514  0.2126
 6041SOL    HW129759   4.402   0.300   5.319 -0.1270  1.0072 -2.0622
 6041SOL    HW229760   4.496   0.186   5.298 -0.1138  0.9102  0.7997
 6042SOL     OW29761   0.409   1.074   2.375  0.2209  0.1793  0.3573
 6042SOL    HW129762   0.482   1.121   2.416  0.1494  0.0489  0.6304
 6042SOL    HW229763   0.343   1.143   2.377 -2.8021 -2.6193 -3.4570
 6043SOL     OW29764   1.496   4.088   1.072 -0.2469 -0.6116  0.1908
 6043SOL    HW129765   1.507   4.151   1.001 -1.5003  0.0499  0.5990
 6043SOL    HW229766   1.512   4.145   1.147 -0.5283 -0.6276  0.2618
 6044SOL     OW29767   3.242   2.264   4.279  0.6503  0.1323 -0.4345
 6044SOL    HW129768   3.163   2.212   4.290  1.6269 -1.0990  0.6944
 6044SOL    HW229769   3.264   2.234   4.191  0.4178  0.1100 -0.4826
 6045SOL     OW29770   4.435   0.991   5.648  0.4677 -0.1674  0.1889
 6045SOL    HW129771   4.441   0.950   5.562 -0.6524 -1.1758  0.5959
 6045SOL    HW229772   4.477   0.924   5.702 -0.6174 -0.5360  0.5727
 6046SOL     OW29773   0.094   1.905   1.748 -0.0726  0.1258 -0.4249
 6046SOL    HW129774   0.171   1.963   1.750  0.3235 -0.4694  2.1841
 6046SOL    HW229775   0.141   1.828   1.716  0.4475  0.7971 -1.2758
 6047SOL     OW29776   0.572   0.663   7.874  0.3235 -0.3887 -0.5561
 6047SOL    HW129777   0.499   0.713   7.838  0.1816 -0.2669 -0.0981
 6047SOL    HW229778   0.541   0.577   7.845  1.3598 -0.1546 -2.3161
 6048SOL     OW29779   3.064   0.604   8.469  0.3038 -0.4534 -0.3337
 6048SOL    HW129780   2.974   0.616   8.439  0.8426  1.9042 -0.9603
 6048SOL    HW229781   3.105   0.575   8.388  1.0775  0.8233 -0.3867
 6049SOL     OW29782   0.139   3.322   5.863  0.6049  0.4970  0.5563
 6049SOL    HW129783   0.106   3.355   5.779  0.7209 -1.0134 -0.0992
 6049SOL    HW229784   0.193   3.397   5.886  0.2120  0.2266  2.3823
 6050SOL     OW29785   1.095   1.920   5.332 -0.1856  0.5688  0.2000
 6050SOL    HW129786   1.024   1.930   5.268 -1.2606 -2.3658  0.9342
 6050SOL    HW229787   1.088   2.004   5.378  0.5836  1.1426 -0.7476
 6051SOL     OW29788   0.989   3.718   0.418 -0.3634 -0.0724 -0.3944
 6051SOL    HW129789   1.008   3.809   0.395 -0.9404  0.2351  0.3449
 6051SOL    HW229790   1.067   3.668   0.394  1.1812  0.8981  2.6688
 6052SOL     OW29791   2.219   4.731  14.664  0.9613  0.0744  0.1324
 6052SOL    HW129792   2.132   4.734  14.625  0.7595 -1.0142  0.4947
 6052SOL    HW229793   2.242   0.079  14.700 -3.7069  0.8893  1.1852
 6053SOL     OW29794   1.440   2.271   8.110  0.2475  0.0410  0.0297
 6053SOL    HW129795   1.439   2.190   8.161 -1.9250  1.5749  2.3998
 6053SOL    HW229796   1.529   2.256   8.079  0.0766  0.1557 -0.5080
 6054SOL     OW29797   0.571   1.570   2.721 -0.5409 -0.0080  0.4640
 6054SOL    HW129798   0.532   1.644   2.675 -0.9439 -0.1772  0.5323
 6054SOL    HW229799   0.598   1.510   2.652  1.6554 -0.1027  1.4100
 6055SOL     OW29800   1.350   2.849  15.124  0.2991 -1.0250 -0.1148
 6055SOL    HW129801   1.415   2.917  15.108 -1.6580  1.0022  0.5463
 6055SOL    HW229802   1.386   2.830  15.210 -2.0657  1.1188  1.3503
 6056SOL     OW29803   4.239   0.103  12.272 -0.4526  0.3413 -0.2143
 6056SOL    HW129804   4.317   0.128  12.321 -0.4604  0.9602 -0.5226
 6056SOL    HW229805   4.269   0.120  12.183 -0.5660  1.0140 -0.1220
 6057SOL     OW29806   1.168   2.665   1.521 -0.1702  0.1262 -0.7100
 6057SOL    HW129807   1.157   2.638   1.430  2.1730  0.9796 -1.2470
 6057SOL    HW229808   1.263   2.678   1.521 -0.3308  1.3191  0.4780
 6058SOL     OW29809   1.899   4.136   2.608  0.0074  0.0734  0.6192
 6058SOL    HW129810   1.876   4.229   2.609 -0.0353  0.0514  1.7775
 6058SOL    HW229811   1.829   4.094   2.658 -1.7110  2.0697 -0.1197
 6059SOL     OW29812   3.117   2.261   5.741 -0.2437  0.0169 -0.2804
 6059SOL    HW129813   3.112   2.340   5.686  0.3082 -0.7437 -1.4248
 6059SOL    HW229814   3.052   2.205   5.699 -1.1735 -0.2366  1.4769
 6060SOL     OW29815   4.415   3.971  14.071 -0.0701  0.2447 -0.0809
 6060SOL    HW129816   4.396   3.976  13.977  1.4306  0.2467 -0.3855
 6060SOL    HW229817   4.507   3.996  14.075 -0.3921  1.4902 -0.3821
 6061SOL     OW29818   1.613   4.221   4.408 -0.2542 -0.4257  0.1914
 6061SOL    HW129819   1.695   4.206   4.454  0.0029 -0.1353 -0.1690
 6061SOL    HW229820   1.544   4.217   4.474  2.5047 -0.3649  3.0925
 6062SOL     OW29821   1.560   0.983  15.323 -0.2546  0.4076  0.2534
 6062SOL    HW129822   1.574   1.072  15.290  0.6186  0.4166  0.6678
 6062SOL    HW229823   1.611   0.928  15.263  0.5976  1.2846  0.1715
 6063SOL     OW29824   1.452   4.450   1.692  0.6151 -0.3694 -0.3200
 6063SOL    HW129825   1.458   4.492   1.607  1.1286 -1.6025 -0.8928
 6063SOL    HW229826   1.536   4.404   1.683  0.5679 -0.5183 -0.0186
 6064SOL     OW29827   1.730   4.096   8.462 -0.4171 -0.4197 -0.4736
 6064SOL    HW129828   1.685   4.015   8.437  2.6500 -2.0037 -0.8832
 6064SOL    HW229829   1.763   4.139   8.383 -0.2969  0.3797  0.0184
 6065SOL     OW29830   3.121   0.479  15.334 -0.6027 -0.1601 -0.0072
 6065SOL    HW129831   3.188   0.536  15.373  0.3455 -0.0414 -1.8122
 6065SOL    HW229832   3.185   0.409  15.320  0.4116  0.8072 -0.2289
 6066SOL     OW29833   2.280   2.105   6.821  0.1063 -0.2150 -1.0099
 6066SOL    HW129834   2.316   2.194   6.821  3.0201 -1.3904  2.3654
 6066SOL    HW229835   2.349   2.072   6.764  1.4900 -0.7758  0.9611
 6067SOL     OW29836   3.793   2.984   8.558 -0.5532  0.3351 -0.2856
 6067SOL    HW129837   3.704   2.960   8.531 -0.6367 -0.4612  0.7178
 6067SOL    HW229838   3.786   2.997   8.652 -4.0458 -0.5486 -0.4241
 6068SOL     OW29839   1.769   2.069   3.237  0.3170  0.4814  0.1170
 6068SOL    HW129840   1.820   2.131   3.289  0.6529 -1.3488  1.9608
 6068SOL    HW229841   1.811   2.079   3.152  0.1996 -1.4614 -0.1586
 6069SOL     OW29842   0.372   4.140   0.911 -0.9314  0.2370 -0.1069
 6069SOL    HW129843   0.400   4.203   0.845  0.0073 -0.0234  0.0379
 6069SOL    HW229844   0.276   4.140   0.912 -0.9508 -0.1915 -2.4131
 6070SOL     OW29845   1.116   1.420   1.403 -0.1676  0.0861 -0.2086
 6070SOL    HW129846   1.072   1.414   1.488  0.1271  0.1864 -0.0504
 6070SOL    HW229847   1.194   1.474   1.411 -1.1354  1.4910 -0.0931
 6071SOL     OW29848   2.591   3.685   1.107 -0.5613 -0.5072  0.6987
 6071SOL    HW129849   2.635   3.632   1.041 -0.1014  0.0762  0.5416
 6071SOL    HW229850   2.611   3.644   1.191  1.2061 -1.1831 -0.0478
 6072SOL     OW29851   3.316   1.259   2.984 -0.1519 -0.8533 -0.7132
 6072SOL    HW129852   3.365   1.333   2.948 -0.4976 -0.2317  0.0953
 6072SOL    HW229853   3.255   1.245   2.912 -2.7128  0.8509  1.0968
 6073SOL     OW29854   1.437   0.656   3.511 -0.0545  0.1545  0.4608
 6073SOL    HW129855   1.394   0.596   3.450 -0.9706  0.9760  0.2969
 6073SOL    HW229856   1.384   0.734   3.496  0.7747  0.2267 -2.0974
 6074SOL     OW29857   1.097   1.224   8.275  0.6598 -0.6237  0.2456
 6074SOL    HW129858   1.146   1.153   8.234  1.6043  0.3273 -0.2742
 6074SOL    HW229859   1.068   1.274   8.199 -0.5119 -0.6999  0.6393
 6075SOL     OW29860   3.948   1.742  14.811  0.1485  0.3074  0.4907
 6075SOL    HW129861   3.926   1.800  14.738 -1.7491 -0.8481  0.1519
 6075SOL    HW229862   3.868   1.754  14.861  0.1217  1.2146  0.2328
 6076SOL     OW29863   1.494   2.256   2.642 -0.0951  0.5519 -0.1205
 6076SOL    HW129864   1.414   2.232   2.688  0.2661 -0.3069  0.0533
 6076SOL    HW229865   1.460   2.325   2.584  0.5257 -0.2307 -1.4324
 6077SOL     OW29866   4.271   1.184   6.729  0.3757 -0.1393  0.3966
 6077SOL    HW129867   4.177   1.166   6.732  0.1799  0.8790  0.5576
 6077SOL    HW229868   4.317   1.104   6.754  0.8760  0.4304  1.3153
 6078SOL     OW29869   2.865   0.296   3.776  0.4564  0.2208  0.0112
 6078SOL    HW129870   2.930   0.226   3.785  2.5227  2.4797  2.4424
 6078SOL    HW229871   2.825   0.284   3.689  2.1834  0.5774 -0.8146
 6079SOL     OW29872   4.310   2.949   2.103 -0.1868 -0.4504 -0.3263
 6079SOL    HW129873   4.233   3.003   2.122  0.2615  0.3105 -0.7027
 6079SOL    HW229874   4.335   2.981   2.017 -0.3934 -0.2981 -0.3299
 6080SOL     OW29875   3.402   0.917   6.539 -0.1244 -0.2581 -0.4975
 6080SOL    HW129876   3.445   0.895   6.621 -3.0175 -0.8845  0.8439
 6080SOL    HW229877   3.379   1.010   6.551 -0.2592 -0.2795 -0.5840
 6081SOL     OW29878   1.214   2.326  12.139 -0.3699 -0.3643  0.6992
 6081SOL    HW129879   1.157   2.251  12.121 -0.2321 -0.0843 -0.9462
 6081SOL    HW229880   1.287   2.327  12.077 -1.5745 -1.0808 -0.7465
 6082SOL     OW29881   4.683   1.864  10.959  0.3297 -0.0274  0.1019
 6082SOL    HW129882   4.697   1.845  10.867  1.4274  0.0524  0.2498
 6082SOL    HW229883   0.004   1.801  11.002 -1.0606 -1.2072  0.2770
 6083SOL     OW29884   2.251   0.640  13.308 -0.1992 -0.2183 -0.2819
 6083SOL    HW129885   2.253   0.736  13.312 -0.5063 -0.3089  1.6918
 6083SOL    HW229886   2.196   0.608  13.379  0.0267 -1.0021 -0.4598
 6084SOL     OW29887   0.419   3.874   8.950  0.2715 -0.1627  0.1208
 6084SOL    HW129888   0.339   3.829   8.979 -0.1038 -0.4245 -1.3575
 6084SOL    HW229889   0.477   3.802   8.975 -0.1351 -0.9960 -1.3775
 6085SOL     OW29890   2.124   3.888   8.209  0.1964 -0.4300 -0.3185
 6085SOL    HW129891   2.199   3.945   8.229 -1.7243  1.4501  1.5560
 6085SOL    HW229892   2.143   3.812   8.264  0.2442 -1.0275 -1.1635
 6086SOL     OW29893   0.241   2.078   8.839  0.0800  0.2807  0.2311
 6086SOL    HW129894   0.284   2.068   8.924 -0.7509  0.7439  0.7016
 6086SOL    HW229895   0.154   2.045   8.858  1.3797 -3.1483  0.1443
 6087SOL     OW29896   2.924   1.382  10.163 -0.0777 -0.0873 -0.6334
 6087SOL    HW129897   2.957   1.313  10.221 -1.6358 -0.0564  0.3013
 6087SOL    HW229898   2.829   1.372  10.172  0.2841  0.1177  3.3903
 6088SOL     OW29899   3.695   4.204  11.171  0.6329 -0.1346 -0.0126
 6088SOL    HW129900   3.727   4.289  11.139 -2.3096  0.4958 -1.2421
 6088SOL    HW229901   3.618   4.226  11.223 -0.9001  0.1734 -2.4351
 6089SOL     OW29902   3.039   3.687   4.052  0.2708 -0.2111 -1.1012
 6089SOL    HW129903   2.991   3.658   4.130 -0.7284  0.2178 -1.5505
 6089SOL    HW229904   3.121   3.713   4.094 -1.4806  1.5148  1.2256
 6090SOL     OW29905   0.596   0.123   3.417 -0.0418 -0.3322  0.6206
 6090SOL    HW129906   0.528   0.056   3.409 -0.7576  0.5144 -0.4250
 6090SOL    HW229907   0.668   0.061   3.409 -0.4641 -0.7224 -0.1669
 6091SOL     OW29908   4.341   4.032   7.584  0.0016  0.2179 -0.2095
 6091SOL    HW129909   4.358   3.963   7.648 -0.2388  1.7714  1.5467
 6091SOL    HW229910   4.254   4.009   7.550 -0.3703  0.2334  0.7141
 6092SOL     OW29911   0.585   1.526   4.436  0.0151 -0.0033  0.5314
 6092SOL    HW129912   0.566   1.614   4.467  1.2565  1.0526 -1.6974
 6092SOL    HW229913   0.564   1.467   4.508 -2.4205 -3.3547 -2.9123
 6093SOL     OW29914   4.225   0.592   6.963  0.6941  0.3731  0.0594
 6093SOL    HW129915   4.190   0.661   6.907  1.2849 -0.3439 -1.1895
 6093SOL    HW229916   4.320   0.602   6.961  0.7078 -0.1148 -1.5623
 6094SOL     OW29917   4.081   4.512   7.434 -0.7697 -0.1589 -0.0351
 6094SOL    HW129918   4.075   4.579   7.502 -2.1944 -1.7443  1.3911
 6094SOL    HW229919   4.101   4.562   7.355 -1.3842 -0.5079 -0.4111
 6095SOL     OW29920   2.378   3.449   5.976  0.0643 -0.4502  0.0773
 6095SOL    HW129921   2.382   3.442   6.071  0.5106  2.2272  0.2439
 6095SOL    HW229922   2.428   3.531   5.974 -1.1070  0.2326 -1.1203
 6096SOL     OW29923   3.713   2.139   1.270  0.0695  0.0459  0.1346
 6096SOL    HW129924   3.770   2.118   1.344 -2.3647 -1.8696  1.4479
 6096SOL    HW229925   3.653   2.066   1.260  2.3343 -1.3533 -3.4215
 6097SOL     OW29926   2.793   4.027   3.041  0.3746  0.4945  0.0668
 6097SOL    HW129927   2.726   3.976   3.087 -1.2075  2.0100 -0.5721
 6097SOL    HW229928   2.755   4.114   3.030  1.4138  0.8172 -0.9669
 6098SOL     OW29929   0.997   0.727  17.031 -0.5395  0.4419  0.4106
 6098SOL    HW129930   1.065   0.780  17.073 -1.0586  0.9860  0.5718
 6098SOL    HW229931   0.972   0.783  16.958  2.1564  1.5991  0.3739
 6099SOL     OW29932   0.652   0.948  12.437 -0.1665 -0.1695  0.4156
 6099SOL    HW129933   0.557   0.949  12.449  0.1741  0.4736  3.0424
 6099SOL    HW229934   0.678   1.014  12.502  1.4162 -0.3994  0.0064
 6100SOL     OW29935   0.981   4.054  17.483 -0.2227  0.3296 -0.4320
 6100SOL    HW129936   1.068   4.023  17.507 -0.7307  0.1160  1.1316
 6100SOL    HW229937   0.963   4.115  17.554 -0.2580 -1.5241  1.1427
 6101SOL     OW29938   1.807   0.729   7.081  0.0969  0.1928  0.5287
 6101SOL    HW129939   1.842   0.668   7.016 -1.2021  0.2205 -0.1941
 6101SOL    HW229940   1.885   0.768   7.121  0.4390 -2.3904  2.3475
 6102SOL     OW29941   4.452   3.993  15.992 -0.2171  0.1789  0.0358
 6102SOL    HW129942   4.504   4.032  15.921 -1.6581  0.9856 -0.5803
 6102SOL    HW229943   4.402   3.927  15.944 -1.1013  0.9470 -0.1103
 6103SOL     OW29944   3.986   0.530  15.676 -0.4508  0.3516  0.0224
 6103SOL    HW129945   3.979   0.535  15.581 -0.6063  0.5482  0.0448
 6103SOL    HW229946   3.974   0.436  15.684 -0.6094  0.3640 -0.0766
 6104SOL     OW29947   2.353   1.530   5.900 -0.1912  0.1679  0.6700
 6104SOL    HW129948   2.349   1.596   5.830  0.3661  0.7733  1.2134
 6104SOL    HW229949   2.443   1.545   5.926  0.1347  0.2147 -0.4663
 6105SOL     OW29950   4.564   0.874   6.956 -0.0653 -0.1380 -0.5027
 6105SOL    HW129951   4.657   0.852   6.961  0.0322  0.0612 -1.4056
 6105SOL    HW229952   4.535   0.816   7.027 -2.0161  1.1288 -0.2566
 6106SOL     OW29953   1.187   0.919   6.104  0.3415  0.1898  0.0879
 6106SOL    HW129954   1.165   0.966   6.184  1.4950 -1.4391  1.3521
 6106SOL    HW229955   1.158   0.830   6.123 -1.9878  0.7110 -1.1027
 6107SOL     OW29956   2.735   2.885   8.442 -0.4268  0.0654 -0.5264
 6107SOL    HW129957   2.709   2.862   8.531  0.2154 -0.2494 -0.4233
 6107SOL    HW229958   2.678   2.963   8.438  2.0631  1.8676 -0.7451
 6108SOL     OW29959   3.984   0.727   5.709 -0.0197  0.2756  0.2283
 6108SOL    HW129960   4.057   0.698   5.762  0.5965 -2.0297 -1.8878
 6108SOL    HW229961   4.012   0.719   5.618 -0.8344  1.9107 -0.1805
 6109SOL     OW29962   2.355   3.854   5.017 -0.0862  0.3888 -0.0413
 6109SOL    HW129963   2.442   3.815   5.018 -0.3465 -0.1915 -0.3323
 6109SOL    HW229964   2.352   3.903   5.100  0.6726 -1.6698  1.2046
 6110SOL     OW29965   1.211   3.094   2.987  0.4449 -0.1579 -0.0105
 6110SOL    HW129966   1.156   3.172   2.986  0.7369  0.0231 -1.9458
 6110SOL    HW229967   1.195   3.066   3.077 -0.0358  0.9687  0.2425
 6111SOL     OW29968   3.687   4.279   1.704  0.0552  0.2321  0.2861
 6111SOL    HW129969   3.634   4.219   1.757 -0.9589  1.3003  0.4795
 6111SOL    HW229970   3.708   4.231   1.624 -1.5898  0.5669 -0.3418
 6112SOL     OW29971   1.494   2.840   8.069 -0.2667 -0.1553  0.4014
 6112SOL    HW129972   1.468   2.748   8.072 -0.1537 -0.2334 -0.7887
 6112SOL    HW229973   1.456   2.868   7.986  3.4319 -2.6444 -2.1345
 6113SOL     OW29974   4.657   3.476   2.971  0.8263  0.1274 -0.1110
 6113SOL    HW129975   4.708   3.428   3.036  1.2150  2.7710  1.5400
 6113SOL    HW229976   4.727   3.527   2.930 -0.5984  1.4775 -0.8765
 6114SOL     OW29977   1.925   1.321   5.520 -0.2403 -0.1814  0.1866
 6114SOL    HW129978   1.930   1.405   5.475  1.1384 -0.0247  0.6333
 6114SOL    HW229979   1.861   1.271   5.470 -0.1239  2.0939 -2.2422
 6115SOL     OW29980   0.007   1.643   3.315 -0.2553 -0.1848  0.2086
 6115SOL    HW129981   4.658   1.621   3.280 -0.8567 -0.5662  1.9526
 6115SOL    HW229982   0.061   1.594   3.252 -0.8236  2.1962 -2.0997
 6116SOL     OW29983   1.439   2.554   4.633 -0.0652  0.1963  0.0667
 6116SOL    HW129984   1.395   2.487   4.582 -2.1859 -0.9387  3.3658
 6116SOL    HW229985   1.520   2.510   4.660 -0.8312 -0.5728  1.1536
 6117SOL     OW29986   4.086   4.050   7.468 -0.0328 -0.3393  0.0899
 6117SOL    HW129987   4.062   4.143   7.464 -0.6277 -0.4116  1.7014
 6117SOL    HW229988   4.034   4.029   7.546  1.9078 -0.5747  1.3305
 6118SOL     OW29989   0.710   1.985   0.587  0.1014  0.1984 -0.1398
 6118SOL    HW129990   0.697   2.003   0.680 -0.8218  3.1614 -0.8548
 6118SOL    HW229991   0.804   2.000   0.579 -0.1870  2.3697  0.7222
 6119SOL     OW29992   2.927   3.065   1.026 -0.5750  0.7059  0.1522
 6119SOL    HW129993   2.833   3.057   1.044 -0.6457  1.1943  0.0074
 6119SOL    HW229994   2.940   3.153   0.990 -2.6827  1.0890  0.3116
 6120SOL     OW29995   4.445   2.378  15.422 -0.0542  0.9049 -0.4847
 6120SOL    HW129996   4.479   2.294  15.451  1.1642  1.6730  0.3440
 6120SOL    HW229997   4.449   2.440  15.495  1.7087 -0.3358  0.4595
 6121SOL     OW29998   0.577   1.996   1.209  0.0463 -0.3918  0.0684
 6121SOL    HW129999   0.551   1.909   1.239  0.3353 -0.4602  0.1211
 6121SOL    HW230000   0.546   1.979   1.120  0.2775 -1.3835  0.1825
 6122SOL     OW30001   3.141   4.216   6.499 -0.4342  0.1773 -0.1139
 6122SOL    HW130002   3.221   4.249   6.456 -1.3700  0.0935 -1.9317
 6122SOL    HW230003   3.079   4.283   6.469 -1.1246 -0.0036  0.9229
 6123SOL     OW30004   3.026   3.434  17.053 -0.1348 -1.0240 -0.3036
 6123SOL    HW130005   3.003   3.441  17.146  0.5235 -0.6330 -0.1687
 6123SOL    HW230006   2.949   3.391  17.017 -2.1646  2.2293  0.1751
 6124SOL     OW30007   0.825   3.864  11.893  0.1577  0.2738  0.9287
 6124SOL    HW130008   0.746   3.812  11.909 -1.2823  1.6994 -1.5901
 6124SOL    HW230009   0.814   3.877  11.799 -0.1335  2.8150  1.3211
 6125SOL     OW30010   2.317   4.397   4.118  0.0254 -0.1931 -0.0046
 6125SOL    HW130011   2.252   4.339   4.079 -1.0416  1.7583 -1.1446
 6125SOL    HW230012   2.388   4.381   4.056  1.9903  0.8576  1.9854
 6126SOL     OW30013   0.097   0.337   7.948  0.3437 -0.0621  0.1472
 6126SOL    HW130014   0.020   0.293   7.912  1.4963 -2.1746  0.2548
 6126SOL    HW230015   0.176   0.291   7.920  0.5998 -0.0731  0.8687
 6127SOL     OW30016   1.990   2.525   6.485  0.5035 -0.3121 -0.1128
 6127SOL    HW130017   2.065   2.580   6.507  1.0893  0.0709 -3.0482
 6127SOL    HW230018   2.026   2.437   6.497  0.2585 -0.3160  0.5943
 6128SOL     OW30019   2.419   1.839  17.016 -0.3101 -0.2039  0.0294
 6128SOL    HW130020   2.407   1.896  17.092 -1.2616 -1.3501  0.7518
 6128SOL    HW230021   2.490   1.783  17.046  0.8135 -0.4797 -3.1736
 6129SOL     OW30022   2.028   0.612   5.308 -0.4913  0.4301 -0.6071
 6129SOL    HW130023   2.123   0.613   5.324 -0.9187 -0.9820  1.9814
 6129SOL    HW230024   2.019   0.545   5.240  0.5734 -1.2687  0.9027
 6130SOL     OW30025   0.926   0.552   7.575  0.1265 -0.4391 -0.1789
 6130SOL    HW130026   0.904   0.469   7.618  1.2089  0.9791  3.0893
 6130SOL    HW230027   0.948   0.602   7.654  0.2092  0.9837 -1.1141
 6131SOL     OW30028   0.372   1.098  12.812 -0.4505  0.2761  0.0742
 6131SOL    HW130029   0.334   1.119  12.897 -1.4085 -1.4724  0.0758
 6131SOL    HW230030   0.378   1.002  12.815  2.5747  0.4476 -0.6535
 6132SOL     OW30031   0.129   4.038   2.658  0.0249  0.1477 -0.0022
 6132SOL    HW130032   0.070   4.050   2.733 -1.4261 -1.1200 -0.9214
 6132SOL    HW230033   0.074   3.983   2.602  1.2914 -0.1216 -0.9775
 6133SOL     OW30034   3.370   0.527  13.696  0.4550  0.9237  0.0409
 6133SOL    HW130035   3.353   0.470  13.621 -1.2308 -0.2266  1.2930
 6133SOL    HW230036   3.302   0.592  13.682  0.2142  0.6399 -0.0977
 6134SOL     OW30037   1.869   1.100   3.157 -0.5111  0.0391 -0.1233
 6134SOL    HW130038   1.955   1.060   3.146 -0.2819 -0.1801  2.4984
 6134SOL    HW230039   1.877   1.175   3.098 -2.3796 -1.5579 -2.4157
 6135SOL     OW30040   1.604   3.822   6.223 -0.3768  0.2233  0.9771
 6135SOL    HW130041   1.601   3.784   6.136  2.5660 -0.0962  1.0312
 6135SOL    HW230042   1.557   3.903   6.202 -0.0654  0.7439  2.2745
 6136SOL     OW30043   1.990   4.171   0.672 -0.2483  0.2722 -0.2851
 6136SOL    HW130044   1.948   4.242   0.623  0.1115  1.6068  1.3506
 6136SOL    HW230045   2.039   4.217   0.740  0.0165 -0.7039  0.1860
 6137SOL     OW30046   0.896   0.370   9.581  0.5132 -0.0065 -0.5320
 6137SOL    HW130047   0.975   0.324   9.554 -1.0513 -1.8073 -2.0647
 6137SOL    HW230048   0.905   0.344   9.673 -2.6801 -0.5553 -0.3533
 6138SOL     OW30049   3.393   1.145   7.393 -0.3148 -0.0283  0.0562
 6138SOL    HW130050   3.486   1.171   7.400 -0.5405  0.8594 -0.2300
 6138SOL    HW230051   3.370   1.109   7.479 -0.1925  1.1558  0.5883
 6139SOL     OW30052   3.342   0.572  15.720  0.8701 -0.2014 -0.4316
 6139SOL    HW130053   3.271   0.576  15.784  3.3756  0.4591  2.2981
 6139SOL    HW230054   3.420   0.566  15.775 -1.1400 -0.2778  2.3903
 6140SOL     OW30055   3.957   1.114   7.388 -0.0129 -0.0676  0.4861
 6140SOL    HW130056   3.984   1.200   7.354 -2.1791  1.0857  1.7317
 6140SOL    HW230057   4.016   1.106   7.463 -0.6896 -0.2126  1.0008
 6141SOL     OW30058   2.535   1.084  11.824 -0.4163  0.2044  0.2846
 6141SOL    HW130059   2.599   1.012  11.822 -0.7592 -0.0892 -0.1058
 6141SOL    HW230060   2.488   1.074  11.741 -0.0524  1.4406 -0.0785
 6142SOL     OW30061   0.940   3.245   3.564 -0.2162  0.1867 -0.0175
 6142SOL    HW130062   1.029   3.216   3.542 -1.4392 -3.8267  0.2584
 6142SOL    HW230063   0.915   3.170   3.619  0.4480  1.9132  2.6327
 6143SOL     OW30064   2.027   4.080   6.763  0.5625 -0.0599  0.2694
 6143SOL    HW130065   1.953   4.034   6.724  1.5290 -0.0301 -1.6157
 6143SOL    HW230066   2.092   4.011   6.746  1.8985  0.9339  1.3399
 6144SOL     OW30067   0.883   0.259   3.660  0.6383  0.1819 -0.1098
 6144SOL    HW130068   0.794   0.281   3.634 -0.3941 -2.1802  1.4365
 6144SOL    HW230069   0.886   0.172   3.619  2.5068  1.1159 -1.9693
 6145SOL     OW30070   4.134   2.130   8.120 -0.2968 -0.5948  0.1367
 6145SOL    HW130071   4.174   2.216   8.125 -2.5002  0.4364 -0.1714
 6145SOL    HW230072   4.100   2.118   8.209  0.6198  0.4508  0.6242
 6146SOL     OW30073   1.870   1.786   6.639 -0.0319  0.3436 -0.2331
 6146SOL    HW130074   1.937   1.833   6.590 -0.4310  0.7234 -0.4209
 6146SOL    HW230075   1.920   1.756   6.715 -0.3981 -0.0224 -0.1337
 6147SOL     OW30076   0.542   4.685   8.108  0.6883  0.1725 -0.4707
 6147SOL    HW130077   0.489   4.627   8.052  2.2575 -1.5873 -0.1222
 6147SOL    HW230078   0.589   0.001   8.044 -0.8681  1.3418 -0.6303
 6148SOL     OW30079   4.103   2.646   6.698  0.1072 -0.3396 -0.1795
 6148SOL    HW130080   4.049   2.657   6.620 -1.3598  1.2336  1.0418
 6148SOL    HW230081   4.175   2.594   6.662  0.0170 -0.3506 -0.3455
 6149SOL     OW30082   4.063   4.564   9.660  0.8298 -0.4577  0.7242
 6149SOL    HW130083   4.053   4.533   9.569 -1.5046  0.8477  0.5584
 6149SOL    HW230084   3.972   4.576   9.686  0.3268  1.0911 -1.7095
 6150SOL     OW30085   3.987   3.605   7.376  0.1306  0.7420  0.4863
 6150SOL    HW130086   4.040   3.684   7.363  0.7628  0.3996  0.9855
 6150SOL    HW230087   4.040   3.539   7.331 -3.0560 -1.0395 -0.6855
 6151SOL     OW30088   4.653   2.182   8.649  0.6304 -0.1397 -0.4660
 6151SOL    HW130089   4.716   2.200   8.579  0.5362 -0.6185 -0.6697
 6151SOL    HW230090   4.681   2.096   8.681 -1.5150 -0.6949 -0.0977
 6152SOL     OW30091   4.321   4.184   2.482  0.2308  0.5989 -1.0036
 6152SOL    HW130092   4.368   4.104   2.506  1.2947  1.3210 -0.6758
 6152SOL    HW230093   4.403   4.227   2.459 -0.1790  0.1759 -3.3012
 6153SOL     OW30094   3.330   2.950   4.402  0.3165  0.0782 -0.2816
 6153SOL    HW130095   3.403   2.905   4.360 -0.9792 -2.4464  0.1844
 6153SOL    HW230096   3.256   2.896   4.374 -0.3159 -0.5016  2.5002
 6154SOL     OW30097   2.020   2.584   4.752  0.1685 -0.0528 -0.1656
 6154SOL    HW130098   1.945   2.533   4.784  0.2884  0.7340  1.3701
 6154SOL    HW230099   1.984   2.672   4.763 -0.5400 -0.2429 -1.0085
 6155SOL     OW30100   1.583   3.199  10.579 -0.1360 -0.3282 -0.0668
 6155SOL    HW130101   1.533   3.208  10.660 -1.6977 -0.3625 -1.0258
 6155SOL    HW230102   1.654   3.140  10.607  0.6070  0.3922 -0.4263
 6156SOL     OW30103   3.196   3.346   8.424 -0.1370  0.4582  0.0575
 6156SOL    HW130104   3.253   3.293   8.368 -0.2334 -0.3952  0.7753
 6156SOL    HW230105   3.120   3.370   8.371  1.3193  1.2115 -1.7059
 6157SOL     OW30106   3.842   4.684  14.878 -0.2901  0.1160  0.0111
 6157SOL    HW130107   3.923   4.676  14.927 -0.6695 -0.8385  0.4762
 6157SOL    HW230108   3.850   4.612  14.815  1.8055 -0.8502  1.4158
 6158SOL     OW30109   2.453   1.659   9.498  0.5715  0.0578  0.2035
 6158SOL    HW130110   2.371   1.668   9.548 -0.9100 -0.9156 -2.0193
 6158SOL    HW230111   2.439   1.577   9.450  0.1375  0.0600  0.3206
 6159SOL     OW30112   1.777   4.549  15.756 -1.0019 -0.0418  0.4375
 6159SOL    HW130113   1.866   4.544  15.790 -0.2021  0.4094 -1.6190
 6159SOL    HW230114   1.732   4.520  15.835 -1.8063  3.2379  1.1666
 6160SOL     OW30115   1.254   3.632  12.863 -0.2320 -0.2121 -0.3650
 6160SOL    HW130116   1.320   3.564  12.865  0.7049  0.7416  1.4875
 6160SOL    HW230117   1.190   3.607  12.930 -0.4544 -1.0588 -0.8911
 6161SOL     OW30118   0.519   2.671   5.277 -0.0593  0.4180  0.4909
 6161SOL    HW130119   0.468   2.635   5.350  0.1864  1.2412  1.0644
 6161SOL    HW230120   0.508   2.765   5.286 -0.6330  0.2964  1.0724
 6162SOL     OW30121   1.682   1.196   5.784  0.0483 -0.1806  0.0289
 6162SOL    HW130122   1.742   1.121   5.776  2.5732  1.8754 -0.2765
 6162SOL    HW230123   1.698   1.235   5.870 -1.0348  0.2935  0.0192
 6163SOL     OW30124   2.977   1.707   5.685 -0.2136 -0.3984  0.0115
 6163SOL    HW130125   3.053   1.761   5.662 -0.2006  0.1379  1.3594
 6163SOL    HW230126   2.907   1.741   5.629  1.1937 -0.6581 -1.9237
 6164SOL     OW30127   2.162   1.571   1.970 -0.2523  0.1045  0.1222
 6164SOL    HW130128   2.250   1.543   1.947 -0.4746 -1.7704  1.5110
 6164SOL    HW230129   2.129   1.493   2.015 -0.4764  0.2569  0.2225
 6165SOL     OW30130   1.131   3.555   2.310  0.3872 -0.4963  0.2113
 6165SOL    HW130131   1.083   3.614   2.252 -1.9270 -2.8745 -0.2745
 6165SOL    HW230132   1.167   3.484   2.257 -1.4206 -1.9472  0.9303
 6166SOL     OW30133   2.027   1.633  17.430 -0.1995  0.2005  0.9404
 6166SOL    HW130134   2.113   1.592  17.418 -0.8262 -0.4290 -1.5262
 6166SOL    HW230135   1.978   1.563  17.473  1.1026  0.1758  2.3819
 6167SOL     OW30136   2.026   1.135   7.699  0.3483 -0.0724  0.1000
 6167SOL    HW130137   1.986   1.062   7.652 -1.7694  1.2742 -0.1913
 6167SOL    HW230138   1.990   1.197   7.635  0.7554 -1.2025 -1.2125
 6168SOL     OW30139   2.279   2.694   7.495 -0.6473 -0.6845 -0.3004
 6168SOL    HW130140   2.357   2.748   7.496 -0.1579 -1.4312  1.1313
 6168SOL    HW230141   2.307   2.654   7.412 -0.6330 -0.4146 -0.4235
 6169SOL     OW30142   1.811   1.631  15.505 -0.2852 -0.3850  0.1404
 6169SOL    HW130143   1.866   1.700  15.467  0.5765 -0.0167  2.0537
 6169SOL    HW230144   1.760   1.675  15.573 -1.6428 -0.8281 -0.5917
 6170SOL     OW30145   1.615   1.038   3.033  0.3894  0.4681  0.5006
 6170SOL    HW130146   1.682   1.039   3.101  1.9286  1.8488 -1.0396
 6170SOL    HW230147   1.582   1.127   3.042  1.8942  0.8910  1.6740
 6171SOL     OW30148   4.590   2.291  17.481  0.4780 -0.7922  0.1273
 6171SOL    HW130149   4.540   2.216  17.514 -0.2276 -0.0629  0.7057
 6171SOL    HW230150   4.675   2.261  17.514  0.2011 -1.4472  0.2366
 6172SOL     OW30151   2.249   2.382  10.038  0.3889 -0.2859 -0.3438
 6172SOL    HW130152   2.324   2.348  10.086 -1.1900 -1.3988  1.3148
 6172SOL    HW230153   2.261   2.338   9.954 -0.9711 -0.4842 -0.4281
 6173SOL     OW30154   3.414   0.549   2.086 -0.2917 -0.1896  0.4355
 6173SOL    HW130155   3.422   0.610   2.159 -3.2034  1.8364 -0.9560
 6173SOL    HW230156   3.387   0.609   2.016 -3.0112 -2.4768 -0.4873
 6174SOL     OW30157   4.094   2.832   2.726 -0.2783 -0.3821  0.2476
 6174SOL    HW130158   4.090   2.909   2.668  1.3218 -1.6810 -1.5704
 6174SOL    HW230159   4.138   2.770   2.668 -1.1409  0.2645 -1.1168
 6175SOL     OW30160   1.343   3.988   1.648  0.3565 -0.5147  0.0592
 6175SOL    HW130161   1.391   3.936   1.713 -0.9998 -2.4204 -0.4563
 6175SOL    HW230162   1.416   4.031   1.604 -0.2352 -1.1370 -1.5430
 6176SOL     OW30163   2.330   1.560   3.173 -0.1309  0.5893 -0.0051
 6176SOL    HW130164   2.266   1.625   3.202 -1.5259  0.1365 -2.0694
 6176SOL    HW230165   2.398   1.623   3.146  0.7269  0.3695  1.6209
 6177SOL     OW30166   2.753   3.841   6.128  0.6688 -0.2672  0.0497
 6177SOL    HW130167   2.758   3.889   6.046 -1.9859  0.2448  0.1962
 6177SOL    HW230168   2.784   3.899   6.198  0.9059 -1.0274  0.5884
 6178SOL     OW30169   0.293   0.100  12.282 -0.4112  0.1806  0.0940
 6178SOL    HW130170   0.261   0.034  12.343  1.3530  0.0460  0.8784
 6178SOL    HW230171   0.387   0.081  12.281  0.1628  2.8989  1.8903
 6179SOL     OW30172   3.110   2.102   7.220 -0.3475 -0.2309 -0.1826
 6179SOL    HW130173   3.046   2.138   7.158 -1.7507  0.1166  1.4669
 6179SOL    HW230174   3.086   2.012   7.199  0.9538 -0.0644 -2.4007
 6180SOL     OW30175   3.316   1.403   5.254  0.0934 -0.2279 -0.0891
 6180SOL    HW130176   3.305   1.354   5.173 -1.4279 -0.9094  0.5359
 6180SOL    HW230177   3.399   1.370   5.287  1.4491  1.6169 -1.6021
 6181SOL     OW30178   1.736   1.486   0.598 -0.0330  0.2793 -0.5836
 6181SOL    HW130179   1.659   1.539   0.580 -0.2756 -0.3104 -1.2654
 6181SOL    HW230180   1.699   1.435   0.671  1.7594  0.2370  0.3040
 6182SOL     OW30181   2.997   2.583   6.782  0.0395 -0.5344  0.3381
 6182SOL    HW130182   3.027   2.524   6.713 -0.1435 -0.0575 -0.1463
 6182SOL    HW230183   3.047   2.558   6.860  0.8303  2.4417  0.7644
 6183SOL     OW30184   0.506   1.224   3.349  0.8445 -0.2417  0.5689
 6183SOL    HW130185   0.513   1.129   3.362  0.3118 -0.6730 -2.1457
 6183SOL    HW230186   0.483   1.247   3.439  0.5249  0.0057  0.4253
 6184SOL     OW30187   2.878   2.225   3.059  0.0213  0.7775  0.6686
 6184SOL    HW130188   2.788   2.256   3.058 -0.4820 -0.6235  1.9709
 6184SOL    HW230189   2.918   2.297   3.108  0.0175  0.6883  0.8039
 6185SOL     OW30190   1.169   2.294   8.170 -0.0007 -0.1686 -0.1708
 6185SOL    HW130191   1.257   2.284   8.135  0.3341  0.7074  0.4470
 6185SOL    HW230192   1.121   2.318   8.091  0.1831  1.0799  0.1042
 6186SOL     OW30193   1.964   0.318   6.230  0.1832  0.1474  0.1005
 6186SOL    HW130194   1.892   0.326   6.293  1.3587  0.2412  1.4238
 6186SOL    HW230195   2.039   0.322   6.289  1.7329  2.5279 -2.0635
 6187SOL     OW30196   1.474   3.265  13.318  0.4534  0.1697  0.3360
 6187SOL    HW130197   1.516   3.179  13.318 -0.6005 -0.3374 -0.4717
 6187SOL    HW230198   1.481   3.270  13.223 -1.2800 -0.8647  0.1511
 6188SOL     OW30199   0.652   0.394   4.060 -0.2269 -0.4326 -0.4588
 6188SOL    HW130200   0.709   0.332   4.015  2.2117  1.1148  0.4228
 6188SOL    HW230201   0.665   0.376   4.153 -0.6463 -0.7286 -0.4587
 6189SOL     OW30202   1.883   2.501   1.264 -0.6724  0.6123 -1.0636
 6189SOL    HW130203   1.846   2.422   1.303  2.5081 -0.6251 -0.5671
 6189SOL    HW230204   1.890   2.552   1.345  0.9537  1.1899 -1.5575
 6190SOL     OW30205   3.778   2.969  14.518  0.2582  0.3721  0.7469
 6190SOL    HW130206   3.792   2.874  14.509 -3.0800 -0.1590  1.3805
 6190SOL    HW230207   3.683   2.973  14.522  0.2243  0.7086 -0.4924
 6191SOL     OW30208   0.239   1.999   6.722 -0.0584 -0.0946  0.1500
 6191SOL    HW130209   0.278   1.918   6.755 -0.6998 -0.6076 -0.3531
 6191SOL    HW230210   0.164   1.963   6.676 -2.1294  1.6473  2.1596
 6192SOL     OW30211   0.458   2.051  16.266 -0.4373 -0.3950 -0.4887
 6192SOL    HW130212   0.465   1.972  16.319 -0.7257  0.1643  0.3958
 6192SOL    HW230213   0.444   2.022  16.177 -1.0777  2.1813 -1.2306
 6193SOL     OW30214   2.454   0.451   3.889  0.4902 -0.1109  0.0173
 6193SOL    HW130215   2.452   0.508   3.966  0.0875  1.3910 -1.0921
 6193SOL    HW230216   2.391   0.382   3.909  0.1760  0.2908  0.4028
 6194SOL     OW30217   1.562   2.165   3.825 -0.4274  0.5050  0.5431
 6194SOL    HW130218   1.654   2.139   3.815 -1.0336 -1.5866  0.3654
 6194SOL    HW230219   1.535   2.110   3.899  0.3478 -1.1241 -0.3973
 6195SOL     OW30220   0.517   3.059   3.919 -0.3372 -0.2683  0.3816
 6195SOL    HW130221   0.442   3.036   3.974  0.2389  1.3365  1.8381
 6195SOL    HW230222   0.469   3.113   3.856 -0.1959 -1.0406 -0.3859
 6196SOL     OW30223   3.666   3.200   7.575 -0.6909  0.3773 -0.0572
 6196SOL    HW130224   3.722   3.122   7.569  0.0108  0.9449 -0.7918
 6196SOL    HW230225   3.673   3.240   7.489 -0.1477  0.4689  0.0293
 6197SOL     OW30226   1.263   2.565   0.302 -0.5966  0.0034 -0.3093
 6197SOL    HW130227   1.193   2.616   0.342 -1.5585 -2.0425  0.6216
 6197SOL    HW230228   1.273   2.480   0.344 -0.6782  1.6780  3.1707
 6198SOL     OW30229   0.629   2.337  11.894  0.5480  0.1272  0.2213
 6198SOL    HW130230   0.669   2.339  11.807  1.9362  1.1380  0.8722
 6198SOL    HW230231   0.704   2.314  11.949  2.7473  5.6570 -0.4674
 6199SOL     OW30232   0.868   2.364   0.277  0.6855 -0.0663  0.3934
 6199SOL    HW130233   0.793   2.391   0.225  1.4271  1.3243  0.0274
 6199SOL    HW230234   0.924   2.322   0.212 -0.1571 -1.8959  0.8422
 6200SOL     OW30235   0.221   0.899   3.290  0.2866  0.4013 -0.6699
 6200SOL    HW130236   0.222   0.941   3.204 -3.0648  1.7581 -0.0564
 6200SOL    HW230237   0.313   0.892   3.315 -0.3388 -1.3730  1.1239
 6201SOL     OW30238   3.169   0.757   6.565 -0.0134 -0.1445 -0.4656
 6201SOL    HW130239   3.124   0.832   6.605  0.6115  0.0786 -0.1833
 6201SOL    HW230240   3.249   0.804   6.540  0.1452  0.2492  0.7891
 6202SOL     OW30241   4.586   2.093   5.381  0.2392  0.4409 -0.1372
 6202SOL    HW130242   4.566   2.186   5.381 -1.4801  0.0768 -1.1127
 6202SOL    HW230243   4.661   2.084   5.440 -1.7050 -2.4063  1.9263
 6203SOL     OW30244   2.150   3.062  12.206 -0.3392  0.7428 -0.2483
 6203SOL    HW130245   2.089   3.047  12.134 -2.8444  0.7559  1.8216
 6203SOL    HW230246   2.210   2.992  12.182 -1.8300 -0.9767  0.9662
 6204SOL     OW30247   2.441   1.667   3.708  0.6715 -0.8325  0.1044
 6204SOL    HW130248   2.446   1.740   3.771 -0.8465 -0.5204 -0.1384
 6204SOL    HW230249   2.468   1.592   3.761 -3.0238 -0.8240  1.9860
 6205SOL     OW30250   2.594   2.149   7.329 -0.0945  0.2217 -0.0410
 6205SOL    HW130251   2.552   2.070   7.364 -0.4101 -0.0771 -1.1081
 6205SOL    HW230252   2.530   2.213   7.362 -1.8432 -2.5759  2.0504
 6206SOL     OW30253   1.571   4.166   8.142 -0.0463 -0.0222  0.4228
 6206SOL    HW130254   1.582   4.120   8.058 -0.9936 -0.9810  0.8339
 6206SOL    HW230255   1.663   4.165   8.168  0.2597  2.2827 -0.4997
 6207SOL     OW30256   2.497   1.163   5.318 -0.3267 -0.1377 -0.1733
 6207SOL    HW130257   2.560   1.236   5.320 -0.4722 -0.0373  0.6755
 6207SOL    HW230258   2.543   1.090   5.275  1.5350  0.9664 -0.0618
 6208SOL     OW30259   0.286   0.847  15.220  0.3187 -0.2839 -0.2063
 6208SOL    HW130260   0.279   0.762  15.177  1.1155 -0.3088 -0.2948
 6208SOL    HW230261   0.309   0.815  15.307  1.3427  0.8821 -0.0516
 6209SOL     OW30262   0.305   2.084   1.129  0.5678  0.2341 -0.2943
 6209SOL    HW130263   0.390   2.064   1.167  0.9569 -1.0138 -1.8292
 6209SOL    HW230264   0.327   2.047   1.044  0.1988  0.1511 -0.3551
 6210SOL     OW30265   2.124   1.203   6.550 -0.8984  0.1202  0.4720
 6210SOL    HW130266   2.216   1.229   6.559 -0.8793  0.4634 -0.6560
 6210SOL    HW230267   2.131   1.117   6.507  0.9668  0.8811 -0.7514
 6211SOL     OW30268   0.480   0.144   5.783  0.0265 -0.2482 -0.5227
 6211SOL    HW130269   0.543   0.207   5.817 -1.3731  0.9605 -0.1819
 6211SOL    HW230270   0.527   0.115   5.704 -0.2899 -1.3902 -0.2926
 6212SOL     OW30271   2.214   0.617   6.370 -0.1104 -0.0264  0.2295
 6212SOL    HW130272   2.212   0.521   6.372 -3.2693  0.0409 -0.2002
 6212SOL    HW230273   2.303   0.635   6.402 -0.4453  1.4490  0.3574
 6213SOL     OW30274   2.403   0.525   1.689  0.4042 -0.2247 -0.0151
 6213SOL    HW130275   2.479   0.468   1.684  0.4573 -0.1167 -0.4534
 6213SOL    HW230276   2.343   0.471   1.740  0.9394  0.4464  1.3296
 6214SOL     OW30277   1.066   1.187   2.603  0.0800  0.0806 -0.3358
 6214SOL    HW130278   1.049   1.260   2.664  1.1171  1.6604 -1.9244
 6214SOL    HW230279   1.119   1.135   2.664 -0.3522  2.0216  1.6962
 6215SOL     OW30280   2.236   1.645  10.233 -0.1139  0.9261  0.6038
 6215SOL    HW130281   2.154   1.680  10.267 -0.2275 -0.8079  2.0690
 6215SOL    HW230282   2.235   1.683  10.145 -2.1796  0.6904  0.5232
 6216SOL     OW30283   4.491   0.087   7.296 -0.1581 -0.3013 -0.1417
 6216SOL    HW130284   4.407   0.062   7.259 -1.2435  1.4907  1.1117
 6216SOL    HW230285   4.494   0.182   7.308 -2.4617 -0.1686 -0.7551
 6217SOL     OW30286   4.561   0.056   0.878  0.7484  0.1731  0.3016
 6217SOL    HW130287   4.497   0.049   0.806 -0.2115 -0.5846  1.2315
 6217SOL    HW230288   4.641   0.067   0.826  0.0577 -0.1661 -0.8441
 6218SOL     OW30289   4.064   1.021   6.485 -0.2469  0.2427  0.2906
 6218SOL    HW130290   4.042   1.011   6.577  0.2094  1.5998  0.5389
 6218SOL    HW230291   4.150   0.980   6.474 -1.4007 -1.7102 -1.5070
 6219SOL     OW30292   0.923   4.464   2.935 -0.0242  0.3736 -0.0200
 6219SOL    HW130293   0.938   4.503   2.848  1.1018 -2.4944 -1.1214
 6219SOL    HW230294   0.961   4.377   2.924 -1.2037 -0.3041  1.3573
 6220SOL     OW30295   2.440   4.358   5.110 -0.0152  0.4032  0.1389
 6220SOL    HW130296   2.464   4.443   5.073 -1.2057  0.5545 -0.2950
 6220SOL    HW230297   2.521   4.343   5.159  0.3759  0.6242 -0.4408
 6221SOL     OW30298   1.848   4.442   4.877 -0.3954  0.3474 -0.4100
 6221SOL    HW130299   1.911   4.394   4.931  0.0677 -0.0038 -1.2535
 6221SOL    HW230300   1.870   4.531   4.904 -0.7696  0.1300  0.6155
 6222SOL     OW30301   4.512   4.678   5.470 -0.1679  0.7259 -0.5842
 6222SOL    HW130302   4.492   0.029   5.441 -0.4731  0.6139 -0.7194
 6222SOL    HW230303   4.533   4.716   5.555  0.4728 -0.0670 -0.3796
 6223SOL     OW30304   4.342   1.909   7.642  0.2411  0.0228  0.0602
 6223SOL    HW130305   4.256   1.923   7.605  0.2404  0.7427  0.3436
 6223SOL    HW230306   4.362   2.002   7.650  0.2442  0.0179  0.1161
 6224SOL     OW30307   1.863   1.520   6.433 -0.5472 -0.0316  0.0489
 6224SOL    HW130308   1.848   1.506   6.527  1.0345  1.2720  0.4987
 6224SOL    HW230309   1.878   1.430   6.404  2.5728  0.7791 -0.7948
 6225SOL     OW30310   2.452   0.424  11.726 -0.4179 -0.0354  0.2231
 6225SOL    HW130311   2.357   0.437  11.728 -0.3581  0.3940  0.3179
 6225SOL    HW230312   2.448   0.333  11.756 -0.1827 -0.7919 -2.0305
 6226SOL     OW30313   1.498   3.516   7.326  0.0301  0.2587  0.0889
 6226SOL    HW130314   1.589   3.502   7.352 -0.2726 -0.7697  0.6309
 6226SOL    HW230315   1.509   3.594   7.273 -0.6927  0.8632  0.8248
 6227SOL     OW30316   1.072   1.879   0.139 -0.1744 -0.0624  0.2503
 6227SOL    HW130317   1.029   1.795   0.153  0.4927 -0.5100 -0.4024
 6227SOL    HW230318   0.997   1.935   0.160  0.0849  0.7136 -0.9295
 6228SOL     OW30319   4.306   3.729   8.489 -0.2156 -0.0473  0.2204
 6228SOL    HW130320   4.286   3.789   8.417  1.0160  1.4435  1.1085
 6228SOL    HW230321   4.382   3.771   8.530  0.9516 -1.6330 -0.3313
 6229SOL     OW30322   0.783   2.986   6.504 -0.2854 -0.8051  0.2573
 6229SOL    HW130323   0.833   3.027   6.433 -0.7863  0.1985  0.4738
 6229SOL    HW230324   0.724   3.057   6.532  0.8451  1.0489 -2.0761
 6230SOL     OW30325   2.970   1.623   7.229  0.0891  0.2057  0.3029
 6230SOL    HW130326   2.935   1.664   7.150  0.1531 -0.6364 -0.1570
 6230SOL    HW230327   3.023   1.553   7.192 -0.2848 -0.0898  0.3279
 6231SOL     OW30328   3.681   3.172  12.036 -0.3248 -0.5656  0.0043
 6231SOL    HW130329   3.629   3.142  11.962 -1.4654  0.3761  0.4216
 6231SOL    HW230330   3.627   3.142  12.109 -1.2281  0.2361 -0.3294
 6232SOL     OW30331   4.468   2.481   1.160  0.2227 -0.0346 -0.2635
 6232SOL    HW130332   4.393   2.462   1.216  0.4590 -0.4915 -0.1046
 6232SOL    HW230333   4.436   2.446   1.077 -2.8913  1.3030  0.3621
 6233SOL     OW30334   3.911   3.206  11.523 -0.1262 -0.1210 -0.2199
 6233SOL    HW130335   3.879   3.268  11.589 -0.5296 -0.2532 -0.2928
 6233SOL    HW230336   3.888   3.247  11.440  0.4025  2.0528  0.6988
 6234SOL     OW30337   4.657   1.878   9.361 -0.2538  0.2131  0.6441
 6234SOL    HW130338   4.674   1.813   9.292 -3.8890  0.0462 -0.0961
 6234SOL    HW230339   0.000   1.929   9.353  0.0236 -0.4651 -0.9935
 6235SOL     OW30340   2.457   2.781   6.442 -0.4541  0.4225 -0.5070
 6235SOL    HW130341   2.431   2.689   6.445  0.3722  0.1682 -1.2896
 6235SOL    HW230342   2.424   2.815   6.526 -1.0006 -2.0800  0.2902
 6236SOL     OW30343   0.095   2.780   8.169  0.1211  0.6018 -0.4756
 6236SOL    HW130344   0.153   2.845   8.209 -0.1913 -0.4731  1.7485
 6236SOL    HW230345   0.158   2.717   8.136  0.4187  0.4113  0.4680
 6237SOL     OW30346   1.287   2.431   9.262  0.3263  0.1597 -0.0611
 6237SOL    HW130347   1.249   2.403   9.179 -3.7965  2.0258  1.2002
 6237SOL    HW230348   1.300   2.354   9.317 -0.5834  1.1008  1.4716
 6238SOL     OW30349   0.352   0.130   7.462  0.2532 -0.1154  0.4414
 6238SOL    HW130350   0.435   0.141   7.416  0.8703  1.4558  1.9475
 6238SOL    HW230351   0.320   0.059   7.407 -0.4487  0.4395  0.1376
 6239SOL     OW30352   1.894   1.339   6.966 -0.1529  0.0717  0.1540
 6239SOL    HW130353   1.933   1.425   6.981  0.1612  0.0802 -0.6893
 6239SOL    HW230354   1.818   1.363   6.913 -0.0170 -0.6207 -0.3636
 6240SOL     OW30355   3.548   1.692   0.105 -0.3152  0.4467  0.2689
 6240SOL    HW130356   3.509   1.639   0.035 -1.0505  0.0065  1.0007
 6240SOL    HW230357   3.621   1.737   0.063  0.3997 -0.3073  0.6963
 6241SOL     OW30358   4.639   1.328   0.092 -0.0417  0.0463 -0.2658
 6241SOL    HW130359   4.683   1.253   0.131 -0.0242  0.1363 -0.1110
 6241SOL    HW230360   4.621   1.290   0.006  0.8054  1.6652 -1.1579
 6242SOL     OW30361   3.713   2.794   8.259  0.2970 -0.2631 -0.4779
 6242SOL    HW130362   3.621   2.810   8.283 -0.0879  1.0076 -2.7577
 6242SOL    HW230363   3.735   2.731   8.327  0.0831  1.5986  1.3039
 6243SOL     OW30364   1.345   3.780   1.315 -0.5495 -0.6223  0.6385
 6243SOL    HW130365   1.353   3.841   1.242  1.0738 -0.5208  0.9107
 6243SOL    HW230366   1.422   3.791   1.371 -1.8286 -0.2542  2.3046
 6244SOL     OW30367   4.428   2.980  12.509 -0.1653  0.1579 -0.1893
 6244SOL    HW130368   4.388   2.969  12.422 -1.1838  0.1827  0.2774
 6244SOL    HW230369   4.491   2.908  12.508  0.0680  0.3672 -0.6319
 6245SOL     OW30370   2.905   2.981   5.269  0.7768  0.0379  0.0145
 6245SOL    HW130371   2.976   2.931   5.229  2.4060  0.5769  2.2063
 6245SOL    HW230372   2.834   2.917   5.276  1.6322 -1.1614 -2.5133
 6246SOL     OW30373   3.478   4.160   2.543 -0.3046 -0.1985  0.0072
 6246SOL    HW130374   3.473   4.187   2.635  0.1397  0.2448 -0.0980
 6246SOL    HW230375   3.566   4.195   2.527  0.1331 -1.3606 -0.1350
 6247SOL     OW30376   3.730   4.092   6.064  0.0161  0.2267 -0.3617
 6247SOL    HW130377   3.767   4.173   6.098 -1.1418  0.5543  0.1355
 6247SOL    HW230378   3.807   4.040   6.044 -1.1685 -2.1230  1.2014
 6248SOL     OW30379   0.294   3.662   1.068  0.4677 -0.7369 -0.3296
 6248SOL    HW130380   0.315   3.725   0.998  0.9938  1.4143  1.7526
 6248SOL    HW230381   0.288   3.728   1.137 -0.4319 -0.0570 -1.0612
 6249SOL     OW30382   0.919   3.698  14.856 -0.8522 -0.1760  0.2790
 6249SOL    HW130383   0.899   3.722  14.765 -0.7755  2.1593  0.8751
 6249SOL    HW230384   0.968   3.616  14.845 -0.7136 -0.1114  0.4264
 6250SOL     OW30385   2.507   1.784   9.780  0.0778 -0.4537 -0.9012
 6250SOL    HW130386   2.570   1.833   9.729  1.7117 -1.2163  0.3929
 6250SOL    HW230387   2.534   1.786   9.872 -1.1310 -0.5935 -0.5366
 6251SOL     OW30388   3.411   2.435  16.071 -0.0578 -0.1317  0.1639
 6251SOL    HW130389   3.484   2.449  16.012  1.1819  1.1497  1.9949
 6251SOL    HW230390   3.375   2.522  16.084 -2.9990 -1.2118 -0.6212
 6252SOL     OW30391   0.033   1.324   5.918 -0.2732  0.3104  0.3494
 6252SOL    HW130392   0.063   1.233   5.913  0.0880  0.4015  0.9416
 6252SOL    HW230393   0.067   1.356   5.834  2.2591 -0.7186  0.9958
 6253SOL     OW30394   4.271   3.633   2.685 -0.3302  0.0566  0.5024
 6253SOL    HW130395   4.233   3.616   2.771  1.5211 -0.5367  1.1989
 6253SOL    HW230396   4.274   3.548   2.642  0.2088 -0.6749  1.9800
 6254SOL     OW30397   3.759   4.011   3.870  0.3357  0.0706  0.0547
 6254SOL    HW130398   3.834   3.966   3.832 -0.2363 -0.8003 -0.0499
 6254SOL    HW230399   3.695   3.965   3.815  1.4036 -1.9526  0.5208
 6255SOL     OW30400   0.505   0.409   7.742  0.2435  0.3264  0.0886
 6255SOL    HW130401   0.485   0.437   7.652 -1.8800  1.2699  0.8511
 6255SOL    HW230402   0.429   0.354   7.761  0.4701 -0.9339 -2.5883
 6256SOL     OW30403   4.632   0.220  11.569 -0.0615 -0.0273  0.2974
 6256SOL    HW130404   4.627   0.151  11.635  0.9949  0.1864  0.5859
 6256SOL    HW230405   4.637   0.161  11.495  1.1409  0.1383  0.2568
 6257SOL     OW30406   1.879   3.534  13.146  0.2207 -0.0388 -0.6931
 6257SOL    HW130407   1.869   3.627  13.124 -1.0493 -0.3042 -1.2072
 6257SOL    HW230408   1.813   3.530  13.216  0.4477 -0.1183 -0.4816
 6258SOL     OW30409   1.940   3.323   5.228  0.8477 -0.0090  0.3261
 6258SOL    HW130410   1.883   3.356   5.158  0.6324 -0.3783  0.3261
 6258SOL    HW230411   1.962   3.408   5.266  1.3679  0.5629 -1.2395
 6259SOL     OW30412   2.073   2.749   3.844  0.3561  0.3270  0.2848
 6259SOL    HW130413   2.126   2.740   3.923  0.5207  2.3052  0.3954
 6259SOL    HW230414   2.106   2.834   3.814 -1.1316  0.5373 -0.7862
 6260SOL     OW30415   2.198   0.142   9.562  0.0739  0.2611  0.0428
 6260SOL    HW130416   2.134   0.077   9.589  1.1336 -0.7645  0.1152
 6260SOL    HW230417   2.204   0.206   9.633 -0.5252  0.6816 -0.2885
 6261SOL     OW30418   2.650   0.392   1.644 -0.1402  0.0184 -0.7714
 6261SOL    HW130419   2.644   0.309   1.691  2.0196 -0.1598 -0.8474
 6261SOL    HW230420   2.743   0.411   1.656 -0.0535 -1.6069  1.1267
 6262SOL     OW30421   0.849   4.690  16.784  0.2056 -0.2996 -0.1388
 6262SOL    HW130422   0.831   4.652  16.698  0.2396  0.5009 -0.5048
 6262SOL    HW230423   0.944   4.681  16.785  0.2773  0.3616 -1.7916
 6263SOL     OW30424   1.004   4.415   1.664  0.0236 -0.2146 -0.0504
 6263SOL    HW130425   1.039   4.372   1.586 -0.5681 -1.9758  0.6580
 6263SOL    HW230426   0.987   4.505   1.636  0.9904 -0.8768 -2.7181
 6264SOL     OW30427   1.205   2.520   4.949  0.1395  0.4801 -0.1940
 6264SOL    HW130428   1.145   2.503   4.876  1.7563  0.9036 -1.6022
 6264SOL    HW230429   1.207   2.435   4.993  0.2460  0.2850 -0.5743
 6265SOL     OW30430   2.528   2.317   1.530  0.2256 -0.0088 -0.2411
 6265SOL    HW130431   2.447   2.346   1.571 -0.6324  0.9236 -2.6358
 6265SOL    HW230432   2.541   2.225   1.552  0.4942 -0.1629 -1.0550
 6266SOL     OW30433   0.292   2.967   9.472 -0.3070  0.3153  0.3529
 6266SOL    HW130434   0.282   2.945   9.564 -0.5155  1.7523  0.6615
 6266SOL    HW230435   0.309   2.878   9.439 -0.6257  0.3082  0.2071
 6267SOL     OW30436   2.467   2.254   8.428 -0.4974 -0.4796  0.5209
 6267SOL    HW130437   2.422   2.231   8.346 -0.3616  0.7215  0.1095
 6267SOL    HW230438   2.409   2.324   8.458 -3.8546 -2.8927 -0.2298
 6268SOL     OW30439   4.591   1.192   3.007  0.0959  0.4041 -0.3454
 6268SOL    HW130440   4.617   1.101   2.991 -2.1107 -0.3849  0.5880
 6268SOL    HW230441   4.638   1.236   2.936 -0.4145  1.4126 -0.0468
 6269SOL     OW30442   3.509   2.982  13.373 -0.3097 -0.0216 -0.3450
 6269SOL    HW130443   3.433   2.924  13.376 -0.2294 -0.1931 -1.7127
 6269SOL    HW230444   3.476   3.060  13.329  0.6969  0.8840  0.4596
 6270SOL     OW30445   0.470   0.274  16.794 -0.7442 -0.5082  0.5920
 6270SOL    HW130446   0.525   0.338  16.840  1.0608 -1.9038  0.3673
 6270SOL    HW230447   0.388   0.321  16.806 -0.1064  0.0082  2.8985
 6271SOL     OW30448   4.677   0.138   3.789 -0.0073  0.1281  0.0330
 6271SOL    HW130449   4.593   0.180   3.807 -1.5604 -3.1843  0.5272
 6271SOL    HW230450   4.734   0.195   3.841  2.6148 -3.1365  0.7638
 6272SOL     OW30451   0.973   0.618   8.095  0.0074 -0.2007  0.0446
 6272SOL    HW130452   0.934   0.696   8.135 -0.2442 -1.3453  2.0172
 6272SOL    HW230453   0.906   0.549   8.098  0.9813 -1.1568 -0.5200
 6273SOL     OW30454   0.319   0.003   5.301  0.4896  0.2393 -0.3454
 6273SOL    HW130455   0.302   4.679   5.372  0.2058  0.0365 -0.5907
 6273SOL    HW230456   0.386   4.692   5.253  2.9101  1.0093  2.2265
 6274SOL     OW30457   3.957   4.683   3.105  0.4275 -0.2738  0.0780
 6274SOL    HW130458   4.013   4.728   3.169  1.3705  0.6491 -1.3857
 6274SOL    HW230459   3.981   0.006   3.035  2.7820 -1.5972 -0.2617
 6275SOL     OW30460   2.585   2.762   1.313  0.4009  0.1466 -0.0942
 6275SOL    HW130461   2.568   2.773   1.219 -0.4141  2.3419  0.3139
 6275SOL    HW230462   2.633   2.679   1.319 -0.2347  0.0371  3.1587
 6276SOL     OW30463   2.491   4.656  12.676 -0.2249  0.5014 -0.0239
 6276SOL    HW130464   2.532   4.636  12.760 -0.2448  0.2659 -0.0716
 6276SOL    HW230465   2.447   0.000  12.700 -1.3806 -0.4334  1.0458
 6277SOL     OW30466   1.395   2.481  14.518  0.4403  0.2931 -0.0733
 6277SOL    HW130467   1.340   2.514  14.446  1.2656  1.6179 -0.1087
 6277SOL    HW230468   1.323   2.456  14.576 -0.2952  0.4603 -0.9038
 6278SOL     OW30469   1.316   3.286  11.040  0.3568 -0.3987  0.2725
 6278SOL    HW130470   1.316   3.381  11.054 -1.3921 -0.4604  0.7324
 6278SOL    HW230471   1.239   3.265  10.987  1.7466 -1.4180 -1.3629
 6279SOL     OW30472   2.113   1.064  14.470 -0.1648 -0.5461  0.3698
 6279SOL    HW130473   2.122   1.122  14.395  0.1187  1.3131  1.8292
 6279SOL    HW230474   2.058   1.112  14.532  0.0451 -2.0989  1.7540
 6280SOL     OW30475   1.351   1.470   7.948 -0.3926  0.4840 -0.0846
 6280SOL    HW130476   1.432   1.424   7.926 -0.7138 -0.7055  1.2110
 6280SOL    HW230477   1.347   1.529   7.873  1.7211 -0.8831 -1.2758
 6281SOL     OW30478   2.700   1.409   7.780 -0.0158  0.1872  0.1448
 6281SOL    HW130479   2.709   1.388   7.687  1.5636 -1.5808  0.7159
 6281SOL    HW230480   2.785   1.446   7.801 -1.4817  3.6128  0.1513
 6282SOL     OW30481   3.945   2.737   4.581  0.2457  0.6885  0.3193
 6282SOL    HW130482   3.931   2.802   4.512  0.3257 -0.0478 -0.3800
 6282SOL    HW230483   3.929   2.653   4.538  3.2752 -0.2089  0.9564
 6283SOL     OW30484   1.999   3.571   5.348  0.7466 -0.7403  0.4034
 6283SOL    HW130485   2.071   3.622   5.310 -1.3376  1.8242 -0.1652
 6283SOL    HW230486   1.992   3.614   5.433  0.8472 -0.6070  0.3444
 6284SOL     OW30487   2.850   0.389   2.856 -0.1220  0.5060  0.6580
 6284SOL    HW130488   2.791   0.389   2.780  2.1433  0.5462 -1.0971
 6284SOL    HW230489   2.894   0.304   2.850 -1.1483 -0.1555  2.5945
 6285SOL     OW30490   2.266   1.192   1.962 -0.1421 -0.1888  0.4085
 6285SOL    HW130491   2.306   1.259   1.906 -2.3153 -0.0385 -0.9594
 6285SOL    HW230492   2.267   1.252   2.037 -1.9293  0.4830 -0.0884
 6286SOL     OW30493   4.572   4.198  17.207  0.0409 -0.1512  0.3645
 6286SOL    HW130494   4.599   4.150  17.128 -0.2055  1.2430 -0.5655
 6286SOL    HW230495   4.561   4.127  17.271 -2.2890  0.2383  0.4018
 6287SOL     OW30496   3.682   0.299   6.208 -0.4749  0.3279  0.0542
 6287SOL    HW130497   3.663   0.207   6.188 -0.2921  0.2756  0.1142
 6287SOL    HW230498   3.746   0.285   6.278 -0.6281  1.4609  0.4259
 6288SOL     OW30499   1.949   3.846  13.390 -0.4148 -0.2041  0.3386
 6288SOL    HW130500   1.959   3.831  13.296 -0.2839  0.2330  0.2846
 6288SOL    HW230501   1.874   3.905  13.384  0.9661  1.3200 -1.8784
 6289SOL     OW30502   0.067   4.233   2.145  0.0478 -0.4335  0.8571
 6289SOL    HW130503   0.136   4.282   2.191 -0.5332 -0.5682  1.8804
 6289SOL    HW230504   0.050   4.178   2.221 -0.1776 -2.1317 -0.4337
 6290SOL     OW30505   2.005   1.637   7.250 -0.0718 -0.4234  0.1136
 6290SOL    HW130506   1.947   1.627   7.174 -1.8443  0.3137  1.3843
 6290SOL    HW230507   2.051   1.720   7.238  1.5126 -1.2027  0.8965
 6291SOL     OW30508   1.832   2.913   1.928 -0.2817 -0.5257  0.5091
 6291SOL    HW130509   1.766   2.855   1.891 -2.1415 -0.3553  3.4717
 6291SOL    HW230510   1.816   2.991   1.875  2.6237  0.9866  1.8277
 6292SOL     OW30511   4.452   3.623   3.098 -0.1852  0.1287 -0.5772
 6292SOL    HW130512   4.522   3.572   3.058  1.5985  1.3576  0.9799
 6292SOL    HW230513   4.463   3.702   3.046  0.6818  1.0543  1.0033
 6293SOL     OW30514   1.888   1.000   2.368 -0.5733 -0.1945 -0.6786
 6293SOL    HW130515   1.958   0.936   2.357  0.2296  0.2241  2.0062
 6293SOL    HW230516   1.828   0.968   2.435  0.6754 -0.0751  0.4804
 6294SOL     OW30517   4.102   1.181   5.593  0.3630 -0.0430  0.2051
 6294SOL    HW130518   4.147   1.161   5.510  0.1864  1.6189 -0.3022
 6294SOL    HW230519   4.166   1.154   5.658 -1.5045 -1.2359  1.5385
 6295SOL     OW30520   3.374   2.180  14.864  0.5507  0.5181  0.1976
 6295SOL    HW130521   3.349   2.246  14.929  1.8417  0.4866  0.7385
 6295SOL    HW230522   3.368   2.239  14.790 -0.0838 -2.5881 -2.2148
 6296SOL     OW30523   3.745   2.689  15.414  0.0533 -0.0430 -0.2708
 6296SOL    HW130524   3.826   2.733  15.441 -0.4533  1.4078 -1.1778
 6296SOL    HW230525   3.686   2.763  15.423  0.8093  0.4553  0.6240
 6297SOL     OW30526   0.134   3.525   9.344  0.6797 -0.2046 -0.1141
 6297SOL    HW130527   0.074   3.479   9.403  2.1046 -0.3647  1.2300
 6297SOL    HW230528   0.102   3.483   9.264 -0.1952  0.5957 -0.1822
 6298SOL     OW30529   2.924   2.511   5.402 -0.1858  0.5696 -0.0283
 6298SOL    HW130530   2.947   2.423   5.373  1.5486  0.5342  1.4701
 6298SOL    HW230531   2.878   2.549   5.327 -2.0889  0.4082  1.0443
 6299SOL     OW30532   2.008   0.738   2.118  0.3608  0.0284 -0.2661
 6299SOL    HW130533   1.980   0.674   2.052  1.7975  0.1147 -0.9507
 6299SOL    HW230534   2.015   0.676   2.191  0.8503  0.8393  0.3812
 6300SOL     OW30535   0.816   1.730   0.502 -0.0223  0.2186 -0.3208
 6300SOL    HW130536   0.741   1.694   0.550  0.7222 -2.0481 -0.8538
 6300SOL    HW230537   0.799   1.822   0.519 -0.0820 -0.1058  1.3582
 6301SOL     OW30538   4.257   3.468   2.403  0.4497  0.7868 -0.1133
 6301SOL    HW130539   4.263   3.415   2.323  2.5713  2.3358 -0.9764
 6301SOL    HW230540   4.339   3.440   2.444 -0.8557  0.5686  2.3389
 6302SOL     OW30541   2.321   2.963   4.496  0.0494  0.5802 -0.5284
 6302SOL    HW130542   2.263   3.009   4.435 -0.5047  1.4144  0.6192
 6302SOL    HW230543   2.252   2.904   4.524  0.3971 -0.2299 -1.3822
 6303SOL     OW30544   4.400   1.369   1.417  0.6097  0.3584 -0.1711
 6303SOL    HW130545   4.423   1.383   1.508  0.0755 -1.2283  0.2027
 6303SOL    HW230546   4.363   1.456   1.403  0.3897  0.3704  0.4719
 6304SOL     OW30547   1.031   3.047   5.747  0.5493 -0.2043 -0.8308
 6304SOL    HW130548   1.097   2.979   5.758  1.3904  0.6445 -0.6053
 6304SOL    HW230549   1.044   3.063   5.653  0.5797 -2.2796 -1.1644
 6305SOL     OW30550   3.127   0.141   2.646  0.3477  0.2012 -0.5495
 6305SOL    HW130551   3.197   0.086   2.611  0.5307 -0.6592  1.1685
 6305SOL    HW230552   3.131   0.217   2.589  0.7260  0.6516  0.0752
 6306SOL     OW30553   0.605   3.410   0.948  0.2010 -0.8196 -0.4585
 6306SOL    HW130554   0.687   3.386   0.992 -0.5519 -1.1616  0.7620
 6306SOL    HW230555   0.539   3.403   1.017 -0.4782 -0.1033 -1.0382
 6307SOL     OW30556   0.259   4.548  14.948 -0.1166 -0.2484  0.3241
 6307SOL    HW130557   0.166   4.570  14.957  0.2514  1.6579 -0.6470
 6307SOL    HW230558   0.263   4.453  14.939 -1.1130 -0.2234 -0.2863
 6308SOL     OW30559   2.541   4.148   6.585  0.1311  0.5606 -0.2916
 6308SOL    HW130560   2.454   4.159   6.622 -0.9827 -1.5235 -2.2668
 6308SOL    HW230561   2.592   4.197   6.649 -0.3865  1.3764 -0.5000
 6309SOL     OW30562   3.709   1.042   6.998 -0.1245 -0.1420  0.1534
 6309SOL    HW130563   3.719   1.132   7.029 -1.2889 -0.1028  0.3928
 6309SOL    HW230564   3.651   1.002   7.062 -0.2389 -0.0745  0.0921
 6310SOL     OW30565   2.788   3.367  10.164  0.0504  0.0099 -0.3617
 6310SOL    HW130566   2.780   3.275  10.138  0.0376  0.0400 -0.4622
 6310SOL    HW230567   2.780   3.359  10.259 -0.1165 -0.2180 -0.3927
 6311SOL     OW30568   0.258   2.290   7.596  0.0717  0.0770  0.0826
 6311SOL    HW130569   0.323   2.286   7.667 -0.4898 -1.7511  0.4748
 6311SOL    HW230570   0.219   2.374   7.621 -0.3888  0.5980 -2.3797
 6312SOL     OW30571   1.541   4.457   8.777  0.2369 -0.2337 -0.6297
 6312SOL    HW130572   1.453   4.467   8.742  0.2041  1.5489 -0.0129
 6312SOL    HW230573   1.592   4.519   8.725  0.0303  1.8531  1.6727
 6313SOL     OW30574   3.909   2.444   6.223 -0.4947  0.3072  0.7449
 6313SOL    HW130575   3.888   2.448   6.317  1.3423  0.6641  1.1376
 6313SOL    HW230576   3.916   2.538   6.210 -0.8569 -0.0523 -2.0190
 6314SOL     OW30577   4.489   0.532   9.241  0.7495 -0.4483 -1.0294
 6314SOL    HW130578   4.430   0.457   9.253  0.1906  0.3437  1.0809
 6314SOL    HW230579   4.552   0.498   9.177  0.4090 -0.7798 -1.1846
 6315SOL     OW30580   1.711   2.122  17.685 -0.4725 -0.2504  0.1294
 6315SOL    HW130581   1.704   2.195  17.624  1.3416  1.0398  1.4321
 6315SOL    HW230582   1.791   2.079  17.654 -2.1917 -3.6721  0.4868
 6316SOL     OW30583   0.563   0.734   2.476  0.7778 -0.5850 -0.0086
 6316SOL    HW130584   0.620   0.771   2.543  1.4430 -0.3161 -0.7255
 6316SOL    HW230585   0.547   0.642   2.499  2.4941 -0.8399  0.1118
 6317SOL     OW30586   0.353   0.708   8.545 -0.3180  0.3122 -0.5367
 6317SOL    HW130587   0.376   0.660   8.465 -2.2851  0.0074 -0.9022
 6317SOL    HW230588   0.439   0.731   8.581  0.2974  0.0398 -1.7929
 6318SOL     OW30589   1.051   0.494   4.343  0.0621  0.1686 -0.0540
 6318SOL    HW130590   0.984   0.513   4.277 -0.9968  0.1202  1.0101
 6318SOL    HW230591   1.007   0.497   4.428  1.0712  1.2276  0.4286
 6319SOL     OW30592   0.941   2.167   8.937  0.1318 -0.1353  1.0613
 6319SOL    HW130593   0.904   2.080   8.920  0.1673 -0.1232  0.9205
 6319SOL    HW230594   0.952   2.193   8.846 -0.4666 -0.6274  0.8493
 6320SOL     OW30595   0.191   2.092   2.114 -0.1338 -0.1732 -0.8014
 6320SOL    HW130596   0.170   2.084   2.207 -0.9870  1.0800 -0.8817
 6320SOL    HW230597   0.252   2.166   2.109 -1.8531  1.1980 -1.3176
 6321SOL     OW30598   3.351   3.500   4.095  0.5607 -0.9611  0.3622
 6321SOL    HW130599   3.297   3.572   4.127  1.5654  1.8175 -4.2096
 6321SOL    HW230600   3.401   3.555   4.035  0.5504 -2.5778 -1.0932
 6322SOL     OW30601   3.911   4.152   4.558  0.5752 -0.1711  0.5507
 6322SOL    HW130602   3.842   4.218   4.558  2.3170  1.6238  1.5810
 6322SOL    HW230603   3.990   4.207   4.559 -0.5874  1.5115 -0.5287
 6323SOL     OW30604   2.931   3.675  17.550 -0.4881  0.0816 -0.2177
 6323SOL    HW130605   2.960   3.658  17.640 -0.5172  1.0457 -0.0310
 6323SOL    HW230606   2.838   3.654  17.551 -0.7093  1.1364  1.1074
 6324SOL     OW30607   1.287   0.858   7.935 -0.1314 -0.2539 -0.7656
 6324SOL    HW130608   1.275   0.769   7.969  1.2100  0.2941  1.1571
 6324SOL    HW230609   1.379   0.864   7.960  0.0729 -0.3206 -1.4810
 6325SOL     OW30610   3.656   0.095   3.390  1.0742 -0.1838 -0.9219
 6325SOL    HW130611   3.663   0.064   3.300  1.4192 -2.6184 -0.0517
 6325SOL    HW230612   3.576   0.047   3.409  0.9981 -0.1192 -1.0757
 6326SOL     OW30613   1.319   2.751  16.669 -0.1033 -0.1127 -0.7913
 6326SOL    HW130614   1.389   2.725  16.728  1.2054  2.5339 -1.1600
 6326SOL    HW230615   1.365   2.746  16.584  3.2873 -2.9846  1.2026
 6327SOL     OW30616   4.729   3.666   4.088 -0.2176 -0.3327 -0.2657
 6327SOL    HW130617   4.715   3.750   4.046  0.0705  0.6713  1.6638
 6327SOL    HW230618   4.727   3.694   4.179  1.2835  0.0644 -0.3478
 6328SOL     OW30619   1.194   3.176   1.589  0.1553  0.1175 -0.3880
 6328SOL    HW130620   1.260   3.111   1.613 -1.7778 -1.4743  0.6152
 6328SOL    HW230621   1.125   3.112   1.569  0.4700 -1.2600  2.9302
 6329SOL     OW30622   2.389   0.784  11.110 -0.4263 -0.0385  0.1621
 6329SOL    HW130623   2.432   0.868  11.130 -4.1464  2.4038 -2.2450
 6329SOL    HW230624   2.446   0.718  11.149 -1.0688 -0.6717  0.0205
 6330SOL     OW30625   1.337   2.922   6.837 -0.1918 -0.4056  0.3680
 6330SOL    HW130626   1.333   2.828   6.853 -0.8879 -0.2974  0.8669
 6330SOL    HW230627   1.398   2.952   6.903 -0.3119  0.5576  0.0411
 6331SOL     OW30628   2.150   2.259   1.791 -0.5010  0.7403  0.2885
 6331SOL    HW130629   2.100   2.182   1.762 -1.2311  0.0757  3.2721
 6331SOL    HW230630   2.181   2.224   1.874  1.3515  2.2153  0.2232
 6332SOL     OW30631   0.216   1.419   4.047 -0.2856 -0.2043  0.2878
 6332SOL    HW130632   0.203   1.503   4.001  0.7486 -0.7421 -0.9990
 6332SOL    HW230633   0.295   1.449   4.091 -2.0674  0.3646  3.0778
 6333SOL     OW30634   2.170   4.382   5.747 -0.2705  0.3343 -0.2044
 6333SOL    HW130635   2.128   4.342   5.670 -0.2983 -1.2832  0.6376
 6333SOL    HW230636   2.245   4.424   5.705 -0.1532 -0.4847 -0.8346
 6334SOL     OW30637   1.076   0.704   9.443  0.4116  0.5987 -0.3587
 6334SOL    HW130638   1.152   0.721   9.388  0.6954 -0.8751 -0.4198
 6334SOL    HW230639   1.119   0.683   9.526 -1.1281  2.6112  0.9696
 6335SOL     OW30640   2.928   1.788   1.983  0.4554  0.5755  0.1650
 6335SOL    HW130641   2.834   1.771   1.987  0.2113  2.5143  2.3229
 6335SOL    HW230642   2.966   1.701   1.967 -0.4327  0.2198 -0.0524
 6336SOL     OW30643   3.037   1.884   4.180  0.2926  0.6444  0.3041
 6336SOL    HW130644   3.085   1.810   4.216  2.2820  2.0865  0.6315
 6336SOL    HW230645   2.962   1.876   4.239 -0.3586 -0.9981 -0.7689
 6337SOL     OW30646   2.474   1.330   5.734 -0.1438  0.1219  0.0832
 6337SOL    HW130647   2.448   1.341   5.826  2.3789  1.5695  0.6139
 6337SOL    HW230648   2.406   1.387   5.698 -0.5923  0.3429  1.2541
 6338SOL     OW30649   2.201   0.468   3.617 -0.1308  0.0640 -0.1369
 6338SOL    HW130650   2.296   0.475   3.609  0.2466 -1.1019  3.3915
 6338SOL    HW230651   2.190   0.494   3.709 -0.7148 -1.3688  0.2040
 6339SOL     OW30652   2.079   1.115   5.943 -0.3918 -0.4922 -0.0989
 6339SOL    HW130653   2.155   1.090   5.996 -0.6850 -2.5307 -0.6547
 6339SOL    HW230654   2.092   1.210   5.940  0.7122 -0.6776 -1.1965
 6340SOL     OW30655   1.545   1.283   9.605 -0.7323  0.3430  0.0993
 6340SOL    HW130656   1.466   1.243   9.568  0.3544 -0.6147 -1.1857
 6340SOL    HW230657   1.547   1.362   9.549 -1.0591 -2.3683 -3.7605
 6341SOL     OW30658   1.003   4.530   2.667  0.7023 -0.1361  0.2629
 6341SOL    HW130659   1.084   4.562   2.708  1.5105  0.5916 -1.9269
 6341SOL    HW230660   0.961   4.615   2.653  0.4340 -0.3561 -0.2525
 6342SOL     OW30661   0.111   0.409   2.185 -0.5620 -0.3664  0.0979
 6342SOL    HW130662   0.098   0.493   2.141  1.3849  0.3677  0.9198
 6342SOL    HW230663   0.157   0.433   2.266 -1.2112 -1.3427  0.7525
 6343SOL     OW30664   1.150   0.092  16.042 -0.1177  0.1497 -0.0085
 6343SOL    HW130665   1.204   0.032  16.093  1.9638  0.5457 -1.7498
 6343SOL    HW230666   1.183   0.085  15.952  1.8145  0.5149  0.6800
 6344SOL     OW30667   2.302   1.887   9.606 -0.0193 -0.0416  0.2997
 6344SOL    HW130668   2.370   1.865   9.669  0.6525  0.8655 -0.1197
 6344SOL    HW230669   2.256   1.804   9.599 -1.1914  0.6192  0.0789
 6345SOL     OW30670   0.353   2.449   6.713  0.3771 -0.1346  0.6281
 6345SOL    HW130671   0.289   2.379   6.729  0.1993 -0.0505  0.2682
 6345SOL    HW230672   0.315   2.524   6.758  2.0954  0.6803  0.7448
 6346SOL     OW30673   2.584   1.732   8.515 -0.2027 -0.4997  0.0279
 6346SOL    HW130674   2.661   1.722   8.459 -0.6829  1.6965 -1.0536
 6346SOL    HW230675   2.569   1.825   8.494 -1.4709 -0.8525 -0.6554
 6347SOL     OW30676   1.792   2.398   6.896  0.2687  0.4115 -0.4487
 6347SOL    HW130677   1.884   2.420   6.882 -0.2035  1.1403 -2.4869
 6347SOL    HW230678   1.773   2.342   6.821  0.5711 -0.0652 -0.1649
 6348SOL     OW30679   0.751   4.187  10.445 -0.5241 -0.1211 -0.6548
 6348SOL    HW130680   0.731   4.268  10.491 -2.0237 -1.5559  1.1799
 6348SOL    HW230681   0.846   4.181  10.460 -0.2514 -0.9060 -2.6208
 6349SOL     OW30682   0.705   0.189   6.009  0.5802  0.3060  0.0781
 6349SOL    HW130683   0.799   0.175   5.996 -0.0806 -2.6423 -1.6523
 6349SOL    HW230684   0.676   0.102   5.981 -0.5750  0.3098  1.2640
 6350SOL     OW30685   2.466   0.875   4.697 -0.3019 -0.3153  0.0810
 6350SOL    HW130686   2.423   0.833   4.771 -1.2557  0.3519 -0.0940
 6350SOL    HW230687   2.541   0.816   4.689 -0.7746 -0.9113  0.0534
 6351SOL     OW30688   4.435   4.054   2.784 -0.0897  0.3494  0.7540
 6351SOL    HW130689   4.502   4.121   2.769  1.0439 -0.2149  3.3183
 6351SOL    HW230690   4.383   4.093   2.854  0.0617  2.4211 -0.2801
 6352SOL     OW30691   3.064   4.712   2.414  0.3680 -0.1167 -0.0823
 6352SOL    HW130692   3.131   0.027   2.369  0.3211  0.2002  0.2162
 6352SOL    HW230693   3.114   4.636   2.442 -1.3392 -0.7964  1.1324
 6353SOL     OW30694   3.467   3.408   5.824 -0.4977 -0.5729  0.1439
 6353SOL    HW130695   3.376   3.428   5.805  0.2896  2.9383  0.0583
 6353SOL    HW230696   3.484   3.466   5.898  1.4685 -0.4431 -0.4078
 6354SOL     OW30697   0.071   4.489   1.746 -0.1987 -0.2039  0.5989
 6354SOL    HW130698   0.146   4.541   1.774 -0.5521 -0.6663  2.4535
 6354SOL    HW230699   0.020   4.473   1.825  1.3855 -0.9338  1.4777
 6355SOL     OW30700   1.582   0.627   3.736 -0.0577 -0.1501 -0.2566
 6355SOL    HW130701   1.515   0.573   3.778  0.1444  0.5346  0.9562
 6355SOL    HW230702   1.536   0.651   3.655 -0.7309 -0.8730 -0.0837
 6356SOL     OW30703   4.561   1.625  10.519 -0.3416  0.0806  0.3888
 6356SOL    HW130704   4.553   1.556  10.452  0.5375  0.8141 -0.4750
 6356SOL    HW230705   4.561   1.704  10.465 -2.4892 -1.2546 -1.5626
 6357SOL     OW30706   0.920   4.681  11.100 -0.2037  0.1552 -0.4319
 6357SOL    HW130707   0.914   0.036  11.077 -1.5510  0.7259  2.3084
 6357SOL    HW230708   0.938   4.695  11.192 -1.4606  2.0774 -0.4702
 6358SOL     OW30709   2.711   3.430   6.244  0.3192 -0.4064  0.4312
 6358SOL    HW130710   2.723   3.359   6.181 -1.7174  0.0283 -0.4314
 6358SOL    HW230711   2.786   3.489   6.230 -0.6006 -0.0837 -3.1537
 6359SOL     OW30712   4.248   2.284   6.066  0.2514  0.4313  0.2924
 6359SOL    HW130713   4.228   2.194   6.093  1.5380  0.0871  0.1239
 6359SOL    HW230714   4.335   2.281   6.027 -0.4217 -1.9463 -1.0611
 6360SOL     OW30715   0.955   0.792   7.434 -0.0429  0.4583 -0.1756
 6360SOL    HW130716   1.033   0.824   7.478  0.9553 -0.8074 -1.0266
 6360SOL    HW230717   0.934   0.706   7.473 -0.0607  0.5470  0.0094
 6361SOL     OW30718   1.436   3.588   1.655 -0.1836 -0.3362  0.3574
 6361SOL    HW130719   1.403   3.529   1.587 -0.2493 -0.2994  0.3570
 6361SOL    HW230720   1.504   3.630   1.603 -0.3702 -0.4211  0.0395
 6362SOL     OW30721   0.577   0.936  13.609  0.1945  0.1562  0.1242
 6362SOL    HW130722   0.517   0.899  13.545 -1.3183  2.5215  0.1741
 6362SOL    HW230723   0.539   0.897  13.687 -0.0781  1.1685  0.5008
 6363SOL     OW30724   1.565   3.041   5.091  0.3109  0.6633 -0.4716
 6363SOL    HW130725   1.661   3.049   5.092  0.3270  0.4095 -0.2557
 6363SOL    HW230726   1.539   3.107   5.155  1.5973 -0.1135  0.8303
 6364SOL     OW30727   4.715   4.581  13.241  0.3924 -0.2986  0.2432
 6364SOL    HW130728   4.710   4.674  13.260 -0.3587 -0.8274  2.7179
 6364SOL    HW230729   0.043   4.583  13.172  0.4683 -0.9382  0.2949
 6365SOL     OW30730   2.378   2.787   0.131 -0.1583 -0.4251  0.4544
 6365SOL    HW130731   2.452   2.844   0.152 -2.9007  3.5476 -0.6853
 6365SOL    HW230732   2.420   2.724   0.073  2.0930  0.9765  0.5638
 6366SOL     OW30733   2.320   3.491  11.343  0.0328 -0.0753 -0.0022
 6366SOL    HW130734   2.356   3.576  11.321 -2.7033  1.6671  2.2555
 6366SOL    HW230735   2.375   3.432  11.292  1.0485  0.2654  0.6859
 6367SOL     OW30736   2.266   0.153  10.038 -0.1578  0.1534 -0.0316
 6367SOL    HW130737   2.361   0.154  10.039 -0.1859  1.3218  0.4525
 6367SOL    HW230738   2.261   0.065   9.999  0.3383  0.5437 -0.9744
 6368SOL     OW30739   2.032   0.769  13.618  0.0535 -0.4098 -0.3385
 6368SOL    HW130740   2.117   0.786  13.658 -1.6590 -0.0321  3.1162
 6368SOL    HW230741   1.982   0.837  13.663 -2.0105 -2.2850  0.1849
 6369SOL     OW30742   2.765   1.821  14.209 -0.2289  0.4871 -0.3693
 6369SOL    HW130743   2.708   1.891  14.241 -0.0831  0.8073 -0.8114
 6369SOL    HW230744   2.719   1.809  14.126  0.5751 -0.7166 -0.6302
 6370SOL     OW30745   4.419   1.193   4.612  0.0682  0.1017  0.4419
 6370SOL    HW130746   4.383   1.125   4.554 -1.7044  0.0921  1.5814
 6370SOL    HW230747   4.494   1.215   4.557  0.1821  2.1247  1.4005
 6371SOL     OW30748   0.355   3.724   4.675  0.3717 -0.3881  0.0575
 6371SOL    HW130749   0.445   3.735   4.707 -0.1557 -1.2468  1.8107
 6371SOL    HW230750   0.337   3.632   4.694 -0.7474  0.2901  2.2483
 6372SOL     OW30751   0.374   2.949  16.915  0.4141  0.2849  0.1035
 6372SOL    HW130752   0.305   2.952  16.982 -0.7618 -1.6716 -1.0137
 6372SOL    HW230753   0.349   2.865  16.876 -0.1086  0.1215  0.7869
 6373SOL     OW30754   3.326   2.574   6.773 -0.0105  0.1060 -0.4554
 6373SOL    HW130755   3.255   2.534   6.723 -0.7771 -1.6729  2.0375
 6373SOL    HW230756   3.398   2.516   6.746  0.2217  0.0725  0.2359
 6374SOL     OW30757   4.182   2.449   0.277  0.5226 -0.3114  0.5267
 6374SOL    HW130758   4.136   2.366   0.266 -1.5802  0.8032  0.9637
 6374SOL    HW230759   4.144   2.475   0.361 -1.1559 -0.1885 -0.2650
 6375SOL     OW30760   3.753   3.908  14.951 -0.2499 -0.5365  0.0765
 6375SOL    HW130761   3.774   3.904  14.858 -0.0775 -0.8903  0.1328
 6375SOL    HW230762   3.819   3.962  14.995 -0.1259 -1.6207  1.2245
 6376SOL     OW30763   0.563   3.687   5.967  0.6285  0.1269  0.1973
 6376SOL    HW130764   0.532   3.703   6.056  1.0370 -1.7758  0.6962
 6376SOL    HW230765   0.487   3.706   5.912  1.2611  1.0076 -0.3829
 6377SOL     OW30766   0.432   4.613  17.195 -0.0422  0.0573 -0.0679
 6377SOL    HW130767   0.500   4.670  17.160  1.6552 -1.4883  0.7347
 6377SOL    HW230768   0.409   4.556  17.122 -0.6974  0.1203  0.0892
 6378SOL     OW30769   0.060   1.485   3.551 -0.0341  0.7144  0.0815
 6378SOL    HW130770   0.037   1.392   3.548 -0.2367  0.7649  0.0578
 6378SOL    HW230771   0.033   1.515   3.464 -1.7119 -1.6662 -0.2103
 6379SOL     OW30772   1.751   4.717  12.313 -0.1113 -0.2508 -0.4325
 6379SOL    HW130773   1.703   4.675  12.384  1.5590  1.6446  1.8302
 6379SOL    HW230774   1.835   4.722  12.359  0.6681  0.5060 -1.9533
 6380SOL     OW30775   1.804   1.467   1.797 -0.0772  0.3186 -0.6589
 6380SOL    HW130776   1.887   1.504   1.768 -0.6572  0.9065 -1.5659
 6380SOL    HW230777   1.733   1.521   1.762 -1.0591 -0.3521  0.2851
 6381SOL     OW30778   1.521   3.318   3.778  0.1713 -0.0783 -0.0981
 6381SOL    HW130779   1.528   3.233   3.821 -0.9523 -0.7443 -1.2512
 6381SOL    HW230780   1.521   3.370   3.859  1.4480  0.1722 -0.2540
 6382SOL     OW30781   2.813   3.658   7.013 -0.0240  0.0989 -0.6344
 6382SOL    HW130782   2.758   3.733   6.990  0.6011  0.4575 -0.9629
 6382SOL    HW230783   2.821   3.662   7.108  1.0806  1.0832 -0.7570
 6383SOL     OW30784   0.572   4.285   8.455 -0.3045  0.0319  0.2077
 6383SOL    HW130785   0.638   4.348   8.426  0.0344  0.1695  1.2662
 6383SOL    HW230786   0.538   4.323   8.536 -0.4617  0.9328 -0.2763
 6384SOL     OW30787   0.390   1.264   5.762 -0.0057  0.1785  0.3168
 6384SOL    HW130788   0.316   1.206   5.740 -0.0384  0.9780 -1.7283
 6384SOL    HW230789   0.467   1.221   5.725 -0.8401 -1.8694  0.9470
 6385SOL     OW30790   3.477   4.339   7.867  0.4462 -0.2250 -0.0344
 6385SOL    HW130791   3.506   4.248   7.875  0.6623 -0.1070  0.5319
 6385SOL    HW230792   3.541   4.374   7.804 -0.5533  0.6800 -0.5451
 6386SOL     OW30793   2.505   0.163   9.693 -0.0801  0.3470 -0.3655
 6386SOL    HW130794   2.496   0.258   9.684 -1.6675  0.0021 -2.5205
 6386SOL    HW230795   2.579   0.142   9.635  0.5168 -0.9532  0.8655
 6387SOL     OW30796   2.831   0.118   4.931 -0.2907 -0.4844 -0.2774
 6387SOL    HW130797   2.757   0.146   4.877 -1.1018 -1.4978  0.3155
 6387SOL    HW230798   2.886   0.196   4.924  0.2527 -0.8427 -0.0446
 6388SOL     OW30799   2.628   4.350  11.565  0.5152 -0.4508 -0.3325
 6388SOL    HW130800   2.635   4.441  11.537 -3.0209  0.1910  0.8768
 6388SOL    HW230801   2.584   4.333  11.649 -0.1529  0.8915 -0.4068
 6389SOL     OW30802   1.226   4.389   3.754  0.1556 -0.6332  0.5049
 6389SOL    HW130803   1.157   4.356   3.696 -1.1399  0.2513  1.5478
 6389SOL    HW230804   1.263   4.469   3.717  0.3339 -1.7726 -1.7766
 6390SOL     OW30805   2.809   3.718  10.736  0.1936 -0.5471 -0.5581
 6390SOL    HW130806   2.827   3.800  10.689  0.4994 -0.3951 -0.1700
 6390SOL    HW230807   2.714   3.710  10.724  0.0136 -0.0962  0.5106
 6391SOL     OW30808   1.800   3.107   6.390  0.0548 -0.4954 -0.3586
 6391SOL    HW130809   1.850   3.074   6.316  0.4366  2.0197 -1.2050
 6391SOL    HW230810   1.737   3.167   6.349 -2.3106 -3.2762 -0.8413
 6392SOL     OW30811   3.581   2.671   5.312  0.0735  0.5223 -0.0622
 6392SOL    HW130812   3.669   2.635   5.322  0.5439  2.1353  1.5751
 6392SOL    HW230813   3.575   2.691   5.218  0.8051 -0.3828 -0.3114
 6393SOL     OW30814   2.966   3.537  15.286  0.4767 -0.2296 -0.1119
 6393SOL    HW130815   3.059   3.547  15.306  0.1498 -0.3056  1.3865
 6393SOL    HW230816   2.944   3.625  15.254 -1.2253 -0.8438 -0.6112
 6394SOL     OW30817   2.684   0.329   7.591 -0.0238 -0.0921  0.0073
 6394SOL    HW130818   2.634   0.399   7.633  0.8670 -0.0522  0.9842
 6394SOL    HW230819   2.750   0.306   7.656  2.0461  0.7260 -1.8205
 6395SOL     OW30820   1.305   3.684   5.452  0.0741 -0.4879 -0.6552
 6395SOL    HW130821   1.373   3.716   5.511 -1.3256  1.0164  0.1595
 6395SOL    HW230822   1.338   3.595   5.444 -0.4019 -0.4941 -2.5201
 6396SOL     OW30823   3.116   4.043  11.432  0.2541  0.5480  0.5576
 6396SOL    HW130824   3.182   3.985  11.395 -2.7828 -1.4727 -1.6446
 6396SOL    HW230825   3.145   4.045  11.523  0.2400 -0.7270  0.5879
 6397SOL     OW30826   1.829   0.274   2.358 -0.3300 -0.3300 -0.9489
 6397SOL    HW130827   1.802   0.184   2.374  2.4441 -1.1849 -1.0521
 6397SOL    HW230828   1.779   0.304   2.283 -2.0440 -1.1698 -0.1566
 6398SOL     OW30829   1.826   2.451   3.585 -0.0200  0.1289  0.4859
 6398SOL    HW130830   1.879   2.516   3.540 -0.6795 -1.0807 -2.0362
 6398SOL    HW230831   1.879   2.374   3.563 -0.8735 -0.4908  0.5888
 6399SOL     OW30832   0.737   1.084   6.044 -0.4218  0.0650  0.4446
 6399SOL    HW130833   0.816   1.105   5.994 -0.5896  1.6455  0.8673
 6399SOL    HW230834   0.710   1.175   6.035  2.0164  0.6748 -0.6923
 6400SOL     OW30835   2.086   1.152   1.096 -0.1991  0.1484 -0.5249
 6400SOL    HW130836   2.176   1.131   1.119  0.0742 -0.8193 -2.5016
 6400SOL    HW230837   2.104   1.211   1.023  1.2710 -0.5445 -0.7166
 6401SOL     OW30838   1.476   0.474   1.820 -0.0099 -0.2616  0.1112
 6401SOL    HW130839   1.456   0.510   1.906 -2.4527 -2.3302  0.4179
 6401SOL    HW230840   1.394   0.425   1.820  0.5381 -1.1772  0.0650
 6402SOL     OW30841   4.079   0.319   4.069  0.2740  0.2486 -0.4490
 6402SOL    HW130842   4.161   0.303   4.024  1.1350 -2.6584  2.1178
 6402SOL    HW230843   4.083   0.263   4.147 -0.4909 -0.0278 -0.5991
 6403SOL     OW30844   2.507   3.328  15.989  0.1420  0.4882 -0.5889
 6403SOL    HW130845   2.549   3.410  16.014  2.5703 -0.7233 -0.6594
 6403SOL    HW230846   2.584   3.282  15.955 -1.6152 -2.6132 -0.4386
 6404SOL     OW30847   3.010   0.764  10.004  0.1384  0.2729 -0.0230
 6404SOL    HW130848   3.065   0.838   9.978 -1.0020  0.8608 -0.7576
 6404SOL    HW230849   2.989   0.792  10.093 -0.7301  0.4846 -0.2929
 6405SOL     OW30850   2.438   0.555   5.951  0.5678  0.2546 -0.2934
 6405SOL    HW130851   2.507   0.576   6.013  0.9563  0.6971 -0.8771
 6405SOL    HW230852   2.476   0.525   5.868 -0.2105 -3.2523  0.6081
 6406SOL     OW30853   0.530   4.372   6.850  0.3020  0.8488 -0.0728
 6406SOL    HW130854   0.499   4.411   6.769 -3.0019  1.8499  1.6962
 6406SOL    HW230855   0.599   4.321   6.806  0.1553  0.1522  0.4961
 6407SOL     OW30856   4.142   0.459   8.181 -0.8209  0.4513 -0.0953
 6407SOL    HW130857   4.086   0.526   8.221 -1.9302 -0.2715 -0.4396
 6407SOL    HW230858   4.075   0.406   8.138  0.8189 -0.3636 -1.6399
 6408SOL     OW30859   3.015   3.249   7.656  0.3385  0.0860  1.0346
 6408SOL    HW130860   3.047   3.250   7.746  1.0701 -0.2498  0.7753
 6408SOL    HW230861   3.032   3.156   7.640 -0.0608 -0.0954  1.6507
 6409SOL     OW30862   1.553   1.470   5.034  0.6037 -0.6335  0.0360
 6409SOL    HW130863   1.512   1.453   5.118 -0.9655 -1.3853 -0.8761
 6409SOL    HW230864   1.474   1.481   4.981  0.4178 -0.2389  0.3978
 6410SOL     OW30865   1.484   2.576   3.886 -0.1891 -0.3670 -0.0861
 6410SOL    HW130866   1.418   2.626   3.838  1.2141  1.8445  0.3033
 6410SOL    HW230867   1.527   2.640   3.942  0.4370 -1.4072  0.6194
 6411SOL     OW30868   3.565   3.834   7.735  0.4963  0.3633  0.1204
 6411SOL    HW130869   3.642   3.789   7.768  0.2011 -0.8754 -0.8672
 6411SOL    HW230870   3.500   3.834   7.805 -1.1034 -0.5322 -1.3644
 6412SOL     OW30871   0.153   1.384   9.427  0.3139 -0.4927  0.9472
 6412SOL    HW130872   0.187   1.315   9.370 -0.4522  0.6552 -0.8651
 6412SOL    HW230873   0.064   1.351   9.436 -0.0968  0.9724  2.2097
 6413SOL     OW30874   3.321   0.696   9.309 -0.8319 -0.4209  0.4815
 6413SOL    HW130875   3.260   0.669   9.240 -1.1597 -0.4206  0.7722
 6413SOL    HW230876   3.350   0.780   9.273 -0.0099 -1.6870 -1.8562
 6414SOL     OW30877   4.594   0.725  12.761 -0.5178 -0.3908  0.1157
 6414SOL    HW130878   4.575   0.653  12.700 -1.1020 -1.1754  1.2175
 6414SOL    HW230879   4.667   0.771  12.720  0.3539 -2.9572 -1.2333
 6415SOL     OW30880   3.715   2.405   8.065  0.4744 -0.3477  0.0896
 6415SOL    HW130881   3.655   2.459   8.014  0.0982  1.5311  2.5086
 6415SOL    HW230882   3.662   2.343   8.116 -2.6641  2.3901  0.1574
 6416SOL     OW30883   2.112   3.445   1.657  0.2358 -0.0166  0.2437
 6416SOL    HW130884   2.127   3.350   1.650  1.4433  0.2523 -0.9333
 6416SOL    HW230885   2.179   3.472   1.595 -0.6677 -0.0602 -0.7474
 6417SOL     OW30886   3.354   2.382  16.331 -0.6302 -0.1791 -0.0522
 6417SOL    HW130887   3.428   2.404  16.388 -2.0782  0.3786  1.6084
 6417SOL    HW230888   3.398   2.395  16.247  1.1402  0.1227  0.9119
 6418SOL     OW30889   1.816   3.938   2.946 -0.2537 -0.1738 -0.1279
 6418SOL    HW130890   1.752   3.887   2.996 -0.3739 -1.2466 -1.3785
 6418SOL    HW230891   1.776   3.946   2.860  1.8216  0.8405 -0.9891
 6419SOL     OW30892   0.059   1.594   9.619 -0.2736 -0.3167  0.3619
 6419SOL    HW130893   0.069   1.510   9.574  0.8414  0.2368 -0.3994
 6419SOL    HW230894   0.147   1.604   9.656  1.7167 -1.2064 -4.1433
 6420SOL     OW30895   4.552   0.299   3.076  0.4669 -0.3058 -0.7325
 6420SOL    HW130896   4.498   0.315   3.153 -1.2840 -1.1752 -1.7604
 6420SOL    HW230897   4.624   0.262   3.126  0.9543 -0.6920 -1.7136
 6421SOL     OW30898   1.843   0.496   6.880 -0.2166 -0.0938  0.1850
 6421SOL    HW130899   1.778   0.471   6.815  2.0238 -1.1572 -1.6222
 6421SOL    HW230900   1.927   0.483   6.835 -1.3502 -2.7783 -1.1224
 6422SOL     OW30901   1.565   2.199   0.762 -0.4184  0.1955 -0.2811
 6422SOL    HW130902   1.639   2.219   0.705  0.6350 -0.4730  0.8491
 6422SOL    HW230903   1.597   2.118   0.801 -0.7538 -1.0501 -2.6315
 6423SOL     OW30904   3.205   3.657   7.060  0.8437 -0.0173  0.5443
 6423SOL    HW130905   3.281   3.604   7.086  0.8159  0.0161  0.6913
 6423SOL    HW230906   3.216   3.672   6.966  0.8720 -1.6281  0.2891
 6424SOL     OW30907   3.731   2.586  14.998 -0.0051 -0.1493  0.1631
 6424SOL    HW130908   3.688   2.665  14.968 -0.7363 -1.0764 -1.2343
 6424SOL    HW230909   3.816   2.590  14.953 -0.1779 -0.2961 -0.1717
 6425SOL     OW30910   2.497   3.663  17.323  0.1407  0.5913 -0.0950
 6425SOL    HW130911   2.486   3.731  17.256 -1.7621 -1.8784 -2.2817
 6425SOL    HW230912   2.449   3.588  17.288 -0.4207  1.3205 -0.9073
 6426SOL     OW30913   1.320   3.712   3.011  0.7018 -0.1270  0.6139
 6426SOL    HW130914   1.313   3.620   2.988 -1.2161  0.3102 -0.5458
 6426SOL    HW230915   1.289   3.709   3.102 -1.5584  1.5151 -0.1028
 6427SOL     OW30916   0.088   3.170   3.388  0.0547 -0.1211  0.3795
 6427SOL    HW130917   0.030   3.199   3.458  0.9177  1.1286  0.5843
 6427SOL    HW230918   0.174   3.168   3.430  0.0101 -0.8840  0.4431
 6428SOL     OW30919   3.892   2.607   0.235  0.5071 -0.5760 -0.3977
 6428SOL    HW130920   3.926   2.558   0.161  0.9436 -0.6833 -0.1310
 6428SOL    HW230921   3.952   2.682   0.227  1.0674 -0.9784  0.0384
 6429SOL     OW30922   0.319   2.182   3.385 -0.0291 -0.4049  0.1154
 6429SOL    HW130923   0.303   2.199   3.292  0.2628 -0.3359  0.0784
 6429SOL    HW230924   0.347   2.092   3.373 -0.9332 -0.7930  0.8944
 6430SOL     OW30925   2.779   1.181   4.835 -0.6233  0.3900 -0.0531
 6430SOL    HW130926   2.797   1.093   4.803 -0.8412  0.6447 -0.8746
 6430SOL    HW230927   2.868   1.207   4.858 -0.5628  0.7008 -0.6360
 6431SOL     OW30928   0.122   0.996   7.742 -0.1910  0.5694 -0.1091
 6431SOL    HW130929   0.138   1.090   7.751 -1.1816  0.7078  0.3010
 6431SOL    HW230930   0.150   0.974   7.654  2.6721  0.4516  0.8188
 6432SOL     OW30931   3.170   1.953  16.885 -0.5140 -0.2777  0.6593
 6432SOL    HW130932   3.146   1.947  16.792  1.2688 -1.1389  0.2699
 6432SOL    HW230933   3.196   1.864  16.907  1.4682 -0.9276 -4.3118
 6433SOL     OW30934   4.106   4.425  11.126  0.2040  0.9622  0.3081
 6433SOL    HW130935   4.161   4.349  11.103 -3.3053 -1.5774  0.2520
 6433SOL    HW230936   4.075   4.396  11.212 -0.5883 -3.8959 -1.6095
 6434SOL     OW30937   0.317   0.018   4.979  0.4899 -0.2069  0.0651
 6434SOL    HW130938   0.355   0.022   4.892  0.3605 -1.7347 -0.0651
 6434SOL    HW230939   0.389   0.052   5.032  1.4491 -1.0599 -0.7026
 6435SOL     OW30940   2.973   2.616   5.892  0.1773  0.2516 -0.5453
 6435SOL    HW130941   2.922   2.570   5.959  0.8916  1.2285  0.6655
 6435SOL    HW230942   2.970   2.556   5.818 -0.5333 -0.4770  0.0740
 6436SOL     OW30943   2.652   4.198  11.185  0.2044 -0.4010  0.3628
 6436SOL    HW130944   2.656   4.276  11.129 -2.2764 -1.1693 -0.8781
 6436SOL    HW230945   2.603   4.142  11.125 -1.6394  0.3602  1.1718
 6437SOL     OW30946   2.373   4.642   9.468 -0.1736  0.2815  0.1440
 6437SOL    HW130947   2.338   4.727   9.496  1.6031  1.4156 -1.0987
 6437SOL    HW230948   2.391   4.662   9.376 -0.5345 -0.0773 -0.0047
 6438SOL     OW30949   1.402   3.874   6.789 -0.4029  0.1266 -0.0506
 6438SOL    HW130950   1.400   3.930   6.712  0.4147  0.6932  0.3400
 6438SOL    HW230951   1.484   3.891   6.834 -0.7742  1.5771  0.0716
 6439SOL     OW30952   0.028   2.246  12.901  0.2926  0.7385  0.6032
 6439SOL    HW130953   0.111   2.233  12.854  1.6012 -1.0591  3.4050
 6439SOL    HW230954   4.728   2.324  12.861  0.6449  0.3717 -0.4547
 6440SOL     OW30955   1.793   3.941  10.168 -0.2134  0.0091 -0.1531
 6440SOL    HW130956   1.724   4.005  10.152 -1.1001 -0.9412 -0.1510
 6440SOL    HW230957   1.747   3.873  10.218  2.7325  0.1299  2.7289
 6441SOL     OW30958   3.528   0.236   4.876 -0.7872  0.1950 -0.2269
 6441SOL    HW130959   3.552   0.312   4.928  1.2826  0.5692 -1.7615
 6441SOL    HW230960   3.480   0.192   4.946 -0.4726 -0.8053 -0.6291
 6442SOL     OW30961   3.664   0.034  13.005  0.4402  0.4850  0.3628
 6442SOL    HW130962   3.572   0.054  12.987  0.4858  0.2745 -0.1168
 6442SOL    HW230963   3.657   0.032  13.100  0.9156  0.7806  0.4048
 6443SOL     OW30964   1.641   0.951   7.512  0.1391  0.6284 -0.0175
 6443SOL    HW130965   1.585   0.900   7.453  1.0494 -0.7383  0.2986
 6443SOL    HW230966   1.637   1.036   7.468 -0.7143  1.1117  0.9837
 6444SOL     OW30967   1.141   0.098   8.388 -0.4562  0.1754  0.3310
 6444SOL    HW130968   1.124   0.031   8.455  1.0030 -0.2773  0.2576
 6444SOL    HW230969   1.150   0.043   8.310 -1.2890 -0.2453  0.5328
 6445SOL     OW30970   4.464   2.491   0.401  0.6307  0.3551  0.2048
 6445SOL    HW130971   4.481   2.548   0.326  0.0317  0.3515  0.0586
 6445SOL    HW230972   4.371   2.469   0.391  0.4508  1.2338 -0.0780
 6446SOL     OW30973   1.815   2.312   0.363  0.0956 -0.0831 -0.7036
 6446SOL    HW130974   1.729   2.350   0.345  0.0732  1.1461  2.0555
 6446SOL    HW230975   1.864   2.339   0.285  0.6001  3.1764  0.7700
 6447SOL     OW30976   1.020   4.457   5.387  0.6994  0.1594 -0.3329
 6447SOL    HW130977   0.970   4.534   5.415  2.8749  1.1210  0.8955
 6447SOL    HW230978   1.072   4.488   5.313  0.8310  1.2818  0.2276
 6448SOL     OW30979   3.883   0.812  12.878 -0.3548  0.0747 -0.0712
 6448SOL    HW130980   3.872   0.861  12.797  2.1427 -0.3561 -0.6874
 6448SOL    HW230981   3.821   0.740  12.867 -0.5358 -0.0658  1.7517
 6449SOL     OW30982   2.692   2.258   4.289 -0.4256  0.7869 -0.0784
 6449SOL    HW130983   2.628   2.323   4.319  0.1352  1.2296  0.1615
 6449SOL    HW230984   2.716   2.300   4.206 -1.1717 -0.9940 -1.1824
 6450SOL     OW30985   0.054   2.182  11.064  0.2537  0.6960  0.5680
 6450SOL    HW130986   0.037   2.115  11.131 -1.2025  1.1596  0.6608
 6450SOL    HW230987   4.704   2.196  11.028  1.1652  3.5244 -0.5587
 6451SOL     OW30988   1.970   2.004   5.092 -0.3053  0.1812 -0.3270
 6451SOL    HW130989   1.909   2.046   5.153  1.0595 -1.5033  2.1933
 6451SOL    HW230990   1.925   1.921   5.081  0.9600 -0.6115  0.4729
 6452SOL     OW30991   3.922   3.788   2.436  0.5607 -0.2201  0.5602
 6452SOL    HW130992   3.990   3.777   2.369  0.3488  1.6118  0.0449
 6452SOL    HW230993   3.953   3.868   2.478 -3.3670  1.6786 -0.1797
 6453SOL     OW30994   2.028   4.116  16.689  0.5836  0.3742 -0.3880
 6453SOL    HW130995   2.005   4.153  16.604  1.2935 -0.7086 -1.0587
 6453SOL    HW230996   2.048   4.025  16.665  0.4988  0.3256 -0.2751
 6454SOL     OW30997   4.140   4.639   8.987  0.1122  0.3843  0.1594
 6454SOL    HW130998   4.103   4.688   8.914  0.2442  1.2120  0.6463
 6454SOL    HW230999   4.135   4.551   8.951 -2.5583  0.4017  0.5057
 6455SOL     OW31000   1.689   4.136   5.379 -0.0231 -0.0596 -0.1665
 6455SOL    HW131001   1.619   4.093   5.426  0.8482 -1.2505  0.0450
 6455SOL    HW231002   1.665   4.134   5.286  2.4146 -0.2424 -0.8021
 6456SOL     OW31003   0.268   2.839   0.347 -0.1431  0.0237  0.6653
 6456SOL    HW131004   0.342   2.862   0.292  0.5668  0.2281  1.7076
 6456SOL    HW231005   0.301   2.771   0.406  1.7877  0.8343  0.4996
 6457SOL     OW31006   1.097   0.293   1.321  0.4246  0.0163  0.3623
 6457SOL    HW131007   1.039   0.352   1.369 -0.9226 -0.6789 -0.4197
 6457SOL    HW231008   1.173   0.308   1.378 -1.7353  0.0718  3.2220
 6458SOL     OW31009   4.528   2.721   5.470  0.1318 -0.6738  0.0681
 6458SOL    HW131010   4.525   2.637   5.516 -0.6059 -1.1551 -0.8579
 6458SOL    HW231011   4.493   2.776   5.541  2.9374  1.0062  0.1662
 6459SOL     OW31012   3.230   3.751   7.315  0.7352  0.3719  0.0977
 6459SOL    HW131013   3.206   3.722   7.227  1.4133 -1.5398  0.5322
 6459SOL    HW231014   3.318   3.783   7.296 -0.3193  2.9548 -0.4505
 6460SOL     OW31015   3.409   3.024  15.663 -0.3688 -0.3307  0.1334
 6460SOL    HW131016   3.368   2.968  15.729 -0.4291 -1.9327 -1.2569
 6460SOL    HW231017   3.350   3.099  15.665  0.6591  0.4958 -1.2684
 6461SOL     OW31018   3.518   4.126   1.837 -0.5743 -0.8671 -0.0799
 6461SOL    HW131019   3.438   4.080   1.862 -0.4647 -0.9514  0.1252
 6461SOL    HW231020   3.540   4.167   1.921  1.5885 -0.6860 -0.7218
 6462SOL     OW31021   3.844   0.380   4.695 -0.4335 -0.2796  0.2040
 6462SOL    HW131022   3.848   0.418   4.783 -0.0066  2.9621 -1.1826
 6462SOL    HW231023   3.763   0.329   4.690  0.0522 -1.0024 -0.2947
 6463SOL     OW31024   4.223   3.640   6.904  0.1793  0.5979  0.7444
 6463SOL    HW131025   4.261   3.556   6.879 -0.8649  0.4489 -0.3360
 6463SOL    HW231026   4.139   3.631   6.859  0.1860  3.4496  0.1378
 6464SOL     OW31027   3.816   0.701   5.936  0.2553  0.3311  0.0195
 6464SOL    HW131028   3.848   0.615   5.964 -2.4287 -0.5241  0.4689
 6464SOL    HW231029   3.874   0.712   5.861 -0.8733 -2.4386 -1.2705
 6465SOL     OW31030   3.685   4.658   6.643  0.8387 -0.1105 -0.7771
 6465SOL    HW131031   3.638   4.724   6.694 -0.4842 -0.4900 -1.5016
 6465SOL    HW231032   3.750   4.715   6.602  1.0039  1.2387  1.3464
 6466SOL     OW31033   3.463   3.041   2.312 -0.8050 -0.0797  0.4539
 6466SOL    HW131034   3.525   3.041   2.385 -0.6214 -2.5691  0.2843
 6466SOL    HW231035   3.460   2.948   2.291  0.5296 -0.2751  1.1516
 6467SOL     OW31036   2.335   2.702  17.006 -0.5046 -0.1243 -0.3561
 6467SOL    HW131037   2.270   2.681  17.073 -3.1576  1.3832 -2.5184
 6467SOL    HW231038   2.293   2.690  16.921 -1.6199  0.8750  0.0673
 6468SOL     OW31039   1.772   0.364   5.209  0.5983 -0.1141  0.0510
 6468SOL    HW131040   1.715   0.317   5.148  1.6422 -1.9922  0.5225
 6468SOL    HW231041   1.739   0.452   5.191  0.0154 -0.5631 -1.0569
 6469SOL     OW31042   2.160   0.848   2.664 -0.7726 -0.1320  0.8255
 6469SOL    HW131043   2.123   0.914   2.723 -3.5055 -0.2898 -0.7315
 6469SOL    HW231044   2.128   0.878   2.579 -0.7809  0.1834  0.9387
 6470SOL     OW31045   0.600   0.412   5.772  0.3213 -0.0043  0.2461
 6470SOL    HW131046   0.574   0.440   5.684  3.0227 -0.2863 -0.6654
 6470SOL    HW231047   0.694   0.425   5.760  0.4385 -1.2839 -0.1731
 6471SOL     OW31048   0.343   1.406   8.149  0.4451 -0.3007 -0.2261
 6471SOL    HW131049   0.282   1.430   8.079 -0.8533  0.6321  1.2354
 6471SOL    HW231050   0.381   1.323   8.122 -0.2455 -1.6444  3.0266
 6472SOL     OW31051   2.438   4.245   3.228  0.0736 -0.6498 -0.4913
 6472SOL    HW131052   2.357   4.290   3.202  0.0475 -0.8635 -0.7911
 6472SOL    HW231053   2.462   4.202   3.145  1.4831 -1.4668  0.3376
 6473SOL     OW31054   3.625   1.339   4.564  0.5585 -0.0239 -0.4108
 6473SOL    HW131055   3.673   1.330   4.482  0.3867  2.8837 -0.8356
 6473SOL    HW231056   3.611   1.433   4.574  0.7626  0.0978 -1.2780
 6474SOL     OW31057   0.869   0.167   6.598  0.2452 -0.4109 -0.3197
 6474SOL    HW131058   0.948   0.182   6.547 -0.5928  1.7044 -1.0310
 6474SOL    HW231059   0.808   0.226   6.553  1.2002  0.8146 -0.0088
 6475SOL     OW31060   0.180   1.272   1.895  0.4276  0.2652 -0.9512
 6475SOL    HW131061   0.137   1.190   1.874  1.5174 -0.8273  1.0373
 6475SOL    HW231062   0.250   1.247   1.956 -1.6790  2.5364  2.4244
 6476SOL     OW31063   4.219   4.628   9.884 -0.0383  0.4753  0.3156
 6476SOL    HW131064   4.277   4.580   9.825 -0.3129  1.1246 -0.4904
 6476SOL    HW231065   4.135   4.625   9.839  0.9651 -0.5370 -1.4965
 6477SOL     OW31066   2.214   3.720   5.292 -0.0461  0.5796  0.5073
 6477SOL    HW131067   2.199   3.814   5.283  1.6590  0.7584 -0.4848
 6477SOL    HW231068   2.309   3.722   5.303 -0.3430  0.4063  3.1508
 6478SOL     OW31069   2.185   1.848  17.629 -0.0484 -0.0301  0.1212
 6478SOL    HW131070   2.265   1.804  17.600  0.9844  1.3531  0.9427
 6478SOL    HW231071   2.230   1.920  17.672 -1.5285  1.3075 -0.5611
 6479SOL     OW31072   2.598   2.599   7.583  0.4911 -0.4847 -0.7649
 6479SOL    HW131073   2.540   2.560   7.649  0.9511  0.2536  0.0863
 6479SOL    HW231074   2.539   2.664   7.546  0.4916 -1.4573 -2.4917
 6480SOL     OW31075   0.154   2.269   6.706 -0.1292 -0.1982 -0.0039
 6480SOL    HW131076   0.066   2.234   6.722  0.0808 -0.9001 -0.3685
 6480SOL    HW231077   0.208   2.190   6.703 -1.2598 -1.0668  2.8098
 6481SOL     OW31078   4.512   2.177   4.520  0.3044  0.1606 -0.3739
 6481SOL    HW131079   4.570   2.102   4.507  0.5121  0.5351 -1.6353
 6481SOL    HW231080   4.555   2.242   4.465 -0.7475  0.0166 -1.3728
 6482SOL     OW31081   2.122   1.410   7.768  0.2208 -0.1727 -0.1559
 6482SOL    HW131082   2.115   1.357   7.847 -0.1777 -0.5906 -0.4692
 6482SOL    HW231083   2.104   1.342   7.702 -1.2348  0.5851 -0.5412
 6483SOL     OW31084   1.680   1.471   2.181 -0.0392  0.1600  0.1465
 6483SOL    HW131085   1.771   1.482   2.156  0.8371 -0.7658  2.8934
 6483SOL    HW231086   1.673   1.378   2.202  1.5269 -0.6720 -3.1194
 6484SOL     OW31087   4.698   1.600   7.686 -0.6031  0.6045 -0.4912
 6484SOL    HW131088   4.712   1.550   7.606 -0.0674 -1.8208  1.1166
 6484SOL    HW231089   4.603   1.597   7.694 -0.6135  0.6401 -0.5927
 6485SOL     OW31090   3.557   4.651   5.889 -0.2128 -0.0998 -0.6873
 6485SOL    HW131091   3.550   4.669   5.795 -0.2876  1.7817 -0.3262
 6485SOL    HW231092   3.473   4.681   5.924 -1.2493 -3.7688 -0.0516
 6486SOL     OW31093   2.439   1.448   8.893 -0.2711  0.0022 -0.1385
 6486SOL    HW131094   2.402   1.363   8.868 -0.4257  0.2402 -0.7169
 6486SOL    HW231095   2.416   1.490   8.811  0.4135  1.5397  0.4593
 6487SOL     OW31096   4.664   3.268   3.587 -0.0869  0.2738  0.5404
 6487SOL    HW131097   4.639   3.352   3.549  1.2482  0.6106  0.4052
 6487SOL    HW231098   4.708   3.294   3.668 -0.4325  0.2054  0.7482
 6488SOL     OW31099   1.712   0.024   2.345 -0.3863 -0.7528 -0.9266
 6488SOL    HW131100   1.673   4.691   2.396 -1.3018  0.1228 -0.4235
 6488SOL    HW231101   1.788   0.024   2.403 -2.2246 -0.9934  1.4390
 6489SOL     OW31102   1.702   0.319   1.775 -0.2754  0.3824  0.1413
 6489SOL    HW131103   1.615   0.353   1.796 -0.8879 -0.6954 -0.6033
 6489SOL    HW231104   1.749   0.396   1.745 -1.6935  0.9782 -0.5570
 6490SOL     OW31105   1.107   4.012  16.593 -0.5583  0.0533 -0.1999
 6490SOL    HW131106   1.154   4.070  16.652  0.9065 -2.3862  1.0275
 6490SOL    HW231107   1.090   3.940  16.655  0.7873 -0.4276 -0.3930
 6491SOL     OW31108   2.203   4.087   2.171 -0.0616  0.4105  0.3443
 6491SOL    HW131109   2.170   4.146   2.238  1.4799  2.6798 -0.8849
 6491SOL    HW231110   2.298   4.102   2.169  0.3171 -2.1698 -1.0962
 6492SOL     OW31111   1.518   0.783  16.194  0.3293  0.0333  0.1443
 6492SOL    HW131112   1.475   0.779  16.279 -0.8305  0.6228 -0.4178
 6492SOL    HW231113   1.441   0.792  16.137  0.8522 -0.0382 -0.5780
 6493SOL     OW31114   0.162   1.682   3.967  0.3457 -0.1019 -0.2946
 6493SOL    HW131115   0.070   1.665   3.948 -0.0545  2.3763 -0.5037
 6493SOL    HW231116   0.188   1.754   3.910 -0.2428  0.9264  0.7319
 6494SOL     OW31117   1.927   0.685   5.793 -0.0988 -0.1155 -0.7094
 6494SOL    HW131118   1.927   0.690   5.698 -0.3029 -1.6583 -0.7949
 6494SOL    HW231119   2.019   0.684   5.820 -0.1883 -0.3851 -0.4137
 6495SOL     OW31120   4.689   3.336   1.908  0.1749 -0.3782 -0.5030
 6495SOL    HW131121   4.734   3.413   1.873 -0.9009 -0.0364 -1.1280
 6495SOL    HW231122   0.032   3.285   1.921 -0.5574 -1.1232  1.1782
 6496SOL     OW31123   3.761   2.218  16.373 -0.1927  0.3419  0.5054
 6496SOL    HW131124   3.686   2.180  16.328  1.4367 -0.5078 -1.5231
 6496SOL    HW231125   3.713   2.286  16.419 -0.5946 -0.1380  0.7913
 6497SOL     OW31126   2.236   0.566   8.567 -0.2820  0.3093  0.2395
 6497SOL    HW131127   2.225   0.501   8.497 -3.4696 -0.9951  1.9054
 6497SOL    HW231128   2.238   0.652   8.525 -0.2626 -0.8409 -2.1738
 6498SOL     OW31129   0.528   2.382  16.475  0.0616 -0.2918 -0.1227
 6498SOL    HW131130   0.470   2.450  16.441  1.0621  1.0440  0.8423
 6498SOL    HW231131   0.577   2.344  16.402  0.8296  0.8906 -0.2135
 6499SOL     OW31132   3.344   2.471   2.124  0.1410  0.1137  0.1078
 6499SOL    HW131133   3.407   2.419   2.173  0.8868  0.0453 -0.9293
 6499SOL    HW231134   3.398   2.544   2.093  0.3734 -0.3808 -0.6551
 6500SOL     OW31135   4.107   4.494  13.406 -0.1022  0.1889  0.4796
 6500SOL    HW131136   4.090   4.403  13.381  1.6290 -0.1782  0.6741
 6500SOL    HW231137   4.075   4.552  13.337  3.0897  1.0426 -0.2756
 6501SOL     OW31138   1.776   0.689  15.684 -0.0777  0.0033  0.3228
 6501SOL    HW131139   1.780   0.676  15.779 -1.1535 -2.3134  0.0400
 6501SOL    HW231140   1.863   0.670  15.650 -0.6663  0.3855 -1.3753
 6502SOL     OW31141   2.422   1.464  17.178 -0.2676 -0.1452  0.1794
 6502SOL    HW131142   2.394   1.454  17.268 -1.2025 -0.3747 -0.1386
 6502SOL    HW231143   2.362   1.399  17.142  0.6197  0.6919 -2.8334
 6503SOL     OW31144   0.730   4.024   4.896  0.2191  0.5362  0.0430
 6503SOL    HW131145   0.793   4.074   4.844  2.5571 -3.6188 -1.1138
 6503SOL    HW231146   0.774   4.012   4.980  0.1591 -3.5161 -0.4667
 6504SOL     OW31147   1.015   3.656  17.712 -0.4465  0.0329 -0.0737
 6504SOL    HW131148   1.077   3.719  17.748  0.3225  0.3026 -1.8694
 6504SOL    HW231149   0.984   3.706  17.636 -1.0085 -1.0922 -0.6000
 6505SOL     OW31150   1.517   0.107   7.136  0.1389  0.3028  0.1200
 6505SOL    HW131151   1.431   0.072   7.157  1.0612 -1.7441  0.4857
 6505SOL    HW231152   1.546   0.137   7.222  2.4039  0.2673 -0.6329
 6506SOL     OW31153   1.348   1.617   1.486 -0.5347 -0.0754 -0.1650
 6506SOL    HW131154   1.419   1.553   1.497 -0.3008  0.2034 -0.0714
 6506SOL    HW231155   1.352   1.655   1.574 -1.5455 -1.7658  0.6226
 6507SOL     OW31156   0.349   2.697   3.732 -0.6280  0.1449 -0.4274
 6507SOL    HW131157   0.425   2.711   3.676  1.1204 -0.4338  1.8275
 6507SOL    HW231158   0.377   2.749   3.808 -1.0493 -3.3466  2.1050
 6508SOL     OW31159   3.067   3.716   6.446 -0.0271  0.4844 -0.0330
 6508SOL    HW131160   2.992   3.769   6.475  0.0427  1.6513 -1.9822
 6508SOL    HW231161   3.016   3.658   6.390  0.0706 -0.8352  1.2601
 6509SOL     OW31162   1.994   2.142   5.872  0.3928  0.1028 -0.1593
 6509SOL    HW131163   1.960   2.081   5.937  0.0843  1.8439  1.3033
 6509SOL    HW231164   2.076   2.170   5.913  0.7949  0.0504 -0.9376
 6510SOL     OW31165   2.841   3.740   2.708 -0.1113 -0.2367 -0.2050
 6510SOL    HW131166   2.921   3.693   2.730  0.9985  1.4388 -0.6595
 6510SOL    HW231167   2.776   3.688   2.755  1.3900 -2.5316 -0.6564
 6511SOL     OW31168   3.287   4.131   7.535  0.2464  0.2570  0.2488
 6511SOL    HW131169   3.270   4.066   7.603  0.1544  0.8030  0.7449
 6511SOL    HW231170   3.380   4.126   7.513  0.0449 -1.3067 -0.2180
 6512SOL     OW31171   4.594   1.552   5.305 -0.4515 -0.1693 -0.0864
 6512SOL    HW131172   4.534   1.603   5.251  1.0353  1.6890  0.0315
 6512SOL    HW231173   4.626   1.623   5.361  0.4972  0.7022 -1.7480
 6513SOL     OW31174   0.849   0.267  15.141  0.4408 -0.0846 -0.1327
 6513SOL    HW131175   0.776   0.323  15.114 -0.6327 -2.4147 -2.0971
 6513SOL    HW231176   0.810   0.183  15.115  1.9399 -0.2918 -1.7255
 6514SOL     OW31177   1.880   3.206  12.197  0.1878 -0.3787 -0.1953
 6514SOL    HW131178   1.811   3.167  12.143 -2.6421  0.3302  2.9902
 6514SOL    HW231179   1.954   3.157  12.160 -0.2089 -0.6122 -0.6942
 6515SOL     OW31180   1.870   3.222  15.075  0.2084  0.1303 -0.2888
 6515SOL    HW131181   1.807   3.201  15.144  0.6339  0.0818  0.0812
 6515SOL    HW231182   1.822   3.272  15.009  1.6569 -0.6209 -1.9077
 6516SOL     OW31183   3.810   2.295  15.428  0.4420  0.1307  0.1836
 6516SOL    HW131184   3.823   2.230  15.359 -1.4127 -0.0211 -0.0376
 6516SOL    HW231185   3.750   2.349  15.377  0.9062  0.5122  0.0444
 6517SOL     OW31186   3.660   4.375   7.403  0.8211  0.0365  0.1252
 6517SOL    HW131187   3.577   4.403   7.367  0.5844 -0.5181  0.2318
 6517SOL    HW231188   3.630   4.293   7.442 -0.2909  0.0283 -0.7591
 6518SOL     OW31189   3.171   0.799  16.201 -0.2960  0.6169  0.0339
 6518SOL    HW131190   3.154   0.799  16.295 -0.8575 -1.8401 -0.0612
 6518SOL    HW231191   3.096   0.850  16.171  1.6430  2.5338 -1.4754
 6519SOL     OW31192   1.498   0.295   5.375 -0.1986 -0.2525 -0.5740
 6519SOL    HW131193   1.426   0.342   5.334 -1.5381 -0.9984  0.9174
 6519SOL    HW231194   1.533   0.373   5.417 -0.5873 -0.3194 -0.1283
 6520SOL     OW31195   2.133   0.604   2.332 -0.2217  0.9231  0.2397
 6520SOL    HW131196   2.105   0.514   2.346 -0.4306  0.7275 -1.4774
 6520SOL    HW231197   2.228   0.603   2.316 -0.1455  0.1526  0.7453
 6521SOL     OW31198   2.325   2.417   5.071 -0.0782  0.0766 -0.1866
 6521SOL    HW131199   2.302   2.494   5.019  2.9444  1.3037  0.2708
 6521SOL    HW231200   2.240   2.377   5.089 -0.0132 -1.0161 -2.2428
 6522SOL     OW31201   3.653   3.437  12.056 -0.7109 -0.0318  0.1616
 6522SOL    HW131202   3.647   3.342  12.042 -1.7744  0.0987 -0.2473
 6522SOL    HW231203   3.560   3.460  12.050 -0.7388  0.0380  0.8222
 6523SOL     OW31204   0.725   0.565  12.396 -0.7276  0.2276 -0.2350
 6523SOL    HW131205   0.651   0.504  12.392  0.4211 -1.0220 -2.1753
 6523SOL    HW231206   0.754   0.589  12.308 -0.6869  2.1067  0.2961
 6524SOL     OW31207   2.764   1.651   1.069  0.3961  0.2678  0.1686
 6524SOL    HW131208   2.686   1.707   1.069  0.4227  0.3026  1.2172
 6524SOL    HW231209   2.818   1.708   1.014 -0.3804  1.5204  0.6971
 6525SOL     OW31210   0.593   1.780   0.223 -0.1689 -0.5432  0.0442
 6525SOL    HW131211   0.609   1.730   0.303 -0.9774 -0.7220  0.0984
 6525SOL    HW231212   0.575   1.867   0.258  1.4981  0.7200 -2.2292
 6526SOL     OW31213   2.287   0.550   5.375  0.2925  0.4329 -0.1673
 6526SOL    HW131214   2.351   0.482   5.396 -0.9697 -0.6206  0.2372
 6526SOL    HW231215   2.274   0.575   5.466 -3.4192  3.1605 -1.4615
 6527SOL     OW31216   0.479   0.335   8.887 -0.0362  0.1143 -0.1914
 6527SOL    HW131217   0.416   0.294   8.946 -3.1134  0.3526 -3.2867
 6527SOL    HW231218   0.517   0.398   8.948 -1.7329 -0.6852  1.6824
 6528SOL     OW31219   1.089   2.718   5.510 -0.3790 -0.4308 -0.2336
 6528SOL    HW131220   1.160   2.763   5.556  0.1264 -0.2447 -1.2002
 6528SOL    HW231221   1.123   2.702   5.422  1.6746 -0.6247  0.5853
 6529SOL     OW31222   1.245   3.126   6.030  0.2232  0.0913  0.5676
 6529SOL    HW131223   1.247   3.039   6.070 -2.5593 -0.3071 -0.1170
 6529SOL    HW231224   1.150   3.137   6.029  0.2304  0.0027 -1.0304
 6530SOL     OW31225   2.671   3.568   2.968  0.5657  0.3236 -0.1984
 6530SOL    HW131226   2.715   3.494   3.010  2.1692 -0.2375 -2.8576
 6530SOL    HW231227   2.585   3.558   3.009  0.7373 -0.3065  0.0110
 6531SOL     OW31228   3.793   1.993  17.424  0.7197 -0.1176 -0.3709
 6531SOL    HW131229   3.725   2.057  17.401  0.2693 -0.8921 -1.2339
 6531SOL    HW231230   3.782   1.924  17.357 -1.3277 -0.7000  0.5520
 6532SOL     OW31231   2.567   0.166   2.897 -0.2055  0.0911 -0.0031
 6532SOL    HW131232   2.631   0.175   2.826 -0.2567  1.2695  0.0941
 6532SOL    HW231233   2.509   0.242   2.896  0.3584  0.5528  2.0958
 6533SOL     OW31234   0.512   3.357   3.498  0.4456  0.5118 -0.3646
 6533SOL    HW131235   0.449   3.286   3.493 -0.1940  1.0583 -0.0568
 6533SOL    HW231236   0.498   3.379   3.591  1.1501  0.5438 -0.2645
 6534SOL     OW31237   0.051   1.218   8.757  0.1885 -0.3767  0.3927
 6534SOL    HW131238   0.010   1.184   8.836 -0.2909 -1.1615 -0.1863
 6534SOL    HW231239   0.106   1.141   8.743 -0.2891 -0.9056  1.4330
 6535SOL     OW31240   2.082   4.640  16.190 -0.1478  0.1813  0.0977
 6535SOL    HW131241   2.176   4.653  16.182  0.1052 -1.2428  0.8810
 6535SOL    HW231242   2.057   4.722  16.147 -0.5391  1.6240  3.0410
 6536SOL     OW31243   3.578   2.593   3.011  0.7562 -0.3311 -0.5364
 6536SOL    HW131244   3.594   2.525   2.945 -1.6332  0.9473 -2.4265
 6536SOL    HW231245   3.485   2.606   2.992  0.0317 -0.4269  2.9116
 6537SOL     OW31246   0.449   3.568  11.314  0.4336 -0.2256  0.4310
 6537SOL    HW131247   0.499   3.574  11.232  0.9072  1.4839  0.8367
 6537SOL    HW231248   0.503   3.532  11.384 -2.4899 -1.9364  1.7942
 6538SOL     OW31249   3.002   2.218   1.880  0.3113  0.0598 -0.1871
 6538SOL    HW131250   2.994   2.218   1.975 -1.0327  0.4965 -0.2987
 6538SOL    HW231251   3.049   2.300   1.866  2.8057 -1.5874 -1.4114
 6539SOL     OW31252   4.553   2.229  12.635 -0.3435 -0.0771 -0.8974
 6539SOL    HW131253   4.625   2.206  12.575  1.7485  0.0146  1.5833
 6539SOL    HW231254   4.475   2.213  12.583  0.0547  0.8543 -1.7809
 6540SOL     OW31255   1.741   3.000  15.194  0.6533 -0.0755  0.0644
 6540SOL    HW131256   1.792   2.923  15.168 -1.9704 -2.2613  1.5078
 6540SOL    HW231257   1.813   3.054  15.227  2.0705 -0.1658 -2.8652
 6541SOL     OW31258   1.465   2.109   6.925  0.1208 -0.3612  0.2703
 6541SOL    HW131259   1.520   2.157   6.863  1.6083 -1.1660  0.9708
 6541SOL    HW231260   1.460   2.166   7.002  0.7135 -1.9744  1.5168
 6542SOL     OW31261   1.020   4.262   0.417 -0.5172  0.0654  0.0341
 6542SOL    HW131262   0.956   4.237   0.484 -0.9612 -0.1856 -0.4824
 6542SOL    HW231263   0.966   4.282   0.341  1.8563 -1.5114 -2.0575
 6543SOL     OW31264   3.110   1.561   1.314  0.1010 -0.7749 -0.2494
 6543SOL    HW131265   3.170   1.492   1.340  0.2504 -0.5749 -0.0550
 6543SOL    HW231266   3.181   1.616   1.281 -1.1735  0.4678 -0.9218
 6544SOL     OW31267   3.855   3.981   9.055  0.2735  0.7818  0.0042
 6544SOL    HW131268   3.936   4.010   9.098  0.3050  0.1762  0.3556
 6544SOL    HW231269   3.849   3.888   9.080  0.0937  0.4894 -1.1539
 6545SOL     OW31270   2.710   2.510   6.410 -0.0357 -0.0438  0.1511
 6545SOL    HW131271   2.802   2.486   6.424  0.0776 -0.4631 -1.2503
 6545SOL    HW231272   2.683   2.566   6.482 -0.6451  0.7364 -0.6868
 6546SOL     OW31273   2.391   2.196   4.060 -0.0812 -0.0054  0.0901
 6546SOL    HW131274   2.424   2.282   4.036 -0.8032 -0.1518 -1.4256
 6546SOL    HW231275   2.326   2.224   4.125 -1.1949 -0.9981 -0.5953
 6547SOL     OW31276   4.047   3.628   4.139  0.2861 -0.4509 -0.1634
 6547SOL    HW131277   3.952   3.644   4.138  0.1255 -1.3390  0.1467
 6547SOL    HW231278   4.058   3.553   4.080  0.4940  0.0358 -0.7406
 6548SOL     OW31279   0.625   2.870   4.769  0.2366  0.3181  0.4860
 6548SOL    HW131280   0.634   2.941   4.832 -0.5218 -0.0312  0.9936
 6548SOL    HW231281   0.544   2.829   4.800  0.4886  1.4839  2.7604
 6549SOL     OW31282   1.044   0.230  10.294 -0.1068 -0.2825  0.1974
 6549SOL    HW131283   1.026   0.324  10.295  0.9656 -0.0655 -1.9653
 6549SOL    HW231284   1.139   0.240  10.293 -0.1019 -0.2579  0.6011
 6550SOL     OW31285   2.031   3.740  17.337  0.5552 -0.1048 -0.0420
 6550SOL    HW131286   2.027   3.814  17.276 -1.1232 -0.3944 -0.2880
 6550SOL    HW231287   1.949   3.696  17.314  0.5573 -0.1016 -0.0560
 6551SOL     OW31288   3.181   0.388  13.889  0.6170 -0.1651  0.3755
 6551SOL    HW131289   3.189   0.302  13.845 -2.1885  1.1232 -2.6323
 6551SOL    HW231290   3.225   0.446  13.827 -0.9247  1.8228  1.1682
 6552SOL     OW31291   2.193   1.980  16.254 -0.1019 -0.0159 -0.2828
 6552SOL    HW131292   2.276   2.027  16.244 -0.1905 -0.0757 -1.3210
 6552SOL    HW231293   2.172   1.942  16.168 -1.7383  1.1514 -0.4133
 6553SOL     OW31294   4.062   4.657   8.151 -0.5080 -0.2783 -0.0265
 6553SOL    HW131295   4.137   4.701   8.192 -2.2034 -0.5132  3.3880
 6553SOL    HW231296   4.098   4.577   8.114 -0.3860  0.1334 -0.7914
 6554SOL     OW31297   4.242   2.856  10.323  0.0740 -0.2417 -0.6356
 6554SOL    HW131298   4.324   2.820  10.289  0.4866  2.6257 -2.6553
 6554SOL    HW231299   4.254   2.844  10.417 -0.7279  1.3809 -0.3196
 6555SOL     OW31300   1.285   0.965   1.547  0.3186 -0.0046 -0.0445
 6555SOL    HW131301   1.324   0.928   1.468 -0.2517 -1.4838  0.3819
 6555SOL    HW231302   1.331   0.927   1.621 -1.9728 -1.7405  0.4794
 6556SOL     OW31303   2.076   1.526   5.095 -0.0513 -0.0717  0.2947
 6556SOL    HW131304   2.129   1.528   5.016 -0.3196 -2.0314  0.0638
 6556SOL    HW231305   2.005   1.468   5.065  0.3247 -1.1475  1.4633
 6557SOL     OW31306   0.626   0.320   2.889  0.1693 -0.2613  0.3491
 6557SOL    HW131307   0.673   0.364   2.818  2.6271 -2.9997  0.2787
 6557SOL    HW231308   0.634   0.385   2.958 -3.2961 -0.8325  1.3247
 6558SOL     OW31309   0.382   2.904  12.010  0.0804 -0.0735 -0.7497
 6558SOL    HW131310   0.468   2.898  11.968  0.7354 -1.1008  0.7693
 6558SOL    HW231311   0.400   2.870  12.097  2.9243 -0.3989 -1.4648
 6559SOL     OW31312   1.238   3.662   0.315 -0.1713 -0.8860 -0.4811
 6559SOL    HW131313   1.224   3.695   0.226  1.4368  0.5923 -0.1890
 6559SOL    HW231314   1.327   3.624   0.315  0.7784  1.3618 -2.3041
 6560SOL     OW31315   2.166   0.604   3.067 -0.0420  0.0883  0.5508
 6560SOL    HW131316   2.160   0.512   3.041  0.3091  0.8681 -2.3102
 6560SOL    HW231317   2.242   0.638   3.019  1.1827  1.5837  3.5938
 6561SOL     OW31318   1.486   3.820   0.151 -0.4558 -0.1851 -0.7172
 6561SOL    HW131319   1.567   3.832   0.101  0.4966  0.4584  1.0066
 6561SOL    HW231320   1.505   3.742   0.204 -1.3508  0.2784  0.2708
 6562SOL     OW31321   0.418   1.798   5.191  0.3022  0.1775  0.0389
 6562SOL    HW131322   0.409   1.717   5.241  0.9475  1.1918  1.8358
 6562SOL    HW231323   0.333   1.799   5.147  0.1543  1.2375  0.3284
 6563SOL     OW31324   0.283   2.577   6.310 -0.0776 -0.0383  0.2655
 6563SOL    HW131325   0.231   2.499   6.331 -0.8686  0.8278  1.5429
 6563SOL    HW231326   0.250   2.642   6.372 -0.2272 -1.0091  1.2239
 6564SOL     OW31327   4.107   2.100   4.908  0.2963 -0.1579 -0.4830
 6564SOL    HW131328   4.178   2.113   4.845  0.9616 -1.5048 -0.0195
 6564SOL    HW231329   4.119   2.009   4.936  0.7089 -0.3982 -1.4587
 6565SOL     OW31330   0.153   0.102   1.622 -0.0523  0.2196 -0.3696
 6565SOL    HW131331   0.185   0.012   1.629 -0.6221 -0.0369 -1.0000
 6565SOL    HW231332   0.213   0.131   1.553  0.7386 -0.4157  0.0606
 6566SOL     OW31333   3.136   2.379  10.426  0.0100  0.1010 -0.4905
 6566SOL    HW131334   3.133   2.401  10.333 -1.3308 -0.5697 -0.5999
 6566SOL    HW231335   3.091   2.450  10.470 -0.1671 -1.1767  1.4139
 6567SOL     OW31336   2.941   4.310   8.636  0.0938 -0.2898  0.1640
 6567SOL    HW131337   2.967   4.282   8.724  1.6775 -1.1696 -0.5943
 6567SOL    HW231338   2.961   4.230   8.588 -0.2380 -1.6677  2.2745
 6568SOL     OW31339   0.345   4.571   1.779  0.0464 -0.0016 -0.1620
 6568SOL    HW131340   0.370   4.523   1.858 -1.1494 -0.0924  0.1756
 6568SOL    HW231341   0.424   4.621   1.759  0.4917  0.0739  1.8278
 6569SOL     OW31342   1.973   1.777   6.293 -0.2192 -0.1870 -0.3616
 6569SOL    HW131343   1.928   1.701   6.331  0.1290 -0.1578  0.1203
 6569SOL    HW231344   2.047   1.740   6.245  1.6424  0.2922  2.0709
 6570SOL     OW31345   1.346   1.445   0.344 -0.2594  0.2645 -0.6202
 6570SOL    HW131346   1.343   1.460   0.438  1.7267  0.3261 -0.5626
 6570SOL    HW231347   1.363   1.530   0.302  0.4301 -0.0307 -0.9289
 6571SOL     OW31348   4.122   1.531  16.352 -0.3940  0.1352 -0.0228
 6571SOL    HW131349   4.114   1.436  16.361 -1.7659  0.2862  0.2602
 6571SOL    HW231350   4.215   1.527  16.377 -0.3373 -1.5629 -0.4915
 6572SOL     OW31351   2.919   2.790   0.194 -0.1684  0.0325 -0.1587
 6572SOL    HW131352   2.911   2.765   0.102  2.7116 -0.4421 -0.2747
 6572SOL    HW231353   3.013   2.785   0.208 -0.2595 -3.6583 -0.8785
 6573SOL     OW31354   3.262   2.182   2.544 -0.6928  0.1711 -0.2275
 6573SOL    HW131355   3.348   2.208   2.577  0.1127 -3.1301  0.2732
 6573SOL    HW231356   3.280   2.163   2.452 -2.3236 -1.8203 -0.1383
 6574SOL     OW31357   2.435   2.561   4.228 -0.4226  0.8877 -0.2162
 6574SOL    HW131358   2.418   2.532   4.139  0.6022 -0.0667 -0.1118
 6574SOL    HW231359   2.347   2.564   4.264  0.1562  0.9218  1.1915
 6575SOL     OW31360   1.172   1.456   8.618  0.2495 -0.0652  0.3280
 6575SOL    HW131361   1.110   1.502   8.561  1.6555 -0.0996 -1.2258
 6575SOL    HW231362   1.103   1.410   8.667 -0.8839 -0.2251 -1.4139
 6576SOL     OW31363   0.170   3.698   5.092 -0.0620 -0.1586 -0.5964
 6576SOL    HW131364   0.125   3.736   5.168 -0.1574 -0.0904 -0.6864
 6576SOL    HW231365   0.242   3.654   5.137  0.4066 -1.1383 -2.3270
 6577SOL     OW31366   4.211   3.696  10.572  0.0251  0.2225  0.6147
 6577SOL    HW131367   4.281   3.652  10.524 -0.5465 -0.4114  0.3504
 6577SOL    HW231368   4.182   3.625  10.629  0.0399 -0.1207  0.2015
 6578SOL     OW31369   2.423   3.909  16.473  0.0964 -0.2413  0.0970
 6578SOL    HW131370   2.474   3.934  16.397 -0.8359 -1.8490 -1.0571
 6578SOL    HW231371   2.451   3.975  16.537 -2.0338 -0.6983  1.5005
 6579SOL     OW31372   3.746   3.707  17.591 -0.5887 -0.1555 -0.0016
 6579SOL    HW131373   3.785   3.755  17.664 -0.3520 -0.4335  0.0535
 6579SOL    HW231374   3.763   3.756  17.511  2.5001  1.0511  1.4164
 6580SOL     OW31375   0.049   4.576  15.322  0.0962  0.5507 -0.4090
 6580SOL    HW131376   0.108   4.563  15.396 -0.7037  0.0793  0.1434
 6580SOL    HW231377   0.046   4.671  15.310 -0.2554  0.7075  0.9378
 6581SOL     OW31378   0.242   2.380   8.518  0.2458 -0.1761 -1.5068
 6581SOL    HW131379   0.216   2.368   8.609 -3.0488  1.8937 -2.1686
 6581SOL    HW231380   0.226   2.291   8.486  0.4513 -1.7420  2.8160
 6582SOL     OW31381   0.518   1.911   6.432 -0.4547  0.4419 -0.0305
 6582SOL    HW131382   0.502   1.930   6.524  0.7869  0.0506  0.2581
 6582SOL    HW231383   0.455   1.978   6.405 -1.1259 -0.7156 -1.3615
 6583SOL     OW31384   0.029   3.836   7.909 -0.1721 -0.6419 -0.1693
 6583SOL    HW131385   4.706   3.849   7.982  0.4713 -2.1621  0.6187
 6583SOL    HW231386   0.097   3.775   7.937 -0.5025 -1.0164 -0.1819
 6584SOL     OW31387   0.988   2.164  10.975 -0.2045 -0.1313  0.0429
 6584SOL    HW131388   0.939   2.189  10.896  1.3301  1.2819 -0.4729
 6584SOL    HW231389   1.081   2.170  10.952 -0.5421  1.4132 -0.9266
 6585SOL     OW31390   2.993   0.600   2.725 -0.5451 -0.0442 -0.0094
 6585SOL    HW131391   3.056   0.647   2.780 -1.5303  0.8913  0.3339
 6585SOL    HW231392   2.918   0.595   2.785  0.5273  4.6641  1.7695
 6586SOL     OW31393   4.494   3.919   4.676 -0.5469  0.8603 -0.5480
 6586SOL    HW131394   4.531   3.912   4.764 -1.9017  0.4949 -0.0108
 6586SOL    HW231395   4.434   3.845   4.683  0.7161  0.0759  1.9367
 6587SOL     OW31396   0.116   0.062   3.102  0.3914  0.3259  0.5222
 6587SOL    HW131397   0.207   0.033   3.095 -0.2663 -1.4249 -0.5909
 6587SOL    HW231398   0.130   0.154   3.128  0.6334  0.7782 -1.2055
 6588SOL     OW31399   2.870   2.695   6.149  0.8408  0.0920  0.4470
 6588SOL    HW131400   2.781   2.726   6.132  0.8845  0.3636  0.7018
 6588SOL    HW231401   2.923   2.729   6.077  1.6335  0.4518  1.1939
 6589SOL     OW31402   2.226   3.715  17.520 -0.3667  0.3829 -0.1418
 6589SOL    HW131403   2.155   3.719  17.456 -0.5540 -0.0863  0.0313
 6589SOL    HW231404   2.277   3.784  17.479 -0.8599  0.7511 -0.1303
 6590SOL     OW31405   1.367   0.085  15.541 -0.2439  0.0948  0.0239
 6590SOL    HW131406   1.396   4.737  15.508 -0.5954  0.8020 -2.1392
 6590SOL    HW231407   1.429   0.145  15.500  0.0635  0.3709  0.9075
 6591SOL     OW31408   1.781   1.880   5.883 -0.2708 -0.1964 -0.0228
 6591SOL    HW131409   1.832   1.830   5.819  0.5146 -0.1978  0.6163
 6591SOL    HW231410   1.701   1.826   5.882 -0.9313  0.7899 -0.5668
 6592SOL     OW31411   0.780   3.827   3.190  0.3487 -0.2445  0.4268
 6592SOL    HW131412   0.821   3.782   3.264  0.6750  1.6947  1.4196
 6592SOL    HW231413   0.728   3.754   3.156 -2.0988  1.0785  1.3151
 6593SOL     OW31414   2.644   1.460   4.133 -0.3243 -0.1552  0.5560
 6593SOL    HW131415   2.706   1.479   4.204  0.8141 -0.5664 -0.3303
 6593SOL    HW231416   2.670   1.368   4.126 -1.5253 -0.6163  2.1165
 6594SOL     OW31417   2.730   1.966  15.335  0.0850 -0.3350 -0.1846
 6594SOL    HW131418   2.824   1.981  15.339 -0.0024 -0.1073  1.0007
 6594SOL    HW231419   2.698   2.021  15.406  1.3395  0.9193 -0.6146
 6595SOL     OW31420   0.282   3.695   1.656 -0.0123 -0.1798  0.5125
 6595SOL    HW131421   0.304   3.632   1.587 -1.1431  1.5981 -1.4689
 6595SOL    HW231422   0.363   3.690   1.707 -0.0657  0.8807  0.6919
 6596SOL     OW31423   2.847   4.232   5.858 -0.0201  0.3724  0.1708
 6596SOL    HW131424   2.818   4.316   5.822 -1.4316 -0.5672 -0.8920
 6596SOL    HW231425   2.923   4.205   5.806 -0.0508  0.6473 -0.0209
 6597SOL     OW31426   3.548   2.278   8.240  0.4386 -0.4408 -0.4999
 6597SOL    HW131427   3.494   2.228   8.302 -1.0957 -1.7342 -2.8997
 6597SOL    HW231428   3.544   2.363   8.284  0.2372 -0.8091  0.1992
 6598SOL     OW31429   3.775   1.318   2.654  0.7235 -0.8766 -0.4193
 6598SOL    HW131430   3.735   1.244   2.609 -0.1519  0.2082 -1.4154
 6598SOL    HW231431   3.843   1.277   2.707  0.5127 -0.2882  0.3049
 6599SOL     OW31432   0.695   4.306   5.834 -0.2751  0.6047 -0.1156
 6599SOL    HW131433   0.661   4.291   5.922 -0.2578 -1.5895 -0.4827
 6599SOL    HW231434   0.778   4.345   5.859  0.6608 -1.5524  0.1538
 6600SOL     OW31435   2.286   0.371   9.117 -0.1148  0.0472 -0.1785
 6600SOL    HW131436   2.245   0.285   9.115 -2.7971  1.3364  0.4734
 6600SOL    HW231437   2.353   0.362   9.049  0.0090 -1.2117  0.1139
 6601SOL     OW31438   2.467   3.265   2.301 -0.3340 -0.0500  0.4053
 6601SOL    HW131439   2.398   3.319   2.340 -0.1072  0.9970 -0.6251
 6601SOL    HW231440   2.523   3.335   2.266  1.1794 -1.8780 -0.8548
 6602SOL     OW31441   2.572   1.907   7.494  0.7271 -0.3772 -0.0917
 6602SOL    HW131442   2.608   1.960   7.565  0.6236  0.9392 -1.0260
 6602SOL    HW231443   2.597   1.818   7.517 -0.2330  0.3398  3.8278
 6603SOL     OW31444   4.100   1.112   2.431 -0.7129 -0.0268 -0.6684
 6603SOL    HW131445   4.176   1.146   2.383 -0.2299  0.1765  0.2241
 6603SOL    HW231446   4.108   1.149   2.519  0.5801  0.4152 -0.9672
 6604SOL     OW31447   3.867   0.577   8.800 -0.5329  0.0781  0.6544
 6604SOL    HW131448   3.876   0.665   8.765 -3.7464 -0.1131 -0.6799
 6604SOL    HW231449   3.958   0.572   8.831  0.4633  1.3327 -2.0323
 6605SOL     OW31450   2.177   3.592   2.842  0.0001 -0.0948 -0.2202
 6605SOL    HW131451   2.117   3.667   2.848 -0.5278 -0.6416  1.5588
 6605SOL    HW231452   2.212   3.600   2.754 -0.6397  0.4268 -0.4277
 6606SOL     OW31453   4.128   0.606   8.851 -0.1901  0.4375  0.4187
 6606SOL    HW131454   4.194   0.560   8.902 -0.8574 -0.0604  0.8281
 6606SOL    HW231455   4.179   0.638   8.777  1.5213  0.8807  1.7684
 6607SOL     OW31456   4.615   4.010   8.405 -0.0263 -0.1078  0.5311
 6607SOL    HW131457   4.709   4.013   8.391  0.0430 -0.7970  0.8313
 6607SOL    HW231458   4.617   4.014   8.501  0.8318  1.1025  0.4627
 6608SOL     OW31459   4.187   3.993  16.524  0.5186  0.0237  0.2877
 6608SOL    HW131460   4.198   3.928  16.594  0.3406 -1.4214 -1.0071
 6608SOL    HW231461   4.118   4.047  16.560  0.0637 -0.6303  0.4060
 6609SOL     OW31462   2.565   2.141   4.552  0.0019 -0.2732 -0.0732
 6609SOL    HW131463   2.520   2.058   4.536 -1.0225  0.8408 -2.9551
 6609SOL    HW231464   2.537   2.199   4.481  1.6522  1.5253  0.7477
 6610SOL     OW31465   2.097   3.024   2.329 -0.1916 -0.2077  0.2784
 6610SOL    HW131466   2.083   2.981   2.245 -0.5736 -1.2444  0.8684
 6610SOL    HW231467   2.192   3.022   2.338 -0.1820  1.7564  0.5286
 6611SOL     OW31468   3.021   1.320   4.874  1.0383  0.6231 -0.5139
 6611SOL    HW131469   3.051   1.410   4.886  0.8328  0.4093  1.6568
 6611SOL    HW231470   3.090   1.291   4.814  3.4142  0.3027  2.3746
 6612SOL     OW31471   0.631   0.177   0.237 -0.0350  0.2216  0.5577
 6612SOL    HW131472   0.563   0.235   0.203  0.9142  0.6120 -0.6871
 6612SOL    HW231473   0.696   0.181   0.166 -0.1006 -0.8808  0.4326
 6613SOL     OW31474   0.317   4.076   7.794  0.5908  0.4931 -0.6739
 6613SOL    HW131475   0.244   4.086   7.734 -1.3982 -1.7443  1.3676
 6613SOL    HW231476   0.366   4.004   7.753  0.0252  0.1006 -0.6657
 6614SOL     OW31477   0.373   2.610   5.511 -0.7077  0.3272 -0.1365
 6614SOL    HW131478   0.287   2.648   5.529 -0.5764  1.6586 -2.2787
 6614SOL    HW231479   0.420   2.660   5.577 -3.3306  0.3345  1.7064
 6615SOL     OW31480   0.032   0.140   7.741 -0.4299  0.5122 -0.6208
 6615SOL    HW131481   4.720   0.143   7.823  2.1939  3.4729  0.8634
 6615SOL    HW231482   4.700   0.107   7.684 -0.5165  0.2889 -0.3863
 6616SOL     OW31483   1.907   2.585  17.073  0.2910  0.0741  0.4811
 6616SOL    HW131484   1.867   2.503  17.044 -1.7542  0.8741  1.0296
 6616SOL    HW231485   2.000   2.565  17.059 -0.0551 -3.2932  3.1716
 6617SOL     OW31486   1.410   2.290  11.955 -0.7749  0.4053 -0.1582
 6617SOL    HW131487   1.461   2.209  11.960 -2.4910 -0.4940  2.5353
 6617SOL    HW231488   1.470   2.333  11.894  1.9576 -2.9370  0.1174
 6618SOL     OW31489   3.418   3.523   8.279 -0.4067  0.0256  0.2420
 6618SOL    HW131490   3.324   3.541   8.283 -0.2683  0.7593  0.1069
 6618SOL    HW231491   3.445   3.604   8.324 -0.5370 -1.2828  2.7051
 6619SOL     OW31492   2.259   1.185  11.124 -0.5685 -0.2741 -0.0464
 6619SOL    HW131493   2.272   1.241  11.200 -0.4777  0.0999 -0.3404
 6619SOL    HW231494   2.352   1.164  11.120 -0.2724  1.1697 -0.7370
 6620SOL     OW31495   0.921   2.023   7.412 -0.7803 -0.4439 -0.6319
 6620SOL    HW131496   0.869   2.031   7.332  0.2068 -2.2079 -1.4510
 6620SOL    HW231497   0.950   1.932   7.403 -1.2919 -0.5788 -0.8969
 6621SOL     OW31498   0.037   3.243   7.567 -0.5779 -0.4647  0.3068
 6621SOL    HW131499   0.072   3.298   7.497 -0.4392 -1.0896 -0.1180
 6621SOL    HW231500   4.712   3.297   7.616 -0.8659  0.2358 -0.8279
 6622SOL     OW31501   1.971   0.094   9.315  0.1253 -0.8690 -0.0081
 6622SOL    HW131502   1.998   0.002   9.325  1.8907 -0.8080 -4.2953
 6622SOL    HW231503   2.035   0.122   9.250  1.4267 -2.0935  0.7201
 6623SOL     OW31504   4.384   1.211   5.031  0.3558 -0.5077 -0.1318
 6623SOL    HW131505   4.427   1.294   5.049 -1.5534  0.0426  1.8799
 6623SOL    HW231506   4.452   1.145   5.045  0.3366 -0.2846  1.0260
 6624SOL     OW31507   4.137   4.035   8.945  0.1782 -0.3829  0.5097
 6624SOL    HW131508   4.169   3.988   9.022  2.5254 -3.0284 -2.0920
 6624SOL    HW231509   4.218   4.034   8.894 -1.1691  0.4995 -1.6403
 6625SOL     OW31510   0.887   0.137   6.892 -0.0793  0.4565 -0.0240
 6625SOL    HW131511   0.975   0.172   6.911 -0.0573  0.1340  0.4785
 6625SOL    HW231512   0.881   0.147   6.797  0.8565  0.5384 -0.0755
 6626SOL     OW31513   1.499   1.640   7.682 -0.1012  0.5123  0.2910
 6626SOL    HW131514   1.542   1.565   7.640 -2.2961  0.2298 -1.4527
 6626SOL    HW231515   1.542   1.628   7.767 -1.6660  0.5261  1.0848
 6627SOL     OW31516   4.044   4.057   1.974 -0.0758 -0.1878  0.3170
 6627SOL    HW131517   4.017   4.139   1.932 -2.6874 -0.8369  0.7061
 6627SOL    HW231518   3.966   4.001   1.966  1.0454 -1.9686  1.8031
 6628SOL     OW31519   3.189   2.814   7.011  0.6436  0.0077  0.0827
 6628SOL    HW131520   3.195   2.724   7.044 -2.4642 -0.3961 -0.4285
 6628SOL    HW231521   3.247   2.808   6.935 -0.6935  0.8637 -0.9973
 6629SOL     OW31522   3.443   3.541   7.211  0.3564 -0.4796  0.2009
 6629SOL    HW131523   3.475   3.623   7.249 -1.0981  0.2887 -0.2450
 6629SOL    HW231524   3.513   3.478   7.230  0.4302 -0.1038  1.1990
 6630SOL     OW31525   1.983   2.039   0.773  0.7670 -0.3742 -0.4454
 6630SOL    HW131526   1.996   2.057   0.866 -0.0010  0.3068 -0.4648
 6630SOL    HW231527   2.036   2.111   0.738  0.8276  0.2640  0.9731
 6631SOL     OW31528   4.701   4.590   4.689 -0.0226 -0.2360 -0.1027
 6631SOL    HW131529   0.013   4.592   4.771 -0.3690  1.4258  0.0487
 6631SOL    HW231530   4.699   4.495   4.671  0.1687 -0.3424  0.4540
 6632SOL     OW31531   1.447   1.153   2.188 -0.0137  0.1192 -0.2445
 6632SOL    HW131532   1.534   1.129   2.221  0.3315  1.9822  0.1930
 6632SOL    HW231533   1.383   1.137   2.257  2.8490  1.0589  2.6093
 6633SOL     OW31534   4.049   0.122   9.446 -0.4330  0.1414 -0.0134
 6633SOL    HW131535   4.090   0.208   9.458  1.4862 -0.9688  1.4463
 6633SOL    HW231536   4.028   0.111   9.539 -1.7952  2.6644 -0.0189
 6634SOL     OW31537   3.109   3.728   4.830 -0.1561  0.6820 -0.3702
 6634SOL    HW131538   3.061   3.801   4.791 -2.5000 -2.8613 -4.0216
 6634SOL    HW231539   3.184   3.708   4.774 -0.6829 -1.2765 -0.3654
 6635SOL     OW31540   4.476   0.211   4.118  1.1178 -0.3039  0.0167
 6635SOL    HW131541   4.440   0.256   4.194 -0.0049  2.1734 -1.9990
 6635SOL    HW231542   4.556   0.165   4.144  0.0019 -1.9244  0.6105
 6636SOL     OW31543   1.141   4.440   0.642  0.1903  0.1904 -0.3063
 6636SOL    HW131544   1.133   4.383   0.718  1.1737 -1.0030 -1.1048
 6636SOL    HW231545   1.128   4.369   0.580  1.2532  0.6149 -1.0261
 6637SOL     OW31546   0.934   1.216   5.900 -0.1902 -0.3282 -0.2349
 6637SOL    HW131547   0.981   1.275   5.842 -0.1393 -1.7338 -1.6074
 6637SOL    HW231548   1.008   1.216   5.961  0.1575 -1.5272 -0.6587
 6638SOL     OW31549   2.886   3.029  13.014  0.1260  0.3196 -0.1839
 6638SOL    HW131550   2.952   3.046  12.946 -1.0556  1.0915 -1.1493
 6638SOL    HW231551   2.812   3.035  12.954  0.3481  0.8832 -0.4089
 6639SOL     OW31552   0.926   0.137   8.893  0.2153 -0.2808  0.2936
 6639SOL    HW131553   1.021   0.122   8.898  0.8726  3.4616 -1.0962
 6639SOL    HW231554   0.898   0.135   8.984 -1.8545  1.5315 -0.3160
 6640SOL     OW31555   0.100   0.317   4.137 -0.2497  0.3063  0.1856
 6640SOL    HW131556   0.063   0.229   4.144  0.7385  0.0678  2.4039
 6640SOL    HW231557   0.044   0.353   4.069  0.9849  0.9471 -0.4891
 6641SOL     OW31558   2.355   2.316   2.487 -0.0307 -0.0221  0.0100
 6641SOL    HW131559   2.336   2.376   2.414 -0.5433 -0.7295 -0.4317
 6641SOL    HW231560   2.330   2.234   2.446  1.5585 -1.9705  2.9433
 6642SOL     OW31561   3.300   2.861   5.907 -0.8972  0.3757 -0.3654
 6642SOL    HW131562   3.231   2.926   5.921 -1.6256 -0.5457  0.3153
 6642SOL    HW231563   3.336   2.896   5.826  1.9705 -1.4037  0.1567
 6643SOL     OW31564   1.627   4.261  13.442 -0.4406  0.1788  0.0144
 6643SOL    HW131565   1.589   4.304  13.366 -0.6697 -0.5394 -0.2655
 6643SOL    HW231566   1.602   4.308  13.522 -0.6315  0.6639 -0.3250
 6644SOL     OW31567   1.457   0.878   2.301 -0.1530 -0.3523  0.1353
 6644SOL    HW131568   1.367   0.862   2.271 -0.2007  0.0429  0.0663
 6644SOL    HW231569   1.500   0.919   2.227 -1.1160  2.3940  1.0965
 6645SOL     OW31570   2.845   0.814  10.208 -0.2933  0.2265  0.3797
 6645SOL    HW131571   2.807   0.761  10.278  1.1628 -1.4428 -0.1154
 6645SOL    HW231572   2.767   0.862  10.180 -0.9626 -0.9474  0.2205
 6646SOL     OW31573   1.983   4.475  17.078  0.4670  0.6402  0.2788
 6646SOL    HW131574   1.917   4.541  17.099 -0.1864  0.2833 -0.6379
 6646SOL    HW231575   2.048   4.486  17.148  0.9748 -1.1220  0.0733
 6647SOL     OW31576   1.905   2.973   4.351  0.2126  0.2414 -0.0529
 6647SOL    HW131577   1.899   2.880   4.375  1.2270 -0.1151 -1.2354
 6647SOL    HW231578   1.999   2.983   4.367  0.3599  1.1443 -1.5186
 6648SOL     OW31579   1.869   3.657  11.813  0.3198 -0.2975 -0.0372
 6648SOL    HW131580   1.869   3.728  11.749 -0.8080  0.9119  1.2843
 6648SOL    HW231581   1.913   3.589  11.763 -1.2171 -1.1982 -0.1601
 6649SOL     OW31582   1.670   4.595   6.648  0.4325 -0.1520 -0.0604
 6649SOL    HW131583   1.737   4.660   6.671  2.7404 -1.9885 -1.5450
 6649SOL    HW231584   1.687   4.561   6.560  1.0342  0.9051 -0.3553
 6650SOL     OW31585   4.673   2.030   3.211 -0.4534  0.3116  0.3301
 6650SOL    HW131586   4.660   2.109   3.264 -1.0844 -1.2118  2.4275
 6650SOL    HW231587   4.584   2.031   3.175 -0.4505  0.3947  0.3244
 6651SOL     OW31588   4.655   3.240  13.674 -0.3819 -0.1217  0.1215
 6651SOL    HW131589   4.629   3.310  13.614  0.0414 -0.2912 -0.2660
 6651SOL    HW231590   4.680   3.167  13.617  0.7914  0.6532 -0.3475
 6652SOL     OW31591   0.775   1.367   4.754  0.3114 -0.1839  0.6326
 6652SOL    HW131592   0.704   1.383   4.816  0.2115  0.2987  0.3900
 6652SOL    HW231593   0.720   1.361   4.677  3.0864 -0.7816 -1.2889
 6653SOL     OW31594   2.392   0.624   3.275  0.2219 -0.7396  0.2101
 6653SOL    HW131595   2.433   0.684   3.337  0.8459 -0.3761 -0.5607
 6653SOL    HW231596   2.300   0.628   3.304  0.2435  2.1910 -0.0786
 6654SOL     OW31597   0.135   0.490   5.128  0.0668  0.3136  0.4079
 6654SOL    HW131598   0.158   0.406   5.168  3.1003  2.6845  3.6689
 6654SOL    HW231599   0.213   0.522   5.082  0.4167 -0.4587  0.4651
 6655SOL     OW31600   2.380   1.227   2.595 -0.1013  0.3118  0.4359
 6655SOL    HW131601   2.396   1.181   2.677  1.2096  0.6795  0.3835
 6655SOL    HW231602   2.289   1.250   2.613 -0.0585  2.4789 -2.0314
 6656SOL     OW31603   1.760   2.184   6.211  0.0120  0.0095 -0.0910
 6656SOL    HW131604   1.681   2.236   6.225 -0.2923 -0.8777  1.5112
 6656SOL    HW231605   1.732   2.120   6.146  2.0231 -2.5575  1.5120
 6657SOL     OW31606   4.102   2.746   7.618 -0.5143  0.0822  0.0544
 6657SOL    HW131607   4.179   2.698   7.589 -0.4484  1.2348 -1.6545
 6657SOL    HW231608   4.116   2.757   7.712 -0.6439 -1.1686  0.2207
 6658SOL     OW31609   1.590   4.606   6.924  0.4931 -0.2151 -0.7231
 6658SOL    HW131610   1.524   4.675   6.934 -0.0931 -1.1285  1.8181
 6658SOL    HW231611   1.605   4.608   6.830  2.0237 -0.8579 -0.4875
 6659SOL     OW31612   3.298   1.655   6.766 -0.3403  0.1962  0.3342
 6659SOL    HW131613   3.348   1.718   6.816 -1.6519 -1.5853  3.9245
 6659SOL    HW231614   3.328   1.569   6.797 -3.7054 -0.7808  0.9136
 6660SOL     OW31615   1.268   4.500   8.264 -0.1793  0.0074  0.5748
 6660SOL    HW131616   1.358   4.516   8.294  0.6822 -3.0805 -0.2945
 6660SOL    HW231617   1.282   4.408   8.240 -0.4702  0.7165 -2.2418
 6661SOL     OW31618   0.101   3.582   1.833 -0.8990 -0.1096  0.3427
 6661SOL    HW131619   0.160   3.606   1.761  1.4491 -0.3644  2.1955
 6661SOL    HW231620   0.162   3.552   1.900  1.2578  0.4576 -1.3874
 6662SOL     OW31621   1.277   2.723   0.005 -0.0107 -0.3323  0.4043
 6662SOL    HW131622   1.296   2.667   0.081 -1.2619 -0.9430  0.2771
 6662SOL    HW231623   1.343   2.690  17.693 -0.6319 -0.8870  0.0218
 6663SOL     OW31624   3.258   3.580   6.192  0.3630  0.0346 -0.3698
 6663SOL    HW131625   3.176   3.541   6.222 -0.0936  0.6932 -0.7816
 6663SOL    HW231626   3.296   3.606   6.276  1.8002  0.8712 -1.2758
 6664SOL     OW31627   0.189   0.246  13.750  0.1477 -0.3166 -0.7356
 6664SOL    HW131628   0.237   0.226  13.831 -1.6003  0.3375  0.4673
 6664SOL    HW231629   0.117   0.183  13.757 -1.3004  1.5150  0.7393
 6665SOL     OW31630   0.483   1.534  17.673 -0.1090 -0.1982  0.1053
 6665SOL    HW131631   0.433   1.500  17.747 -1.6568 -1.0317 -1.3270
 6665SOL    HW231632   0.465   1.628  17.685 -1.2356 -0.0766 -2.6435
 6666SOL     OW31633   1.974   1.597   2.847  0.1651 -0.3838 -0.0066
 6666SOL    HW131634   2.006   1.559   2.766  1.0360  1.2709 -0.4502
 6666SOL    HW231635   1.881   1.578   2.837  0.6064 -1.2974 -2.2095
 6667SOL     OW31636   2.962   1.418   6.154  0.4417  0.2028  0.4436
 6667SOL    HW131637   2.981   1.512   6.156 -0.5878  0.3775  2.1176
 6667SOL    HW231638   3.047   1.378   6.138  0.5569 -0.1786  2.0334
 6668SOL     OW31639   3.942   0.708   9.593  0.1319 -0.3863  0.2176
 6668SOL    HW131640   3.944   0.753   9.509  0.8717 -0.4343  0.2055
 6668SOL    HW231641   4.036   0.691   9.605  0.5113  2.0105  0.5318
 6669SOL     OW31642   4.629   4.044  15.784  0.0439 -0.2835 -0.3304
 6669SOL    HW131643   4.697   4.068  15.848  0.1285  0.7114 -0.7934
 6669SOL    HW231644   4.618   4.122  15.730 -0.4162 -0.2833 -0.2361
 6670SOL     OW31645   2.259   3.611   6.771  0.5821  0.6403  0.1570
 6670SOL    HW131646   2.335   3.619   6.713  0.6012 -1.8780 -0.1547
 6670SOL    HW231647   2.204   3.544   6.732  0.1467  1.8845 -1.4064
 6671SOL     OW31648   1.674   1.270   5.334 -0.2079 -0.3277  0.3735
 6671SOL    HW131649   1.747   1.268   5.273  0.5924  3.5977  1.1970
 6671SOL    HW231650   1.606   1.311   5.279  0.3808  2.3726  1.6265
 6672SOL     OW31651   2.548   1.148   3.952  0.9257  0.2342  0.0163
 6672SOL    HW131652   2.620   1.113   3.901 -0.7771  1.4732 -3.2604
 6672SOL    HW231653   2.512   1.211   3.889  1.5133 -0.0978 -0.6382
 6673SOL     OW31654   3.327   2.417   7.658 -0.3336 -0.8374  0.1998
 6673SOL    HW131655   3.414   2.379   7.663  0.4229  0.6814 -1.3945
 6673SOL    HW231656   3.332   2.480   7.586  1.7102  0.5868  1.5980
 6674SOL     OW31657   1.859   1.124   6.516 -0.1356 -0.5468  0.0333
 6674SOL    HW131658   1.858   1.062   6.589  1.2052 -0.3485  0.2232
 6674SOL    HW231659   1.942   1.165   6.540 -0.0668 -0.8930  0.3860
 6675SOL     OW31660   3.164   3.916   3.517  0.0880  0.0604 -0.0131
 6675SOL    HW131661   3.243   3.951   3.475 -0.1727  0.7480  0.0814
 6675SOL    HW231662   3.093   3.975   3.495  2.7093  2.1534 -2.9585
 6676SOL     OW31663   0.329   2.900   5.226  0.2636 -0.4737 -0.8463
 6676SOL    HW131664   0.308   2.925   5.316 -0.0233  0.8122 -1.2565
 6676SOL    HW231665   0.241   2.904   5.188 -0.1859 -1.8098  0.0673
 6677SOL     OW31666   1.485   4.129   2.569  0.0965  0.3814 -0.5778
 6677SOL    HW131667   1.462   4.206   2.516 -0.0139 -0.0897 -1.2089
 6677SOL    HW231668   1.477   4.058   2.505 -2.2385  1.0116 -0.9763
 6678SOL     OW31669   1.261   0.355   6.094  0.5510  0.0889  0.4754
 6678SOL    HW131670   1.353   0.372   6.115  0.9673 -0.2399 -1.0188
 6678SOL    HW231671   1.217   0.360   6.178 -3.6220 -0.1658 -1.7074
 6679SOL     OW31672   2.970   4.545   2.123  0.4299  0.4850 -0.0154
 6679SOL    HW131673   3.015   4.508   2.047 -0.0684 -1.4718  0.6367
 6679SOL    HW231674   2.999   4.493   2.197 -0.9516  2.0694  1.6332
 6680SOL     OW31675   3.345   4.602  13.511 -0.2309 -0.4770  0.5688
 6680SOL    HW131676   3.312   4.625  13.424 -0.5742  0.0110  0.8278
 6680SOL    HW231677   3.262   4.608  13.558 -0.8590  0.0817 -0.5882
 6681SOL     OW31678   0.015   4.595  15.021 -0.6869 -0.1119 -0.4825
 6681SOL    HW131679   0.024   4.583  15.116  0.9669  1.7283 -0.4119
 6681SOL    HW231680   4.663   4.561  15.011 -0.6518 -0.4315  0.2803
 6682SOL     OW31681   0.982   3.311  10.097  0.2956 -0.4934 -0.5695
 6682SOL    HW131682   0.936   3.388  10.062 -0.8313 -0.7588  0.3433
 6682SOL    HW231683   0.930   3.279  10.171 -0.0745 -1.3850 -1.2168
 6683SOL     OW31684   4.487   2.116   6.935 -0.1428  0.6107 -0.5637
 6683SOL    HW131685   4.500   2.117   7.029  1.3051 -1.0000 -0.7445
 6683SOL    HW231686   4.405   2.165   6.931 -0.0823  0.7285 -0.3468
 6684SOL     OW31687   3.386   1.955   3.385 -0.3401  0.4713 -0.2306
 6684SOL    HW131688   3.464   1.912   3.420 -0.5006 -0.2176 -0.7266
 6684SOL    HW231689   3.424   2.043   3.393  1.1945 -0.0511 -1.7328
 6685SOL     OW31690   1.063   4.606   4.729  0.3239  0.3759  0.1306
 6685SOL    HW131691   1.155   4.581   4.727 -0.1732 -1.2271 -2.7196
 6685SOL    HW231692   1.055   4.669   4.801  1.6242  1.2542 -0.4819
 6686SOL     OW31693   1.048   0.094   2.940 -0.1154 -0.1670 -0.5693
 6686SOL    HW131694   1.043   0.026   3.008  0.9906  2.2495  1.9360
 6686SOL    HW231695   1.125   0.144   2.966 -0.8713 -0.1805  1.6724
 6687SOL     OW31696   0.609   1.325   4.042  0.0977 -0.3681 -0.0537
 6687SOL    HW131697   0.636   1.401   3.990  0.5354  1.9943  3.6892
 6687SOL    HW231698   0.544   1.360   4.102 -0.3019  0.3827 -0.9161
 6688SOL     OW31699   4.510   0.031   8.533  0.0990 -0.3115 -0.4523
 6688SOL    HW131700   4.475   0.081   8.607 -0.4036 -0.0969 -0.8375
 6688SOL    HW231701   4.536   0.098   8.471  0.2774 -0.9212 -1.0380
 6689SOL     OW31702   4.533   3.079   7.991 -0.0907  0.4454 -0.0439
 6689SOL    HW131703   4.477   3.134   7.935 -2.5384 -0.8764  1.0812
 6689SOL    HW231704   4.476   3.079   8.068  0.6417 -1.0319  0.4866
 6690SOL     OW31705   1.445   1.581   1.159 -0.5424  0.2136  0.0856
 6690SOL    HW131706   1.477   1.492   1.174 -0.8459  0.4712  2.3475
 6690SOL    HW231707   1.391   1.582   1.239  0.0869 -0.8297  0.5205
 6691SOL     OW31708   3.098   1.223   2.781  0.1654 -0.2223  0.0904
 6691SOL    HW131709   3.107   1.174   2.699  1.1232 -0.2139  0.1877
 6691SOL    HW231710   3.048   1.156   2.828  0.9070 -0.3605  0.6785
 6692SOL     OW31711   4.065   1.675  17.034 -0.7879  0.3416  0.0119
 6692SOL    HW131712   4.132   1.608  17.025 -0.6871  0.5185 -0.5404
 6692SOL    HW231713   4.121   1.750  17.013  1.8115 -0.8549  2.6469
 6693SOL     OW31714   3.785   1.320   7.068  0.2505  0.2798 -0.2460
 6693SOL    HW131715   3.784   1.361   6.982  0.3280 -1.0309 -0.8671
 6693SOL    HW231716   3.729   1.382   7.114  2.1578  0.2462  2.0983
 6694SOL     OW31717   1.785   2.194   5.197 -0.1158  0.1916  0.3311
 6694SOL    HW131718   1.749   2.132   5.133  1.5130 -0.9465  0.5157
 6694SOL    HW231719   1.709   2.226   5.246  1.1432  1.5059  1.4310
 6695SOL     OW31720   3.589   1.208  11.744  0.0264  0.3841  0.2418
 6695SOL    HW131721   3.515   1.206  11.804 -0.0561 -1.0818  0.1073
 6695SOL    HW231722   3.655   1.152  11.785 -0.2180  0.5820  0.8942
 6696SOL     OW31723   3.664   1.863   1.379 -0.1103  1.1760 -0.0032
 6696SOL    HW131724   3.651   1.823   1.466 -0.0514  2.9849  0.8242
 6696SOL    HW231725   3.760   1.868   1.379 -0.1007  0.8279 -2.4029
 6697SOL     OW31726   3.863   1.474  10.994  0.0493  0.9558  0.2952
 6697SOL    HW131727   3.771   1.458  11.017 -0.4927  1.7232 -1.4143
 6697SOL    HW231728   3.911   1.394  11.016  0.1063  0.6493 -0.9611
 6698SOL     OW31729   2.585   2.947   8.961 -0.3550  0.5553  0.1231
 6698SOL    HW131730   2.584   2.934   9.056  2.5519 -1.7956 -0.1858
 6698SOL    HW231731   2.678   2.951   8.939 -0.6464  0.8551 -1.0669
 6699SOL     OW31732   2.831   0.964   9.012  0.1199 -0.2593 -0.1619
 6699SOL    HW131733   2.906   1.000   9.060  1.5110 -0.6258 -2.0474
 6699SOL    HW231734   2.827   1.022   8.936 -1.3773  0.8351  0.7510
 6700SOL     OW31735   3.949   3.764   4.821 -0.2597  0.1135 -0.0130
 6700SOL    HW131736   3.971   3.710   4.746  1.1732  0.8453 -0.1122
 6700SOL    HW231737   3.984   3.848   4.791  0.5382  0.0701  0.8139
 6701SOL     OW31738   2.495   2.078   3.501  0.1417 -0.1671  0.0426
 6701SOL    HW131739   2.471   2.169   3.481  0.0551 -0.0494  0.7010
 6701SOL    HW231740   2.533   2.050   3.418 -0.3585 -1.7223  0.3509
 6702SOL     OW31741   2.486   1.630  14.370  0.7841 -0.0594 -0.3964
 6702SOL    HW131742   2.540   1.703  14.339 -1.7667  1.0989 -2.2046
 6702SOL    HW231743   2.519   1.625  14.459 -0.6161  0.5149  0.1579
 6703SOL     OW31744   2.658   3.111  15.640 -1.1664  0.2873 -0.7324
 6703SOL    HW131745   2.644   3.202  15.663  0.3505  0.9186 -2.2899
 6703SOL    HW231746   2.567   3.084  15.630 -0.6248 -1.6120 -0.7223
 6704SOL     OW31747   0.054   3.051   3.791 -0.4692  0.1829 -0.2248
 6704SOL    HW131748   0.081   3.007   3.710 -1.2171  3.6711 -2.3405
 6704SOL    HW231749   0.020   2.972   3.833  0.3418  0.3929  0.8217
 6705SOL     OW31750   0.660   0.738   4.089 -0.0298  0.2138 -0.4910
 6705SOL    HW131751   0.663   0.757   3.995 -0.0397 -4.7752 -1.5124
 6705SOL    HW231752   0.686   0.821   4.129  1.8539  0.5530 -2.3953
 6706SOL     OW31753   3.496   2.147   3.853 -0.2582 -0.3931  0.0931
 6706SOL    HW131754   3.556   2.118   3.784 -1.2516  0.6958 -1.2258
 6706SOL    HW231755   3.557   2.160   3.926 -0.7346  1.0643  0.2391
 6707SOL     OW31756   4.650   3.016   8.932  0.0994 -0.2261 -0.0876
 6707SOL    HW131757   4.593   2.965   8.988 -1.5117  0.3646 -1.1917
 6707SOL    HW231758   4.685   2.950   8.872  1.2957  3.0725 -3.0393
 6708SOL     OW31759   1.041   0.936   6.641  0.1205  0.3668  0.0073
 6708SOL    HW131760   1.031   0.841   6.637 -0.1553  0.3284  1.7189
 6708SOL    HW231761   1.071   0.941   6.550 -0.0423  1.2203 -0.0015
 6709SOL     OW31762   4.534   3.400   7.592  0.2802  0.7465 -0.2190
 6709SOL    HW131763   4.445   3.411   7.623 -0.6542 -0.5360 -2.4538
 6709SOL    HW231764   4.537   3.469   7.525 -0.7293  1.5488  0.5725
 6710SOL     OW31765   1.919   4.346   4.170  0.6779 -0.2382  0.4735
 6710SOL    HW131766   1.833   4.374   4.138  0.1450 -1.5670  0.7369
 6710SOL    HW231767   1.948   4.412   4.233 -1.2287 -0.0821  1.1925
 6711SOL     OW31768   3.378   0.334   8.472  0.0129  0.1033  0.4360
 6711SOL    HW131769   3.288   0.310   8.449  0.2338  0.6681 -0.9935
 6711SOL    HW231770   3.411   0.248   8.447 -0.2458  0.3114 -0.6050
 6712SOL     OW31771   3.312   2.111  11.728 -0.4081  0.5922  0.4851
 6712SOL    HW131772   3.388   2.079  11.777 -0.3715  1.1588  0.8011
 6712SOL    HW231773   3.263   2.170  11.785 -0.3612 -0.7296  1.8902
 6713SOL     OW31774   0.070   1.780   5.756  0.2614 -0.1558 -0.0022
 6713SOL    HW131775   0.153   1.751   5.793 -1.4265 -2.6957  1.8732
 6713SOL    HW231776   0.087   1.746   5.668 -2.1663 -0.9981 -0.1435
 6714SOL     OW31777   4.271   1.622   9.843  0.2231 -0.6457  0.1503
 6714SOL    HW131778   4.201   1.577   9.890  0.9924 -1.0033  0.9494
 6714SOL    HW231779   4.239   1.711   9.857 -1.8078 -1.3425 -0.0415
 6715SOL     OW31780   3.582   1.637   8.037 -0.2084  0.5267 -0.3248
 6715SOL    HW131781   3.665   1.684   8.035 -1.4109  2.7153  0.3213
 6715SOL    HW231782   3.611   1.550   8.009 -2.9625 -0.0655 -1.4183
 6716SOL     OW31783   4.077   0.486  12.774 -0.1500 -0.1659  0.0371
 6716SOL    HW131784   4.033   0.414  12.729  2.6829 -1.3052 -0.9018
 6716SOL    HW231785   4.163   0.479  12.734 -0.3397 -1.2959 -0.1734
 6717SOL     OW31786   0.702   2.892   5.637 -0.3246  0.2587 -0.5175
 6717SOL    HW131787   0.732   2.874   5.548 -2.2228 -1.0200 -0.9094
 6717SOL    HW231788   0.769   2.842   5.684  0.9242  2.2842 -0.1329
 6718SOL     OW31789   0.595   2.110   6.158 -0.0622 -0.1894 -0.2876
 6718SOL    HW131790   0.614   2.191   6.110  0.9891 -0.0498  0.3692
 6718SOL    HW231791   0.516   2.132   6.208  0.3929 -0.9747  0.7733
 6719SOL     OW31792   3.987   2.981   6.334 -0.1082 -0.4821 -0.3698
 6719SOL    HW131793   4.075   2.966   6.300 -0.0662  2.0132 -1.3431
 6719SOL    HW231794   3.970   3.074   6.345 -1.8336 -0.6423 -1.5701
 6720SOL     OW31795   2.711   3.533   4.720  0.0819 -0.1298 -0.5678
 6720SOL    HW131796   2.699   3.551   4.813  0.0431  1.3469 -0.8623
 6720SOL    HW231797   2.806   3.545   4.713 -0.1450  1.9225 -0.1616
 6721SOL     OW31798   1.801   0.014  12.673 -0.5402 -0.9544 -0.0614
 6721SOL    HW131799   1.828   0.060  12.752 -1.9358  0.1449 -0.2138
 6721SOL    HW231800   1.891   0.002  12.642 -1.4755  0.2462 -3.2625
 6722SOL     OW31801   1.277   1.107   3.104  0.1895  0.3232  0.1859
 6722SOL    HW131802   1.308   1.108   3.195 -0.3745  1.1815  0.3682
 6722SOL    HW231803   1.340   1.172   3.072  0.5159 -0.4000 -0.6211
 6723SOL     OW31804   4.387   1.022   2.135  0.9451  0.4079 -0.3312
 6723SOL    HW131805   4.363   1.098   2.187 -0.4348  0.4852 -1.0627
 6723SOL    HW231806   4.300   0.986   2.114  1.6764 -2.2984  1.1796
 6724SOL     OW31807   2.357   1.113   1.167  0.7541 -0.2495  0.3028
 6724SOL    HW131808   2.366   1.018   1.159  2.3515 -0.1255  0.7230
 6724SOL    HW231809   2.448   1.142   1.174  1.0675 -0.9252 -0.9834
 6725SOL     OW31810   0.200   0.608  14.818  0.3553 -0.0782 -0.9283
 6725SOL    HW131811   0.206   0.685  14.876 -0.8593  1.8959 -3.4267
 6725SOL    HW231812   0.138   0.636  14.751 -1.9316 -0.5007  1.0369
 6726SOL     OW31813   1.928   2.083   8.854 -0.0018 -0.0351 -0.4263
 6726SOL    HW131814   2.002   2.144   8.853  2.5668 -3.1517  0.4453
 6726SOL    HW231815   1.853   2.143   8.851  0.9039  1.1569  0.6262
 6727SOL     OW31816   1.329   1.897   3.141 -0.2223 -0.1653 -0.6720
 6727SOL    HW131817   1.343   1.916   3.234 -1.1692 -1.3543 -0.2852
 6727SOL    HW231818   1.421   1.879   3.124  0.3199  2.3824 -0.3655
 6728SOL     OW31819   1.849   1.751   5.059  0.1836 -0.0137  0.1548
 6728SOL    HW131820   1.848   1.726   4.966  1.7038 -2.7350  0.8866
 6728SOL    HW231821   1.874   1.665   5.092 -2.4806 -0.6140  0.6615
 6729SOL     OW31822   0.593   3.384   1.389 -0.2337 -0.3961 -0.0424
 6729SOL    HW131823   0.605   3.467   1.342 -1.6509  0.7990  1.7188
 6729SOL    HW231824   0.644   3.317   1.343  2.3328  0.7804  1.0587
 6730SOL     OW31825   0.241   3.930   1.524 -0.1404 -0.3252 -0.1500
 6730SOL    HW131826   0.242   3.981   1.605 -0.3221  0.1567 -0.4509
 6730SOL    HW231827   0.273   3.845   1.555 -3.5391 -1.5656 -0.0810
 6731SOL     OW31828   3.636   0.285   2.703  0.0365  0.1487 -0.2966
 6731SOL    HW131829   3.709   0.337   2.670  0.9786 -1.1163 -0.1716
 6731SOL    HW231830   3.683   0.233   2.768  2.7146  0.9550 -1.5907
 6732SOL     OW31831   1.260   0.783   6.520  0.5376 -0.7990 -0.2554
 6732SOL    HW131832   1.312   0.862   6.505  0.1125 -0.3155  0.8554
 6732SOL    HW231833   1.305   0.731   6.454 -0.2625  1.5336 -2.6632
 6733SOL     OW31834   0.239   1.762   4.942  0.1243 -0.1660  0.0263
 6733SOL    HW131835   0.251   1.668   4.951  1.6194  0.2777  2.6169
 6733SOL    HW231836   0.149   1.764   4.910  0.3980 -1.1978 -0.7954
 6734SOL     OW31837   0.330   4.360   4.206  0.2714  0.3614 -0.4556
 6734SOL    HW131838   0.313   4.339   4.114  0.0785 -0.7799 -0.1563
 6734SOL    HW231839   0.398   4.297   4.230 -1.0845 -0.4389  1.2480
 6735SOL     OW31840   0.874   4.273   4.800  0.1056 -0.8971 -0.2024
 6735SOL    HW131841   0.904   4.358   4.834  3.9841 -1.2682 -2.7892
 6735SOL    HW231842   0.805   4.295   4.738  1.8734  0.8701 -1.5447
 6736SOL     OW31843   3.483   2.942   2.860 -0.0154 -0.2945  0.1955
 6736SOL    HW131844   3.452   2.858   2.894  0.7523  0.0347  1.6698
 6736SOL    HW231845   3.575   2.920   2.844  0.0730 -0.3510  0.7807
 6737SOL     OW31846   3.168   1.840  12.592  0.1782  0.5844 -0.3086
 6737SOL    HW131847   3.228   1.850  12.518 -1.5770  0.8076 -1.6954
 6737SOL    HW231848   3.235   1.838  12.661  0.2977  0.9409 -0.4158
 6738SOL     OW31849   2.904   1.549   9.202  0.4427  0.4586 -0.1297
 6738SOL    HW131850   2.826   1.603   9.215  1.3998  2.1546 -1.4239
 6738SOL    HW231851   2.873   1.489   9.135 -1.7927  0.4636  0.9125
 6739SOL     OW31852   0.065   0.202   6.343 -0.6981 -0.3513  0.1682
 6739SOL    HW131853   0.047   0.263   6.414 -0.8370  2.4870 -2.2582
 6739SOL    HW231854   4.736   0.223   6.277 -0.8405  2.2360  1.1469
 6740SOL     OW31855   3.445   0.143  11.854  0.0174  0.1649  0.0270
 6740SOL    HW131856   3.478   0.231  11.836  0.4359  0.1855  0.8995
 6740SOL    HW231857   3.525   0.094  11.839  0.3982  0.9722 -0.5636
 6741SOL     OW31858   1.365   3.874  12.799 -0.5525 -0.5371 -0.1438
 6741SOL    HW131859   1.300   3.806  12.816  1.3131 -2.4340 -0.6858
 6741SOL    HW231860   1.390   3.903  12.887 -2.4291  3.2450 -0.8324
 6742SOL     OW31861   2.743   0.562   2.016 -0.0898 -0.5353  0.1817
 6742SOL    HW131862   2.725   0.471   2.036  1.1008 -0.5411  1.2219
 6742SOL    HW231863   2.677   0.586   1.950 -0.4754 -1.9755  0.0511
 6743SOL     OW31864   2.488   2.854   7.426 -0.0950 -0.8205  0.2879
 6743SOL    HW131865   2.456   2.938   7.393  1.3734  0.7763  2.8650
 6743SOL    HW231866   2.568   2.859   7.374  0.7531  1.4053  1.7746
 6744SOL     OW31867   0.039   2.037  10.276  0.2496 -0.2717 -0.4065
 6744SOL    HW131868   0.009   1.948  10.297  0.5696  0.3820  2.8862
 6744SOL    HW231869   0.100   2.061  10.346  0.4717 -0.0046 -0.6886
 6745SOL     OW31870   2.436   3.734  10.320  0.5876  0.2430  0.3324
 6745SOL    HW131871   2.392   3.699  10.398 -0.9739  2.5157  0.4679
 6745SOL    HW231872   2.527   3.724  10.349  0.5901 -3.5615 -1.0017
 6746SOL     OW31873   3.130   3.909  12.938 -0.0816  0.5114 -0.0106
 6746SOL    HW131874   3.035   3.901  12.932 -0.1716  2.2712 -0.8972
 6746SOL    HW231875   3.164   3.934  12.852 -0.3551  3.2928  0.6868
 6747SOL     OW31876   1.711   3.227  10.076  0.0852 -0.2068  0.3840
 6747SOL    HW131877   1.622   3.192  10.078  0.4030 -0.8091  3.1388
 6747SOL    HW231878   1.769   3.153  10.094 -2.0720 -1.6005  1.6119
 6748SOL     OW31879   3.864   3.819   2.058 -0.2394 -0.2100  0.0527
 6748SOL    HW131880   3.857   3.749   2.122  0.1030  1.4092  1.8747
 6748SOL    HW231881   3.924   3.770   2.003 -0.7227 -1.2467  0.4573
 6749SOL     OW31882   0.183   0.091   0.408 -0.1942  0.0179  0.0900
 6749SOL    HW131883   0.201   0.028   0.338 -1.3753  0.4183 -0.5738
 6749SOL    HW231884   0.094   0.122   0.390  1.5345  2.8225 -3.6861
 6750SOL     OW31885   4.318   1.433   9.117 -0.8029  0.1472  0.1612
 6750SOL    HW131886   4.286   1.364   9.058 -0.0047  1.4616 -1.7984
 6750SOL    HW231887   4.278   1.405   9.199 -1.1184 -0.2857 -0.1395
 6751SOL     OW31888   0.562   3.905  11.082 -0.9374 -0.1087 -0.4019
 6751SOL    HW131889   0.472   3.897  11.113 -0.5651 -2.4413  0.0793
 6751SOL    HW231890   0.565   3.843  11.010  2.5720  0.9778 -1.2132
 6752SOL     OW31891   2.368   0.792   4.944 -0.2525 -0.2882  0.1999
 6752SOL    HW131892   2.384   0.707   4.985  0.7534 -0.5692 -0.7920
 6752SOL    HW231893   2.335   0.836   5.023  0.2269 -0.0857  0.2908
 6753SOL     OW31894   2.322   1.361   0.003  0.3359  0.1988 -0.1354
 6753SOL    HW131895   2.302   1.448   0.035 -1.6531 -1.0152  1.8988
 6753SOL    HW231896   2.255   1.311   0.050 -0.1642  0.4842 -0.5440
 6754SOL     OW31897   2.494   3.355   3.509 -0.0567  0.0091  0.3845
 6754SOL    HW131898   2.463   3.276   3.465  0.7918 -1.8915  3.1488
 6754SOL    HW231899   2.501   3.331   3.602 -1.5659 -0.4150  0.3922
 6755SOL     OW31900   2.472   1.395  10.695  0.2647  0.1246  0.2843
 6755SOL    HW131901   2.412   1.384  10.621  0.7198  1.2312 -0.2439
 6755SOL    HW231902   2.459   1.316  10.747 -2.0748 -1.1362 -2.2340
 6756SOL     OW31903   2.685   4.422   8.615 -0.3139  0.6477  0.6602
 6756SOL    HW131904   2.766   4.390   8.654 -0.6297 -1.5289 -0.4818
 6756SOL    HW231905   2.688   4.370   8.535 -1.8290  0.8489  0.4726
 6757SOL     OW31906   3.864   2.580   7.201 -0.1400 -0.8730 -0.2155
 6757SOL    HW131907   3.888   2.595   7.109  0.5155  1.4603  0.3515
 6757SOL    HW231908   3.809   2.501   7.193  1.3459 -1.8165 -1.1400
 6758SOL     OW31909   4.730   4.599  10.588  0.3020 -0.1838  0.0912
 6758SOL    HW131910   0.007   4.507  10.612 -0.3558  0.0151  1.2454
 6758SOL    HW231911   0.076   4.640  10.607  0.2402 -0.1618  0.3182
 6759SOL     OW31912   1.530   0.087   1.962 -0.6958  0.5313 -0.0435
 6759SOL    HW131913   1.577   0.169   1.955  2.8458 -1.5473 -0.6004
 6759SOL    HW231914   1.585   0.037   2.022 -0.5825 -1.9976 -2.2482
 6760SOL     OW31915   0.712   0.120   2.524 -0.0264 -0.3752  0.0016
 6760SOL    HW131916   0.797   0.076   2.520  1.1598  2.0035 -1.1337
 6760SOL    HW231917   0.654   0.066   2.471  1.6463 -0.4142 -1.7954
 6761SOL     OW31918   3.244   1.190   5.484  0.0372  0.2283  0.4675
 6761SOL    HW131919   3.239   1.283   5.461  0.4821 -0.0963 -0.9950
 6761SOL    HW231920   3.305   1.156   5.419 -0.9139  0.3026 -0.4765
 6762SOL     OW31921   1.759   2.699   3.391  0.1114 -0.0325 -0.3194
 6762SOL    HW131922   1.766   2.731   3.301  0.3433  0.0872 -0.2581
 6762SOL    HW231923   1.841   2.729   3.430 -0.2269 -0.2947  0.5997
 6763SOL     OW31924   2.832   1.083   9.401 -0.2111  0.5001  0.1687
 6763SOL    HW131925   2.740   1.096   9.423 -0.5143 -1.6570  0.1631
 6763SOL    HW231926   2.875   1.069   9.485 -1.6157  0.6400  0.9039
 6764SOL     OW31927   3.566   3.508   2.562 -0.0945  0.3156 -0.9299
 6764SOL    HW131928   3.503   3.543   2.499 -0.3058 -1.5647 -1.7684
 6764SOL    HW231929   3.633   3.574   2.548 -0.0603  0.2064 -1.2714
 6765SOL     OW31930   3.172   1.386   4.023 -0.2815 -0.3016 -0.0742
 6765SOL    HW131931   3.116   1.314   3.993  1.1405 -1.0810 -0.8350
 6765SOL    HW231932   3.160   1.388   4.118 -0.1106 -0.5091 -0.0493
 6766SOL     OW31933   0.416   1.863   7.136  0.0836 -0.2499 -0.0728
 6766SOL    HW131934   0.486   1.818   7.182 -0.5087 -1.8329 -0.7122
 6766SOL    HW231935   0.377   1.908   7.211 -0.0591 -1.6167  0.6589
 6767SOL     OW31936   2.232   2.521  10.417  0.1856  0.1733  0.3313
 6767SOL    HW131937   2.267   2.561  10.497  0.5825 -3.7368  2.1248
 6767SOL    HW231938   2.145   2.496  10.449 -0.0404 -0.2663 -0.6477
 6768SOL     OW31939   2.232   4.238   7.207 -0.1596  0.3178  0.1034
 6768SOL    HW131940   2.178   4.199   7.139 -0.7886 -2.6570  2.3515
 6768SOL    HW231941   2.310   4.269   7.159 -1.0000 -0.2673 -1.6277
 6769SOL     OW31942   1.620   2.075   0.435  0.1734  0.4762  0.1428
 6769SOL    HW131943   1.710   2.042   0.434  1.1589  3.2467 -2.4652
 6769SOL    HW231944   1.631   2.155   0.384 -0.8162  0.6897  0.2753
 6770SOL     OW31945   4.361   2.290   6.324 -0.5190  0.3114  0.0195
 6770SOL    HW131946   4.278   2.313   6.366 -0.5126  1.3298 -0.5460
 6770SOL    HW231947   4.336   2.210   6.278 -1.9967 -0.0944  1.5253
 6771SOL     OW31948   1.292   1.086   6.443  0.3125  0.5417 -0.1933
 6771SOL    HW131949   1.267   1.172   6.478  1.0440  0.3384  0.8233
 6771SOL    HW231950   1.386   1.093   6.459  0.4851  0.3257 -1.1293
 6772SOL     OW31951   3.783   2.249   3.489 -0.0648  0.2082  0.2177
 6772SOL    HW131952   3.857   2.210   3.442 -1.0586 -0.1900 -0.9987
 6772SOL    HW231953   3.749   2.308   3.421  2.2536 -0.8042 -1.8204
 6773SOL     OW31954   0.721   0.471   9.383 -0.2041  0.1906  0.1254
 6773SOL    HW131955   0.741   0.548   9.437  2.4889 -1.0902  0.9757
 6773SOL    HW231956   0.758   0.405   9.442 -1.5875 -0.5824  0.1167
 6774SOL     OW31957   2.449   0.945   3.101 -0.2749 -0.3260  0.2261
 6774SOL    HW131958   2.542   0.925   3.113 -0.4386 -1.2471  0.0033
 6774SOL    HW231959   2.443   0.992   3.184 -0.1747 -1.2881  0.7781
 6775SOL     OW31960   3.411   4.468   7.027 -0.1540  0.3263 -0.5941
 6775SOL    HW131961   3.478   4.401   7.015 -0.8661 -0.2891 -1.1272
 6775SOL    HW231962   3.412   4.512   6.941  1.1148  0.8993 -0.2911
 6776SOL     OW31963   3.650   0.542   3.945  0.3617 -0.1415 -0.0978
 6776SOL    HW131964   3.590   0.558   3.872 -0.2780  0.3118  0.5341
 6776SOL    HW231965   3.710   0.474   3.913  0.6923  0.2633 -0.3349
 6777SOL     OW31966   3.405   4.619   1.675 -0.3699  0.5034 -0.2918
 6777SOL    HW131967   3.376   4.642   1.587  0.8038 -0.1506 -0.8494
 6777SOL    HW231968   3.318   4.612   1.714  0.1867 -3.7604  0.2212
 6778SOL     OW31969   2.423   4.102   7.411 -0.5450 -0.2088  0.3134
 6778SOL    HW131970   2.483   4.090   7.337  1.7083 -0.4758  2.1930
 6778SOL    HW231971   2.362   4.158   7.363 -0.1780 -0.3592 -0.3318
 6779SOL     OW31972   2.401   2.514   7.777 -0.0923 -0.1212  0.4647
 6779SOL    HW131973   2.310   2.533   7.756  0.1465  0.0580 -0.3969
 6779SOL    HW231974   2.407   2.568   7.856  3.2994 -0.2829  0.3131
 6780SOL     OW31975   1.667   2.455  17.203 -0.0211 -0.1591 -0.1230
 6780SOL    HW131976   1.717   2.537  17.193  1.2593 -0.8919  0.2668
 6780SOL    HW231977   1.713   2.414  17.277  0.5623  1.4777  0.4307
 6781SOL     OW31978   1.672   1.264   3.589  0.2056 -0.1674  0.1433
 6781SOL    HW131979   1.593   1.276   3.536  0.4943  2.8262  0.3695
 6781SOL    HW231980   1.730   1.249   3.515  1.1801  0.2130  0.8305
 6782SOL     OW31981   3.787   3.284   2.810  0.0923  0.3454 -0.4825
 6782SOL    HW131982   3.881   3.287   2.825 -0.1920 -0.6283  1.4079
 6782SOL    HW231983   3.789   3.282   2.714 -0.9083 -2.6044 -0.4260
 6783SOL     OW31984   0.066   1.385   5.107 -0.6137 -0.0796  1.0350
 6783SOL    HW131985   4.735   1.394   5.173 -1.6791 -0.4395 -0.0204
 6783SOL    HW231986   0.070   1.293   5.083 -0.1915  0.7795 -2.2412
 6784SOL     OW31987   3.559   2.759   5.031 -0.1203 -0.4317  0.0339
 6784SOL    HW131988   3.565   2.674   4.988  0.0274 -0.4290  0.0495
 6784SOL    HW231989   3.651   2.787   5.029 -0.0403 -0.7097 -0.1475
 6785SOL     OW31990   1.161   3.407   6.917  0.6153  0.2008 -0.0341
 6785SOL    HW131991   1.137   3.317   6.895  0.6717  0.4068 -0.9465
 6785SOL    HW231992   1.111   3.428   6.996 -2.1129 -1.6017 -1.2948
 6786SOL     OW31993   4.581   2.765   2.987 -0.3271  0.6522  0.3082
 6786SOL    HW131994   4.590   2.743   2.895  0.6992 -0.6223  0.7154
 6786SOL    HW231995   4.667   2.744   3.025 -0.9307 -1.1441  0.6505
 6787SOL     OW31996   1.690   0.647   9.011  0.0526  0.1655 -0.3023
 6787SOL    HW131997   1.595   0.646   8.997  0.2099  0.5911 -1.3812
 6787SOL    HW231998   1.718   0.694   8.932 -2.5641 -0.7235 -1.7737
 6788SOL     OW31999   0.136   1.696   2.198  0.1839  0.0239  0.0808
 6788SOL    HW132000   0.150   1.721   2.289 -0.9398 -0.5355  0.4123
 6788SOL    HW232001   0.092   1.610   2.201  0.6590 -0.2242 -0.0338
 6789SOL     OW32002   1.327   0.554   4.298  0.1935 -0.2806 -0.0255
 6789SOL    HW132003   1.237   0.529   4.315 -0.2690  0.4972 -1.3286
 6789SOL    HW232004   1.312   0.607   4.220  2.5154  0.2753 -0.1008
 6790SOL     OW32005   3.396   1.856   7.372 -0.0168 -0.0414 -0.2142
 6790SOL    HW132006   3.469   1.855   7.433 -1.1515 -2.4706  1.1266
 6790SOL    HW232007   3.352   1.933   7.409 -0.8364 -0.6375  0.0606
 6791SOL     OW32008   3.335   0.302  15.303  0.0015 -0.0380  0.1550
 6791SOL    HW132009   3.416   0.258  15.328 -0.5695 -1.4448 -0.5063
 6791SOL    HW232010   3.354   0.344  15.219 -0.2001 -0.6520 -0.1956
 6792SOL     OW32011   4.618   4.677   3.159  0.1220 -0.1929 -0.0814
 6792SOL    HW132012   4.611   4.673   3.064  0.1963  2.7291 -0.2337
 6792SOL    HW232013   4.709   4.709   3.161  0.4587 -1.2119  0.8417
 6793SOL     OW32014   3.815   0.072   0.221 -0.5171 -0.2072  0.7142
 6793SOL    HW132015   3.818   0.146   0.160 -0.2789 -0.2470  0.6774
 6793SOL    HW232016   3.750   0.018   0.176 -0.3289 -0.8325  1.2055
 6794SOL     OW32017   1.159   4.573  17.609  0.3656  0.2333  0.1663
 6794SOL    HW132018   1.180   4.663  17.585 -1.3862  0.0870 -1.8754
 6794SOL    HW232019   1.063   4.572  17.618  0.5338  2.0580  2.0113
 6795SOL     OW32020   4.621   3.771  13.095 -0.1295  0.1273  0.1875
 6795SOL    HW132021   4.563   3.807  13.028  0.5852 -0.2569 -0.6279
 6795SOL    HW232022   4.672   3.851  13.109  0.0806  0.0900 -0.3837
 6796SOL     OW32023   1.546   4.163   4.145  0.0819 -0.0148 -0.2130
 6796SOL    HW132024   1.462   4.189   4.184  0.8523 -1.2510  2.2546
 6796SOL    HW232025   1.608   4.210   4.201  0.4560  0.1358 -0.7626
 6797SOL     OW32026   2.437   0.048   3.942  0.1122  0.2405 -0.5384
 6797SOL    HW132027   2.358   4.735   3.925  0.1624  0.1078 -0.3733
 6797SOL    HW232028   2.500   4.717   3.918  1.2708  0.9967  0.3312
 6798SOL     OW32029   0.607   2.410   7.592 -0.1784 -0.5719  0.1308
 6798SOL    HW132030   0.674   2.416   7.660  0.9389 -0.5303 -0.9866
 6798SOL    HW232031   0.552   2.343   7.634 -0.2810 -0.4090  0.2545
 6799SOL     OW32032   3.097   4.611   7.314 -0.3881 -0.1547  0.6497
 6799SOL    HW132033   3.007   4.588   7.338  0.0626 -1.2285  1.3071
 6799SOL    HW232034   3.150   4.534   7.335 -0.5333 -0.0181  1.5315
 6800SOL     OW32035   3.122   2.249   9.598  0.5243 -0.5032 -0.4885
 6800SOL    HW132036   3.080   2.224   9.515 -0.7417  1.8445 -0.5493
 6800SOL    HW232037   3.206   2.284   9.569  0.1253  1.5963  0.9131
 6801SOL     OW32038   3.732   2.614   9.524 -0.1866 -0.3991 -0.1327
 6801SOL    HW132039   3.694   2.593   9.439 -0.7402  2.5295 -0.6009
 6801SOL    HW232040   3.681   2.570   9.592 -0.1965  0.7796  0.6315
 6802SOL     OW32041   0.040   2.530  17.263  0.1620 -0.2467 -0.4508
 6802SOL    HW132042   0.086   2.585  17.200 -0.0233  0.4402  0.0137
 6802SOL    HW232043   0.070   2.439  17.265  1.9035  0.3209  0.0351
 6803SOL     OW32044   1.036   4.363   6.274  0.3138  0.1447  0.1285
 6803SOL    HW132045   1.054   4.412   6.354  0.0541  2.2492 -1.0928
 6803SOL    HW232046   1.112   4.395   6.226  0.9308 -1.6360 -0.0909
 6804SOL     OW32047   1.318   2.370   5.855 -0.8253  0.8427  0.5201
 6804SOL    HW132048   1.319   2.343   5.763  0.6293  1.1784  0.4397
 6804SOL    HW232049   1.224   2.360   5.870 -1.0303 -0.1544 -1.4620
 6805SOL     OW32050   4.319   1.627   1.360 -0.0959  0.4029 -0.8004
 6805SOL    HW132051   4.400   1.666   1.393 -0.1887 -0.2052  0.1397
 6805SOL    HW232052   4.304   1.678   1.280  0.7219  0.0409 -1.1878
 6806SOL     OW32053   3.121   0.980   3.754  0.3796  0.1267 -0.7494
 6806SOL    HW132054   3.168   0.940   3.681  1.0793  0.4044 -0.4500
 6806SOL    HW232055   3.045   1.014   3.708  0.9702  1.6593 -0.6010
 6807SOL     OW32056   1.617   2.684  14.279 -0.2165 -0.6418  0.3595
 6807SOL    HW132057   1.587   2.593  14.282  0.9948 -1.0481  0.3020
 6807SOL    HW232058   1.710   2.673  14.257 -0.3681  1.2506 -1.1954
 6808SOL     OW32059   4.703   2.481  11.091  0.0567  0.0138  0.4201
 6808SOL    HW132060   0.047   2.525  11.113  0.7718 -0.8434 -0.5080
 6808SOL    HW232061   4.664   2.461  11.176  0.3454  3.8324  1.4358
 6809SOL     OW32062   2.413   3.817   3.420 -0.0796 -0.3297 -0.1663
 6809SOL    HW132063   2.486   3.850   3.472 -0.3512  1.7028 -1.1009
 6809SOL    HW232064   2.359   3.893   3.403 -0.4864 -0.8077 -1.0396
 6810SOL     OW32065   2.975   2.436   0.865  0.5991 -0.5156 -0.5345
 6810SOL    HW132066   3.000   2.370   0.801  1.8055  0.3823 -1.0015
 6810SOL    HW232067   3.052   2.493   0.866  0.1859  0.0318  0.0814
 6811SOL     OW32068   2.256   1.539   1.575  0.2353 -0.6121 -0.6859
 6811SOL    HW132069   2.220   1.531   1.486 -1.3211  0.5110 -0.1512
 6811SOL    HW232070   2.345   1.505   1.563  0.2786 -1.1356  1.0859
 6812SOL     OW32071   3.744   3.004   7.815  0.0120  1.1184 -0.3066
 6812SOL    HW132072   3.757   3.070   7.883 -0.6740 -0.6611  1.5553
 6812SOL    HW232073   3.752   2.929   7.874 -1.3278  1.2210 -0.0030
 6813SOL     OW32074   4.547   3.657   7.504  0.5541  0.0953 -0.1636
 6813SOL    HW132075   4.553   3.734   7.561 -1.6343 -1.5308  2.2325
 6813SOL    HW232076   4.638   3.660   7.474  0.6699 -0.1624  0.1636
 6814SOL     OW32077   1.367   3.794  12.552  0.5486  0.3741  0.4154
 6814SOL    HW132078   1.306   3.842  12.495  0.1896 -0.0901  0.4021
 6814SOL    HW232079   1.341   3.830  12.637 -2.2385  1.0803 -0.7469
 6815SOL     OW32080   2.725   0.704   5.806  0.2114  0.4972 -0.1283
 6815SOL    HW132081   2.692   0.794   5.814 -2.0910 -0.5645  2.1002
 6815SOL    HW232082   2.700   0.674   5.894  1.0484  0.5646  0.1357
 6816SOL     OW32083   0.585   4.221   7.520  0.2857  0.3509 -0.9928
 6816SOL    HW132084   0.556   4.139   7.560 -2.9732  1.3176 -1.3315
 6816SOL    HW232085   0.680   4.213   7.524  0.2045 -0.0316  0.3026
 6817SOL     OW32086   4.499   1.909  14.883 -0.1018  0.3607 -0.4444
 6817SOL    HW132087   4.458   1.825  14.867 -1.4866  0.7805  0.8698
 6817SOL    HW232088   4.437   1.946  14.946 -1.1653 -0.4785 -1.0007
 6818SOL     OW32089   1.218   3.321  16.930  0.0503  0.2376 -0.2645
 6818SOL    HW132090   1.164   3.301  17.006 -1.3075 -0.4534 -1.3982
 6818SOL    HW232091   1.260   3.236  16.920  0.4565  0.3254  0.7845
 6819SOL     OW32092   0.851   3.237   4.199  0.6871 -0.3534  0.6263
 6819SOL    HW132093   0.837   3.269   4.288  0.2460 -1.7710  1.0640
 6819SOL    HW232094   0.786   3.167   4.193 -1.1615  1.2947  1.4965
 6820SOL     OW32095   0.388   2.159   5.791 -0.0363  0.1931 -0.3236
 6820SOL    HW132096   0.404   2.240   5.743  0.8496  0.8709  1.1402
 6820SOL    HW232097   0.305   2.132   5.752 -1.1808  2.0710  0.8346
 6821SOL     OW32098   0.642   1.305   3.008  0.1941 -0.2246 -0.2583
 6821SOL    HW132099   0.669   1.217   2.983 -0.2577 -0.9323  1.7351
 6821SOL    HW232100   0.676   1.305   3.097 -1.2480  1.7516  0.2991
 6822SOL     OW32101   0.498   2.587   7.430  0.2826  0.0125  0.3728
 6822SOL    HW132102   0.549   2.523   7.478  0.3446  0.6639  1.1644
 6822SOL    HW232103   0.464   2.644   7.499  0.8230 -0.3197  0.9106
 6823SOL     OW32104   0.437   3.649   7.262 -0.6251  0.0314  0.5976
 6823SOL    HW132105   0.389   3.689   7.335 -2.5731 -0.8833 -0.1898
 6823SOL    HW232106   0.374   3.652   7.190 -1.3075  0.7550  1.2338
 6824SOL     OW32107   2.251   3.910   7.932 -0.6561  0.5114  0.3776
 6824SOL    HW132108   2.242   3.871   8.019  1.0842 -3.2921 -1.1397
 6824SOL    HW232109   2.188   3.982   7.928  0.0766  0.9492 -3.6235
 6825SOL     OW32110   3.034   2.701  10.810 -0.4651 -0.0301 -0.0636
 6825SOL    HW132111   3.025   2.795  10.823  1.5997  0.0421  0.8662
 6825SOL    HW232112   3.097   2.675  10.878  1.1830 -1.9525 -2.3110
 6826SOL     OW32113   3.264   1.259   8.372  0.5059 -0.8104  0.6072
 6826SOL    HW132114   3.175   1.286   8.352  0.6405 -0.0518  1.0323
 6826SOL    HW232115   3.244   1.174   8.410  0.0640 -0.5660  0.9108
 6827SOL     OW32116   2.460   3.648  14.167 -0.1545  0.3541  0.8319
 6827SOL    HW132117   2.415   3.667  14.085 -1.1723  0.2129  1.3632
 6827SOL    HW232118   2.529   3.588  14.139 -0.7314 -0.0713  0.3343
 6828SOL     OW32119   4.726   4.529  16.488  0.4842  0.3327 -0.4441
 6828SOL    HW132120   4.678   4.446  16.478  4.2634 -1.9138 -0.0808
 6828SOL    HW232121   4.694   4.558  16.574  2.6575  2.1609 -0.2641
 6829SOL     OW32122   1.746   0.609   4.608 -0.0036 -0.2091  0.0825
 6829SOL    HW132123   1.786   0.676   4.662 -1.2405 -0.0515  0.7915
 6829SOL    HW232124   1.763   0.534   4.666 -0.3579 -0.7788 -0.5404
 6830SOL     OW32125   1.189   0.390  13.421  0.4798  0.4143 -0.4953
 6830SOL    HW132126   1.146   0.455  13.365 -0.6979 -0.0723 -0.1585
 6830SOL    HW232127   1.204   0.453  13.491  0.9503 -0.3808  0.1134
 6831SOL     OW32128   3.266   4.017   0.909  0.7367  0.4215 -0.0002
 6831SOL    HW132129   3.220   4.000   0.991 -0.3089 -0.0680 -0.6951
 6831SOL    HW232130   3.194   4.022   0.846  0.6792 -0.5869 -0.0141
 6832SOL     OW32131   3.043   4.101   2.881  0.1103 -0.0863 -0.1082
 6832SOL    HW132132   3.094   4.052   2.946 -0.3462  0.2225  0.4781
 6832SOL    HW232133   2.954   4.079   2.908  0.3974 -0.3099  0.6670
 6833SOL     OW32134   3.773   3.170   5.048  0.5572 -0.0795  0.5728
 6833SOL    HW132135   3.694   3.220   5.027 -0.9574 -2.1906  1.1380
 6833SOL    HW232136   3.788   3.137   4.960  0.0296  2.5188 -0.4823
 6834SOL     OW32137   2.706   1.780   9.541 -0.2959 -0.2689  0.6924
 6834SOL    HW132138   2.748   1.706   9.497 -1.3929 -0.1275 -0.5758
 6834SOL    HW232139   2.617   1.743   9.539 -0.1649 -0.5768  0.5690
 6835SOL     OW32140   3.330   2.520  14.856 -0.2801  0.3275 -1.2024
 6835SOL    HW132141   3.398   2.579  14.824  1.0001  0.7795  2.3477
 6835SOL    HW232142   3.257   2.542  14.797 -3.1311 -2.5996  1.2238
 6836SOL     OW32143   0.693   2.085   5.757 -0.0044  0.2098  0.4859
 6836SOL    HW132144   0.654   2.095   5.671  0.4758 -1.4585  0.0713
 6836SOL    HW232145   0.616   2.116   5.805  0.4404 -1.1101  2.0746
 6837SOL     OW32146   2.772   2.041  17.461  0.0070  0.9148 -0.1283
 6837SOL    HW132147   2.743   2.052  17.551  1.4385  0.5642  0.3779
 6837SOL    HW232148   2.726   1.966  17.423 -0.7936  1.2700  0.1470
 6838SOL     OW32149   3.123   4.467   4.094  0.1208  0.2030 -0.4711
 6838SOL    HW132150   3.127   4.496   4.003  1.4201 -0.1384 -0.5117
 6838SOL    HW232151   3.057   4.397   4.093  1.8212 -1.4338  1.4397
 6839SOL     OW32152   1.286   1.619   2.621  0.4901 -0.0101  0.0186
 6839SOL    HW132153   1.219   1.651   2.681  0.9569  0.8559  0.0771
 6839SOL    HW232154   1.238   1.654   2.545  0.3702  0.3533  0.2594
 6840SOL     OW32155   3.051   2.399   1.596  0.0426  0.5427 -0.2066
 6840SOL    HW132156   2.966   2.394   1.639 -0.9624  0.4856 -2.2169
 6840SOL    HW232157   3.103   2.339   1.648  1.1888  1.0432 -0.7769
 6841SOL     OW32158   2.237   3.773  16.022  0.1122 -0.2063 -0.1121
 6841SOL    HW132159   2.207   3.827  16.096  0.9781 -0.5676  0.5002
 6841SOL    HW232160   2.225   3.690  16.067 -0.8105 -0.1595 -0.2730
 6842SOL     OW32161   2.460   2.830   5.495 -0.1556 -0.3272 -0.1596
 6842SOL    HW132162   2.390   2.791   5.443  1.4664 -1.5693 -1.4056
 6842SOL    HW232163   2.428   2.801   5.581  1.9607 -0.0906  0.7112
 6843SOL     OW32164   1.760   1.059  11.581 -0.4746  0.1052 -0.1241
 6843SOL    HW132165   1.709   0.983  11.607 -0.1918 -0.2940 -0.7387
 6843SOL    HW232166   1.754   1.053  11.486  1.2642 -2.7772 -0.0734
 6844SOL     OW32167   2.837   1.289   1.819 -0.5925 -0.1722 -0.5003
 6844SOL    HW132168   2.917   1.287   1.872  0.0738 -3.2739 -1.6196
 6844SOL    HW232169   2.867   1.321   1.734 -0.4082  0.3040 -0.2575
 6845SOL     OW32170   0.460   3.079  12.935 -0.1797  0.1511 -0.5424
 6845SOL    HW132171   0.421   3.154  12.889  1.2407  0.5621 -1.1030
 6845SOL    HW232172   0.517   3.054  12.862  0.7083 -1.9817  0.9053
 6846SOL     OW32173   0.956   0.333   4.083  0.2413 -0.5707 -0.4084
 6846SOL    HW132174   0.956   0.427   4.102  0.5427 -0.3583 -1.4352
 6846SOL    HW232175   1.009   0.340   4.004 -0.1706 -1.9309 -0.7897
 6847SOL     OW32176   4.195   3.741   6.503  0.2902 -0.5764  0.1416
 6847SOL    HW132177   4.114   3.697   6.477 -0.4272 -0.2120  1.7950
 6847SOL    HW232178   4.234   3.679   6.566  0.8696  0.8352  1.1699
 6848SOL     OW32179   0.133   3.089   5.195 -0.2447 -0.0763 -0.0574
 6848SOL    HW132180   0.073   3.100   5.269  0.8322  0.5636  0.7321
 6848SOL    HW232181   0.069   3.067   5.128 -1.0633  1.6065  0.1860
 6849SOL     OW32182   4.160   3.817   9.645  0.0476 -0.3795  0.1660
 6849SOL    HW132183   4.191   3.743   9.592 -0.4649  0.2905 -1.0477
 6849SOL    HW232184   4.103   3.869   9.589 -0.0860 -0.8310 -0.1232
 6850SOL     OW32185   4.334   4.282   1.245  0.1967 -0.5006  0.5457
 6850SOL    HW132186   4.339   4.275   1.150  1.8805 -1.1500  0.6838
 6850SOL    HW232187   4.425   4.305   1.261  0.1820 -0.2349  0.2335
 6851SOL     OW32188   3.991   2.105   2.645 -0.1162  0.6911 -0.3499
 6851SOL    HW132189   4.044   2.083   2.722 -2.4279  2.0295  1.5964
 6851SOL    HW232190   4.032   2.185   2.611 -1.4587  0.8743 -1.5214
 6852SOL     OW32191   3.624   0.448   0.685 -0.1954 -0.2085  0.5836
 6852SOL    HW132192   3.591   0.391   0.615 -0.5488  1.4170 -0.6105
 6852SOL    HW232193   3.537   0.488   0.696 -0.1129 -0.9031  3.6735
 6853SOL     OW32194   0.133   2.622   4.655  0.2851 -0.2658 -0.0523
 6853SOL    HW132195   0.046   2.625   4.694 -0.1091  1.1239 -1.0566
 6853SOL    HW232196   0.119   2.661   4.568 -2.1584  0.0037  0.4732
 6854SOL     OW32197   1.183   3.962   1.445 -0.3897  0.9901 -0.0564
 6854SOL    HW132198   1.212   3.880   1.405 -1.0257  0.9901 -0.5141
 6854SOL    HW232199   1.239   3.970   1.523 -1.2564 -1.9509  0.8823
 6855SOL     OW32200   2.162   2.385   7.484  0.0081  0.1652  0.1542
 6855SOL    HW132201   2.116   2.468   7.499  0.4615  0.6438 -1.1111
 6855SOL    HW232202   2.125   2.323   7.548  0.2199 -0.5930 -0.4630
 6856SOL     OW32203   4.436   1.737  15.097 -1.2201  0.0122 -0.1758
 6856SOL    HW132204   4.418   1.831  15.107  0.5807  0.2070  1.1587
 6856SOL    HW232205   4.351   1.711  15.060 -1.2128  1.3312 -1.1374
 6857SOL     OW32206   2.617   1.003  12.540 -0.1828  0.4182  0.2372
 6857SOL    HW132207   2.699   1.001  12.490 -0.0408 -0.7186  0.5098
 6857SOL    HW232208   2.642   1.010  12.632  1.9866  0.3476 -0.3599
 6858SOL     OW32209   4.322   3.743   4.730  0.0565  0.3878 -0.0772
 6858SOL    HW132210   4.295   3.714   4.817 -1.5694 -2.3106 -1.4821
 6858SOL    HW232211   4.343   3.656   4.695 -0.2507  0.4943 -0.5245
 6859SOL     OW32212   2.987   1.749   4.835 -0.0642  0.0744 -0.1351
 6859SOL    HW132213   2.999   1.824   4.776 -0.9383 -0.2820 -0.7596
 6859SOL    HW232214   3.018   1.686   4.771  0.5405 -1.3153  1.5241
 6860SOL     OW32215   3.611   0.729  13.178 -0.0721  0.2687 -0.1238
 6860SOL    HW132216   3.619   0.663  13.109  2.2395  0.1280  0.2517
 6860SOL    HW232217   3.706   0.743  13.187 -0.2389  2.0619 -1.2804
 6861SOL     OW32218   2.726   1.708   2.529  0.1541  0.1724  0.3680
 6861SOL    HW132219   2.642   1.664   2.544  0.4379 -0.1275  1.1250
 6861SOL    HW232220   2.706   1.801   2.542  0.7263  0.5884 -1.8587
 6862SOL     OW32221   3.809   0.442   1.447  0.2400 -0.2633 -0.4390
 6862SOL    HW132222   3.762   0.473   1.370 -0.9667 -2.9312 -0.7909
 6862SOL    HW232223   3.768   0.482   1.523  0.1423 -0.5565 -0.3348
 6863SOL     OW32224   0.656   3.426   7.033  0.0504 -0.0483  0.3058
 6863SOL    HW132225   0.713   3.454   6.962  1.1236 -2.1909  0.3020
 6863SOL    HW232226   0.576   3.395   6.990  0.1503 -0.2433  0.2567
 6864SOL     OW32227   3.239   1.291   3.245 -1.0415  0.1608 -0.4613
 6864SOL    HW132228   3.266   1.297   3.153 -2.8034 -0.1250 -0.9860
 6864SOL    HW232229   3.313   1.238   3.274  0.5102  1.9895 -1.0393
 6865SOL     OW32230   2.869   1.023   5.663  0.4694  0.7361 -0.1755
 6865SOL    HW132231   2.818   1.104   5.658  0.1521  0.4431 -1.5954
 6865SOL    HW232232   2.846   0.994   5.751  0.1944  0.3363 -0.3803
 6866SOL     OW32233   2.507   0.545   4.430 -0.0355 -0.1290 -0.0252
 6866SOL    HW132234   2.578   0.603   4.457 -0.6733  0.4722  0.3742
 6866SOL    HW232235   2.509   0.494   4.511 -1.7847 -0.0933  0.0450
 6867SOL     OW32236   2.320   2.032   0.253 -0.1358  0.1334 -0.1147
 6867SOL    HW132237   2.277   2.101   0.304 -0.3242  0.3247 -0.5343
 6867SOL    HW232238   2.318   1.959   0.315 -2.6111 -1.2489 -1.8264
 6868SOL     OW32239   2.826   2.275   1.671 -0.2158  0.1355  0.9464
 6868SOL    HW132240   2.732   2.272   1.689 -0.5474  2.0957 -0.3614
 6868SOL    HW232241   2.877   2.233   1.739  1.0548 -0.6270 -0.4784
 6869SOL     OW32242   0.871   4.491  11.589 -0.9387  0.1841  0.2347
 6869SOL    HW132243   0.809   4.520  11.656  0.7403  2.9072  0.6059
 6869SOL    HW232244   0.849   4.398  11.587 -0.2362  0.0244 -0.0823
 6870SOL     OW32245   0.757   3.071   1.745  0.4719 -0.0454  0.0023
 6870SOL    HW132246   0.697   3.145   1.753  0.3003  0.2364 -3.6267
 6870SOL    HW232247   0.699   2.998   1.764 -1.0365  0.9421 -0.7472
 6871SOL     OW32248   0.225   2.342   9.110  0.5502  0.0718  0.2560
 6871SOL    HW132249   0.273   2.302   9.183  2.0363  2.1350  0.3863
 6871SOL    HW232250   0.301   2.378   9.066  0.0795  1.9385  0.9909
 6872SOL     OW32251   4.622   2.157  13.593 -0.2096 -0.8679 -0.0599
 6872SOL    HW132252   4.592   2.170  13.683  0.9305 -1.2147  0.3674
 6872SOL    HW232253   4.566   2.219  13.546 -1.0026 -1.7025 -0.2324
 6873SOL     OW32254   0.973   0.408   2.768  0.8158 -0.2017  0.5203
 6873SOL    HW132255   1.019   0.399   2.851 -1.5629  0.8753  1.9624
 6873SOL    HW232256   1.016   0.346   2.711  2.1813  2.0243 -0.8747
 6874SOL     OW32257   1.913   2.664   5.415 -0.3565  0.3062  0.0023
 6874SOL    HW132258   1.986   2.610   5.447 -0.8563  1.2143  2.6473
 6874SOL    HW232259   1.866   2.685   5.495 -1.5999 -1.4320 -0.2962
 6875SOL     OW32260   4.459   3.202   3.937 -0.5359 -0.6358 -0.6579
 6875SOL    HW132261   4.444   3.143   4.010 -0.3733  2.4507  1.8762
 6875SOL    HW232262   4.502   3.268   3.991 -0.3935 -0.1964 -1.3017
 6876SOL     OW32263   3.887   4.556   6.965  0.5045 -0.0633  0.2258
 6876SOL    HW132264   3.821   4.556   7.033  0.7708 -1.7863  0.4872
 6876SOL    HW232265   3.953   4.509   7.016  0.2933  0.3980  0.9218
 6877SOL     OW32266   4.629   2.670   4.807 -0.0725  0.1294 -0.4431
 6877SOL    HW132267   4.600   2.579   4.798  0.5350 -0.1748  0.6944
 6877SOL    HW232268   4.553   2.693   4.861 -0.6251 -3.2823  0.1830
 6878SOL     OW32269   0.474   2.377   8.125  0.3216  0.0285  0.2412
 6878SOL    HW132270   0.547   2.356   8.068 -0.0848 -2.1219  0.5142
 6878SOL    HW232271   0.511   2.335   8.203  0.2182 -1.3836 -0.4767
 6879SOL     OW32272   0.091   0.444   7.104  0.1463 -0.5307 -0.3840
 6879SOL    HW132273   0.124   0.370   7.155  1.4118  1.3798  1.5241
 6879SOL    HW232274   0.102   0.517   7.164 -1.0770 -1.3306  0.8327
 6880SOL     OW32275   1.390   0.838  10.393  0.0858  0.4850  0.4567
 6880SOL    HW132276   1.361   0.834  10.485 -0.7957  3.4017  0.3207
 6880SOL    HW232277   1.483   0.815  10.397  0.3558  1.6134  0.7086
 6881SOL     OW32278   3.697   0.783  15.588 -0.1851  0.2775 -0.1102
 6881SOL    HW132279   3.666   0.809  15.501  0.5661  3.6373  0.5985
 6881SOL    HW232280   3.678   0.689  15.592 -2.8996  0.7178 -2.1411
 6882SOL     OW32281   3.587   3.422   7.752  0.1597 -0.1071  0.2229
 6882SOL    HW132282   3.626   3.493   7.804  1.4547 -0.1551 -0.6881
 6882SOL    HW232283   3.658   3.387   7.699  0.4976 -0.6082  1.0053
 6883SOL     OW32284   0.782   3.846   9.634  0.5080  0.1862 -0.1851
 6883SOL    HW132285   0.816   3.820   9.719 -1.7957 -2.3202 -0.0102
 6883SOL    HW232286   0.693   3.817   9.651  1.2058 -1.6411  0.3918
 6884SOL     OW32287   1.599   1.772   8.351  0.5052 -0.4103 -0.7083
 6884SOL    HW132288   1.651   1.805   8.277 -0.1816  2.1044 -0.0505
 6884SOL    HW232289   1.552   1.701   8.308 -0.0363 -1.8376  2.2165
 6885SOL     OW32290   2.998   2.795   8.957 -0.2149  0.2681 -0.4971
 6885SOL    HW132291   2.929   2.860   8.970  0.3537  1.2414 -2.3257
 6885SOL    HW232292   3.039   2.838   8.882  0.9223  0.6198  0.3217
 6886SOL     OW32293   3.298   2.048   6.868  0.2386 -0.1823  0.8137
 6886SOL    HW132294   3.384   2.067   6.905  1.0130 -0.0760 -1.0554
 6886SOL    HW232295   3.313   1.964   6.825  2.1287  0.7256 -0.2903
 6887SOL     OW32296   3.937   4.525  15.654  0.1235 -0.4702  0.6993
 6887SOL    HW132297   3.966   4.614  15.674  1.1107 -1.1313  2.2045
 6887SOL    HW232298   3.944   4.478  15.738 -0.3984  0.0082  1.0110
 6888SOL     OW32299   3.385   2.452   9.964  0.2013 -0.1788  0.4005
 6888SOL    HW132300   3.478   2.466   9.980  0.0894 -0.3104  1.1479
 6888SOL    HW232301   3.381   2.370   9.913 -0.4683 -0.1377  0.3794
 6889SOL     OW32302   0.927   2.124   6.317  0.0171 -0.0561  0.3255
 6889SOL    HW132303   0.833   2.127   6.300  0.2433  1.9980 -0.5004
 6889SOL    HW232304   0.936   2.218   6.329 -0.0386 -0.3275  2.4623
 6890SOL     OW32305   3.437   0.874   2.753 -0.6762  0.3881 -0.4389
 6890SOL    HW132306   3.481   0.938   2.809  0.3215  1.9345 -2.9742
 6890SOL    HW232307   3.415   0.932   2.680 -0.4302  1.3204  0.2141
 6891SOL     OW32308   2.033   4.642   5.671  0.1089  0.1811  0.0696
 6891SOL    HW132309   2.044   4.548   5.685 -0.7651  0.5649  3.4136
 6891SOL    HW232310   1.937   4.644   5.668  0.0947  0.0991  0.4266
 6892SOL     OW32311   0.600   1.889  11.816  0.1573  0.2554  0.0806
 6892SOL    HW132312   0.681   1.912  11.771 -1.0413  2.6017 -0.8348
 6892SOL    HW232313   0.623   1.819  11.878 -0.2617  0.0198 -0.0303
 6893SOL     OW32314   3.929   1.925   5.517 -0.1413 -0.0519 -0.5059
 6893SOL    HW132315   4.001   1.892   5.570  0.8225  1.3355 -0.9718
 6893SOL    HW232316   3.865   1.854   5.508 -0.2931  0.0355 -0.1160
 6894SOL     OW32317   1.370   3.371   7.772  0.3855 -0.1017 -0.1231
 6894SOL    HW132318   1.353   3.340   7.861  1.7188 -1.2648 -0.2691
 6894SOL    HW232319   1.444   3.313   7.752  0.9052  0.2371  0.8447
 6895SOL     OW32320   4.326   3.096   1.871 -0.2401  0.5102  0.1273
 6895SOL    HW132321   4.396   3.097   1.806  0.0412  1.4122  0.4449
 6895SOL    HW232322   4.286   3.177   1.837 -0.0340  0.1661 -0.9333
 6896SOL     OW32323   4.253   2.821   8.916 -0.3176  0.0796 -0.2514
 6896SOL    HW132324   4.210   2.886   8.860  2.5624  0.7162 -1.7555
 6896SOL    HW232325   4.200   2.742   8.906  0.3200 -0.3674 -0.0877
 6897SOL     OW32326   3.919   1.877  16.612  0.1132 -0.5166 -1.1640
 6897SOL    HW132327   3.845   1.849  16.667 -0.3776  1.9422 -0.5750
 6897SOL    HW232328   3.951   1.789  16.596 -3.9989 -2.1738 -0.3946
 6898SOL     OW32329   2.358   1.073  16.700  0.1155  0.5065 -0.2087
 6898SOL    HW132330   2.433   1.129  16.716  0.0025  0.6872 -0.3042
 6898SOL    HW232331   2.398   0.986  16.702 -1.5425 -0.2144  1.7230
 6899SOL     OW32332   0.343   3.156   3.163  0.0027  0.4811 -0.1188
 6899SOL    HW132333   0.378   3.139   3.251 -0.6012 -1.3308 -0.2314
 6899SOL    HW232334   0.416   3.125   3.109  0.0847  0.2918  0.1000
 6900SOL     OW32335   3.282   2.023   3.708  0.0902  0.5238 -0.1853
 6900SOL    HW132336   3.363   2.027   3.760 -1.1532 -0.3741  1.7918
 6900SOL    HW232337   3.297   2.095   3.647  1.9658 -1.4920 -2.1050
 6901SOL     OW32338   0.080   2.104  14.804  0.1952  0.4860 -0.2725
 6901SOL    HW132339   0.101   2.011  14.803  1.8630  0.8801 -1.2969
 6901SOL    HW232340   0.142   2.133  14.738 -1.7810  2.0225 -1.4761
 6902SOL     OW32341   4.210   0.027   6.590  0.0118  0.1732  0.3601
 6902SOL    HW132342   4.154   0.103   6.598 -0.3371 -0.2999  2.4521
 6902SOL    HW232343   4.181   4.711   6.664  0.4908  0.0442  0.4539
 6903SOL     OW32344   2.209   0.396  15.598  0.0858 -0.3181  0.2120
 6903SOL    HW132345   2.225   0.311  15.557  1.1578 -0.4899  0.9940
 6903SOL    HW232346   2.273   0.387  15.668 -0.2982 -1.1354  0.4689
 6904SOL     OW32347   0.667   1.605   8.948  0.1225 -0.6160  0.5851
 6904SOL    HW132348   0.645   1.675   9.009 -1.6389 -2.4221  2.0105
 6904SOL    HW232349   0.668   1.521   8.994  2.7160 -1.4757 -1.0521
 6905SOL     OW32350   2.318   3.577  13.740 -0.1332  0.1357 -0.6065
 6905SOL    HW132351   2.338   3.642  13.808  0.3985  0.3151 -0.9331
 6905SOL    HW232352   2.224   3.565  13.747 -0.4874  2.3736 -1.6798
 6906SOL     OW32353   0.334   2.229   5.501  0.0342 -0.1164 -0.2711
 6906SOL    HW132354   0.385   2.280   5.563  0.9843 -1.4146  0.0172
 6906SOL    HW232355   0.271   2.292   5.468 -1.8381 -0.8428  1.8978
 6907SOL     OW32356   0.385   3.345   3.990  0.5219  0.2601 -0.4665
 6907SOL    HW132357   0.445   3.334   4.063  0.5117 -1.9658 -0.7978
 6907SOL    HW232358   0.344   3.428   4.013 -1.5392 -0.9842  0.2754
 6908SOL     OW32359   0.044   3.254  15.309 -0.0196  0.1614  0.3678
 6908SOL    HW132360   4.711   3.191  15.318 -1.6636  2.2053  1.8253
 6908SOL    HW232361   0.118   3.215  15.356 -0.0886 -1.6302 -1.0256
 6909SOL     OW32362   3.123   1.942   5.948  0.3310  0.2018  0.5367
 6909SOL    HW132363   3.146   1.853   5.974 -0.0152 -0.6338 -2.0660
 6909SOL    HW232364   3.209   1.983   5.951  0.7400 -0.6292  0.0397
 6910SOL     OW32365   4.204   0.593   9.630  0.8160 -0.1674 -0.6560
 6910SOL    HW132366   4.213   0.506   9.592 -0.6711 -0.7748  0.4130
 6910SOL    HW232367   4.284   0.639   9.604  1.3225  0.8598  2.7008
 6911SOL     OW32368   2.846   0.135   4.393  0.0374 -0.1336 -0.1189
 6911SOL    HW132369   2.803   0.127   4.308  2.1531  3.0478 -1.4786
 6911SOL    HW232370   2.770   0.110   4.446 -0.5579 -0.0065 -0.9172
 6912SOL     OW32371   3.967   3.516   5.394  0.0630  0.5530  0.0345
 6912SOL    HW132372   3.942   3.573   5.321 -2.3336  0.9653  1.1739
 6912SOL    HW232373   3.966   3.428   5.355 -1.6763  1.1971 -1.3821
 6913SOL     OW32374   3.366   1.581   7.459  0.3732  0.2791  0.0654
 6913SOL    HW132375   3.374   1.672   7.431  0.2873  0.3492  0.2629
 6913SOL    HW232376   3.379   1.589   7.554  0.2311  4.5866 -0.2821
 6914SOL     OW32377   3.802   3.069   8.819 -0.5697  0.4293  0.1058
 6914SOL    HW132378   3.732   3.128   8.791 -0.6425  0.7462  0.9619
 6914SOL    HW232379   3.747   3.015   8.875  1.6683 -0.5271  1.3610
 6915SOL     OW32380   2.561   2.585   8.818  0.3717  0.4222 -0.0488
 6915SOL    HW132381   2.583   2.582   8.911 -1.7660  2.6247  0.5164
 6915SOL    HW232382   2.471   2.555   8.816  0.9480 -1.2290 -1.7996
 6916SOL     OW32383   1.571   3.748  15.141 -0.0894 -0.3403  0.5964
 6916SOL    HW132384   1.561   3.795  15.224  0.2604 -0.8170  0.9109
 6916SOL    HW232385   1.487   3.703  15.139 -0.2903  0.0144  1.0867
 6917SOL     OW32386   4.060   0.602   6.602  0.1516  0.0137  0.2326
 6917SOL    HW132387   4.017   0.565   6.680 -1.2106  0.2210 -0.4225
 6917SOL    HW232388   4.149   0.619   6.633 -0.4060  2.8417  0.2451
 6918SOL     OW32389   1.942   0.939   1.973  0.2282 -0.1747  0.1924
 6918SOL    HW132390   1.968   0.868   2.032  4.1228  2.3927  1.5116
 6918SOL    HW232391   2.011   0.937   1.906 -0.1217 -0.1453 -0.1680
 6919SOL     OW32392   2.140   2.491   4.061 -0.6185 -0.3524 -0.0720
 6919SOL    HW132393   2.095   2.429   4.118 -0.5643 -1.1656 -0.9107
 6919SOL    HW232394   2.073   2.521   4.000 -0.6350  0.5911  0.4042
 6920SOL     OW32395   2.101   3.941   7.661 -1.0137  0.1332  0.0542
 6920SOL    HW132396   2.049   3.952   7.741 -0.2266 -0.3143  0.6237
 6920SOL    HW232397   2.030   3.930   7.598  0.2377 -1.6815 -1.0417
 6921SOL     OW32398   0.957   1.389  15.015  0.0040 -0.3719  0.8108
 6921SOL    HW132399   0.943   1.455  15.084  0.9450  1.7679 -1.0370
 6921SOL    HW232400   1.045   1.413  14.987 -0.0526 -0.8105  0.2704
 6922SOL     OW32401   4.342   4.448  15.254 -0.0688  0.1960 -0.7965
 6922SOL    HW132402   4.364   4.356  15.240  0.3995  0.0931  0.6557
 6922SOL    HW232403   4.299   4.457  15.339 -0.9061  1.0394 -1.3091
 6923SOL     OW32404   2.496   1.683   4.682  0.1590 -0.2112 -0.2543
 6923SOL    HW132405   2.565   1.645   4.735  0.0883 -0.0424 -0.0419
 6923SOL    HW232406   2.464   1.752   4.739  1.4237  0.1759 -0.0234
 6924SOL     OW32407   3.255   1.047  12.933 -0.1906  0.8284 -0.0103
 6924SOL    HW132408   3.253   1.136  12.897 -0.1523  1.1626  0.8233
 6924SOL    HW232409   3.319   1.047  13.004  0.5233  1.6646 -0.6390
 6925SOL     OW32410   1.141   2.433  15.600  0.0728  0.1543 -0.4752
 6925SOL    HW132411   1.220   2.413  15.550 -1.0438  0.0082 -2.1925
 6925SOL    HW232412   1.189   2.462  15.677 -1.0721  4.3329 -1.2744
 6926SOL     OW32413   1.740   3.401   9.581 -0.3458  0.4059  0.0701
 6926SOL    HW132414   1.799   3.473   9.556 -0.1506 -0.1774 -1.1473
 6926SOL    HW232415   1.770   3.379   9.669  1.1080  1.1519 -0.2353
 6927SOL     OW32416   2.360   3.151   3.426 -0.6444 -0.1535 -0.2715
 6927SOL    HW132417   2.264   3.152   3.435 -0.7903  2.9755 -2.1693
 6927SOL    HW232418   2.359   3.085   3.356  1.4243 -1.5347  1.0220
 6928SOL     OW32419   3.076   4.057   0.717 -0.3354  0.2468 -0.0020
 6928SOL    HW132420   2.999   4.076   0.770 -0.6155  0.6329 -0.5565
 6928SOL    HW232421   3.078   4.135   0.662 -1.9409  0.6375  0.4937
 6929SOL     OW32422   3.086   0.801   7.013  0.6757 -0.4811 -0.1958
 6929SOL    HW132423   3.166   0.831   7.056  1.2393 -0.1155 -1.5066
 6929SOL    HW232424   3.124   0.723   6.974  1.7884 -0.8532  1.6566
 6930SOL     OW32425   0.879   4.178   9.518  0.0151  0.0910  0.4711
 6930SOL    HW132426   0.880   4.270   9.492 -1.4139  0.6749  2.5305
 6930SOL    HW232427   0.804   4.172   9.577  1.0498 -1.9800  1.5774
 6931SOL     OW32428   1.318   2.580   8.029  0.5985  0.4900  0.0069
 6931SOL    HW132429   1.332   2.539   7.943 -2.5087  1.4541 -0.9585
 6931SOL    HW232430   1.340   2.502   8.080  1.4764  0.5234 -0.3166
 6932SOL     OW32431   4.566   4.451   3.336 -0.3716  0.1633  0.4386
 6932SOL    HW132432   4.564   4.524   3.275  0.2206 -1.2550 -1.2777
 6932SOL    HW232433   4.549   4.495   3.420  1.8398  1.7053  0.0903
 6933SOL     OW32434   4.436   2.184   5.879  0.0865 -0.1425  0.5846
 6933SOL    HW132435   4.496   2.110   5.868  3.7158  2.8900 -0.1194
 6933SOL    HW232436   4.356   2.143   5.847 -0.0346 -0.6076  1.4812
 6934SOL     OW32437   2.222   0.998   3.524  0.1085 -0.0407 -0.1294
 6934SOL    HW132438   2.220   0.982   3.618 -1.7894 -1.1183 -0.3400
 6934SOL    HW232439   2.139   0.958   3.498  1.5328 -2.1723 -1.3138
 6935SOL     OW32440   1.319   4.077   4.962 -0.0131  0.1393 -0.1538
 6935SOL    HW132441   1.267   4.134   4.904  0.9904  1.9134  0.7054
 6935SOL    HW232442   1.380   4.034   4.903  1.9522  1.6783  0.7719
 6936SOL     OW32443   2.400   2.506   6.413 -0.3435 -0.7433 -0.1603
 6936SOL    HW132444   2.341   2.543   6.348  1.8038  1.1333 -1.0722
 6936SOL    HW232445   2.481   2.518   6.363 -2.8265 -0.3621 -4.0364
 6937SOL     OW32446   1.172   1.006   9.529 -0.0637  0.2753 -0.1035
 6937SOL    HW132447   1.229   1.082   9.531  0.3372 -0.0676  1.9460
 6937SOL    HW232448   1.232   0.932   9.534 -0.7042 -0.3119 -1.1349
 6938SOL     OW32449   4.659   1.223   3.521 -0.1122 -0.0882 -0.1401
 6938SOL    HW132450   4.587   1.235   3.583  0.4916  1.1078  0.3341
 6938SOL    HW232451   4.630   1.150   3.467  0.1453 -0.0969 -0.2678
 6939SOL     OW32452   3.086   0.817   7.587 -0.4248 -0.1170  0.1808
 6939SOL    HW132453   3.137   0.793   7.665 -2.2209  0.0467  1.3963
 6939SOL    HW232454   3.129   0.892   7.545 -0.9797 -0.1923 -0.5173
 6940SOL     OW32455   0.239   0.667  14.463  0.5382 -0.3797 -0.3268
 6940SOL    HW132456   0.256   0.755  14.430  0.8613  0.0776  1.0646
 6940SOL    HW232457   0.162   0.663  14.520  1.5294 -2.0223  0.8796
 6941SOL     OW32458   2.315   0.319   4.732  0.1704 -0.4196  0.6160
 6941SOL    HW132459   2.266   0.312   4.650 -1.1663 -1.2177  1.4830
 6941SOL    HW232460   2.391   0.375   4.717 -1.7276  2.1050  0.5874
 6942SOL     OW32461   1.765   0.431   9.614  0.7135 -0.4376  0.1124
 6942SOL    HW132462   1.734   0.341   9.613  0.5895 -0.3810 -1.0645
 6942SOL    HW232463   1.850   0.418   9.657  0.2759 -3.0944  0.1831
 6943SOL     OW32464   1.625   2.395  14.251 -0.1952 -0.0992 -0.0596
 6943SOL    HW132465   1.691   2.368  14.315  0.7014  1.8370 -0.1767
 6943SOL    HW232466   1.684   2.394  14.176  2.4815 -0.3476  2.0741
 6944SOL     OW32467   0.558   0.467   4.677  0.1076 -0.0657  0.3123
 6944SOL    HW132468   0.606   0.413   4.614  0.3238 -1.4761  1.6598
 6944SOL    HW232469   0.488   0.512   4.629 -0.2879  0.8293  1.7173
 6945SOL     OW32470   2.231   2.147   2.294  0.1845 -0.2979 -0.0326
 6945SOL    HW132471   2.144   2.163   2.256  0.1184 -0.4591  0.0472
 6945SOL    HW232472   2.267   2.073   2.245 -1.6834 -0.4967 -1.0996
 6946SOL     OW32473   3.477   3.941  14.641  0.1179  0.2969  0.1172
 6946SOL    HW132474   3.522   3.980  14.566  1.7997 -1.9033 -0.0380
 6946SOL    HW232475   3.512   3.852  14.632 -1.2430 -0.3435  1.2604
 6947SOL     OW32476   2.088   1.054   8.495  0.1882  0.2612 -0.1543
 6947SOL    HW132477   2.020   1.049   8.561  3.3931 -0.0737  3.1099
 6947SOL    HW232478   2.138   1.129   8.528  0.6674 -0.3288  0.4480
 6948SOL     OW32479   3.423   4.038   5.182 -0.3049 -0.5549  0.2819
 6948SOL    HW132480   3.424   3.992   5.098 -2.3274  1.1752 -0.6838
 6948SOL    HW232481   3.502   4.005   5.225 -0.6614 -1.2121  0.4332
 6949SOL     OW32482   1.679   2.592   0.516  0.2187 -0.1622  0.9455
 6949SOL    HW132483   1.763   2.550   0.500 -0.9991 -1.6394 -1.4890
 6949SOL    HW232484   1.633   2.524   0.467 -0.0516 -0.3241  1.4205
 6950SOL     OW32485   4.138   2.217   0.500  0.2083  0.3113 -0.8497
 6950SOL    HW132486   4.072   2.176   0.556  2.8973  1.7069  3.3050
 6950SOL    HW232487   4.154   2.298   0.548  0.1675 -0.0507 -0.2280
 6951SOL     OW32488   3.012   3.359  16.077 -0.2033  0.0463 -0.1743
 6951SOL    HW132489   3.084   3.310  16.116  1.7545  2.1657 -1.1467
 6951SOL    HW232490   3.045   3.402  15.998 -2.1831  1.8977 -0.0080
 6952SOL     OW32491   0.837   3.296   4.466 -0.6159  0.3189  0.0684
 6952SOL    HW132492   0.793   3.346   4.535 -1.9238 -1.1501  0.3094
 6952SOL    HW232493   0.881   3.233   4.523  0.2950  0.0104 -0.9833
 6953SOL     OW32494   3.718   0.078   2.904 -0.3816  0.1773 -0.0316
 6953SOL    HW132495   3.776   0.073   2.979  1.3219 -1.2043 -1.4376
 6953SOL    HW232496   3.767   0.025   2.841  0.8260 -0.9434  1.8717
 6954SOL     OW32497   0.222   1.932   5.356 -0.4898 -0.9649  0.7641
 6954SOL    HW132498   0.303   1.895   5.320  0.1457  1.4897 -0.3449
 6954SOL    HW232499   0.254   1.997   5.418  0.9011  0.5913 -1.5696
 6955SOL     OW32500   4.293   4.223   6.701 -0.1594 -0.5240 -0.2202
 6955SOL    HW132501   4.303   4.278   6.623  1.1068  0.1205  0.4106
 6955SOL    HW232502   4.293   4.136   6.661  0.7531 -1.6759  2.3317
 6956SOL     OW32503   2.920   2.858   4.251  0.3275 -0.0496  0.3101
 6956SOL    HW132504   2.930   2.876   4.344  1.0433 -0.5362  0.3296
 6956SOL    HW232505   2.993   2.900   4.206 -0.4056 -0.8729 -1.6590
 6957SOL     OW32506   0.001   1.849   0.149 -0.6623  0.4708  0.6035
 6957SOL    HW132507   4.694   1.811   0.073 -1.1326  0.2557  0.9899
 6957SOL    HW232508   4.719   1.941   0.133 -0.4036  0.7950  2.1431
 6958SOL     OW32509   1.498   0.368   2.901  0.2455  0.7744 -0.3055
 6958SOL    HW132510   1.561   0.432   2.867 -0.4775  0.4020 -2.3098
 6958SOL    HW232511   1.532   0.377   2.990 -0.8159 -2.5119  0.4248
 6959SOL     OW32512   4.539   1.480   9.447 -0.2263 -0.2617 -0.1956
 6959SOL    HW132513   4.570   1.460   9.359 -1.2035  1.9014 -1.0242
 6959SOL    HW232514   4.546   1.392   9.485 -1.2095  0.5419  1.8696
 6960SOL     OW32515   4.376   4.670   7.957 -0.3717 -0.6999 -0.2306
 6960SOL    HW132516   4.371   4.702   8.047  1.1146  1.4857 -0.9125
 6960SOL    HW232517   4.303   4.610   7.973 -1.5608  0.4822 -1.2011
 6961SOL     OW32518   2.495   3.804   6.246  0.1180 -0.0915 -0.1420
 6961SOL    HW132519   2.587   3.781   6.233  0.1118  0.3085 -0.8927
 6961SOL    HW232520   2.500   3.899   6.253  0.0553  0.2638 -4.7598
 6962SOL     OW32521   3.329   1.904   6.246  0.6321 -0.0831  0.2114
 6962SOL    HW132522   3.416   1.940   6.231  0.3099  0.5060 -0.1888
 6962SOL    HW232523   3.353   1.811   6.254  1.1459 -0.0462 -0.9728
 6963SOL     OW32524   2.750   1.791  12.851 -0.2921 -0.0812  0.2203
 6963SOL    HW132525   2.786   1.833  12.773 -1.2061  1.8911  0.8630
 6963SOL    HW232526   2.816   1.810  12.918  0.0541  1.1935 -0.4927
 6964SOL     OW32527   3.224   0.575  12.836  0.4612 -0.2357 -0.8214
 6964SOL    HW132528   3.270   0.658  12.820 -0.9812  0.5180 -1.0824
 6964SOL    HW232529   3.264   0.526  12.765  1.3142  2.2314 -2.0412
 6965SOL     OW32530   3.072   1.091   9.295 -0.2269 -0.2803 -0.1080
 6965SOL    HW132531   2.977   1.094   9.281 -0.2102  1.2369  0.0450
 6965SOL    HW232532   3.078   1.095   9.390 -0.2508  0.2975 -0.1310
 6966SOL     OW32533   1.490   2.985   7.113 -0.2409  0.5694 -0.0761
 6966SOL    HW132534   1.406   2.994   7.159 -0.0284 -0.3985  0.5082
 6966SOL    HW232535   1.519   3.076   7.106 -1.1704  0.8518 -0.2515
 6967SOL     OW32536   1.252   4.419  16.437  0.0828  0.1089 -0.1561
 6967SOL    HW132537   1.167   4.395  16.401  0.9336  2.3841 -3.6788
 6967SOL    HW232538   1.259   4.504  16.392  2.6174  0.0699  0.1856
 6968SOL     OW32539   3.911   3.155   2.343  0.4358  0.0272  0.1144
 6968SOL    HW132540   3.831   3.152   2.290  0.8436  0.5405 -0.5285
 6968SOL    HW232541   3.928   3.247   2.361  0.6357 -0.2229  1.2474
 6969SOL     OW32542   3.647   1.629   2.801  0.6102 -0.5082  0.1647
 6969SOL    HW132543   3.570   1.576   2.821 -1.2417  2.4747  0.9478
 6969SOL    HW232544   3.681   1.639   2.890  1.1676 -0.9859  0.0068
 6970SOL     OW32545   1.437   0.206   9.753  0.0157  0.6386 -0.2844
 6970SOL    HW132546   1.407   0.125   9.794  0.5912  0.0727 -0.9823
 6970SOL    HW232547   1.514   0.227   9.805  0.3994 -0.0427 -0.5780
 6971SOL     OW32548   2.783   0.793   7.591 -0.1053  0.5474 -0.4797
 6971SOL    HW132549   2.785   0.723   7.525 -0.1355 -0.9965  1.1753
 6971SOL    HW232550   2.875   0.819   7.600  0.0975 -0.3422  0.0333
 6972SOL     OW32551   0.284   1.216   3.866  0.4419 -0.3960 -0.5872
 6972SOL    HW132552   0.268   1.271   3.943  1.4212  0.8420 -1.2699
 6972SOL    HW232553   0.210   1.224   3.806 -1.3764 -0.0051  1.6860
 6973SOL     OW32554   0.623   0.767   9.956  0.5759  0.1081  0.8295
 6973SOL    HW132555   0.546   0.807   9.915  0.0940 -2.0898 -0.4260
 6973SOL    HW232556   0.687   0.826   9.915  0.5926 -0.7013 -0.3207
 6974SOL     OW32557   3.590   4.415   6.085 -0.1332 -0.1895 -0.1541
 6974SOL    HW132558   3.530   4.378   6.020 -2.8339 -0.6519  2.6566
 6974SOL    HW232559   3.651   4.464   6.029 -0.1104  0.9456  0.8775
 6975SOL     OW32560   1.682   0.620  15.981 -0.1780  0.0688  0.0652
 6975SOL    HW132561   1.603   0.637  15.930  0.6552  1.6624 -0.6990
 6975SOL    HW232562   1.685   0.705  16.025  4.3523 -0.5282  0.9355
 6976SOL     OW32563   2.710   3.945   8.707 -0.3860 -0.0174 -0.0003
 6976SOL    HW132564   2.639   3.884   8.730  0.8932 -0.0576  3.8137
 6976SOL    HW232565   2.694   4.012   8.773 -0.6423  0.7609 -0.8415
 6977SOL     OW32566   3.030   4.316   9.932  0.3695  0.1596 -0.0987
 6977SOL    HW132567   3.121   4.314   9.902  0.1829 -0.5915 -0.6273
 6977SOL    HW232568   2.997   4.272   9.854  2.4952 -2.3196  0.3856
 6978SOL     OW32569   3.153   2.405   6.616 -0.0362 -0.3607 -0.1467
 6978SOL    HW132570   3.135   2.327   6.669 -2.6046 -0.1246 -0.6926
 6978SOL    HW232571   3.214   2.378   6.547  1.2826 -2.2272  1.7471
 6979SOL     OW32572   4.523   1.459  12.018  0.2354 -0.4640  0.5083
 6979SOL    HW132573   4.553   1.486  11.930  0.8192  1.9235  1.4250
 6979SOL    HW232574   4.523   1.365  12.004  0.9139 -0.2128 -1.2505
 6980SOL     OW32575   4.566   1.542   8.022 -0.2423 -0.0551 -0.5176
 6980SOL    HW132576   4.568   1.481   7.948  0.3136 -2.8870  1.8235
 6980SOL    HW232577   4.522   1.616   7.980 -1.2153  0.0900  0.7468
 6981SOL     OW32578   2.804   2.864  13.194 -0.1153 -0.2350 -0.1901
 6981SOL    HW132579   2.802   2.953  13.158  2.5469 -0.1880 -0.2156
 6981SOL    HW232580   2.890   2.830  13.169  0.1793  1.5970 -1.7339
 6982SOL     OW32581   2.512   1.815   8.095  0.3342  0.0348  0.3015
 6982SOL    HW132582   2.538   1.821   8.187  0.1528  0.3244  0.3351
 6982SOL    HW232583   2.446   1.884   8.090  0.0813 -0.2814 -0.5960
 6983SOL     OW32584   4.164   4.546   8.522 -0.3006 -0.0305  0.5809
 6983SOL    HW132585   4.252   4.514   8.503  0.4795  1.8088  1.1574
 6983SOL    HW232586   4.151   4.497   8.603 -0.2330  0.1000  0.6715
 6984SOL     OW32587   0.400   1.528   9.334 -0.0287 -0.4754  0.2003
 6984SOL    HW132588   0.327   1.468   9.347  0.7386 -1.4475 -0.0055
 6984SOL    HW232589   0.356   1.572   9.262 -1.7222 -1.7047  0.5085
 6985SOL     OW32590   0.889   2.556   1.736  0.1661  0.5521  0.0609
 6985SOL    HW132591   0.815   2.500   1.713  0.2232  0.6121 -0.2596
 6985SOL    HW232592   0.852   2.629   1.686 -1.1249 -0.9667 -1.1583
 6986SOL     OW32593   0.687   0.122   1.460  0.5064 -0.0897  0.0676
 6986SOL    HW132594   0.763   0.130   1.402  0.8346 -0.0266  0.5071
 6986SOL    HW232595   0.725   0.146   1.545 -2.3467 -1.3615  1.6983
 6987SOL     OW32596   3.114   0.995   4.302 -0.1820 -0.3880  0.1049
 6987SOL    HW132597   3.027   0.964   4.278 -1.8243  2.6720  2.0487
 6987SOL    HW232598   3.159   0.992   4.217 -2.0073  3.7322 -1.0329
 6988SOL     OW32599   1.337   0.371   7.179  0.0828 -0.5271  0.0073
 6988SOL    HW132600   1.413   0.380   7.122  0.5343  0.5938  0.7876
 6988SOL    HW232601   1.392   0.335   7.249 -1.6897 -0.5044  1.4359
 6989SOL     OW32602   1.278   2.249   5.098 -0.3381 -0.2658 -0.0181
 6989SOL    HW132603   1.183   2.251   5.083 -0.5787 -0.8099  1.4164
 6989SOL    HW232604   1.319   2.200   5.027  1.9247  1.1312  0.3338
 6990SOL     OW32605   3.972   1.625  16.573 -0.2103 -0.3768 -0.1347
 6990SOL    HW132606   3.983   1.587  16.486  1.2887 -2.9675  1.1670
 6990SOL    HW232607   4.033   1.583  16.634  0.2658  1.0099  0.3423
 6991SOL     OW32608   4.348   4.418   7.194  0.3058 -0.4989 -0.7007
 6991SOL    HW132609   4.428   4.410   7.141  1.8110 -0.5127  1.5492
 6991SOL    HW232610   4.339   4.327   7.221 -0.7239 -0.6311 -1.5284
 6992SOL     OW32611   0.383   3.262   5.745 -0.0129 -0.0090  0.2847
 6992SOL    HW132612   0.309   3.253   5.806  1.2922 -1.9083  1.5681
 6992SOL    HW232613   0.344   3.265   5.658  0.5456  0.0784  0.0397
 6993SOL     OW32614   3.035   1.517   3.024 -0.5274  0.3439 -0.1418
 6993SOL    HW132615   3.028   1.427   3.053 -1.7042  0.6611  0.5648
 6993SOL    HW232616   3.021   1.571   3.102  0.1582  0.8484 -0.3723
 6994SOL     OW32617   1.370   4.155  13.939 -0.2336 -0.1794  0.2374
 6994SOL    HW132618   1.362   4.249  13.949 -0.3040 -0.0296 -1.2631
 6994SOL    HW232619   1.449   4.146  13.887 -1.2043  0.5718 -1.3666
 6995SOL     OW32620   2.889   1.417  11.109 -0.5393 -0.2320 -0.3501
 6995SOL    HW132621   2.822   1.453  11.051 -0.5394 -0.0533 -0.2380
 6995SOL    HW232622   2.920   1.499  11.147  0.2979 -0.3631 -0.7463
 6996SOL     OW32623   0.602   1.775  14.192  0.0847 -0.4142  0.3047
 6996SOL    HW132624   0.582   1.735  14.107  0.9853 -0.3328  0.0638
 6996SOL    HW232625   0.649   1.847  14.151 -0.2218 -0.6301 -0.4247
 6997SOL     OW32626   3.160   2.913   6.458  0.1739  0.1297  0.0784
 6997SOL    HW132627   3.107   2.986   6.427  0.1639  0.9738  2.0764
 6997SOL    HW232628   3.100   2.867   6.518 -0.6066 -0.0848 -0.8706
 6998SOL     OW32629   2.922   1.903   8.296  0.1076  0.4208 -0.0928
 6998SOL    HW132630   2.946   1.983   8.344  1.3605 -0.0360  0.0522
 6998SOL    HW232631   3.010   1.869   8.278 -0.2951 -0.6418 -0.0503
 6999SOL     OW32632   3.926   0.592  12.494 -0.9001  0.4387 -0.1428
 6999SOL    HW132633   3.951   0.684  12.486  1.0490 -0.0547  0.3364
 6999SOL    HW232634   3.925   0.583  12.589  1.0537 -0.7101 -0.2434
 7000SOL     OW32635   0.319   1.143  14.233  0.2674  0.2128  0.0785
 7000SOL    HW132636   0.335   1.219  14.289  3.1634  0.1531 -0.6551
 7000SOL    HW232637   0.298   1.187  14.150  0.6682  0.5228  0.1384
 7001SOL     OW32638   1.078   0.024   3.689  0.1762 -0.4665 -0.5631
 7001SOL    HW132639   1.098   0.084   3.762 -1.4746  0.9086 -1.2413
 7001SOL    HW232640   1.143   4.693   3.706 -0.0767 -0.5442  0.0997
 7002SOL     OW32641   0.408   3.069   9.074  0.0003 -0.2275 -0.0047
 7002SOL    HW132642   0.474   3.078   9.142  0.1745 -2.8972  0.1736
 7002SOL    HW232643   0.341   3.133   9.099 -0.0821  0.7106 -2.6832
 7003SOL     OW32644   3.955   4.022   9.623  0.4251  0.5640 -0.1250
 7003SOL    HW132645   3.884   4.019   9.558  0.4139 -1.4892 -0.0034
 7003SOL    HW232646   3.889   4.032   9.692  1.5275 -1.7496  1.2619
 7004SOL     OW32647   1.593   3.928   4.464  0.0939  0.3187  0.4283
 7004SOL    HW132648   1.677   3.965   4.492  0.3752  0.2607 -0.3382
 7004SOL    HW232649   1.607   3.836   4.489 -1.1743 -0.3670 -1.3468
 7005SOL     OW32650   3.979   1.287  10.298 -0.5556 -0.4310 -0.7736
 7005SOL    HW132651   3.917   1.270  10.227  1.5010 -1.3137 -2.3923
 7005SOL    HW232652   3.952   1.215  10.354 -1.2928  0.6003  0.1769
 7006SOL     OW32653   0.042   2.995  15.398  0.3601  0.3387 -0.5774
 7006SOL    HW132654   0.096   2.988  15.477  0.3745  0.2945 -0.5911
 7006SOL    HW232655   4.721   2.921  15.411  0.6366  0.2888  0.3585
 7007SOL     OW32656   0.400   4.393   3.524  0.2292 -0.1994 -0.1084
 7007SOL    HW132657   0.455   4.329   3.570 -0.9896 -0.7498  0.5780
 7007SOL    HW232658   0.318   4.344   3.516  0.0973  0.1212 -0.7390
 7008SOL     OW32659   0.565   0.935  17.267 -1.1125  0.4411  0.2193
 7008SOL    HW132660   0.523   0.855  17.295 -2.1067  0.5313 -0.9940
 7008SOL    HW232661   0.656   0.907  17.258 -1.0133  1.3213 -1.6288
 7009SOL     OW32662   0.440   2.784   2.831  0.5616 -0.0825 -0.1271
 7009SOL    HW132663   0.521   2.779   2.882 -1.1002  0.3277  2.5353
 7009SOL    HW232664   0.393   2.863   2.858 -2.2355 -1.9831  0.6506
 7010SOL     OW32665   3.551   4.694   4.718 -0.1822  0.1867  0.3113
 7010SOL    HW132666   3.634   4.725   4.753 -0.3616  2.7930 -1.6088
 7010SOL    HW232667   3.512   4.690   4.805  0.8764  1.2706  0.8319
 7011SOL     OW32668   2.910   0.079   6.086 -0.3409 -0.2371 -0.6995
 7011SOL    HW132669   2.926   0.131   6.007 -0.2991  0.2985 -0.3391
 7011SOL    HW232670   2.878   4.737   6.043 -1.1685  0.1919 -0.8707
 7012SOL     OW32671   1.368   4.556  12.256  0.1565 -0.0432  0.1734
 7012SOL    HW132672   1.433   4.570  12.188 -0.9996  2.2887 -0.4466
 7012SOL    HW232673   1.291   4.589  12.209 -0.7494 -3.7582 -0.9908
 7013SOL     OW32674   1.104   4.279   2.270  0.7495  0.0723  0.2733
 7013SOL    HW132675   1.079   4.304   2.359  1.3026  0.6018  0.2804
 7013SOL    HW232676   1.090   4.358   2.217 -3.4084 -0.3811  0.7135
 7014SOL     OW32677   1.345   1.962   2.747 -0.2247 -0.4399 -0.4456
 7014SOL    HW132678   1.257   1.926   2.737 -1.4146  1.6908  2.2668
 7014SOL    HW232679   1.336   2.040   2.802  2.1590 -2.6161  3.0600
 7015SOL     OW32680   4.333   4.691   4.445 -0.0919 -0.5199  0.5149
 7015SOL    HW132681   4.400   4.629   4.417 -0.6343 -0.3909 -1.0820
 7015SOL    HW232682   4.276   4.632   4.493  0.4257 -0.1278  1.6002
 7016SOL     OW32683   1.446   1.672   6.079 -0.0996 -0.0423  0.5256
 7016SOL    HW132684   1.474   1.762   6.062  0.7309  0.0139  2.1662
 7016SOL    HW232685   1.351   1.678   6.071 -0.2060 -2.3464 -0.0679
 7017SOL     OW32686   3.689   0.359   2.315  0.0916  0.2612  0.4809
 7017SOL    HW132687   3.770   0.341   2.363  0.4370  0.6083  0.0208
 7017SOL    HW232688   3.678   0.286   2.253 -1.2198  0.7987  0.0716
 7018SOL     OW32689   0.525   4.376  16.819 -0.2816 -0.0465 -0.2304
 7018SOL    HW132690   0.575   4.367  16.738 -1.3902  0.1136 -0.9329
 7018SOL    HW232691   0.506   4.470  16.824 -0.1552 -0.0911  1.0721
 7019SOL     OW32692   1.707   2.743   0.037 -0.0773  0.3057 -0.4196
 7019SOL    HW132693   1.732   2.781   0.121 -1.5914  1.1041 -0.3233
 7019SOL    HW232694   1.795   2.708   0.023 -0.7124 -1.5459  0.3253
 7020SOL     OW32695   0.458   2.398   4.512  0.5252  0.2852 -0.5200
 7020SOL    HW132696   0.377   2.395   4.564  0.1159  0.4311 -1.1466
 7020SOL    HW232697   0.449   2.311   4.472 -1.6366 -0.1700  0.9603
 7021SOL     OW32698   0.725   2.484   5.239 -0.0407 -0.2384  0.2055
 7021SOL    HW132699   0.657   2.541   5.275  0.6829  0.3183  0.6969
 7021SOL    HW232700   0.686   2.397   5.236  1.0770 -0.6763 -1.1132
 7022SOL     OW32701   3.066   0.107   3.779  0.2255  0.0362  0.4768
 7022SOL    HW132702   3.121   0.137   3.851  0.0823  3.2683 -0.7571
 7022SOL    HW232703   3.131   0.077   3.715  0.4935 -0.5831  1.0390
 7023SOL     OW32704   3.830   4.490   8.124 -0.1121 -0.5785 -0.4876
 7023SOL    HW132705   3.869   4.561   8.175 -1.8631  0.8184 -1.0961
 7023SOL    HW232706   3.736   4.501   8.141  0.5763  1.1291  2.0249
 7024SOL     OW32707   4.717   0.076   4.190 -0.1316 -0.5502 -0.0655
 7024SOL    HW132708   0.014   0.029   4.265  3.1993  0.9176 -0.6874
 7024SOL    HW232709   4.699   4.731   4.145 -0.2819 -1.0725  0.9528
 7025SOL     OW32710   4.689   3.501   4.548  0.0320  0.7688 -0.5012
 7025SOL    HW132711   4.710   3.426   4.603 -0.2719  0.1426 -1.2323
 7025SOL    HW232712   0.002   3.572   4.588 -0.8429  1.0810  0.0407
 7026SOL     OW32713   3.810   0.816   1.095 -0.2315  0.0854  0.1609
 7026SOL    HW132714   3.798   0.724   1.072 -1.0827  0.9258 -2.7085
 7026SOL    HW232715   3.901   0.800   1.123 -0.1051 -0.3468 -0.4808
 7027SOL     OW32716   1.161   0.692   4.800  0.3379 -0.0034 -0.0940
 7027SOL    HW132717   1.074   0.714   4.769  0.5716  1.5474  0.3774
 7027SOL    HW232718   1.143   0.686   4.893 -2.2849  0.9069 -0.5364
 7028SOL     OW32719   0.368   0.233  11.815  0.0908  0.3523 -0.1266
 7028SOL    HW132720   0.333   0.148  11.840 -0.2500  0.1458 -1.2865
 7028SOL    HW232721   0.319   0.294  11.869  0.1304 -1.9031  2.4377
 7029SOL     OW32722   0.325   1.317   9.633  0.9001 -0.0452  0.4687
 7029SOL    HW132723   0.408   1.354   9.601  0.4791  1.0381  0.6272
 7029SOL    HW232724   0.268   1.380   9.589 -0.7296 -1.0660  1.1110
 7030SOL     OW32725   3.001   4.584  17.543 -0.6420  0.0817 -0.2213
 7030SOL    HW132726   2.975   4.657  17.600  2.4658  1.0833 -0.1065
 7030SOL    HW232727   2.997   4.513  17.607 -3.0728 -0.8713 -1.4433
 7031SOL     OW32728   3.814   4.660   2.358 -0.0238  0.9434 -0.3325
 7031SOL    HW132729   3.908   4.640   2.366 -0.8037 -2.3933  0.4072
 7031SOL    HW232730   3.816   4.703   2.273 -0.3183  0.6497 -0.4903
 7032SOL     OW32731   4.672   0.350   6.132 -0.3439 -0.2926 -0.0386
 7032SOL    HW132732   4.609   0.420   6.152 -0.2969 -1.0763  2.8191
 7032SOL    HW232733   0.000   0.411   6.096 -1.6520  0.6915 -0.7827
 7033SOL     OW32734   3.409   4.617   5.326  0.1282 -0.0332 -0.1849
 7033SOL    HW132735   3.372   4.603   5.238  1.6670 -1.4956 -0.5861
 7033SOL    HW232736   3.385   4.534   5.368  1.7300 -0.0156  0.7642
 7034SOL     OW32737   2.783   2.760   8.019 -0.1441  0.0137  0.1959
 7034SOL    HW132738   2.788   2.706   7.941  0.9863  1.5144 -0.7653
 7034SOL    HW232739   2.731   2.707   8.079  0.0453 -0.2958  0.0888
 7035SOL     OW32740   3.821   1.491   4.349 -0.0980 -0.0070 -0.3500
 7035SOL    HW132741   3.833   1.398   4.335  1.2134  0.5788 -3.1526
 7035SOL    HW232742   3.815   1.520   4.258 -3.0977 -0.8381 -0.4345
 7036SOL     OW32743   1.995   3.253   3.146 -0.7110 -0.0076 -0.7720
 7036SOL    HW132744   1.940   3.180   3.176 -0.0561 -0.7288 -1.3267
 7036SOL    HW232745   1.936   3.303   3.090 -0.7999 -0.2066 -0.8553
 7037SOL     OW32746   3.227   2.261   2.848 -0.4486 -0.1501  0.0333
 7037SOL    HW132747   3.158   2.234   2.786 -0.4741 -1.6198  0.6891
 7037SOL    HW232748   3.228   2.356   2.851 -0.1921 -0.2463  2.7035
 7038SOL     OW32749   0.620   3.134   5.802 -0.2146  0.5218 -0.2421
 7038SOL    HW132750   0.533   3.167   5.778 -0.9973 -1.8880 -0.6584
 7038SOL    HW232751   0.627   3.053   5.753 -2.3961  0.3462 -0.2674
 7039SOL     OW32752   3.246   1.571  14.448 -0.1156 -0.2891  0.3124
 7039SOL    HW132753   3.233   1.644  14.387  2.5094  1.4214  1.7731
 7039SOL    HW232754   3.198   1.603  14.524 -0.2113  0.9488 -0.2604
 7040SOL     OW32755   2.725   1.642   3.129 -0.4873  0.2147 -0.5181
 7040SOL    HW132756   2.788   1.664   3.198 -0.3800 -0.9664 -0.2339
 7040SOL    HW232757   2.682   1.568   3.172  0.1473 -0.9257 -1.8379
 7041SOL     OW32758   1.277   2.906   5.309  0.2128  1.2512 -0.2155
 7041SOL    HW132759   1.282   2.815   5.340 -1.4009 -0.0942 -3.9694
 7041SOL    HW232760   1.185   2.912   5.284  0.0486 -1.7671 -0.4085
 7042SOL     OW32761   4.370   1.209   7.384  0.1904 -0.5150  0.4255
 7042SOL    HW132762   4.446   1.255   7.418  0.9819 -0.3278 -1.6087
 7042SOL    HW232763   4.397   1.200   7.292 -1.5336  1.5373 -0.2847
 7043SOL     OW32764   2.123   4.407   7.912  0.0611 -0.4545  0.5302
 7043SOL    HW132765   2.160   4.488   7.876 -1.5053  0.5371  1.1826
 7043SOL    HW232766   2.179   4.401   7.990 -1.9129 -0.3268  1.9363
 7044SOL     OW32767   0.833   2.370   5.792  0.2670 -0.0601 -0.1305
 7044SOL    HW132768   0.770   2.425   5.747  2.0124  0.3924 -1.9963
 7044SOL    HW232769   0.843   2.288   5.744 -1.5521  0.7954 -1.9405
 7045SOL     OW32770   1.451   2.124   3.574  0.0309  0.1846 -0.3944
 7045SOL    HW132771   1.524   2.148   3.632 -0.2385 -0.7719  0.3464
 7045SOL    HW232772   1.398   2.203   3.578  0.9989  0.9542 -3.1344
 7046SOL     OW32773   4.364   1.186   2.354 -0.3012  0.2589 -0.5338
 7046SOL    HW132774   4.440   1.197   2.410  0.8204 -0.1984 -1.9694
 7046SOL    HW232775   4.358   1.276   2.323  0.2409  0.2899 -0.5362
 7047SOL     OW32776   1.256   3.716   1.805 -0.4404  0.4795  0.1648
 7047SOL    HW132777   1.323   3.682   1.746 -1.0869 -0.5935  0.0497
 7047SOL    HW232778   1.294   3.792   1.851  0.2797  0.6386 -0.6956
 7048SOL     OW32779   3.766   1.961   4.343 -0.1215 -0.3264  0.0475
 7048SOL    HW132780   3.816   2.031   4.300 -2.0918  1.0185 -0.0532
 7048SOL    HW232781   3.720   2.006   4.414 -0.3926 -0.6572  0.0784
 7049SOL     OW32782   3.408   2.958   5.125  0.0306  0.1779  0.3521
 7049SOL    HW132783   3.394   2.935   5.217  2.3124  0.1335  0.6710
 7049SOL    HW232784   3.466   2.891   5.090 -1.4417 -0.2122 -1.3250
 7050SOL     OW32785   4.421   1.452   2.967  0.1877 -0.1550 -0.0902
 7050SOL    HW132786   4.414   1.383   2.901  0.1244 -1.0097  0.8162
 7050SOL    HW232787   4.467   1.518   2.914  0.1410  0.4627  0.6458
 7051SOL     OW32788   4.473   4.691  11.369 -0.1622  0.1271  0.6961
 7051SOL    HW132789   4.415   4.689  11.293  0.0218 -2.0202  0.6203
 7051SOL    HW232790   4.515   4.605  11.367  0.4882  0.3950  2.4898
 7052SOL     OW32791   3.492   1.434  14.377 -0.1516 -0.2228  0.1626
 7052SOL    HW132792   3.483   1.458  14.285 -0.8957  0.4219  0.3988
 7052SOL    HW232793   3.418   1.485  14.410  0.9679  0.7184  1.2048
 7053SOL     OW32794   0.469   3.347   8.268 -0.1207 -0.0499  0.3017
 7053SOL    HW132795   0.395   3.393   8.306  0.1843 -0.5604  1.5014
 7053SOL    HW232796   0.464   3.376   8.177  0.8555  0.2497  0.3416
 7054SOL     OW32797   0.698   3.821  15.651 -0.5032 -0.3699 -0.3019
 7054SOL    HW132798   0.606   3.797  15.662 -0.0166 -1.9266  0.3646
 7054SOL    HW232799   0.702   3.905  15.696 -3.9306  1.1772 -2.8677
 7055SOL     OW32800   1.607   0.532   5.502 -0.3298 -0.0437 -0.1065
 7055SOL    HW132801   1.652   0.590   5.442 -1.2031  0.0890 -0.6283
 7055SOL    HW232802   1.602   0.579   5.585 -2.8627 -0.7034  0.1199
 7056SOL     OW32803   0.525   3.849   3.438 -0.5303  0.1186  0.6614
 7056SOL    HW132804   0.505   3.775   3.380 -1.7572 -0.1435  1.4250
 7056SOL    HW232805   0.596   3.808   3.488  0.5131  3.1592  1.6724
 7057SOL     OW32806   2.597   0.746  11.514  0.6554  0.2691  0.1675
 7057SOL    HW132807   2.621   0.822  11.461  1.2261  0.4961  0.7458
 7057SOL    HW232808   2.551   0.794  11.584 -0.6452 -0.0357 -0.4889
 7058SOL     OW32809   1.154   1.037  13.194 -0.0009  0.2951  0.1683
 7058SOL    HW132810   1.195   1.052  13.109  2.6166  1.2799  1.6029
 7058SOL    HW232811   1.185   0.948  13.213 -1.6047 -0.3863 -0.3811
 7059SOL     OW32812   2.015   3.350   6.416 -0.2044  0.5625 -0.4198
 7059SOL    HW132813   2.063   3.432   6.410  0.3293  0.1119 -2.4582
 7059SOL    HW232814   1.970   3.360   6.332 -1.7445  1.3628  0.4940
 7060SOL     OW32815   1.416   0.604   9.044  0.2685 -0.8413  0.2568
 7060SOL    HW132816   1.381   0.547   9.112 -0.5984  0.2986  0.7626
 7060SOL    HW232817   1.372   0.559   8.972  1.7119  1.0323 -1.8362
 7061SOL     OW32818   4.482   0.580   6.875  0.6025  0.1079  0.1560
 7061SOL    HW132819   4.523   0.520   6.937  0.5139  1.2337  1.2980
 7061SOL    HW232820   4.548   0.639   6.839 -1.0631  0.3215 -2.5664
 7062SOL     OW32821   2.784   0.623   7.352 -0.3204  0.1718  0.3655
 7062SOL    HW132822   2.803   0.561   7.423 -1.0022 -0.1444  0.2777
 7062SOL    HW232823   2.871   0.644   7.319 -0.4021  0.1906  0.1671
 7063SOL     OW32824   3.006   0.035   6.548 -0.1642  0.4795  0.7153
 7063SOL    HW132825   2.959   4.703   6.595  1.8973 -1.3672  0.0539
 7063SOL    HW232826   2.950   0.112   6.552 -0.9642 -0.1295  1.3485
 7064SOL     OW32827   1.141   0.845   7.627  0.0857 -0.3786  0.1047
 7064SOL    HW132828   1.140   0.917   7.689  2.9829 -0.0637 -0.1974
 7064SOL    HW232829   1.115   0.773   7.684  1.8043 -0.5348  0.6927
 7065SOL     OW32830   2.559   3.150   9.282  0.1574  0.3926  0.5895
 7065SOL    HW132831   2.481   3.135   9.335  0.7633 -0.0584  1.3346
 7065SOL    HW232832   2.599   3.064   9.286  1.8644  1.2774  2.4521
 7066SOL     OW32833   0.272   3.776   7.066  0.1432 -0.1536 -0.0851
 7066SOL    HW132834   0.245   3.867   7.080 -0.5604 -0.9818  3.8812
 7066SOL    HW232835   0.354   3.792   7.020  0.1065  0.6274  0.1202
 7067SOL     OW32836   3.056   3.828  15.548 -0.7112  0.2483  0.1505
 7067SOL    HW132837   3.143   3.803  15.516 -0.3627  3.1236 -1.1863
 7067SOL    HW232838   3.067   3.922  15.538  0.9812  0.0265 -0.0746
 7068SOL     OW32839   1.726   3.939   1.151  0.3889 -0.5781 -0.2633
 7068SOL    HW132840   1.675   3.889   1.216 -0.6031  0.8801  0.0668
 7068SOL    HW232841   1.658   3.980   1.099  1.3141  1.1194 -0.1187
 7069SOL     OW32842   2.412   0.275   2.381  0.7667  0.1642  0.2113
 7069SOL    HW132843   2.465   0.233   2.314 -0.0119  1.7854 -1.4027
 7069SOL    HW232844   2.481   0.267   2.447 -0.4548 -0.7058  1.4035
 7070SOL     OW32845   0.671   4.559   8.889  0.5637  0.3891  0.3718
 7070SOL    HW132846   0.651   4.650   8.914 -0.5138  0.0692  0.6475
 7070SOL    HW232847   0.608   4.516   8.947  1.6884 -0.1592  1.1814
 7071SOL     OW32848   4.292   0.691  16.362  0.2122 -0.3424 -0.1949
 7071SOL    HW132849   4.214   0.644  16.392  0.0328 -0.5575 -0.9948
 7071SOL    HW232850   4.313   0.625  16.297 -0.9916 -1.1542  0.2472
 7072SOL     OW32851   0.501   3.775  15.838 -0.4573  0.2423  0.6875
 7072SOL    HW132852   0.543   3.718  15.902  1.6816 -0.0843 -0.9782
 7072SOL    HW232853   0.416   3.732  15.846  0.0628 -1.0189 -0.5929
 7073SOL     OW32854   4.325   3.590   9.618  0.2911  0.3438 -0.0819
 7073SOL    HW132855   4.238   3.550   9.615  0.0582  1.0875 -3.0498
 7073SOL    HW232856   4.375   3.549   9.547  1.1488 -1.1144  1.3678
 7074SOL     OW32857   4.327   1.605  10.142  0.3847  0.1288  0.2486
 7074SOL    HW132858   4.305   1.536  10.080 -0.7320 -0.0341  0.8160
 7074SOL    HW232859   4.262   1.593  10.211 -1.4180 -0.7664 -1.5968
 7075SOL     OW32860   1.007   2.198   3.445 -0.0422 -0.1575  0.7858
 7075SOL    HW132861   0.973   2.253   3.516  1.9092  3.1245 -0.8620
 7075SOL    HW232862   1.080   2.245   3.406 -0.0007 -1.5407 -0.7628
 7076SOL     OW32863   1.112   0.054   4.488 -0.0278  0.1633  0.0247
 7076SOL    HW132864   1.056   0.076   4.562 -0.0663 -1.0066  0.3449
 7076SOL    HW232865   1.195   0.035   4.532 -0.7317 -3.0588 -0.0559
 7077SOL     OW32866   1.847   3.048   3.327 -0.0530 -0.2971  0.3550
 7077SOL    HW132867   1.789   3.071   3.254 -0.5151  0.3971  0.9440
 7077SOL    HW232868   1.791   3.040   3.404  0.4859  0.2952  0.8091
 7078SOL     OW32869   0.895   4.412   7.853 -0.2555 -0.1877  0.3634
 7078SOL    HW132870   0.964   4.390   7.916  0.6621 -0.0065 -0.5834
 7078SOL    HW232871   0.933   4.359   7.784 -2.1666  1.0517 -1.6387
 7079SOL     OW32872   1.341   1.300   4.386  0.6322  0.5069 -0.4857
 7079SOL    HW132873   1.265   1.332   4.337 -0.4630 -0.7389  0.3628
 7079SOL    HW232874   1.351   1.379   4.439  0.4692 -2.2963  3.7805
 7080SOL     OW32875   4.242   1.820  10.898 -0.1548  0.4844 -0.1336
 7080SOL    HW132876   4.281   1.740  10.861 -0.4735  0.1156  0.3186
 7080SOL    HW232877   4.168   1.787  10.949  1.4633 -1.4444  0.9921
 7081SOL     OW32878   1.997   0.962   2.932  0.3626 -0.2323 -0.0432
 7081SOL    HW132879   2.057   0.986   3.003  1.6012  0.8319 -1.4676
 7081SOL    HW232880   1.985   1.049   2.893 -0.4370  0.3764  1.5499
 7082SOL     OW32881   2.627   1.779  11.138  0.2939  0.0311  0.4169
 7082SOL    HW132882   2.625   1.719  11.213 -1.3510  1.2438  1.3623
 7082SOL    HW232883   2.696   1.838  11.168 -1.5507  1.7936  1.2090
 7083SOL     OW32884   0.684   0.568   1.475  0.1243 -0.7429  0.3479
 7083SOL    HW132885   0.608   0.513   1.495 -1.7171  1.1014 -1.4828
 7083SOL    HW232886   0.662   0.585   1.383  1.0857  2.0428  0.6436
 7084SOL     OW32887   1.338   0.861   9.012  0.1462  0.1707 -0.3410
 7084SOL    HW132888   1.261   0.835   8.962 -0.3299 -0.3480  0.6646
 7084SOL    HW232889   1.378   0.775   9.028 -1.1623 -0.1997  0.9753
 7085SOL     OW32890   0.287   2.795  17.338  0.4347 -0.5463  0.3318
 7085SOL    HW132891   0.345   2.862  17.302  0.7817 -1.2690 -0.4613
 7085SOL    HW232892   0.204   2.832  17.308 -0.0164 -1.1310  0.8718
 7086SOL     OW32893   0.031   2.169   1.911 -0.3180  0.1422 -0.3362
 7086SOL    HW132894   0.076   2.157   1.995 -2.1118 -2.9310  0.1688
 7086SOL    HW232895   0.044   2.088   1.863  0.6168  0.0292  0.1071
 7087SOL     OW32896   2.435   1.057   5.848  0.6144  0.5449  0.0105
 7087SOL    HW132897   2.415   0.970   5.811  0.4995  0.4200  0.3691
 7087SOL    HW232898   2.476   1.105   5.776  1.5568 -1.6829 -0.9332
 7088SOL     OW32899   1.280   0.514   9.302  0.3908  0.4351  0.4063
 7088SOL    HW132900   1.364   0.509   9.348  1.7786  1.9155 -1.9610
 7088SOL    HW232901   1.231   0.449   9.352  0.0221  1.0986  0.8940
 7089SOL     OW32902   2.154   3.670   3.881  0.3310  0.0045  0.1465
 7089SOL    HW132903   2.239   3.628   3.875  0.5480  0.6991 -1.4448
 7089SOL    HW232904   2.168   3.738   3.815  1.4124  1.1880  1.6053
 7090SOL     OW32905   0.507   2.329  10.758  0.0522  0.5917  0.3642
 7090SOL    HW132906   0.491   2.240  10.791 -1.2429  0.7125  0.0806
 7090SOL    HW232907   0.594   2.324  10.718 -0.9088 -2.2700 -1.3937
 7091SOL     OW32908   1.076   1.773   6.729 -0.8910 -0.4245 -0.1732
 7091SOL    HW132909   1.043   1.863   6.734 -1.2760 -0.3719 -3.5976
 7091SOL    HW232910   1.101   1.773   6.637 -0.1657 -0.7338  0.0281
 7092SOL     OW32911   2.370   2.605   7.232  0.0555  0.8200  0.2781
 7092SOL    HW132912   2.349   2.529   7.179  1.6961  2.2822 -2.4463
 7092SOL    HW232913   2.338   2.674   7.175 -1.2509 -0.7171 -0.8401
 7093SOL     OW32914   1.654   1.604   4.818 -0.1685 -0.1768 -0.6302
 7093SOL    HW132915   1.660   1.535   4.751 -0.3581 -0.2958 -0.5273
 7093SOL    HW232916   1.620   1.547   4.887 -0.5243 -2.0083 -2.2957
 7094SOL     OW32917   1.689   0.439   3.419  0.5368 -0.4510 -0.2206
 7094SOL    HW132918   1.756   0.464   3.482 -0.6800 -0.1471  0.9673
 7094SOL    HW232919   1.623   0.390   3.469 -0.8452  0.2836 -1.3354
 7095SOL     OW32920   1.453   4.692   7.964  0.2856  0.1500 -0.9761
 7095SOL    HW132921   1.462   4.597   7.970  2.8852  0.3669 -1.2264
 7095SOL    HW232922   1.445   4.689   7.868 -0.0809  1.0621 -0.9801
 7096SOL     OW32923   3.621   1.077   3.961 -0.8145  0.3437 -0.2837
 7096SOL    HW132924   3.570   1.042   3.888 -0.0733  0.6252 -0.9251
 7096SOL    HW232925   3.670   1.003   3.996  0.9716  1.2782 -0.7922
 7097SOL     OW32926   0.555   1.827  14.670  0.2035  0.4218  0.1167
 7097SOL    HW132927   0.564   1.876  14.752 -0.2371  0.2181  0.2815
 7097SOL    HW232928   0.623   1.871  14.617 -0.0492 -0.0438 -0.5967
 7098SOL     OW32929   4.301   3.604   7.400  0.2778 -0.1288 -0.0796
 7098SOL    HW132930   4.283   3.697   7.387 -0.1191 -0.2751 -0.6072
 7098SOL    HW232931   4.393   3.605   7.425 -0.0357 -0.6576  1.0864
 7099SOL     OW32932   2.013   3.972  12.885  0.4722  0.3612  0.3529
 7099SOL    HW132933   2.057   3.962  12.801 -2.2834  1.4285 -1.2191
 7099SOL    HW232934   1.931   4.013  12.855 -0.7592 -2.0728  0.4327
 7100SOL     OW32935   1.107   3.115   5.478  0.0811  0.1714  0.2742
 7100SOL    HW132936   1.154   3.183   5.431  0.9456 -0.0506  0.8062
 7100SOL    HW232937   1.046   3.089   5.409  1.4532 -2.1324 -0.0841
 7101SOL     OW32938   3.474   4.555   2.962  0.5023 -0.2032 -0.5232
 7101SOL    HW132939   3.528   4.618   3.010  2.7375 -0.9434 -2.0716
 7101SOL    HW232940   3.534   4.480   2.964  0.0804 -0.5034  2.0380
 7102SOL     OW32941   2.759   4.123  11.441  0.0813  0.1206  0.3437
 7102SOL    HW132942   2.689   4.182  11.470 -0.5201 -0.1320 -0.5863
 7102SOL    HW232943   2.745   4.118  11.346  0.9037  1.1011  0.1728
 7103SOL     OW32944   1.186   0.258   8.627  0.7577 -0.0858 -0.1927
 7103SOL    HW132945   1.143   0.200   8.564 -0.3297 -1.4795  1.8108
 7103SOL    HW232946   1.148   0.341   8.600 -3.2532 -1.3731  1.4515
 7104SOL     OW32947   0.595   1.585   2.995  0.9564 -0.2982  0.0933
 7104SOL    HW132948   0.626   1.495   3.005 -1.1008 -0.9266  0.6184
 7104SOL    HW232949   0.596   1.578   2.900 -1.7936 -3.1126  0.3012
 7105SOL     OW32950   3.638   3.816   8.639  0.2403 -0.4489 -0.5907
 7105SOL    HW132951   3.733   3.814   8.633  0.2840 -1.1448  0.2280
 7105SOL    HW232952   3.612   3.744   8.581 -0.6875 -0.0567 -0.6731
 7106SOL     OW32953   2.528   3.680  10.691  0.4792 -0.6304  0.0609
 7106SOL    HW132954   2.483   3.675  10.608  2.3677 -1.8523 -0.8866
 7106SOL    HW232955   2.486   3.610  10.741  0.4541 -0.6910 -0.0459
 7107SOL     OW32956   1.523   1.531   9.830 -0.4147  0.1355 -0.6427
 7107SOL    HW132957   1.545   1.532   9.924  1.0540  0.4882 -0.9903
 7107SOL    HW232958   1.596   1.489   9.785 -1.0798 -2.0914  0.3654
 7108SOL     OW32959   4.273   4.550  14.837 -0.0043 -0.7927 -0.0851
 7108SOL    HW132960   4.351   4.511  14.878  0.8336  0.1756 -0.7682
 7108SOL    HW232961   4.211   4.570  14.907 -0.1568  0.8336 -0.6875
 7109SOL     OW32962   3.745   1.218  14.155 -0.4284 -0.4596  0.3564
 7109SOL    HW132963   3.828   1.180  14.185  0.5762 -0.8018 -2.8329
 7109SOL    HW232964   3.739   1.297  14.208  0.7909  0.4009 -0.7800
 7110SOL     OW32965   3.724   0.634   6.384 -0.1065  0.1735 -0.2958
 7110SOL    HW132966   3.630   0.638   6.366  0.1438  2.8356 -1.0059
 7110SOL    HW232967   3.726   0.707   6.446  0.9113  0.8941 -1.2013
 7111SOL     OW32968   0.567   3.987   5.529 -0.1341 -0.0895  1.1544
 7111SOL    HW132969   0.635   4.054   5.529  0.0922 -0.3228  1.4706
 7111SOL    HW232970   0.586   3.959   5.618 -0.1324  1.2888  1.5829
 7112SOL     OW32971   3.028   1.672   3.253 -0.0229  0.5346 -0.4045
 7112SOL    HW132972   3.073   1.747   3.213  0.8243 -0.7803 -1.9334
 7112SOL    HW232973   2.965   1.722   3.304 -0.3773 -0.1857 -0.1385
 7113SOL     OW32974   2.927   3.622   6.200 -0.0238  0.1507 -0.3085
 7113SOL    HW132975   2.866   3.693   6.180  0.6581  0.9092  0.3102
 7113SOL    HW232976   2.973   3.614   6.117  0.1554  2.9519 -0.4784
 7114SOL     OW32977   1.511   2.916   4.841  0.0787 -0.1976 -0.2134
 7114SOL    HW132978   1.544   2.963   4.917  0.9225 -1.1280 -0.0036
 7114SOL    HW232979   1.435   2.872   4.878 -0.1137  0.5269  0.2382
 7115SOL     OW32980   2.784   2.639   0.833  0.3778 -0.6707  0.1766
 7115SOL    HW132981   2.842   2.565   0.849  1.0243 -0.2059 -0.0235
 7115SOL    HW232982   2.812   2.702   0.900  0.4201 -1.4299  0.8606
 7116SOL     OW32983   2.920   1.590   7.682  0.3353  0.4242 -0.3581
 7116SOL    HW132984   2.930   1.661   7.618  0.9094  1.3286  0.7281
 7116SOL    HW232985   3.012   1.577   7.707  0.2064  2.0814  1.0303
 7117SOL     OW32986   0.988   2.033  15.178  0.8473 -0.5903  0.0725
 7117SOL    HW132987   1.059   2.070  15.230  0.1271 -1.0653  1.3966
 7117SOL    HW232988   0.923   2.022  15.247  3.0043 -0.0665  2.1740
 7118SOL     OW32989   1.939   0.351  13.053 -0.3129 -0.3075 -0.4511
 7118SOL    HW132990   1.992   0.423  13.020  0.1567 -0.3662  0.1691
 7118SOL    HW232991   1.922   0.395  13.137 -0.4067  0.9653 -1.1413
 7119SOL     OW32992   1.168   0.646   5.789 -0.1549  0.7463  0.2487
 7119SOL    HW132993   1.184   0.553   5.776  0.4332  1.2411 -2.5326
 7119SOL    HW232994   1.092   0.640   5.846 -0.7323 -1.1183 -0.7272
 7120SOL     OW32995   1.331   1.226   9.445 -0.3944 -0.0979 -0.6147
 7120SOL    HW132996   1.391   1.185   9.382  0.3831 -2.4518  1.5989
 7120SOL    HW232997   1.321   1.311   9.404 -1.7091 -0.3650 -0.8258
 7121SOL     OW32998   4.094   4.684  15.025 -0.4321  0.5425  0.2481
 7121SOL    HW132999   4.081   4.665  15.118  2.1468  0.0624  0.5087
 7121SOL    HW233000   4.166   0.009  15.020 -1.1824  1.2477 -1.9292
 7122SOL     OW33001   1.739   3.552   3.717 -0.0957  0.3260  0.0382
 7122SOL    HW133002   1.677   3.486   3.687 -0.4196 -0.2234  1.9292
 7122SOL    HW233003   1.806   3.502   3.763 -0.2673  0.1113  0.0533
 7123SOL     OW33004   0.592   2.621  14.670 -0.3823 -0.0191 -0.2202
 7123SOL    HW133005   0.541   2.651  14.595 -0.3286  1.9396  0.5333
 7123SOL    HW233006   0.612   2.704  14.713  3.1779 -1.4150  0.8376
 7124SOL     OW33007   1.190   4.521   7.112  0.2396 -0.0731  0.3240
 7124SOL    HW133008   1.279   4.487   7.116  1.2493  2.2421 -2.0796
 7124SOL    HW233009   1.156   4.436   7.139  1.1659 -1.3961 -2.7059
 7125SOL     OW33010   1.978   4.060  13.759  0.1228  0.1216  0.2222
 7125SOL    HW133011   1.907   4.074  13.697 -0.8974 -0.2066  1.3160
 7125SOL    HW233012   1.979   4.139  13.813  1.7669  0.8609 -0.8910
 7126SOL     OW33013   3.232   2.760   2.254 -0.3321  0.0367  0.0859
 7126SOL    HW133014   3.269   2.740   2.168 -0.1754  2.5580 -0.4245
 7126SOL    HW233015   3.139   2.764   2.230 -0.5164 -1.8003  0.4954
 7127SOL     OW33016   0.418   2.357   9.612  0.5233  0.0860  0.1453
 7127SOL    HW133017   0.357   2.431   9.619  0.5068  0.0303  0.5646
 7127SOL    HW233018   0.487   2.378   9.675 -2.7062  2.2865  2.9601
 7128SOL     OW33019   3.798   1.452   5.888  0.6841  0.3505 -0.1546
 7128SOL    HW133020   3.855   1.493   5.824  0.0067 -1.0592 -1.6754
 7128SOL    HW233021   3.758   1.387   5.829  0.8455 -0.9639  1.1900
 7129SOL     OW33022   1.675   1.040   3.436  0.4195  0.0851 -0.2365
 7129SOL    HW133023   1.655   1.065   3.526  2.2338 -1.4480  0.5710
 7129SOL    HW233024   1.746   0.978   3.451  1.2488  0.6316 -1.8979
 7130SOL     OW33025   4.351   0.842  11.961  0.1370 -0.3518 -0.3263
 7130SOL    HW133026   4.336   0.917  11.903  0.7528 -0.1668 -0.2489
 7130SOL    HW233027   4.391   0.886  12.036  1.1454 -1.1612 -0.3895
 7131SOL     OW33028   1.989   1.921   0.542  0.5706 -0.4016  0.3529
 7131SOL    HW133029   1.994   1.970   0.624 -2.3724  0.0787  0.2390
 7131SOL    HW233030   1.991   1.997   0.482  0.9888 -1.7989 -1.4102
 7132SOL     OW33031   0.604   1.232   5.544  0.3978  0.0420 -0.1816
 7132SOL    HW133032   0.626   1.139   5.548  0.9292  0.1765 -0.0209
 7132SOL    HW233033   0.687   1.280   5.552  0.3081  0.3074 -0.8286
 7133SOL     OW33034   2.581   1.173   8.501  0.2469  0.1323  0.1214
 7133SOL    HW133035   2.672   1.150   8.485 -0.9116 -3.6654 -0.8954
 7133SOL    HW233036   2.563   1.119   8.578 -0.4097  0.8177  0.4491
 7134SOL     OW33037   3.098   1.362   4.293 -0.8975 -0.1477 -0.4842
 7134SOL    HW133038   3.169   1.347   4.355 -1.6700 -2.8413 -0.2609
 7134SOL    HW233039   3.031   1.306   4.332 -1.2049  0.6414  0.1116
 7135SOL     OW33040   1.432   0.013  17.470 -0.1725  0.1017  0.0365
 7135SOL    HW133041   1.499   0.049  17.413  0.7282 -0.3587  0.7974
 7135SOL    HW233042   1.410   4.672  17.420  2.2050 -0.2803 -0.3951
 7136SOL     OW33043   2.776   3.850  16.183  0.7761  0.0139 -0.2792
 7136SOL    HW133044   2.868   3.835  16.161  0.1753  0.1097 -2.9065
 7136SOL    HW233045   2.739   3.787  16.121 -1.0276  0.9040 -0.0984
 7137SOL     OW33046   2.857   1.136  11.178  0.1122 -0.6501  0.2474
 7137SOL    HW133047   2.781   1.192  11.160 -0.9915 -1.7705  1.4375
 7137SOL    HW233048   2.923   1.173  11.120  0.2173 -0.2893  0.5921
 7138SOL     OW33049   0.654   4.719   6.790  0.1954  0.0053 -0.1923
 7138SOL    HW133050   0.604   0.051   6.748 -0.9349 -1.2786 -0.9508
 7138SOL    HW233051   0.601   4.718   6.870  0.3892 -1.0809 -0.0777
 7139SOL     OW33052   0.571   3.077   3.013 -0.0958  0.0521 -0.2616
 7139SOL    HW133053   0.601   3.154   2.964  4.8157 -1.5165  0.3344
 7139SOL    HW233054   0.635   3.008   2.997  1.0920  1.1818 -0.3622
 7140SOL     OW33055   4.705   4.489   0.555  0.2542 -0.7084  0.2371
 7140SOL    HW133056   0.052   4.445   0.568 -0.0728 -0.9069  1.6070
 7140SOL    HW233057   4.735   4.572   0.516 -1.5007 -0.5462 -0.7430
 7141SOL     OW33058   1.139   1.811   7.211 -0.2572  0.1742 -0.0902
 7141SOL    HW133059   1.059   1.782   7.255 -0.2740 -1.3613 -1.1308
 7141SOL    HW233060   1.128   1.763   7.129  0.7593 -0.1174 -0.0614
 7142SOL     OW33061   3.034   1.435   5.661  0.2313 -0.4017 -0.3035
 7142SOL    HW133062   3.030   1.522   5.699  0.9874 -0.3031 -0.4481
 7142SOL    HW233063   3.055   1.461   5.571  1.8813  0.5174  0.3627
 7143SOL     OW33064   1.863   1.011   5.490 -0.4628  1.1310 -0.0209
 7143SOL    HW133065   1.768   1.002   5.490 -0.4022  0.4727 -0.3670
 7143SOL    HW233066   1.886   1.020   5.582 -1.6292 -2.7135  0.6341
 7144SOL     OW33067   1.063   3.416   0.147  0.6785 -0.2558 -0.1820
 7144SOL    HW133068   1.071   3.485   0.081 -1.2826  1.5834  1.5105
 7144SOL    HW233069   1.105   3.342   0.102  1.2119 -0.9702  1.5129
 7145SOL     OW33070   0.279   4.375   2.302 -0.1884 -0.9280  0.4068
 7145SOL    HW133071   0.316   4.462   2.289 -1.3538 -0.6299 -0.8962
 7145SOL    HW233072   0.358   4.329   2.331  1.7692  0.6576 -2.4075
 7146SOL     OW33073   4.436   2.753   8.683 -0.0860  0.1345  0.0683
 7146SOL    HW133074   4.355   2.738   8.634 -1.9296  0.3950  3.0431
 7146SOL    HW233075   4.415   2.841   8.713 -1.7601 -0.3915  0.4367
 7147SOL     OW33076   0.642   1.433   6.539  0.4854  0.4417 -0.2044
 7147SOL    HW133077   0.595   1.515   6.526  2.1681  1.2407 -1.1385
 7147SOL    HW233078   0.572   1.376   6.573  0.3924  0.0018 -1.1187
 7148SOL     OW33079   0.350   3.812   0.818 -0.1972  0.2190 -0.0723
 7148SOL    HW133080   0.403   3.868   0.761  0.7817 -0.2366  0.3776
 7148SOL    HW233081   0.378   3.727   0.783  1.5277  0.4854  0.6401
 7149SOL     OW33082   0.266   2.180   2.680 -0.4411 -0.2622  0.7850
 7149SOL    HW133083   0.319   2.237   2.735  0.6837 -0.7807  0.2465
 7149SOL    HW233084   0.197   2.162   2.743 -0.0230  1.1412  1.6460
 7150SOL     OW33085   2.327   0.088   3.042  0.4639 -0.6648  0.0346
 7150SOL    HW133086   2.416   0.118   3.022 -0.9003  0.9344 -3.6548
 7150SOL    HW233087   2.344   0.059   3.132  0.2310  0.3022  0.3921
 7151SOL     OW33088   2.561   0.720   4.197  0.5461 -0.5756  0.3968
 7151SOL    HW133089   2.477   0.764   4.185  1.1234 -0.1782 -2.3117
 7151SOL    HW233090   2.530   0.630   4.193 -2.3775  0.4683 -0.9798
 7152SOL     OW33091   1.927   1.441   2.062  0.0633  0.2256  0.2959
 7152SOL    HW133092   1.898   1.447   1.971  0.2164  0.3184  0.2519
 7152SOL    HW233093   1.947   1.347   2.062 -1.3171 -0.0688  0.6886
 7153SOL     OW33094   0.331   0.095   8.174 -0.3342 -0.0663  0.5018
 7153SOL    HW133095   0.387   0.120   8.248  1.4530  0.2244 -0.9508
 7153SOL    HW233096   0.395   0.028   8.151  0.1896  0.8764 -0.8294
 7154SOL     OW33097   0.121   4.275   7.252 -0.1892  0.2330 -0.2596
 7154SOL    HW133098   0.167   4.192   7.239 -0.8182 -0.0257 -0.8342
 7154SOL    HW233099   0.185   4.322   7.305 -0.1246 -1.3242  1.0676
 7155SOL     OW33100   3.697   1.412   1.342  0.2240  0.3024 -0.1148
 7155SOL    HW133101   3.648   1.370   1.271 -0.1360 -0.3447  0.5123
 7155SOL    HW233102   3.696   1.335   1.400 -1.5488 -0.7051 -1.5033
 7156SOL     OW33103   3.125   3.817   8.476  0.5032  0.1656 -0.4982
 7156SOL    HW133104   3.088   3.844   8.560  0.2628  0.0420 -0.5644
 7156SOL    HW233105   3.043   3.816   8.427  0.6676 -0.7745 -0.7405
 7157SOL     OW33106   1.071   0.231  12.653 -0.2574  0.2211  0.3253
 7157SOL    HW133107   1.098   0.317  12.687  0.2194  0.1610  0.0976
 7157SOL    HW233108   1.155   0.196  12.624 -0.3573 -0.0599  0.3833
 7158SOL     OW33109   2.213   2.266   7.937  0.1557 -0.2157  0.3887
 7158SOL    HW133110   2.180   2.179   7.957 -1.9122  1.1099  2.9079
 7158SOL    HW233111   2.167   2.317   8.004  0.1376 -0.2354  0.3911
 7159SOL     OW33112   3.117   4.678  12.391  0.3433  0.3497 -0.0385
 7159SOL    HW133113   3.047   0.006  12.397  0.4491  0.5139 -0.6281
 7159SOL    HW233114   3.191   4.722  12.349 -0.4598 -0.5109 -2.3373
 7160SOL     OW33115   0.609   2.011   2.900  0.2003 -0.0843 -0.3351
 7160SOL    HW133116   0.612   2.031   2.993  3.0835 -0.6172 -0.3078
 7160SOL    HW233117   0.687   1.956   2.898 -0.4687 -0.9668 -2.1139
 7161SOL     OW33118   4.390   2.882  14.185 -0.4732 -0.5051 -0.4413
 7161SOL    HW133119   4.317   2.914  14.239  1.2297  1.7920  0.4908
 7161SOL    HW233120   4.443   2.961  14.177 -1.0221  0.0362  1.2048
 7162SOL     OW33121   1.887   0.060   6.249  0.4317  0.0816  0.1918
 7162SOL    HW133122   1.910   0.150   6.227 -1.0925  0.6812  0.9684
 7162SOL    HW233123   1.895   0.012   6.167  0.8831  0.8546 -0.2188
 7163SOL     OW33124   1.098   0.190   6.410 -0.5310 -0.4790  0.3628
 7163SOL    HW133125   1.173   0.183   6.469  0.9057 -1.3402 -1.5686
 7163SOL    HW233126   1.112   0.276   6.372  1.7762 -0.6068  0.9526
 7164SOL     OW33127   0.450   4.465   0.474  0.5072 -0.3787  1.0093
 7164SOL    HW133128   0.396   4.518   0.534  2.7331  1.3313  1.5007
 7164SOL    HW233129   0.456   4.526   0.401  1.4904 -1.1531  0.4586
 7165SOL     OW33130   2.607   2.169   1.922  0.3616 -0.2474 -0.5427
 7165SOL    HW133131   2.626   2.262   1.912  1.5194  0.0362  4.1540
 7165SOL    HW233132   2.641   2.139   1.837 -0.0767 -0.5990 -0.5917
 7166SOL     OW33133   4.527   1.547   6.155 -0.4314 -0.7601  0.0123
 7166SOL    HW133134   4.544   1.456   6.182 -0.8019 -1.0794 -0.8146
 7166SOL    HW233135   4.532   1.538   6.059 -2.8578 -2.9419  0.0732
 7167SOL     OW33136   4.524   2.030   0.422  0.4688  0.3242 -0.2091
 7167SOL    HW133137   4.434   2.006   0.401  1.0318 -0.0914 -2.0925
 7167SOL    HW233138   4.555   1.941   0.430 -1.8137 -0.3649  1.0446
 7168SOL     OW33139   2.506   4.664   9.853 -0.1423 -0.7956 -0.5415
 7168SOL    HW133140   2.545   4.718   9.922 -0.8936 -0.9382 -0.0045
 7168SOL    HW233141   2.463   4.737   9.808 -0.2312  0.8202  2.1485
 7169SOL     OW33142   2.497   1.269  16.807 -0.3379  0.0856 -0.3630
 7169SOL    HW133143   2.428   1.290  16.869 -0.2418  1.6572 -0.8043
 7169SOL    HW233144   2.498   1.335  16.737 -0.1199  2.1342  1.5935
 7170SOL     OW33145   3.036   1.699   6.683  0.4629  0.0549 -0.2851
 7170SOL    HW133146   3.053   1.791   6.667  1.0267 -0.1950 -1.1219
 7170SOL    HW233147   3.118   1.671   6.723 -0.9649 -0.6503  2.1726
 7171SOL     OW33148   4.656   2.555  17.513  0.1959  0.0429  0.0637
 7171SOL    HW133149   4.735   2.538  17.462 -0.4593 -2.1030 -0.2341
 7171SOL    HW233150   4.611   2.471  17.503  0.6467 -0.0478 -1.1281
 7172SOL     OW33151   4.554   0.972   2.723 -0.6501  0.1278  0.4305
 7172SOL    HW133152   4.617   0.946   2.791 -2.3397 -0.5388  1.7363
 7172SOL    HW233153   4.539   0.888   2.680 -3.3623  0.5623  0.5739
 7173SOL     OW33154   4.220   0.034   2.587 -0.1004  0.5860  0.4648
 7173SOL    HW133155   4.213   4.728   2.502  0.2383 -1.0379  1.2721
 7173SOL    HW233156   4.307   0.075   2.582 -0.8942  1.9866 -1.7403
 7174SOL     OW33157   4.416   1.001   4.409 -0.2262  0.1686 -0.5008
 7174SOL    HW133158   4.400   0.908   4.421  1.6496 -0.0002  0.6194
 7174SOL    HW233159   4.478   1.001   4.335  0.3549  0.3954 -0.0105
 7175SOL     OW33160   1.399   4.535   3.178 -0.7144  0.4316 -0.2268
 7175SOL    HW133161   1.493   4.551   3.171 -0.1217 -2.0092  1.9940
 7175SOL    HW233162   1.390   4.458   3.234 -0.9093 -0.0296 -0.8859
 7176SOL     OW33163   1.219   0.481  15.432 -0.1046  0.0899 -0.0264
 7176SOL    HW133164   1.307   0.453  15.406 -0.5643 -1.6794  0.2760
 7176SOL    HW233165   1.159   0.425  15.382  1.0202 -0.2482 -0.9980
 7177SOL     OW33166   0.149   3.672   2.891  0.2637  0.4032  0.1495
 7177SOL    HW133167   0.198   3.695   2.970 -0.2876  2.0865  0.0014
 7177SOL    HW233168   0.119   3.760   2.867  1.0281  0.8449  0.8315
 7178SOL     OW33169   1.429   2.573   3.193  0.0164 -0.3522  0.7810
 7178SOL    HW133170   1.476   2.523   3.260  0.8749  0.0531  0.4782
 7178SOL    HW233171   1.344   2.588   3.235 -1.4237 -1.3890 -1.7698
 7179SOL     OW33172   2.593   3.708   8.823  0.1841 -0.4711 -0.3241
 7179SOL    HW133173   2.587   3.638   8.887  0.4317 -1.8672 -1.8119
 7179SOL    HW233174   2.505   3.745   8.831  0.3463 -0.1301 -0.1072
 7180SOL     OW33175   0.483   0.401   6.820 -0.5180 -0.8116  0.2584
 7180SOL    HW133176   0.426   0.478   6.824 -0.7016 -0.9529  0.3390
 7180SOL    HW233177   0.564   0.436   6.858 -0.1705 -0.5171 -0.7278
 7181SOL     OW33178   1.937   4.271   3.491 -0.1108 -0.5235  0.1924
 7181SOL    HW133179   1.981   4.285   3.574 -1.2650 -2.0485  1.0763
 7181SOL    HW233180   1.851   4.240   3.522 -0.2687 -0.2242  0.0544
 7182SOL     OW33181   4.597   0.209   7.934 -0.5871  0.9796  0.0899
 7182SOL    HW133182   4.541   0.241   7.864 -2.1597  1.0222  1.3898
 7182SOL    HW233183   4.524   0.216   7.995  0.0730  1.8471  0.7868
 7183SOL     OW33184   4.704   2.744  15.558 -0.4189  0.0323 -0.1905
 7183SOL    HW133185   4.613   2.722  15.542 -0.8454  1.0854  0.7575
 7183SOL    HW233186   4.710   2.772  15.649 -1.3387  1.7147 -0.6451
 7184SOL     OW33187   0.268   4.050   5.088  0.1941  0.4292 -0.1670
 7184SOL    HW133188   0.307   3.969   5.120  0.0704  0.6466  0.5302
 7184SOL    HW233189   0.288   4.117   5.153  1.4786  1.3242 -1.4537
 7185SOL     OW33190   1.574   4.348   6.993  0.5748 -0.5028  0.0623
 7185SOL    HW133191   1.566   4.441   6.970  2.2895 -0.0784  1.1518
 7185SOL    HW233192   1.486   4.313   6.983  0.7748 -0.8492 -0.5133
 7186SOL     OW33193   2.420   1.285   4.453 -0.3728 -0.0443 -0.1455
 7186SOL    HW133194   2.410   1.234   4.373 -0.1618  1.7680 -1.3134
 7186SOL    HW233195   2.503   1.245   4.480  0.2188  1.5574  0.4133
 7187SOL     OW33196   3.672   4.037   3.147  0.0757  0.2211  0.0926
 7187SOL    HW133197   3.647   4.020   3.238 -1.4128  2.4072  0.1037
 7187SOL    HW233198   3.728   3.962   3.132 -0.1664 -0.1305  0.9390
 7188SOL     OW33199   3.274   0.127   1.947 -0.4508  0.4398  0.1364
 7188SOL    HW133200   3.319   0.153   1.867  2.0993 -0.4258  1.2919
 7188SOL    HW233201   3.304   0.038   1.968 -1.6922  0.3372  1.4910
 7189SOL     OW33202   0.619   4.275   2.631 -0.1672 -0.1829  0.3091
 7189SOL    HW133203   0.533   4.256   2.668 -0.9581 -0.5670 -1.7395
 7189SOL    HW233204   0.590   4.287   2.540  0.3081 -2.4443 -0.1423
 7190SOL     OW33205   1.448   1.298   8.659  0.3071  0.1460  0.1418
 7190SOL    HW133206   1.528   1.284   8.608  1.0116  3.7044  0.2381
 7190SOL    HW233207   1.412   1.213   8.684  0.1211 -0.0018 -0.6300
 7191SOL     OW33208   2.533   3.562  15.200 -0.1247  0.1764 -0.0985
 7191SOL    HW133209   2.465   3.615  15.242  0.4086  0.5569  0.3030
 7191SOL    HW233210   2.540   3.596  15.111 -1.9652  1.2633  0.1779
 7192SOL     OW33211   2.508   1.802   6.143 -0.0331  0.5652 -0.0596
 7192SOL    HW133212   2.541   1.870   6.203  0.7919 -1.4416  1.7941
 7192SOL    HW233213   2.554   1.819   6.061 -0.3149 -0.8167 -0.5047
 7193SOL     OW33214   2.284   0.890   6.717 -0.1326  0.0682 -1.0540
 7193SOL    HW133215   2.220   0.834   6.760  0.1435  2.1091  2.0290
 7193SOL    HW233216   2.367   0.870   6.762 -0.4519  1.8555  0.3297
 7194SOL     OW33217   3.660   3.891   7.489 -0.3361  0.0992 -0.7480
 7194SOL    HW133218   3.602   3.886   7.565 -0.2611  1.4143 -0.5977
 7194SOL    HW233219   3.734   3.838   7.519 -0.9833 -1.2958 -1.6115
 7195SOL     OW33220   0.586   2.669   9.002 -0.4947 -0.5818 -0.2061
 7195SOL    HW133221   0.535   2.735   8.954  3.0584  2.5553  0.3172
 7195SOL    HW233222   0.592   2.710   9.088  2.4385  0.5769 -0.9576
 7196SOL     OW33223   2.777   1.792   3.401  0.1526 -0.0600 -0.1001
 7196SOL    HW133224   2.691   1.758   3.424  0.1591 -0.4660 -0.6591
 7196SOL    HW233225   2.778   1.877   3.358  1.3190  0.2063  0.4578
 7197SOL     OW33226   3.372   0.299  17.153  0.0209  0.1755  0.2484
 7197SOL    HW133227   3.294   0.328  17.199 -0.2180 -1.0928  0.6553
 7197SOL    HW233228   3.387   0.214  17.195 -1.5203  0.4638  1.3503
 7198SOL     OW33229   1.459   4.064   8.364 -0.5929 -0.0567 -0.2183
 7198SOL    HW133230   1.527   4.062   8.296 -1.2296  0.8164 -0.8872
 7198SOL    HW233231   1.478   4.152   8.398  2.6991 -0.2543 -1.4898
 7199SOL     OW33232   4.462   2.572  16.774 -0.5078 -0.1009 -0.2664
 7199SOL    HW133233   4.514   2.573  16.694  0.2091  0.0412  0.2061
 7199SOL    HW233234   4.392   2.635  16.754  0.0521  1.0630  1.4231
 7200SOL     OW33235   1.506   2.967   6.228 -0.0824 -0.4598 -0.1480
 7200SOL    HW133236   1.454   2.889   6.244 -2.1066  1.3583  2.1670
 7200SOL    HW233237   1.595   2.933   6.219  0.1791  0.5065 -1.2652
 7201SOL     OW33238   2.695   1.260   3.737 -0.5200  0.0004  0.3258
 7201SOL    HW133239   2.740   1.175   3.731  0.1423  0.2963  0.9676
 7201SOL    HW233240   2.765   1.324   3.721 -0.1735 -0.4087  0.1897
 7202SOL     OW33241   4.152   4.444  15.455 -0.2644 -0.2752 -0.0235
 7202SOL    HW133242   4.189   4.381  15.517  0.2831 -0.4402 -0.5230
 7202SOL    HW233243   4.057   4.436  15.466 -0.3717 -0.3284 -1.0498
 7203SOL     OW33244   1.764   0.421   7.997 -0.2675 -0.1574  0.0094
 7203SOL    HW133245   1.715   0.341   8.016 -1.5675  0.4652 -0.6380
 7203SOL    HW233246   1.780   0.466   8.079 -1.3164 -0.4331  0.3638
 7204SOL     OW33247   2.380   1.217  13.464  0.2946 -0.3711 -0.2842
 7204SOL    HW133248   2.402   1.197  13.373 -0.3624 -1.9408 -0.0891
 7204SOL    HW233249   2.420   1.304  13.468  0.6394 -0.4965 -1.2468
 7205SOL     OW33250   2.365   0.788   7.355  0.4635  0.2664  0.3651
 7205SOL    HW133251   2.451   0.831   7.350  0.1027  1.0403  0.8903
 7205SOL    HW233252   2.320   0.859   7.401 -0.5361 -1.1573  1.5584
 7206SOL     OW33253   2.200   0.943   6.445  0.2599 -0.1774  0.5232
 7206SOL    HW133254   2.137   0.870   6.446  0.0971 -0.0509 -1.9123
 7206SOL    HW233255   2.266   0.918   6.510  0.5486 -1.8850 -0.4434
 7207SOL     OW33256   3.256   3.155   4.808 -0.9481 -0.0356  0.1362
 7207SOL    HW133257   3.320   3.100   4.764  0.0587  0.9290  0.3788
 7207SOL    HW233258   3.293   3.193   4.888 -0.1868 -0.2614 -0.1061
 7208SOL     OW33259   1.561   0.611  10.521  0.0887 -0.4070 -0.1603
 7208SOL    HW133260   1.504   0.648  10.588 -1.0850 -0.7215 -0.9889
 7208SOL    HW233261   1.498   0.594  10.450 -2.8964  0.8668  2.2025
 7209SOL     OW33262   3.720   3.756   5.431 -0.3368  0.5324  0.5453
 7209SOL    HW133263   3.742   3.738   5.340  0.1380 -1.4578  1.0587
 7209SOL    HW233264   3.686   3.672   5.460 -0.0427 -0.1778 -1.1714
 7210SOL     OW33265   1.305   1.344   2.429 -0.0011 -0.4494  0.7556
 7210SOL    HW133266   1.294   1.252   2.405 -0.0586 -0.3732  0.4916
 7210SOL    HW233267   1.317   1.335   2.523  2.5477  1.8874  0.6600
 7211SOL     OW33268   4.561   4.647   0.134  0.2931 -0.2241 -0.1876
 7211SOL    HW133269   4.534   0.001   0.121  2.1836  0.1885 -1.1975
 7211SOL    HW233270   4.608   4.635   0.052 -2.0353 -1.8698 -1.2822
 7212SOL     OW33271   2.828   3.857   9.028 -0.0884  0.3957 -0.2715
 7212SOL    HW133272   2.783   3.809   8.959 -2.1870 -0.2454  1.5749
 7212SOL    HW233273   2.919   3.867   8.998 -0.6460  0.2752 -1.9728
 7213SOL     OW33274   3.156   4.497  11.992 -0.0345  0.6706  0.3710
 7213SOL    HW133275   3.092   4.448  11.941  1.2055  0.6903 -1.1891
 7213SOL    HW233276   3.113   4.574  12.029 -0.5269 -0.1463  1.5104
 7214SOL     OW33277   4.720   4.129   2.393  0.5166 -0.2584 -0.0126
 7214SOL    HW133278   4.731   4.067   2.465  3.0086  0.7645  0.4859
 7214SOL    HW233279   4.671   4.198   2.436  1.1894  0.2168 -0.0123
 7215SOL     OW33280   1.940   2.887  14.300 -0.1611  0.0178  0.5179
 7215SOL    HW133281   1.938   2.796  14.270  0.4703 -0.5767  2.2783
 7215SOL    HW233282   1.872   2.914  14.238 -1.0949 -1.1034  1.0494
 7216SOL     OW33283   2.528   3.277   2.675 -0.0807  0.0005  0.1120
 7216SOL    HW133284   2.578   3.301   2.753  0.5485 -1.8596  0.2811
 7216SOL    HW233285   2.555   3.351   2.621  2.2528 -0.4717  0.6552
 7217SOL     OW33286   0.081   4.562   9.344  0.1737 -0.3252 -0.3241
 7217SOL    HW133287   4.733   4.557   9.387  0.9189 -0.3773  1.1323
 7217SOL    HW233288   0.150   4.574   9.410 -0.6345  0.1327  0.4418
 7218SOL     OW33289   1.124   2.779   7.402 -0.0916  0.2091 -0.1890
 7218SOL    HW133290   1.117   2.728   7.483 -0.6746  2.7265  1.3319
 7218SOL    HW233291   1.200   2.742   7.357 -0.0411 -0.0397  0.1034
 7219SOL     OW33292   3.505   2.720  12.365  0.4405  0.0564  0.5549
 7219SOL    HW133293   3.513   2.811  12.335  1.5680 -0.9623 -2.3039
 7219SOL    HW233294   3.425   2.685  12.324  1.2027 -0.4189 -0.5447
 7220SOL     OW33295   3.183   0.239  10.146  0.2141 -0.1254 -0.4560
 7220SOL    HW133296   3.257   0.278  10.191 -1.4655  1.3486  0.9799
 7220SOL    HW233297   3.203   0.148  10.124  1.8134 -0.3931  2.1408
 7221SOL     OW33298   4.215   0.094   6.287  0.1967  0.6276  0.0352
 7221SOL    HW133299   4.181   0.037   6.218  0.3413  1.6536 -0.8834
 7221SOL    HW233300   4.213   0.041   6.367 -1.6607 -1.1439 -1.1964
 7222SOL     OW33301   4.436   4.502   8.454  0.4909 -0.4807  0.3524
 7222SOL    HW133302   4.468   4.592   8.466 -0.0192 -0.3427  0.6632
 7222SOL    HW233303   4.479   4.484   8.370  0.2983 -0.9888  0.3647
 7223SOL     OW33304   4.065   2.043   6.458 -0.1917  0.1315 -0.3437
 7223SOL    HW133305   4.011   1.999   6.393  1.4898  0.1335 -1.7283
 7223SOL    HW233306   4.101   1.972   6.511  0.8105  1.0880  0.2579
 7224SOL     OW33307   0.053   4.663   4.927 -0.1276  0.1078 -0.3799
 7224SOL    HW133308   0.147   4.682   4.929 -0.7750  3.3653  0.7880
 7224SOL    HW233309   0.052   4.635   5.019 -0.1364 -0.1637 -0.4656
 7225SOL     OW33310   0.996   3.260   6.159  0.7522  0.0710  0.3114
 7225SOL    HW133311   1.018   3.345   6.196  1.0405  0.9229 -1.8212
 7225SOL    HW233312   0.901   3.266   6.169  0.9007  0.7729  1.2597
 7226SOL     OW33313   4.106   0.431  12.196  0.2810  0.3979 -0.2434
 7226SOL    HW133314   4.111   0.526  12.203  3.5941  0.1665  0.5821
 7226SOL    HW233315   4.184   0.400  12.242 -1.9737 -1.4628  2.3281
 7227SOL     OW33316   2.309   4.375  12.266 -0.1654 -0.2066 -0.1773
 7227SOL    HW133317   2.390   4.340  12.228 -0.9036  0.3843 -2.3122
 7227SOL    HW233318   2.249   4.309  12.229 -0.1274 -0.3681  0.0504
 7228SOL     OW33319   0.960   1.604   8.482 -0.2359  0.0034  0.3256
 7228SOL    HW133320   1.015   1.646   8.416 -3.2439  0.6430 -1.7690
 7228SOL    HW233321   0.903   1.560   8.419 -2.3452  1.0746  1.4937
 7229SOL     OW33322   3.951   0.731   3.919  0.2755 -0.1558 -0.6172
 7229SOL    HW133323   3.875   0.734   3.977 -1.0398  2.4184 -2.4365
 7229SOL    HW233324   3.959   0.825   3.903 -1.4132  0.4657  2.2361
 7230SOL     OW33325   2.427   1.703   2.055  0.3575 -0.1356  0.1647
 7230SOL    HW133326   2.521   1.695   2.037  0.2551 -1.0710  0.0402
 7230SOL    HW233327   2.402   1.763   1.984 -0.0288 -0.2088  0.2402
 7231SOL     OW33328   2.553   3.678   8.227  1.0847  0.4593 -0.0176
 7231SOL    HW133329   2.524   3.682   8.318  1.0430 -0.6869  0.0304
 7231SOL    HW233330   2.496   3.612   8.189  0.8599  0.5429  0.1734
 7232SOL     OW33331   1.651   3.673   9.731 -0.0538  0.0900  0.2936
 7232SOL    HW133332   1.678   3.729   9.803  1.0038  1.7100 -1.3711
 7232SOL    HW233333   1.626   3.742   9.670 -1.0316 -0.6813 -0.1781
 7233SOL     OW33334   1.468   0.711   7.489  0.0589  0.3923 -0.1932
 7233SOL    HW133335   1.543   0.675   7.441  0.9862  0.8309  0.9266
 7233SOL    HW233336   1.509   0.708   7.576  0.5356  0.7444 -0.4037
 7234SOL     OW33337   2.714   0.680   3.662  0.7636 -0.6314  0.0614
 7234SOL    HW133338   2.710   0.732   3.743  0.4218  2.7430 -2.1199
 7234SOL    HW233339   2.800   0.710   3.630 -0.1229  1.3604 -0.4569
 7235SOL     OW33340   4.600   4.350  12.945 -0.5157 -0.1532  0.3528
 7235SOL    HW133341   4.572   4.274  12.896 -1.3098 -0.2302  0.9317
 7235SOL    HW233342   4.598   4.317  13.035  0.3494 -1.1978 -0.0104
 7236SOL     OW33343   0.884   2.171  16.128  0.0035 -0.0900  0.1978
 7236SOL    HW133344   0.915   2.204  16.213  1.8450  0.6495 -0.7734
 7236SOL    HW233345   0.825   2.106  16.168 -0.1719  0.4507  0.8333
 7237SOL     OW33346   3.003   2.830   3.263  0.0490  0.2486  0.6352
 7237SOL    HW133347   2.988   2.753   3.318  1.6410 -1.5475 -1.4746
 7237SOL    HW233348   3.035   2.780   3.187  0.5728 -0.5161  1.3603
 7238SOL     OW33349   0.441   4.284   3.112  0.7044  0.8440 -0.2768
 7238SOL    HW133350   0.500   4.255   3.181 -0.1954 -2.8453 -1.0361
 7238SOL    HW233351   0.490   4.322   3.039 -0.1632  1.5628 -0.4782
 7239SOL     OW33352   1.608   0.077   1.629  0.4216 -0.2691 -0.2541
 7239SOL    HW133353   1.644   0.146   1.686  1.0732  1.0607 -2.2702
 7239SOL    HW233354   1.627   0.002   1.685 -0.9278 -1.0317 -0.8477
 7240SOL     OW33355   4.709   0.846   4.219 -0.5782  0.9139 -0.1975
 7240SOL    HW133356   4.724   0.868   4.311 -2.3955  0.8287  0.1198
 7240SOL    HW233357   4.614   0.831   4.225 -0.8425  1.9052 -1.7114
 7241SOL     OW33358   4.009   2.230   3.029  0.0694 -0.5334 -0.0844
 7241SOL    HW133359   4.057   2.185   2.959  1.1322  0.9769 -0.3233
 7241SOL    HW233360   3.990   2.319   3.002 -1.4139 -1.5597 -2.3919
 7242SOL     OW33361   0.393   1.708  11.735 -0.2814 -0.2270  0.1086
 7242SOL    HW133362   0.411   1.734  11.825 -4.1642 -0.0276  0.8391
 7242SOL    HW233363   0.480   1.674  11.715 -0.5247  0.3613 -1.9897
 7243SOL     OW33364   3.235   3.685   5.921 -0.6301  0.1609 -0.3415
 7243SOL    HW133365   3.327   3.696   5.900 -0.2093  2.5978  2.9125
 7243SOL    HW233366   3.235   3.664   6.014 -0.3803  1.5970 -0.0267
 7244SOL     OW33367   2.188   0.259   2.651 -0.1393 -0.0272 -0.1486
 7244SOL    HW133368   2.228   0.321   2.590  0.5781  1.5669  1.9669
 7244SOL    HW233369   2.244   0.181   2.656  0.5877  0.4864 -0.3264
 7245SOL     OW33370   3.200   3.358   4.649 -0.7670  0.0371 -0.0751
 7245SOL    HW133371   3.122   3.344   4.595 -1.8527 -3.2016  2.3499
 7245SOL    HW233372   3.217   3.275   4.694  2.8652  0.5343 -0.5642
 7246SOL     OW33373   4.120   1.318   7.285 -0.0721  0.5388  0.3718
 7246SOL    HW133374   4.190   1.293   7.345  1.6544  0.1480 -1.8128
 7246SOL    HW233375   4.162   1.378   7.225  1.8252 -0.1203  1.0448
 7247SOL     OW33376   0.474   3.393   8.679  0.3659  0.0238  0.1965
 7247SOL    HW133377   0.543   3.363   8.621 -1.1275 -1.7659 -0.6389
 7247SOL    HW233378   0.500   3.356   8.763 -0.9611  1.0363  1.0578
 7248SOL     OW33379   4.651   1.900   2.127  0.4730  0.4700  0.1111
 7248SOL    HW133380   4.589   1.829   2.141  2.1733 -0.9503  0.3497
 7248SOL    HW233381   4.734   1.856   2.144  0.4350  0.5063  0.3840
 7249SOL     OW33382   3.199   0.326   3.094 -0.6692 -0.2187 -0.3425
 7249SOL    HW133383   3.147   0.246   3.097  2.6407 -2.3681 -0.3998
 7249SOL    HW233384   3.275   0.303   3.042  0.2548 -1.6041  1.6152
 7250SOL     OW33385   1.552   3.646   4.916 -0.0848  0.2862  0.5590
 7250SOL    HW133386   1.642   3.675   4.934  0.7325 -1.8294 -0.0750
 7250SOL    HW233387   1.525   3.624   5.005  0.7487 -0.8873  0.5248
 7251SOL     OW33388   1.450   2.778  14.500 -0.2555  0.2549  0.2599
 7251SOL    HW133389   1.515   2.742  14.440  0.7773 -1.6383  2.4980
 7251SOL    HW233390   1.382   2.713  14.482 -0.1048  0.8289 -2.3020
 7252SOL     OW33391   1.187   4.271   3.997  0.1566  0.4977  0.2777
 7252SOL    HW133392   1.103   4.314   3.984  0.2733  0.8964  0.8507
 7252SOL    HW233393   1.209   4.295   3.907  0.7176 -0.5328  0.1342
 7253SOL     OW33394   3.153   0.682  13.647 -0.0416 -0.6530  0.5559
 7253SOL    HW133395   3.102   0.720  13.576  2.8490  0.5966 -0.8794
 7253SOL    HW233396   3.099   0.694  13.724  0.7980  2.3968  0.6536
 7254SOL     OW33397   3.025   0.383   5.448  0.0453  0.1894 -0.1131
 7254SOL    HW133398   3.107   0.380   5.498 -0.1439  2.3088  0.3239
 7254SOL    HW233399   3.037   0.301   5.400  2.0827  0.1742  0.4377
 7255SOL     OW33400   4.271   0.208   0.641  0.3560 -0.0349 -0.1992
 7255SOL    HW133401   4.275   0.288   0.693  2.0904  0.8147 -1.6529
 7255SOL    HW233402   4.177   0.210   0.621  0.4212 -0.4229 -0.5232
 7256SOL     OW33403   4.733   4.558  10.982 -0.0386 -0.4497 -0.2605
 7256SOL    HW133404   4.647   4.600  10.994 -0.1297 -0.5576 -0.5193
 7256SOL    HW233405   0.030   4.576  10.894  3.1699  1.5793  1.4304
 7257SOL     OW33406   0.556   3.029   3.364  0.0191  0.1645 -0.5941
 7257SOL    HW133407   0.621   3.100   3.359 -0.8288  0.8317 -2.0270
 7257SOL    HW233408   0.536   3.033   3.458 -1.3273  1.5933 -0.9573
 7258SOL     OW33409   0.207   3.686   8.068  0.2118 -0.1808  0.4814
 7258SOL    HW133410   0.156   3.701   8.148  2.6457  2.1367  1.5704
 7258SOL    HW233411   0.202   3.591   8.062 -0.6385 -0.2332  1.9046
 7259SOL     OW33412   1.092   3.712  17.041 -0.3543  0.0456 -0.6219
 7259SOL    HW133413   1.034   3.643  17.073  2.0550 -2.3652 -1.4852
 7259SOL    HW233414   1.076   3.780  17.107  1.1842  0.3463 -0.5539
 7260SOL     OW33415   0.148   2.867   1.693 -0.1200 -0.5016  0.3296
 7260SOL    HW133416   0.152   2.962   1.692  1.8468 -0.5687  0.8941
 7260SOL    HW233417   0.241   2.848   1.685  0.2664  2.2652 -1.3994
 7261SOL     OW33418   4.317   2.538   7.031  0.5207 -0.2891  0.3839
 7261SOL    HW133419   4.378   2.538   6.957 -0.7190  0.3354 -0.6320
 7261SOL    HW233420   4.378   2.546   7.104  1.0047 -0.6928  0.0241
 7262SOL     OW33421   0.321   0.837   8.855 -0.0673 -0.4308  0.0136
 7262SOL    HW133422   0.354   0.750   8.832  2.3745  0.6186 -0.4680
 7262SOL    HW233423   0.289   0.829   8.945  1.8858 -0.6258  0.6911
 7263SOL     OW33424   1.756   0.534   0.846  0.2336 -0.2903 -0.4310
 7263SOL    HW133425   1.789   0.470   0.783  1.3798 -0.8973  0.8014
 7263SOL    HW233426   1.836   0.585   0.859 -1.2614  1.5366  1.4827
 7264SOL     OW33427   0.570   0.314  10.502 -0.5473 -0.1142 -0.1292
 7264SOL    HW133428   0.592   0.387  10.559 -0.2353  0.1983 -0.6496
 7264SOL    HW233429   0.539   0.361  10.425  1.5510  1.3089 -0.0923
 7265SOL     OW33430   4.110   2.580  12.712  0.0415 -0.4155 -0.7155
 7265SOL    HW133431   4.141   2.669  12.698  1.3506 -0.6813  0.4952
 7265SOL    HW233432   4.035   2.610  12.764 -0.7674 -1.9025 -1.0351
 7266SOL     OW33433   3.922   3.104   3.497  0.0928 -0.3777  0.1346
 7266SOL    HW133434   3.975   3.029   3.525  1.8152  0.6091 -0.4439
 7266SOL    HW233435   3.832   3.074   3.491  0.5376 -0.9671 -3.2531
 7267SOL     OW33436   4.545   1.262   2.526  0.2235  0.4939 -0.5799
 7267SOL    HW133437   4.559   1.333   2.588  1.2236  1.1340 -1.5390
 7267SOL    HW233438   4.606   1.190   2.543  0.7607  1.3586  1.0808
 7268SOL     OW33439   0.427   1.457   5.950 -0.1608  0.8814 -0.1843
 7268SOL    HW133440   0.419   1.381   5.892  0.5574  0.0398  0.8190
 7268SOL    HW233441   0.502   1.503   5.915  0.8080 -0.4542  0.1385
 7269SOL     OW33442   2.706   1.930   3.811 -0.7593 -0.0554  0.6320
 7269SOL    HW133443   2.679   1.965   3.896  1.3792  1.1713  0.7828
 7269SOL    HW233444   2.688   1.837   3.828 -2.5445  0.0134 -0.8007
 7270SOL     OW33445   0.831   2.437  16.051  0.7639 -0.3391 -0.1079
 7270SOL    HW133446   0.850   2.358  16.102  0.8436  1.2095  2.2473
 7270SOL    HW233447   0.739   2.423  16.027  0.1678 -0.0180  1.9528
 7271SOL     OW33448   3.669   2.975   3.501  0.0332 -0.0598 -0.0679
 7271SOL    HW133449   3.646   2.934   3.418  0.5707 -2.9281  1.1885
 7271SOL    HW233450   3.580   2.979   3.536  1.0130  1.5321  2.1921
 7272SOL     OW33451   0.070   1.300   7.724 -0.3298 -0.2053 -0.3772
 7272SOL    HW133452   0.005   1.321   7.790 -0.2672  1.1683 -0.7522
 7272SOL    HW233453   0.117   1.383   7.718 -0.4956 -0.0597  0.3232
 7273SOL     OW33454   1.862   3.608   4.295  0.0026  0.0837 -0.3158
 7273SOL    HW133455   1.876   3.700   4.276 -3.2354  0.6947  0.1599
 7273SOL    HW233456   1.900   3.606   4.383  1.2944  2.3029 -0.8463
 7274SOL     OW33457   2.637   4.216   7.848 -0.1720 -0.1652 -0.3470
 7274SOL    HW133458   2.627   4.121   7.843  1.9335 -0.4216  0.1362
 7274SOL    HW233459   2.579   4.239   7.776  0.1481  0.4904 -0.4033
 7275SOL     OW33460   1.439   2.026  10.558  0.3879 -0.4327 -0.1915
 7275SOL    HW133461   1.504   2.015  10.627  1.0068  1.7572 -0.4051
 7275SOL    HW233462   1.494   2.060  10.488 -0.7370  2.1149  0.1583
 7276SOL     OW33463   0.743   1.573   3.927 -0.5970 -0.4451  0.6045
 7276SOL    HW133464   0.800   1.649   3.940  0.4921 -1.3544  1.1229
 7276SOL    HW233465   0.663   1.616   3.956  0.7811  0.8631  2.4903
 7277SOL     OW33466   4.170   2.074  13.943  0.1568 -0.3155  0.2972
 7277SOL    HW133467   4.084   2.035  13.925  0.4315 -1.7277  2.0515
 7277SOL    HW233468   4.181   2.140  13.875 -0.6618  0.3415  0.8001
 7278SOL     OW33469   4.686   4.122   5.935 -0.3222  0.3870 -0.0049
 7278SOL    HW133470   4.654   4.212   5.936 -0.0001  0.5298 -2.0750
 7278SOL    HW233471   0.020   4.130   5.998  0.7174 -1.3960 -0.9575
 7279SOL     OW33472   0.410   4.502  12.963 -0.6911 -0.0855 -0.3471
 7279SOL    HW133473   0.450   4.416  12.977 -0.0099  0.2177 -0.4309
 7279SOL    HW233474   0.409   4.501  12.868 -0.9937 -0.1640 -0.3456
 7280SOL     OW33475   2.035   3.800   2.709 -0.4030 -0.4913 -0.2480
 7280SOL    HW133476   2.030   3.863   2.636  1.1383  1.2785  1.1806
 7280SOL    HW233477   2.032   3.858   2.786  1.9842 -2.3253  1.2132
 7281SOL     OW33478   0.583   0.912  15.191  0.3848 -0.7208 -0.5866
 7281SOL    HW133479   0.633   0.981  15.233  1.9275 -2.7810  0.9886
 7281SOL    HW233480   0.493   0.945  15.183  0.9992  0.6833 -1.4819
 7282SOL     OW33481   4.095   3.063   3.885 -0.3501 -0.1000 -0.7088
 7282SOL    HW133482   4.021   3.024   3.932 -2.1776  2.8044 -1.1754
 7282SOL    HW233483   4.158   3.083   3.954  0.6688 -0.7008 -1.4569
 7283SOL     OW33484   0.364   2.003   1.783 -0.3327  0.3417  0.5683
 7283SOL    HW133485   0.410   1.965   1.709 -0.0458 -0.5297  1.1975
 7283SOL    HW233486   0.359   1.935   1.850 -0.4362  0.2485  0.4677
 7284SOL     OW33487   0.785   3.549   2.143 -0.5347 -0.4880 -0.0347
 7284SOL    HW133488   0.789   3.499   2.225  1.5518  0.6334  0.5505
 7284SOL    HW233489   0.877   3.561   2.118 -0.7035  2.2837  0.6995
 7285SOL     OW33490   1.295   1.435   8.891  0.1265  0.1588  0.1617
 7285SOL    HW133491   1.389   1.418   8.894 -0.2035 -1.5483  0.8436
 7285SOL    HW233492   1.288   1.390   8.806 -3.6179 -0.8262  1.0221
 7286SOL     OW33493   0.374   0.525   2.958 -0.6058 -0.4900  0.1507
 7286SOL    HW133494   0.316   0.523   2.882 -0.2258  0.7484 -0.1738
 7286SOL    HW233495   0.315   0.549   3.030  0.4490 -0.3041  0.9464
 7287SOL     OW33496   1.570   0.571   9.786 -0.2764  0.7516 -0.4413
 7287SOL    HW133497   1.647   0.560   9.731 -0.4805 -1.4107 -0.2947
 7287SOL    HW233498   1.589   0.512   9.858  0.9899  0.7488 -0.7890
 7288SOL     OW33499   2.932   0.504   7.544 -0.5493 -0.3113  0.7113
 7288SOL    HW133500   3.027   0.493   7.554 -0.3482 -0.4210 -1.2631
 7288SOL    HW233501   2.893   0.422   7.574 -0.7042 -0.5416 -0.1364
 7289SOL     OW33502   1.684   0.157   8.055  0.5221  0.1590  0.0801
 7289SOL    HW133503   1.745   0.090   8.087 -0.7784 -1.5939 -1.1596
 7289SOL    HW233504   1.634   0.106   7.992 -1.0115  0.6340  0.9047
 7290SOL     OW33505   3.319   2.280  17.274 -0.2228 -0.3238 -0.1920
 7290SOL    HW133506   3.288   2.224  17.203  1.1586 -1.4460  0.0977
 7290SOL    HW233507   3.231   2.304  17.303 -0.6932 -0.5428 -1.4237
 7291SOL     OW33508   0.869   4.571   5.628 -0.3522  0.8213 -0.3482
 7291SOL    HW133509   0.784   4.566   5.672 -0.7452 -1.2286 -1.3395
 7291SOL    HW233510   0.910   4.487   5.648 -0.2133  0.4933 -2.0688
 7292SOL     OW33511   4.339   3.170   6.788  0.2577 -0.5001 -0.5190
 7292SOL    HW133512   4.393   3.126   6.852 -0.2033 -1.8211 -1.0415
 7292SOL    HW233513   4.285   3.104   6.743  0.9351 -1.2805 -0.1722
 7293SOL     OW33514   0.307   3.470   2.796 -0.0034  0.1177 -0.8582
 7293SOL    HW133515   0.379   3.491   2.856 -0.2842  0.5462 -0.6724
 7293SOL    HW233516   0.242   3.530   2.832  0.8006  0.7719 -0.4948
 7294SOL     OW33517   2.997   2.359   3.912 -0.1245 -0.2904  0.1899
 7294SOL    HW133518   3.021   2.276   3.953 -1.5225 -1.6271 -1.6695
 7294SOL    HW233519   2.903   2.364   3.928 -1.0329 -1.8461 -4.6613
 7295SOL     OW33520   0.580   1.572   7.962  0.4330 -0.4965  0.4194
 7295SOL    HW133521   0.652   1.571   7.899 -0.3409  2.3297 -0.5110
 7295SOL    HW233522   0.601   1.510   8.031 -0.7079  0.4783  1.6451
 7296SOL     OW33523   4.576   1.299   6.267 -0.1701 -0.3509  0.1630
 7296SOL    HW133524   4.639   1.237   6.232 -0.9744 -1.3880  0.5395
 7296SOL    HW233525   4.600   1.309   6.359  0.2859 -2.8148  0.3127
 7297SOL     OW33526   1.817   2.881   3.802 -0.1195 -0.4871 -0.3363
 7297SOL    HW133527   1.879   2.942   3.842 -1.2243 -1.3381  2.7255
 7297SOL    HW233528   1.861   2.835   3.731  0.1660  2.3344 -1.9780
 7298SOL     OW33529   0.376   0.255   9.506 -0.3424 -0.0593  0.5637
 7298SOL    HW133530   0.426   0.214   9.576  1.8311 -2.8714 -2.6354
 7298SOL    HW233531   0.307   0.188   9.502 -1.4339  1.0656  0.5108
 7299SOL     OW33532   3.146   2.941   8.171 -0.0852  0.3916  0.5895
 7299SOL    HW133533   3.159   2.850   8.145  1.1112  0.8342 -0.3628
 7299SOL    HW233534   3.054   2.928   8.192  1.1907 -3.0690  3.9742
 7300SOL     OW33535   3.580   3.216  15.916 -0.1142 -0.4463 -0.5934
 7300SOL    HW133536   3.493   3.249  15.896 -0.6186 -0.3458  1.7353
 7300SOL    HW233537   3.635   3.293  15.936 -0.7572 -1.0005  3.3925
 7301SOL     OW33538   3.179   1.890   5.640  0.0574 -0.0397  0.0834
 7301SOL    HW133539   3.167   1.964   5.580 -1.2051 -0.1925  0.1531
 7301SOL    HW233540   3.267   1.903   5.678 -0.1277 -0.6046  0.7054
 7302SOL     OW33541   1.185   4.056   7.516  0.3425  0.6652  0.3384
 7302SOL    HW133542   1.164   4.061   7.609  1.9601  1.1872  0.6792
 7302SOL    HW233543   1.101   4.091   7.485  0.5184  1.1198  0.3681
 7303SOL     OW33544   4.376   2.812   4.594 -0.1516  0.7578  0.2597
 7303SOL    HW133545   4.332   2.787   4.676 -0.4198  0.6029  0.0657
 7303SOL    HW233546   4.410   2.900   4.614  2.0120  0.2970 -1.3391
 7304SOL     OW33547   3.266   0.627   4.298  0.0511 -1.1075 -0.4324
 7304SOL    HW133548   3.346   0.577   4.287 -0.4008 -1.6426 -1.3374
 7304SOL    HW233549   3.206   0.566   4.255 -0.0220 -1.4633  0.1756
 7305SOL     OW33550   3.318   2.849  15.460 -0.1498  0.0209  0.3599
 7305SOL    HW133551   3.338   2.942  15.467  0.0762  0.0846 -1.0279
 7305SOL    HW233552   3.243   2.845  15.520  0.4372 -3.0473  0.8964
 7306SOL     OW33553   0.755   0.539   7.374 -0.1568  0.4661 -0.1656
 7306SOL    HW133554   0.825   0.538   7.439  0.2967 -2.8438 -0.7043
 7306SOL    HW233555   0.685   0.578   7.425 -0.9780 -0.6387 -0.4337
 7307SOL     OW33556   0.881   3.135   2.438  0.0235 -0.4881 -0.2778
 7307SOL    HW133557   0.907   3.067   2.501  0.9432 -0.0708 -0.1995
 7307SOL    HW233558   0.805   3.176   2.479  0.5560  1.6018 -1.4185
 7308SOL     OW33559   2.270   1.845   8.652 -0.3185  0.2546  0.0661
 7308SOL    HW133560   2.214   1.923   8.647 -0.6379 -0.1677 -2.7458
 7308SOL    HW233561   2.334   1.886   8.594 -0.9841  0.7933 -0.2906
 7309SOL     OW33562   1.043   3.973   9.596  0.4716  0.1145  0.1779
 7309SOL    HW133563   0.965   3.927   9.564  1.3822 -0.9557 -0.4851
 7309SOL    HW233564   1.012   4.063   9.604  1.5990  0.4826  0.3123
 7310SOL     OW33565   3.434   2.449  13.404  0.0683  0.1311  0.4491
 7310SOL    HW133566   3.495   2.510  13.444 -0.3288  1.1905 -0.5666
 7310SOL    HW233567   3.455   2.443  13.311  0.0225 -0.2948  0.4637
 7311SOL     OW33568   1.246   3.817   8.058  0.1121  0.0951 -0.0650
 7311SOL    HW133569   1.165   3.781   8.021 -1.0820 -0.2421  2.8579
 7311SOL    HW233570   1.207   3.854   8.137 -0.8075  0.9580 -0.9169
 7312SOL     OW33571   4.145   2.150   2.031  0.1440  0.0148  0.4168
 7312SOL    HW133572   4.119   2.081   1.971 -1.0251 -0.1274  1.0805
 7312SOL    HW233573   4.069   2.208   2.027 -0.8855 -1.3682  0.3159
 7313SOL     OW33574   3.680   4.267   4.013  0.4296  0.4700  0.2708
 7313SOL    HW133575   3.675   4.180   3.973  0.2990  1.0741 -1.0361
 7313SOL    HW233576   3.735   4.254   4.090  0.6717  0.8732  0.1655
 7314SOL     OW33577   1.783   1.164   9.608  0.0405  0.4183  0.9050
 7314SOL    HW133578   1.701   1.212   9.612 -0.1074  0.4616 -2.5378
 7314SOL    HW233579   1.810   1.187   9.518 -2.2992 -0.4980 -0.0288
 7315SOL     OW33580   4.435   0.644   8.444 -0.2036  0.0893  0.6718
 7315SOL    HW133581   4.430   0.566   8.390  1.8349 -0.6340  1.5104
 7315SOL    HW233582   4.377   0.702   8.394  0.1495 -0.0624  0.0946
 7316SOL     OW33583   1.610   0.838  11.724  0.2604 -0.8411 -0.2986
 7316SOL    HW133584   1.626   0.785  11.802  0.2290  1.3669  1.2298
 7316SOL    HW233585   1.605   0.771  11.656  1.8417 -1.0337 -0.2119
 7317SOL     OW33586   4.200   2.419   2.403 -0.3114  0.6432  0.1546
 7317SOL    HW133587   4.285   2.387   2.372  0.3129 -0.7168  3.3520
 7317SOL    HW233588   4.208   2.514   2.393  1.6598  0.4377 -0.1805
 7318SOL     OW33589   4.464   1.085   8.841  0.2531  0.5000 -0.8067
 7318SOL    HW133590   4.465   1.126   8.928 -1.1788  0.2834 -0.6968
 7318SOL    HW233591   4.418   1.161   8.803 -0.4947 -1.0832 -3.0727
 7319SOL     OW33592   2.058   3.571  10.243 -0.5255  0.0306  0.1973
 7319SOL    HW133593   2.042   3.663  10.264 -0.0779  0.3155 -0.7243
 7319SOL    HW233594   2.011   3.561  10.160 -2.9341  1.4017  1.3787
 7320SOL     OW33595   3.147   3.603  12.704 -0.2880 -0.1825  0.3584
 7320SOL    HW133596   3.133   3.664  12.632  1.3011  0.0072  0.2107
 7320SOL    HW233597   3.203   3.660  12.757  0.5297  0.7047 -1.4605
 7321SOL     OW33598   0.964   3.391   0.701 -0.0621  0.0579  0.1725
 7321SOL    HW133599   0.944   3.476   0.741  2.3970  0.6723  0.0885
 7321SOL    HW233600   0.987   3.421   0.613 -0.9165 -2.0728 -0.7528
 7322SOL     OW33601   2.735   0.922   8.467  0.4844 -0.0706  0.1012
 7322SOL    HW133602   2.672   0.850   8.461 -0.5438  0.9823 -1.6631
 7322SOL    HW233603   2.779   0.903   8.550  0.2178 -1.9946 -0.2093
 7323SOL     OW33604   4.058   1.106  17.511  0.3303  0.1051 -0.4581
 7323SOL    HW133605   4.064   1.093  17.417  1.7758 -1.9301 -0.0634
 7323SOL    HW233606   4.117   1.181  17.508 -0.3460  0.5919 -1.4320
 7324SOL     OW33607   1.021   0.179   4.720  1.0507 -0.6332 -0.3450
 7324SOL    HW133608   1.083   0.246   4.748  1.5736 -1.3376  0.1807
 7324SOL    HW233609   0.957   0.196   4.788  2.1171  1.2275  0.2022
 7325SOL     OW33610   1.190   2.553   1.776 -0.8560  0.0845  0.8701
 7325SOL    HW133611   1.242   2.488   1.730  0.8102 -0.2449  3.2066
 7325SOL    HW233612   1.127   2.578   1.709 -0.2575 -0.4644  0.1116
 7326SOL     OW33613   0.050   1.429   2.287  0.1606  0.1532  0.6942
 7326SOL    HW133614   4.698   1.417   2.254  1.1915  1.6765 -2.6083
 7326SOL    HW233615   0.073   1.343   2.323  1.9409  0.0205 -0.7403
 7327SOL     OW33616   2.062   1.303   8.015 -0.7365 -0.3345 -0.5577
 7327SOL    HW133617   1.967   1.286   8.012 -1.2398  2.3598 -0.0958
 7327SOL    HW233618   2.062   1.383   8.068 -0.2061 -0.2136 -0.7449
 7328SOL     OW33619   0.174   4.295   9.212  0.5521  0.1095 -0.6317
 7328SOL    HW133620   0.253   4.316   9.262  0.7740  1.5923 -1.6233
 7328SOL    HW233621   0.119   4.292   9.290 -0.1198  0.1783 -1.1060
 7329SOL     OW33622   0.863   0.302   0.139 -0.2552 -0.3738  0.1936
 7329SOL    HW133623   0.880   0.396   0.134  0.0129 -0.4601 -0.5119
 7329SOL    HW233624   0.954   0.272   0.131 -1.3854 -4.2640  2.4362
 7330SOL     OW33625   1.965   2.465  12.422  1.2810  0.2643 -0.1295
 7330SOL    HW133626   2.051   2.466  12.379  2.1073 -2.6263  1.4795
 7330SOL    HW233627   1.968   2.395  12.487  1.0134 -1.9624 -2.5281
 7331SOL     OW33628   3.036   3.648   3.676  0.0137 -0.4428 -0.0638
 7331SOL    HW133629   2.983   3.675   3.601 -0.5258 -1.6600 -0.1279
 7331SOL    HW233630   3.064   3.564   3.638  3.3133  0.7961 -0.3828
 7332SOL     OW33631   1.873   1.606  13.156  0.0068 -0.6195  0.2631
 7332SOL    HW133632   1.851   1.609  13.249  1.6578  1.3625  0.6065
 7332SOL    HW233633   1.967   1.588  13.152  0.0243 -0.3128 -0.7031
 7333SOL     OW33634   4.168   1.313  13.974 -0.5498 -0.0947 -0.3303
 7333SOL    HW133635   4.188   1.405  13.994  1.2989 -0.5575  0.0117
 7333SOL    HW233636   4.254   1.296  13.935 -0.6446  0.4496 -0.7850
 7334SOL     OW33637   0.293   0.720   6.807  0.2448  0.0221 -0.5204
 7334SOL    HW133638   0.230   0.648   6.805 -1.1741  1.1590  1.9030
 7334SOL    HW233639   0.335   0.725   6.722 -0.8649 -0.5207 -1.1014
 7335SOL     OW33640   4.122   2.495   0.575  0.0318  0.1067  0.4045
 7335SOL    HW133641   4.085   2.583   0.566  1.9455  0.8262 -0.5433
 7335SOL    HW233642   4.085   2.461   0.657 -0.2597 -1.7177 -0.4933
 7336SOL     OW33643   0.511   3.297   8.923  0.5742 -0.3172 -0.0770
 7336SOL    HW133644   0.446   3.233   8.952 -0.2010  0.1501 -0.7837
 7336SOL    HW233645   0.595   3.258   8.948  0.2259 -0.8789  0.2313
 7337SOL     OW33646   3.354   1.796   3.946  0.4914  0.1047  0.6366
 7337SOL    HW133647   3.279   1.833   3.901 -0.2353 -1.7656  0.2953
 7337SOL    HW233648   3.371   1.858   4.017  0.3023  0.8626  0.0151
 7338SOL     OW33649   1.452   0.033   8.978  0.0231  0.3333 -0.0058
 7338SOL    HW133650   1.479   0.085   8.902  3.7008  0.4997  1.4332
 7338SOL    HW233651   1.524   4.709   8.978 -1.1395 -1.0323 -0.9145
 7339SOL     OW33652   3.623   0.098  13.954 -0.5157 -0.4111 -0.6927
 7339SOL    HW133653   3.565   0.149  14.011  1.4164  0.2489  0.6979
 7339SOL    HW233654   3.581   0.127  13.873 -2.6777  1.0913  0.9747
 7340SOL     OW33655   2.388   2.200   8.924 -0.4034  0.0670  0.3383
 7340SOL    HW133656   2.408   2.137   8.993  3.1064  0.8378  0.0302
 7340SOL    HW233657   2.464   2.175   8.871 -1.2664 -2.0150  0.0819
 7341SOL     OW33658   0.411   1.453   4.234  0.0565  0.0651 -0.3247
 7341SOL    HW133659   0.469   1.459   4.309  0.7871 -2.8085 -0.6650
 7341SOL    HW233660   0.344   1.508   4.274  0.2793  2.4721 -3.2868
 7342SOL     OW33661   4.340   0.253  11.705  0.0637 -0.5630  0.1430
 7342SOL    HW133662   4.351   0.273  11.798  1.3641  1.2981 -0.4094
 7342SOL    HW233663   4.391   0.325  11.667  3.8775 -2.2470  2.0740
 7343SOL     OW33664   2.766   4.535  13.512 -0.1601  0.0340 -0.4956
 7343SOL    HW133665   2.835   4.520  13.448 -0.4770 -2.2932 -0.3133
 7343SOL    HW233666   2.798   4.622  13.535  0.8675 -0.5746  0.3670
 7344SOL     OW33667   4.158   3.289   8.909 -0.1033 -0.2887  0.0301
 7344SOL    HW133668   4.211   3.266   8.833 -3.1581  0.2360 -2.2488
 7344SOL    HW233669   4.125   3.202   8.933  0.0227  0.3444  2.5245
 7345SOL     OW33670   4.592   0.705   2.607 -0.3741 -0.0779 -0.1522
 7345SOL    HW133671   4.686   0.716   2.594 -0.6570 -1.7835 -3.6513
 7345SOL    HW233672   4.559   0.675   2.522 -1.0285 -2.4826  0.9449
 7346SOL     OW33673   3.316   3.905   8.726  0.2225  0.0609 -0.3835
 7346SOL    HW133674   3.222   3.906   8.709  0.5694  0.4708 -2.2520
 7346SOL    HW233675   3.326   3.810   8.724 -2.8553 -0.2906  0.4057
 7347SOL     OW33676   3.467   1.873   0.332  0.1775  0.1640  0.1882
 7347SOL    HW133677   3.425   1.956   0.312 -2.3824 -1.4536 -1.1328
 7347SOL    HW233678   3.474   1.826   0.248  1.5786  0.9660 -0.1519
 7348SOL     OW33679   0.729   1.909   6.052 -0.0742 -0.2385 -0.3190
 7348SOL    HW133680   0.686   1.990   6.080 -0.2913 -0.6321  0.4793
 7348SOL    HW233681   0.717   1.847   6.124 -1.0566 -0.5856 -0.7809
 7349SOL     OW33682   0.915   4.681  11.376  0.4412 -0.0791 -1.3376
 7349SOL    HW133683   0.898   0.029  11.417  0.6612 -0.2190 -0.9484
 7349SOL    HW233684   0.912   4.630  11.457 -1.9447 -0.3870 -1.6214
 7350SOL     OW33685   3.638   1.747   5.299 -0.7032 -0.2035 -0.9335
 7350SOL    HW133686   3.732   1.725   5.301 -0.6657 -0.0359 -0.9154
 7350SOL    HW233687   3.635   1.830   5.345  0.6062 -0.0708 -1.0657
 7351SOL     OW33688   2.700   4.198   4.093  0.0573  0.2457  0.2356
 7351SOL    HW133689   2.646   4.184   4.172 -0.3375  0.4464  0.0007
 7351SOL    HW233690   2.786   4.178   4.131 -0.8050 -1.4795  1.2854
 7352SOL     OW33691   2.559   4.687  16.571 -0.1702 -0.0770  0.7179
 7352SOL    HW133692   2.621   4.622  16.539 -0.5232 -0.0111 -0.0917
 7352SOL    HW233693   2.538   4.632  16.646  0.9499  0.4255  1.3955
 7353SOL     OW33694   2.457   0.299   3.374 -0.9631  0.3613  0.2937
 7353SOL    HW133695   2.456   0.327   3.466 -0.7324 -0.3745  0.5156
 7353SOL    HW233696   2.364   0.311   3.356 -0.6578  1.0380 -0.8622
 7354SOL     OW33697   3.406   4.638   9.071  0.8500  0.1176  0.1658
 7354SOL    HW133698   3.337   4.694   9.038 -2.9515 -3.0775  2.6880
 7354SOL    HW233699   3.401   4.563   9.011  0.1625  1.1306 -1.0176
 7355SOL     OW33700   1.429   3.431  12.919 -0.3873  0.0914  0.2672
 7355SOL    HW133701   1.453   3.505  12.974 -0.8265  1.1487 -0.9620
 7355SOL    HW233702   1.471   3.358  12.964  0.1694  0.0702 -0.2823
 7356SOL     OW33703   4.003   1.429   5.643  0.1656 -0.3174  0.4154
 7356SOL    HW133704   4.073   1.434   5.709 -1.4092  0.8302  1.9961
 7356SOL    HW233705   4.017   1.343   5.603 -0.0036  0.5393 -1.4739
 7357SOL     OW33706   0.738   3.185   9.401 -0.5320 -0.0484 -0.7136
 7357SOL    HW133707   0.705   3.275   9.398  1.3225  0.7151  1.8537
 7357SOL    HW233708   0.654   3.140   9.387  0.5996 -1.7147 -2.1421
 7358SOL     OW33709   0.659   2.398   1.702 -0.5361  0.2451 -0.1320
 7358SOL    HW133710   0.576   2.434   1.732 -0.0714  0.4673  0.8727
 7358SOL    HW233711   0.675   2.333   1.771 -1.7616  1.0100  0.8698
 7359SOL     OW33712   1.569   2.244   9.561  0.5340  0.1148  0.0997
 7359SOL    HW133713   1.542   2.287   9.642 -1.5931 -0.5884 -0.2366
 7359SOL    HW233714   1.482   2.218   9.530  1.5155 -0.8203 -1.8284
 7360SOL     OW33715   1.923   4.550  11.005  0.2270  1.1519 -0.3734
 7360SOL    HW133716   1.863   4.476  11.015  0.5922  0.9423  0.2461
 7360SOL    HW233717   1.865   4.620  10.975  1.7557  2.2530 -0.7624
 7361SOL     OW33718   1.234   3.400   2.632  0.7514  0.4918  0.2854
 7361SOL    HW133719   1.252   3.329   2.694 -0.1417  1.8082  2.0648
 7361SOL    HW233720   1.319   3.411   2.589 -0.1169 -0.3653 -1.6682
 7362SOL     OW33721   1.165   0.389   7.935 -0.2102  0.5151  0.0717
 7362SOL    HW133722   1.105   0.333   7.886  1.2054  0.5804 -1.7255
 7362SOL    HW233723   1.143   0.364   8.025  1.0264  1.2676  0.5872
 7363SOL     OW33724   4.257   3.371   4.248 -0.3244 -0.4541 -0.2467
 7363SOL    HW133725   4.344   3.407   4.233 -0.2793  0.1305  1.4506
 7363SOL    HW233726   4.204   3.412   4.180  0.2868 -0.7619 -0.9157
 7364SOL     OW33727   1.509   0.073  16.075  0.4551  0.3126  0.3069
 7364SOL    HW133728   1.528   0.091  16.168 -1.5866  0.6137  0.6646
 7364SOL    HW233729   1.451   4.734  16.080  0.7817  0.1686  1.9097
 7365SOL     OW33730   0.141   0.489   5.977  0.1216 -0.0043 -0.1319
 7365SOL    HW133731   0.232   0.460   5.970  0.1551  0.3467 -1.1585
 7365SOL    HW233732   0.119   0.474   5.885 -0.2848  0.6857 -0.1524
 7366SOL     OW33733   3.380   4.407  16.232  0.0139 -0.6929  0.5895
 7366SOL    HW133734   3.349   4.479  16.287 -1.0684 -0.8152  0.1577
 7366SOL    HW233735   3.320   4.406  16.157 -0.5485 -0.2446  1.0256
 7367SOL     OW33736   2.606   0.077   1.463  0.4182 -0.2170  0.3858
 7367SOL    HW133737   2.608   0.070   1.558 -3.1635  1.7074  0.6025
 7367SOL    HW233738   2.519   0.117   1.459  0.5621  0.2035  1.6617
 7368SOL     OW33739   3.303   2.387   4.981 -0.4261  0.6669  0.0883
 7368SOL    HW133740   3.329   2.362   5.069  0.0698 -0.8153 -0.4798
 7368SOL    HW233741   3.348   2.472   4.971 -0.0828  0.4171 -0.5255
 7369SOL     OW33742   2.640   4.103  10.637 -0.2957 -0.1070 -0.5545
 7369SOL    HW133743   2.618   4.141  10.553 -0.7960 -0.5286 -0.6152
 7369SOL    HW233744   2.703   4.036  10.610  0.2661  0.1517  0.1186
 7370SOL     OW33745   3.588   1.455   2.200 -0.0088  0.3774 -0.3884
 7370SOL    HW133746   3.664   1.503   2.168 -0.9419  2.4777  0.5010
 7370SOL    HW233747   3.610   1.443   2.293  1.1581 -0.4163 -0.7663
 7371SOL     OW33748   4.540   2.696   9.803 -0.2156 -0.1474 -0.0356
 7371SOL    HW133749   4.452   2.659   9.815  0.3387 -1.2848  0.5544
 7371SOL    HW233750   4.597   2.620   9.789 -0.1997 -0.2521  0.6215
 7372SOL     OW33751   3.356   3.509   2.350 -0.0168 -0.2003 -0.0640
 7372SOL    HW133752   3.329   3.530   2.261 -1.4359  0.5716  0.5356
 7372SOL    HW233753   3.274   3.540   2.390 -0.9995  0.5591 -2.6395
 7373SOL     OW33754   1.123   1.209   5.114 -0.2210  0.0088  0.5237
 7373SOL    HW133755   1.125   1.294   5.157 -0.9236 -0.1977  0.9673
 7373SOL    HW233756   1.053   1.223   5.051 -0.0789 -0.5247  0.2461
 7374SOL     OW33757   1.610   1.183   2.593 -0.1433  0.2771  0.1142
 7374SOL    HW133758   1.539   1.246   2.600  1.0886  1.5610  1.0713
 7374SOL    HW233759   1.560   1.103   2.584  0.0373 -0.1347  2.9601
 7375SOL     OW33760   1.475   0.691   6.315  0.3151  0.0762  0.0735
 7375SOL    HW133761   1.517   0.673   6.231  3.7083 -1.1629  2.0881
 7375SOL    HW233762   1.539   0.668   6.382  1.7131  0.9744 -0.9674
 7376SOL     OW33763   2.203   2.231   6.353  0.3950  0.5658  0.6166
 7376SOL    HW133764   2.146   2.224   6.276  1.3193 -0.2890  0.0145
 7376SOL    HW233765   2.139   2.219   6.423 -0.0312  0.5910  0.2366
 7377SOL     OW33766   4.637   3.019   7.602 -0.0570  0.0890 -0.0690
 7377SOL    HW133767   4.557   3.071   7.613  0.9646  1.9290 -1.4029
 7377SOL    HW233768   4.696   3.091   7.580  1.4191 -0.8175  0.9183
 7378SOL     OW33769   1.240   2.735   8.235  0.1931  0.3009 -0.4307
 7378SOL    HW133770   1.266   2.677   8.307 -1.2137  0.0650 -0.1101
 7378SOL    HW233771   1.245   2.672   8.163  0.1519  0.8436 -0.8974
 7379SOL     OW33772   4.530   1.272   1.884 -0.2225  0.0703 -0.3494
 7379SOL    HW133773   4.460   1.269   1.949 -0.4245 -1.5683 -0.6396
 7379SOL    HW233774   4.615   1.267   1.927  0.5474 -0.9456 -1.9854
 7380SOL     OW33775   2.101   2.111  13.378  0.0833  0.2202 -0.1694
 7380SOL    HW133776   2.153   2.114  13.457 -1.2724  0.1525  0.7272
 7380SOL    HW233777   2.076   2.019  13.364  3.8841 -1.0001  1.2373
 7381SOL     OW33778   1.616   3.691   3.293 -0.1834 -0.0666  0.6289
 7381SOL    HW133779   1.690   3.695   3.354  0.3093  0.4419 -0.0014
 7381SOL    HW233780   1.551   3.704   3.363  0.6332  0.6281  1.2542
 7382SOL     OW33781   3.829   2.158   8.239 -0.3287  0.0907  0.4632
 7382SOL    HW133782   3.820   2.083   8.299  0.1909 -0.6579 -0.3880
 7382SOL    HW233783   3.739   2.187   8.228  0.5883  3.2169  1.4064
 7383SOL     OW33784   1.154   0.150  12.012 -0.2581 -0.3766  0.3736
 7383SOL    HW133785   1.059   0.147  12.010 -0.3526  2.3447  0.4876
 7383SOL    HW233786   1.174   0.099  12.090 -2.7509 -0.7370  0.7634
 7384SOL     OW33787   0.968   0.444   8.888 -0.2981  0.3060  0.4563
 7384SOL    HW133788   1.044   0.457   8.945 -2.1116  1.0689  2.6583
 7384SOL    HW233789   0.927   0.373   8.937  1.2466 -1.3444 -0.6467
 7385SOL     OW33790   2.279   0.905  13.382 -0.0383 -0.1516 -0.1777
 7385SOL    HW133791   2.359   0.955  13.397  0.1626 -0.5779  0.2066
 7385SOL    HW233792   2.262   0.871  13.470 -0.9699 -0.0274 -0.3063
 7386SOL     OW33793   3.433   3.394   4.346  0.1263  0.0751  0.0263
 7386SOL    HW133794   3.420   3.446   4.266  0.9814  0.0719 -0.1085
 7386SOL    HW233795   3.347   3.351   4.352 -0.1758  0.3815 -1.8564
 7387SOL     OW33796   0.814   4.170   0.554  0.2104  0.1751 -0.2943
 7387SOL    HW133797   0.815   4.100   0.619  2.8539  0.5341  0.0261
 7387SOL    HW233798   0.737   4.148   0.502  0.7783 -0.9422 -0.6665
 7388SOL     OW33799   0.353   1.182   8.507 -0.2443  0.1057 -0.1110
 7388SOL    HW133800   0.306   1.110   8.463 -1.0067  0.3757  0.2529
 7388SOL    HW233801   0.295   1.246   8.466  0.7657  0.4892 -0.9175
 7389SOL     OW33802   4.388   2.170   7.213 -0.2368 -0.4235 -0.1072
 7389SOL    HW133803   4.456   2.107   7.236 -0.6668  0.0661  2.4924
 7389SOL    HW233804   4.312   2.115   7.230 -1.3086  0.3798 -2.2529
 7390SOL     OW33805   3.933   1.847   1.146 -0.2488 -0.3733  0.1498
 7390SOL    HW133806   3.938   1.903   1.223 -0.1354 -0.0158 -0.1212
 7390SOL    HW233807   3.896   1.772   1.193  1.7164 -0.3557  1.6783
 7391SOL     OW33808   3.905   4.144   5.481  0.1698  0.1700 -0.4773
 7391SOL    HW133809   3.945   4.099   5.556 -2.5943  0.9791  1.4805
 7391SOL    HW233810   3.944   4.099   5.406  0.8381  1.1934 -0.7440
 7392SOL     OW33811   3.522   4.346   4.258  0.3971  0.2295 -0.2002
 7392SOL    HW133812   3.609   4.385   4.265  0.0724  1.0063 -0.4712
 7392SOL    HW233813   3.549   4.263   4.219  2.4594  0.0815  1.5720
 7393SOL     OW33814   4.330   4.161   7.281 -0.2358  0.6009 -0.2133
 7393SOL    HW133815   4.275   4.114   7.343  1.0058  0.6598  0.9434
 7393SOL    HW233816   4.407   4.103   7.272 -0.7265 -0.1012  0.1463
 7394SOL     OW33817   2.506   2.453  17.272 -0.0156  0.0629  0.2389
 7394SOL    HW133818   2.444   2.413  17.333  0.2987 -1.4491 -0.4377
 7394SOL    HW233819   2.590   2.419  17.303  0.0595 -0.7071 -0.7965
 7395SOL     OW33820   2.127   1.417  11.546 -0.1637  0.6539 -0.0129
 7395SOL    HW133821   2.117   1.508  11.571 -0.5124  0.1412  1.7557
 7395SOL    HW233822   2.056   1.390  11.488 -0.4386  0.6948  0.3079
 7396SOL     OW33823   2.471   2.051  17.176  0.7825  0.0507  1.1501
 7396SOL    HW133824   2.472   2.134  17.223  3.4532  0.6763 -0.0043
 7396SOL    HW233825   2.517   2.063  17.093  3.3584 -0.2070  2.5409
 7397SOL     OW33826   0.853   1.877   2.499 -0.8465 -0.1852  0.3381
 7397SOL    HW133827   0.787   1.854   2.434  0.5870  1.4479 -1.7036
 7397SOL    HW233828   0.857   1.971   2.515  1.5636 -0.2146 -0.0960
 7398SOL     OW33829   1.437   1.880  16.110 -0.2614  0.0275  0.3139
 7398SOL    HW133830   1.379   1.808  16.085 -0.4636  0.7161 -1.1958
 7398SOL    HW233831   1.379   1.952  16.136 -0.8001 -0.4653  0.4880
 7399SOL     OW33832   1.928   1.051   8.707  0.5788 -0.0584  0.5457
 7399SOL    HW133833   1.976   0.983   8.755  2.0312 -0.3242 -1.3000
 7399SOL    HW233834   1.895   1.100   8.782  0.1778  1.2573 -0.4915
 7400SOL     OW33835   1.881   4.685   5.016  0.2604  0.0052  0.3651
 7400SOL    HW133836   1.785   4.691   5.019  0.2999  0.7764  0.0997
 7400SOL    HW233837   1.896   4.695   5.110 -1.0898 -2.2300  0.8087
 7401SOL     OW33838   1.653   1.784   3.881 -0.1785  0.5221  0.3918
 7401SOL    HW133839   1.604   1.702   3.874 -0.5874  0.7259  0.8129
 7401SOL    HW233840   1.668   1.799   3.788  2.5207 -0.5752  0.6645
 7402SOL     OW33841   1.852   1.949   2.149 -0.2574 -0.0072 -0.2331
 7402SOL    HW133842   1.888   1.861   2.160  1.7025  0.8411  0.1780
 7402SOL    HW233843   1.785   1.939   2.081 -1.9460 -0.1186  1.4278
 7403SOL     OW33844   4.394   3.372   7.042  0.1972  0.3597 -0.2138
 7403SOL    HW133845   4.375   3.280   7.026 -0.0575  0.4201 -0.2501
 7403SOL    HW233846   4.474   3.381   6.990  0.1063 -0.3981 -0.4808
 7404SOL     OW33847   3.054   4.041   7.415 -0.0942  0.1234 -0.2146
 7404SOL    HW133848   3.144   4.062   7.439  0.7149 -1.7798 -1.6606
 7404SOL    HW233849   3.058   4.037   7.320  2.2190 -1.1623 -0.0461
 7405SOL     OW33850   4.284   2.523   3.715  0.2752  0.0357 -0.1682
 7405SOL    HW133851   4.272   2.606   3.761  1.3406 -1.7555  3.2938
 7405SOL    HW233852   4.280   2.458   3.785  0.2107 -0.2494 -0.4380
 7406SOL     OW33853   3.058   2.353   6.011  0.2600  0.8376  0.5224
 7406SOL    HW133854   3.145   2.382   6.038 -0.5555  0.5492  3.4366
 7406SOL    HW233855   3.076   2.324   5.921 -4.4003 -4.0963  1.1963
 7407SOL     OW33856   1.250   3.917   6.301  0.1038  0.0755 -0.1813
 7407SOL    HW133857   1.209   3.985   6.354 -0.7406 -0.6153  0.0416
 7407SOL    HW233858   1.308   3.970   6.246 -1.2900  3.6153  1.8075
 7408SOL     OW33859   4.663   4.045   7.519 -0.2199  0.4136  0.6909
 7408SOL    HW133860   4.570   4.048   7.494 -0.5677 -1.0374  1.7950
 7408SOL    HW233861   4.648   3.973   7.581  1.2422  0.2882  0.8889
 7409SOL     OW33862   0.259   2.549  16.060 -0.1155  0.4092 -0.2644
 7409SOL    HW133863   0.313   2.544  15.981 -1.1266  1.7658 -1.0318
 7409SOL    HW233864   0.195   2.478  16.045  0.1104 -0.0525  0.9816
 7410SOL     OW33865   1.645   1.134   7.308  0.4820 -0.1231  0.1540
 7410SOL    HW133866   1.597   1.124   7.226 -0.8205 -0.9656  1.0128
 7410SOL    HW233867   1.730   1.157   7.271  0.0221  1.8825  0.3601
 7411SOL     OW33868   3.425   4.460   6.706 -0.2016  0.1038 -0.2911
 7411SOL    HW133869   3.352   4.496   6.655 -1.0448  1.7417  2.0201
 7411SOL    HW233870   3.505   4.504   6.676  0.4229 -1.0254 -0.2737
 7412SOL     OW33871   4.566   0.230  13.982  0.5605  0.2126 -0.2384
 7412SOL    HW133872   4.563   0.229  14.078  0.9824  0.2679 -0.2246
 7412SOL    HW233873   4.586   0.323  13.973  0.3557  0.4775  2.0446
 7413SOL     OW33874   2.259   1.422  15.266 -0.3498  0.7480 -0.4402
 7413SOL    HW133875   2.267   1.369  15.345  1.5113  0.0718 -1.0799
 7413SOL    HW233876   2.340   1.414  15.215  0.6308  0.9620  1.0672
 7414SOL     OW33877   2.288   1.501   7.574 -0.0876  0.0435  0.0910
 7414SOL    HW133878   2.240   1.493   7.657 -1.6708 -0.8138 -0.9285
 7414SOL    HW233879   2.275   1.413   7.540 -0.1615  0.3490 -0.6594
 7415SOL     OW33880   3.572   0.103   5.340  0.4385  0.1014  0.0650
 7415SOL    HW133881   3.620   0.093   5.422 -0.5770  0.7305  0.7346
 7415SOL    HW233882   3.520   0.023   5.341 -0.7611  0.8603 -0.8185
 7416SOL     OW33883   2.655   2.817   5.752 -0.3129  0.3587 -0.3818
 7416SOL    HW133884   2.751   2.819   5.750 -0.3035 -0.1417 -0.6899
 7416SOL    HW233885   2.630   2.868   5.675  0.8059 -2.0463 -2.3609
 7417SOL     OW33886   4.676   2.015   4.926 -0.5241  0.0550  0.2628
 7417SOL    HW133887   4.730   2.011   5.006  1.4024  1.1810 -0.9826
 7417SOL    HW233888   4.589   2.024   4.964  0.3008 -0.8318  2.3855
 7418SOL     OW33889   4.421   0.545   2.758  0.1130 -0.3674 -0.2896
 7418SOL    HW133890   4.385   0.509   2.677 -3.1622 -1.4337  1.6020
 7418SOL    HW233891   4.479   0.612   2.722 -1.5411  1.4485  0.3881
 7419SOL     OW33892   3.212   3.967   5.629 -0.3096 -0.5494 -0.2265
 7419SOL    HW133893   3.178   3.890   5.584 -0.8114  0.1252 -0.9994
 7419SOL    HW233894   3.234   4.033   5.563 -0.4207  0.1939  0.4751
 7420SOL     OW33895   4.487   1.820   8.552 -0.4953 -0.0252  0.4170
 7420SOL    HW133896   4.467   1.807   8.645  2.7759  1.0418  1.2588
 7420SOL    HW233897   4.581   1.815   8.537 -0.7869 -0.6852 -1.2400
 7421SOL     OW33898   4.302   1.446   4.481 -0.3776  0.6002 -0.0401
 7421SOL    HW133899   4.220   1.440   4.530 -1.7024 -0.3627 -2.3958
 7421SOL    HW233900   4.364   1.390   4.528 -1.5853  0.4918  1.4044
 7422SOL     OW33901   0.412   1.256   3.592  0.3384  0.1811  0.2717
 7422SOL    HW133902   0.323   1.232   3.566 -0.8569  2.0147  2.6297
 7422SOL    HW233903   0.415   1.225   3.683  2.0505 -0.0065  0.1381
 7423SOL     OW33904   0.283   2.629   6.882 -0.5988  0.3493  0.1203
 7423SOL    HW133905   0.254   2.713   6.916 -1.5661  0.1790 -0.2658
 7423SOL    HW233906   0.291   2.566   6.954  2.4594  0.4984 -0.0960
 7424SOL     OW33907   1.475   3.662   8.214 -0.3113 -0.6637  0.1193
 7424SOL    HW133908   1.436   3.683   8.299  1.0126 -0.9676  0.7862
 7424SOL    HW233909   1.405   3.694   8.157 -1.1118 -1.1188  0.8365
 7425SOL     OW33910   4.203   0.262   4.927  0.1511 -0.6405  0.1958
 7425SOL    HW133911   4.222   0.170   4.944  1.2615 -0.3057  0.7525
 7425SOL    HW233912   4.217   0.304   5.012  0.3340  2.2334 -1.2574
 7426SOL     OW33913   3.115   2.567   1.061 -1.0431 -0.0524  0.4250
 7426SOL    HW133914   3.159   2.600   1.139 -2.2169  0.2904  0.9399
 7426SOL    HW233915   3.096   2.477   1.088 -2.6924  0.4338  0.9380
 7427SOL     OW33916   0.201   3.977   6.168  0.3014 -0.2584  0.3272
 7427SOL    HW133917   0.150   4.056   6.189  0.0532 -1.0184  2.5539
 7427SOL    HW233918   0.285   3.994   6.211  0.9214  0.0444 -1.0079
 7428SOL     OW33919   2.304   3.359  13.553  0.0125  0.4517  0.0449
 7428SOL    HW133920   2.243   3.292  13.584 -0.5706  0.2237 -1.6257
 7428SOL    HW233921   2.317   3.426  13.620 -2.6160 -0.3903  1.4118
 7429SOL     OW33922   0.295   1.724  10.627 -0.5640 -0.0647  0.1342
 7429SOL    HW133923   0.322   1.793  10.566  0.9017  0.1155  1.0112
 7429SOL    HW233924   0.205   1.750  10.649 -0.5328 -0.4769  0.7475
 7430SOL     OW33925   1.841   2.575  16.191 -0.4259  0.7902  0.0414
 7430SOL    HW133926   1.815   2.643  16.129  1.5544  1.4717 -0.0270
 7430SOL    HW233927   1.868   2.618  16.272  0.0692  0.3941  0.0834
 7431SOL     OW33928   3.681   0.311   5.199 -0.3940  0.3315  0.1516
 7431SOL    HW133929   3.664   0.246   5.267 -2.0530  1.2382  0.5973
 7431SOL    HW233930   3.686   0.390   5.252  1.4182 -0.6314  1.3987
 7432SOL     OW33931   0.606   4.591   5.705  0.2478 -0.1660  0.0478
 7432SOL    HW133932   0.599   4.617   5.797  0.2109 -1.1439  0.3221
 7432SOL    HW233933   0.563   4.506   5.709 -0.6795  0.2187 -1.7638
 7433SOL     OW33934   3.655   1.474   6.800  0.0783  0.3291 -0.4434
 7433SOL    HW133935   3.654   1.564   6.766  2.5647 -0.0232 -1.4417
 7433SOL    HW233936   3.560   1.461   6.798 -0.1777  2.4596 -2.2987
 7434SOL     OW33937   4.506   3.694   2.798 -0.6504 -0.6678 -0.4447
 7434SOL    HW133938   4.421   3.695   2.754 -0.7853 -1.6453 -0.1955
 7434SOL    HW233939   4.545   3.612   2.766  0.9061  0.5560 -1.7101
 7435SOL     OW33940   1.637   0.629   5.767 -0.3668  0.9994  0.0487
 7435SOL    HW133941   1.710   0.691   5.773 -0.1928  0.8238 -0.1924
 7435SOL    HW233942   1.562   0.688   5.771  0.2995  1.8341  0.0776
 7436SOL     OW33943   4.240   0.899   4.067  0.2360  0.1442  0.5772
 7436SOL    HW133944   4.152   0.926   4.043 -0.1792 -1.0961  0.7014
 7436SOL    HW233945   4.286   0.983   4.068  0.8135 -0.1699 -0.1831
 7437SOL     OW33946   2.816   1.210   4.219  0.3525 -0.0862  0.2662
 7437SOL    HW133947   2.759   1.150   4.268  0.2284 -0.2882 -0.1232
 7437SOL    HW233948   2.904   1.176   4.233  0.1871 -1.0172 -0.8929
 7438SOL     OW33949   4.248   4.672   7.252  0.4606  0.0130 -0.3793
 7438SOL    HW133950   4.211   4.674   7.164  0.0471  3.1775 -0.1085
 7438SOL    HW233951   4.284   4.583   7.255  2.5788  0.9237  0.7416
 7439SOL     OW33952   4.385   1.861  10.066 -0.4215 -0.4207  0.2503
 7439SOL    HW133953   4.298   1.878  10.030  0.0818 -1.0123 -1.2296
 7439SOL    HW233954   4.371   1.767  10.082  2.6517 -1.0192 -0.5798
 7440SOL     OW33955   2.402   0.841  11.682 -0.5754 -0.2741 -0.4912
 7440SOL    HW133956   2.322   0.824  11.632 -0.9713 -1.3125  0.5076
 7440SOL    HW233957   2.365   0.818  11.767  1.5051  0.3531  0.5673
 7441SOL     OW33958   0.215   0.534   8.159 -0.2474  0.4693 -0.1904
 7441SOL    HW133959   0.187   0.465   8.099 -0.1412 -0.5896  0.9858
 7441SOL    HW233960   0.154   0.605   8.139  0.5098  0.1080 -3.7243
 7442SOL     OW33961   4.490   2.546   6.837  0.0654 -0.0191 -0.2083
 7442SOL    HW133962   4.475   2.491   6.760 -2.0714 -1.1627  1.0345
 7442SOL    HW233963   4.583   2.527   6.853 -0.1105 -0.2521  0.4894
 7443SOL     OW33964   0.438   4.706   9.672  0.5279 -0.1597  0.0267
 7443SOL    HW133965   0.379   0.016   9.730  0.6263 -1.3483  1.0970
 7443SOL    HW233966   0.493   4.667   9.740  1.2361  1.7989  0.5830
 7444SOL     OW33967   3.137   3.397   6.345  0.1995  0.1658  0.0128
 7444SOL    HW133968   3.195   3.342   6.399 -0.2803 -1.6338 -1.3080
 7444SOL    HW233969   3.089   3.434   6.420  0.2290 -0.0713  0.1489
 7445SOL     OW33970   3.675   3.127   3.894 -0.1900 -0.4723 -0.2944
 7445SOL    HW133971   3.669   3.180   3.815 -0.0770 -1.2584 -0.8372
 7445SOL    HW233972   3.599   3.159   3.941 -0.0577  1.8630 -1.6929
 7446SOL     OW33973   3.772   1.452   7.946 -0.1649  0.0541  0.0235
 7446SOL    HW133974   3.842   1.480   7.886  1.4006  0.4346  2.0203
 7446SOL    HW233975   3.770   1.361   7.917 -2.0002 -0.0540  0.5244
 7447SOL     OW33976   0.206   0.384  12.687  0.1557  0.0693 -0.0862
 7447SOL    HW133977   0.131   0.440  12.667 -1.0725 -1.1256  1.2262
 7447SOL    HW233978   0.173   0.321  12.751  3.1559 -0.3287  1.0690
 7448SOL     OW33979   3.135   3.038   2.427 -0.1430 -0.3465 -0.3352
 7448SOL    HW133980   3.137   2.984   2.507  1.2446 -1.3696 -1.0573
 7448SOL    HW233981   3.218   3.024   2.382  2.0692  1.0707  3.2646
 7449SOL     OW33982   3.391   2.047   7.709  0.0439 -0.1798  0.0323
 7449SOL    HW133983   3.461   2.111   7.719  0.5933 -0.7244 -0.2939
 7449SOL    HW233984   3.380   2.054   7.614  4.4536 -0.4573 -0.4967
 7450SOL     OW33985   0.020   3.487   3.751 -0.5389 -0.2102  0.3901
 7450SOL    HW133986   0.075   3.558   3.717  0.0917 -1.0430 -0.2974
 7450SOL    HW233987   4.671   3.523   3.733 -0.7969 -1.0609 -0.0423
 7451SOL     OW33988   4.725   3.700   7.009 -0.1603 -0.4165 -1.1585
 7451SOL    HW133989   0.073   3.724   7.043 -1.2686  0.5545  0.9330
 7451SOL    HW233990   4.709   3.773   6.949 -0.5763  2.5705  2.5984
 7452SOL     OW33991   0.353   1.773   6.879 -0.2367  0.3918  0.3898
 7452SOL    HW133992   0.370   1.795   6.971  1.2119  0.5683  0.0800
 7452SOL    HW233993   0.444   1.774   6.849 -1.0956 -0.7404 -2.2212
 7453SOL     OW33994   3.721   0.016  13.252  0.4802 -0.2574  0.2407
 7453SOL    HW133995   3.709   4.714  13.339 -0.1581 -1.5781 -0.4371
 7453SOL    HW233996   3.757   0.102  13.273 -0.3176  0.0805  0.2013
 7454SOL     OW33997   1.837   0.510   4.876  0.4692  0.0975 -0.0798
 7454SOL    HW133998   1.810   0.517   4.967 -1.4556  0.7490 -0.7042
 7454SOL    HW233999   1.886   0.592   4.863 -1.3696  1.2532  0.3701
 7455SOL     OW34000   0.548   2.619   6.944  0.0318 -0.6904 -0.1453
 7455SOL    HW134001   0.538   2.643   7.036 -1.0513  0.3431 -0.5301
 7455SOL    HW234002   0.463   2.639   6.904  0.2808 -0.1124 -0.3948
 7456SOL     OW34003   0.240   0.850  12.810  0.1037 -0.1530  0.5108
 7456SOL    HW134004   0.322   0.810  12.782 -0.1127  1.2480 -2.1313
 7456SOL    HW234005   0.213   0.789  12.879  1.3852 -0.9350  0.3104
 7457SOL     OW34006   4.224   2.056   5.797 -0.3552  0.0245 -0.6807
 7457SOL    HW134007   4.192   2.072   5.708  0.8697 -0.7333 -1.2683
 7457SOL    HW234008   4.144   2.063   5.848  0.5525  0.3440  0.7127
 7458SOL     OW34009   0.937   1.890   6.481 -0.1216 -0.3998  0.0999
 7458SOL    HW134010   0.958   1.963   6.423  0.4035 -1.0544 -0.5244
 7458SOL    HW234011   0.925   1.934   6.565  1.4492  0.4814 -0.1420
 7459SOL     OW34012   0.921   0.309   2.033  0.9327  0.0540  0.2886
 7459SOL    HW134013   0.990   0.245   2.018  1.3012  0.5414 -0.1010
 7459SOL    HW234014   0.912   0.334   1.941 -1.1021  0.7718  0.6698
 7460SOL     OW34015   0.432   1.999  16.709 -0.7190  0.3124 -0.0372
 7460SOL    HW134016   0.491   2.012  16.783 -1.6751  0.5129  0.6944
 7460SOL    HW234017   0.352   2.018  16.758 -1.8664 -3.2303 -0.5180
 7461SOL     OW34018   2.635   0.577  16.814  0.2762 -0.0351 -0.8121
 7461SOL    HW134019   2.680   0.494  16.827  1.1769  0.5861  0.0642
 7461SOL    HW234020   2.688   0.613  16.743 -0.2621 -1.5914 -1.9948
 7462SOL     OW34021   3.719   2.357   5.305  0.0580  0.5019  0.3987
 7462SOL    HW134022   3.771   2.279   5.321  0.6061  0.8145  0.1428
 7462SOL    HW234023   3.785   2.426   5.311 -1.1360  1.7488 -0.8860
 7463SOL     OW34024   4.575   3.139   3.286 -0.2475  0.4098  0.0902
 7463SOL    HW134025   4.536   3.147   3.373 -0.0553  1.4298  0.0868
 7463SOL    HW234026   4.670   3.147   3.298  0.0921 -1.4987 -1.3049
 7464SOL     OW34027   3.682   2.412  14.776 -0.6893  0.4092  0.4724
 7464SOL    HW134028   3.595   2.439  14.748  0.6875  0.9168 -3.1797
 7464SOL    HW234029   3.675   2.431  14.870  0.1320 -0.1238  0.6467
 7465SOL     OW34030   4.107   0.839   2.440  0.3062 -0.1244 -0.3045
 7465SOL    HW134031   4.108   0.934   2.451 -0.5634  0.0843 -2.0071
 7465SOL    HW234032   4.014   0.827   2.419  0.0417 -1.0587  1.3611
 7466SOL     OW34033   0.707   3.814  14.127  0.2268 -0.3373 -1.3642
 7466SOL    HW134034   0.732   3.901  14.158  0.4352 -0.3447 -1.5099
 7466SOL    HW234035   0.731   3.823  14.034  1.2612 -0.3524 -1.0987
 7467SOL     OW34036   1.544   3.038  12.845  0.3095  0.0843  0.4856
 7467SOL    HW134037   1.597   2.959  12.847  1.4091  0.8044 -1.2126
 7467SOL    HW234038   1.476   3.010  12.783 -0.6579 -1.0251  2.0264
 7468SOL     OW34039   1.965   2.218   3.553  0.5217  0.1189 -0.9107
 7468SOL    HW134040   2.044   2.238   3.604 -0.3457  0.5341  0.2821
 7468SOL    HW234041   2.000   2.227   3.464 -1.0101  0.2805 -1.4843
 7469SOL     OW34042   0.837   2.170  16.443 -0.4437 -0.2021 -0.2072
 7469SOL    HW134043   0.768   2.194  16.380 -0.0092 -1.2520 -1.0693
 7469SOL    HW234044   0.886   2.252  16.449  1.5445 -1.2368 -2.1639
 7470SOL     OW34045   2.183   1.056   3.095  0.6963  0.0696 -0.4311
 7470SOL    HW134046   2.192   1.141   3.139  3.1753 -0.9290  1.0102
 7470SOL    HW234047   2.261   1.022   3.141  1.2442  0.5271 -1.0243
 7471SOL     OW34048   2.005   4.004   9.817  0.3380 -0.1551 -0.1235
 7471SOL    HW134049   2.060   3.983   9.893 -1.1224  0.9150  1.2156
 7471SOL    HW234050   2.071   4.015   9.749 -1.6549  2.8559 -1.5810
 7472SOL     OW34051   2.064   3.923  15.006  0.2082  0.1801 -0.5652
 7472SOL    HW134052   1.995   3.858  15.018 -1.2885  0.9176 -5.1235
 7472SOL    HW234053   2.021   3.978  14.940 -1.2835 -0.2249  0.0823
 7473SOL     OW34054   1.899   4.684   2.558 -0.4339  0.3810  0.1965
 7473SOL    HW134055   1.865   4.718   2.641  0.6895 -1.1805  1.2975
 7473SOL    HW234056   1.886   4.589   2.564 -2.0759  0.6781  1.3704
 7474SOL     OW34057   2.218   0.188   8.612  0.2407 -0.0925  0.2425
 7474SOL    HW134058   2.154   0.226   8.552  2.7127  0.8305 -1.8026
 7474SOL    HW234059   2.178   0.230   8.689 -0.4045  0.4719 -0.4011
 7475SOL     OW34060   1.393   1.133   7.683  0.8526 -0.4737 -0.2745
 7475SOL    HW134061   1.461   1.075   7.648  0.6401  0.0211 -1.5042
 7475SOL    HW234062   1.392   1.196   7.611 -1.2737  2.2319  2.1766
 7476SOL     OW34063   0.275   1.594   4.431  0.2459 -0.3994  0.0573
 7476SOL    HW134064   0.185   1.572   4.406 -1.0056  4.0806  0.5307
 7476SOL    HW234065   0.272   1.578   4.525  1.6431  1.8284  0.4932
 7477SOL     OW34066   2.464   3.739   5.445 -0.4394  0.4875 -0.2744
 7477SOL    HW134067   2.510   3.666   5.404 -0.1228  0.7586 -0.3970
 7477SOL    HW234068   2.528   3.805   5.471  1.9897 -2.5037  1.1612
 7478SOL     OW34069   3.545   2.080   5.034 -0.6371 -0.2065 -0.2434
 7478SOL    HW134070   3.506   2.088   5.121  0.1430 -0.1888  0.1070
 7478SOL    HW234071   3.541   1.985   5.025 -0.7934 -0.3676  1.4003
 7479SOL     OW34072   2.939   3.269  15.689  0.5028  0.2054  0.6673
 7479SOL    HW134073   3.029   3.239  15.695  0.2941 -0.7251 -0.9898
 7479SOL    HW234074   2.911   3.232  15.605 -0.5164  0.0045  1.0861
 7480SOL     OW34075   0.316   2.449   7.071  0.7863  0.7265 -0.1384
 7480SOL    HW134076   0.318   2.415   7.161 -0.5553  2.2574  0.4925
 7480SOL    HW234077   0.308   2.367   7.024 -0.6920  1.8195 -1.8128
 7481SOL     OW34078   2.364   3.014   2.382 -0.2254  0.0157 -0.5946
 7481SOL    HW134079   2.437   2.996   2.442 -1.5494  2.0000  1.6239
 7481SOL    HW234080   2.394   3.098   2.348 -1.0695  0.2212 -0.8228
 7482SOL     OW34081   2.980   2.196   2.567 -0.0780 -0.6235  0.5491
 7482SOL    HW134082   3.074   2.185   2.550  0.4778  3.2228  1.2837
 7482SOL    HW234083   2.946   2.119   2.521 -0.4952 -0.2956  0.3164
 7483SOL     OW34084   2.236   4.405   3.178  0.6217 -0.3761 -0.3119
 7483SOL    HW134085   2.214   4.469   3.110  1.1053 -0.5340 -0.6104
 7483SOL    HW234086   2.264   4.469   3.244 -1.0021  2.1779 -2.0804
 7484SOL     OW34087   3.617   1.519   2.508 -0.2723  0.3328  0.5041
 7484SOL    HW134088   3.626   1.586   2.576  2.1591  1.9842 -1.4575
 7484SOL    HW234089   3.680   1.456   2.542  1.8085  1.4906 -1.2316
 7485SOL     OW34090   0.401   2.403   5.680 -0.3039  0.1469 -0.7778
 7485SOL    HW134091   0.364   2.479   5.635  0.4013  0.7216 -0.3631
 7485SOL    HW234092   0.455   2.451   5.742 -1.1340  0.2265 -0.1161
 7486SOL     OW34093   3.989   4.429   9.213 -0.3607 -0.0891  0.3128
 7486SOL    HW134094   4.052   4.501   9.212 -0.1532 -0.2663  2.0068
 7486SOL    HW234095   3.933   4.471   9.278  1.0039 -1.8358  2.6173
 7487SOL     OW34096   1.766   0.676   9.472  0.1484  0.3808 -0.0495
 7487SOL    HW134097   1.800   0.707   9.556  1.6589  0.3995 -0.6649
 7487SOL    HW234098   1.778   0.583   9.489  0.1167  0.6493  1.4262
 7488SOL     OW34099   1.393   4.675   9.836  0.2557 -0.2459 -0.4859
 7488SOL    HW134100   1.350   4.649   9.917  0.0057 -0.7671 -0.7822
 7488SOL    HW234101   1.335   4.644   9.766 -2.0370  0.5525  1.0941
 7489SOL     OW34102   2.694   3.078   7.650 -0.3782 -0.4260 -0.2819
 7489SOL    HW134103   2.738   3.098   7.568  0.4226 -1.6141 -0.1272
 7489SOL    HW234104   2.766   3.042   7.702  0.6754  1.1280 -0.6651
 7490SOL     OW34105   4.246   1.900   5.269 -0.4282  0.1207 -0.2482
 7490SOL    HW134106   4.207   1.871   5.186 -2.2569  2.3042 -0.1523
 7490SOL    HW234107   4.340   1.907   5.250  0.0760 -3.7651  0.9459
 7491SOL     OW34108   2.551   4.591   7.984  0.4883 -0.2797  0.2189
 7491SOL    HW134109   2.626   4.620   7.931 -1.3764 -1.2387 -2.9400
 7491SOL    HW234110   2.590   4.532   8.049  0.8870  1.3877  1.4819
 7492SOL     OW34111   0.216   1.418   6.148  0.4039  0.4437 -0.2319
 7492SOL    HW134112   0.295   1.405   6.095 -0.7029 -1.3723 -1.4127
 7492SOL    HW234113   0.144   1.399   6.088 -0.1035 -0.9079  0.8227
 7493SOL     OW34114   1.273   1.041   7.097  0.2293 -0.0110 -0.1732
 7493SOL    HW134115   1.268   1.046   7.002 -1.2237 -0.3964 -0.1100
 7493SOL    HW234116   1.222   0.963   7.118 -1.2211  0.6243 -1.3384
 7494SOL     OW34117   1.612   1.887   3.056  0.5218  0.1146 -0.3511
 7494SOL    HW134118   1.695   1.844   3.036  0.3963  1.1350 -3.0744
 7494SOL    HW234119   1.642   1.950   3.121 -0.0152 -0.6172  0.5956
 7495SOL     OW34120   2.201   1.876  11.363  0.5149 -0.3898  0.0762
 7495SOL    HW134121   2.202   1.797  11.308 -1.7850 -1.2200  1.2380
 7495SOL    HW234122   2.283   1.854  11.408  1.3316  2.1222 -0.1719
 7496SOL     OW34123   2.835   4.656   7.540 -0.4886  0.3117  0.0083
 7496SOL    HW134124   2.889   4.577   7.542 -0.4089  0.3803  0.6307
 7496SOL    HW234125   2.749   4.616   7.549 -0.5360 -0.0249 -1.8858
 7497SOL     OW34126   0.897   4.007   3.508  0.1496 -0.6276 -0.0341
 7497SOL    HW134127   0.894   3.927   3.455  1.6616 -1.8992  1.7874
 7497SOL    HW234128   0.928   4.064   3.438 -2.4365 -1.3793 -1.7993
 7498SOL     OW34129   3.010   2.561  15.153  0.5144 -0.3126 -0.3744
 7498SOL    HW134130   2.934   2.511  15.184  0.8859 -0.4585  0.3182
 7498SOL    HW234131   3.013   2.621  15.228  0.2796  0.3115 -0.8698
 7499SOL     OW34132   4.200   1.611  15.243  0.0777 -1.0324  0.1768
 7499SOL    HW134133   4.148   1.681  15.204  0.8508 -0.1382  0.7436
 7499SOL    HW234134   4.132   1.576  15.300 -0.0282  1.5745  1.6609
 7500SOL     OW34135   2.992   3.872   0.388  0.3225 -0.3937 -0.1733
 7500SOL    HW134136   2.905   3.913   0.379  0.7367  0.5121 -0.0306
 7500SOL    HW234137   3.013   3.887   0.480 -1.4877 -1.1477  0.3763
 7501SOL     OW34138   0.190   2.363   8.802 -0.4482  0.6587  0.1530
 7501SOL    HW134139   0.187   2.268   8.817  0.0417  0.1780 -2.6736
 7501SOL    HW234140   0.277   2.384   8.834  0.5076 -1.4043 -1.0954
 7502SOL     OW34141   2.986   4.323   2.337  0.7425  0.2561 -0.4588
 7502SOL    HW134142   3.076   4.312   2.367  0.1542 -1.3404  0.7299
 7502SOL    HW234143   2.941   4.339   2.420  0.4596 -1.5353 -0.2742
 7503SOL     OW34144   4.042   3.715   5.217 -0.2977  0.2088  0.2868
 7503SOL    HW134145   4.019   3.804   5.244  1.4945  1.0438 -0.8749
 7503SOL    HW234146   4.122   3.697   5.267 -0.0022  0.0161 -0.2474
 7504SOL     OW34147   2.830   4.366   4.918  0.2311 -0.1889 -0.1286
 7504SOL    HW134148   2.856   4.456   4.935  3.5261 -1.2158  0.2236
 7504SOL    HW234149   2.756   4.361   4.979 -2.1389 -0.0898 -2.9842
 7505SOL     OW34150   0.819   2.542   2.213 -0.3709 -0.4302  0.4130
 7505SOL    HW134151   0.856   2.497   2.137 -2.4856 -2.2653  0.4959
 7505SOL    HW234152   0.824   2.468   2.273  2.5898  0.1686  0.9058
 7506SOL     OW34153   3.491   1.716  16.720  0.1846  0.3618 -0.1645
 7506SOL    HW134154   3.536   1.637  16.691 -2.6374 -0.9657 -0.9643
 7506SOL    HW234155   3.566   1.770  16.743 -0.0579  0.7550 -0.3056
 7507SOL     OW34156   3.035   1.516   6.474 -0.0155 -0.3294  0.1835
 7507SOL    HW134157   3.020   1.564   6.392 -0.2692 -2.1755 -0.8739
 7507SOL    HW234158   3.029   1.589   6.536 -1.1586 -0.1735 -0.1077
 7508SOL     OW34159   2.917   4.181   0.906  0.8679 -0.4689  0.1443
 7508SOL    HW134160   2.928   4.158   0.998 -1.0389  0.9707  0.7357
 7508SOL    HW234161   2.824   4.205   0.896  1.3566  0.6642 -1.6427
 7509SOL     OW34162   0.328   4.342   7.406  0.2199  0.2427  0.8102
 7509SOL    HW134163   0.336   4.416   7.466  0.2229  2.0523 -1.3945
 7509SOL    HW234164   0.415   4.307   7.424 -1.0936 -2.6498  1.5235
 7510SOL     OW34165   4.016   0.278   0.551 -0.5433 -0.0525  0.0223
 7510SOL    HW134166   3.983   0.320   0.630  0.3878  0.7583 -0.0200
 7510SOL    HW234167   3.998   0.349   0.489  2.5163 -0.9198 -1.8606
 7511SOL     OW34168   1.227   3.240  10.044  0.2885  0.0093 -0.6210
 7511SOL    HW134169   1.256   3.246  10.135 -0.5931 -1.1337 -0.2644
 7511SOL    HW234170   1.133   3.243  10.063  0.3215 -0.7160 -0.3614
 7512SOL     OW34171   1.274   2.384   8.730  0.4642 -1.0192  0.2347
 7512SOL    HW134172   1.312   2.299   8.708 -1.4633 -1.3653 -1.8669
 7512SOL    HW234173   1.252   2.370   8.822 -2.2644  1.0813 -0.0938
 7513SOL     OW34174   0.077   2.638   1.933 -0.6078  0.0940 -0.3936
 7513SOL    HW134175   0.090   2.675   1.846  0.4516  1.1325  0.2000
 7513SOL    HW234176   0.117   2.551   1.933 -0.4306  0.1747  0.1459
 7514SOL     OW34177   3.517   2.005  16.639  0.5555  0.3985 -0.0170
 7514SOL    HW134178   3.593   2.059  16.617  1.1274  0.5234  2.2712
 7514SOL    HW234179   3.540   1.913  16.628  2.8912  1.2880 -2.2749
 7515SOL     OW34180   0.747   1.207   6.855 -0.6979 -0.3067  0.2951
 7515SOL    HW134181   0.667   1.154   6.849 -0.5180 -0.7121  1.6215
 7515SOL    HW234182   0.714   1.288   6.895 -0.4796 -0.9645  1.7800
 7516SOL     OW34183   0.602   2.627  11.806  0.1007 -0.3397 -0.3229
 7516SOL    HW134184   0.596   2.598  11.897  1.0547 -1.1711 -0.5186
 7516SOL    HW234185   0.667   2.697  11.809 -1.3284  0.9850 -0.4693
 7517SOL     OW34186   3.179   4.321   7.003 -0.3434 -0.0116 -0.5628
 7517SOL    HW134187   3.196   4.275   6.921 -0.4476  0.3282 -0.7760
 7517SOL    HW234188   3.259   4.370   7.019  1.4882 -2.2723 -2.9564
 7518SOL     OW34189   1.093   4.597   3.087  0.4206 -0.1635  0.4372
 7518SOL    HW134190   1.035   4.543   3.034  0.1648  1.1057 -0.5918
 7518SOL    HW234191   1.175   4.548   3.088  1.0907  0.9326 -0.8410
 7519SOL     OW34192   0.473   1.425   7.656 -0.0507  0.1527 -0.2909
 7519SOL    HW134193   0.428   1.355   7.609 -0.3702 -1.0836  1.8940
 7519SOL    HW234194   0.461   1.401   7.748 -2.5716  2.7437  0.0422
 7520SOL     OW34195   3.600   0.230   4.606  0.7461  0.5377 -0.0322
 7520SOL    HW134196   3.578   0.192   4.691 -0.7773  1.0089 -0.2067
 7520SOL    HW234197   3.595   0.150   4.553  1.9019 -0.0245  0.7173
 7521SOL     OW34198   1.760   0.877  16.280 -0.4609  0.2105 -0.0400
 7521SOL    HW134199   1.765   0.784  16.300 -0.0230 -0.3443 -2.8725
 7521SOL    HW234200   1.675   0.881  16.236 -0.5797  0.6052  0.2204
 7522SOL     OW34201   1.926   0.539   1.967 -0.0450  0.2012 -0.0558
 7522SOL    HW134202   1.852   0.522   2.026  0.6086 -0.9276  0.4192
 7522SOL    HW234203   1.978   0.462   1.990 -2.0198 -0.7215  1.3337
 7523SOL     OW34204   4.491   1.610  11.038  0.8644 -0.1657 -0.3893
 7523SOL    HW134205   4.534   1.693  11.017  0.1056  0.8799  2.2553
 7523SOL    HW234206   4.471   1.581  10.949 -0.6922 -0.7769  0.1617
 7524SOL     OW34207   1.738   3.469   7.391 -0.2236 -0.6036  0.3052
 7524SOL    HW134208   1.791   3.400   7.430 -1.1066 -0.3852  1.9105
 7524SOL    HW234209   1.806   3.508   7.337  0.0000  0.0985  1.0915
 7525SOL     OW34210   4.145   0.287   6.083  0.1662  0.9169  0.4008
 7525SOL    HW134211   4.191   0.205   6.099  0.0618  0.9615  0.9145
 7525SOL    HW234212   4.220   0.339   6.055 -0.7404  2.3323  0.6052
 7526SOL     OW34213   2.601   3.411  15.556 -0.2358 -0.5148  0.2431
 7526SOL    HW134214   2.531   3.442  15.614 -0.1893 -1.5333  0.8315
 7526SOL    HW234215   2.575   3.421  15.464  0.0481 -1.7508  0.0390
 7527SOL     OW34216   2.855   1.097  16.968  0.2233  0.2478  0.0051
 7527SOL    HW134217   2.920   1.117  16.900 -1.5960  1.6179 -1.3125
 7527SOL    HW234218   2.878   1.006  16.988  0.6570  0.2751 -0.3552
 7528SOL     OW34219   3.344   2.645   4.775 -0.2473  0.7160  0.0119
 7528SOL    HW134220   3.414   2.708   4.755  0.3429 -0.5094 -1.7614
 7528SOL    HW234221   3.324   2.598   4.694 -0.6194  2.0935 -0.6938
 7529SOL     OW34222   2.219   3.994  17.658 -0.0199  0.0579  0.6183
 7529SOL    HW134223   2.261   4.065  17.706  0.4791  0.9582 -1.1339
 7529SOL    HW234224   2.273   3.986  17.579 -0.6778  1.4003  0.0410
 7530SOL     OW34225   0.608   1.530  13.280 -0.7091 -0.4607 -0.3190
 7530SOL    HW134226   0.624   1.581  13.200  0.6782 -0.5169 -0.0888
 7530SOL    HW234227   0.630   1.602  13.338 -1.0381  0.0934 -0.8828
 7531SOL     OW34228   2.365   1.505   4.223  0.0592  0.3921 -0.2656
 7531SOL    HW134229   2.452   1.470   4.241  0.0988 -0.0136 -1.2315
 7531SOL    HW234230   2.326   1.427   4.184  2.0083 -1.3086  1.1991
 7532SOL     OW34231   0.107   0.659   6.191  0.0084  0.0761  0.1785
 7532SOL    HW134232   0.133   0.612   6.112 -0.7715  0.4622 -0.2958
 7532SOL    HW234233   0.094   0.748   6.160 -1.0351 -0.0822  0.1513
 7533SOL     OW34234   3.995   3.169  13.408  0.0117 -0.3979  0.2090
 7533SOL    HW134235   3.978   3.180  13.315  0.4876  0.2207  0.1918
 7533SOL    HW234236   4.024   3.260  13.418  1.4068 -0.8733  0.3967
 7534SOL     OW34237   3.558   4.122   7.430  0.5343  0.9511  0.1458
 7534SOL    HW134238   3.599   4.037   7.449  0.2357  1.2003  1.8722
 7534SOL    HW234239   3.537   4.119   7.337  1.3773  0.1339 -0.0231
 7535SOL     OW34240   3.709   4.137  15.395  0.0632  0.1531 -0.4975
 7535SOL    HW134241   3.686   4.100  15.481 -0.5672  0.7690 -0.4036
 7535SOL    HW234242   3.628   4.131  15.345 -0.2989  1.7969 -0.1049
 7536SOL     OW34243   3.350   2.990   8.849 -0.1591 -0.1863  0.1328
 7536SOL    HW134244   3.303   3.020   8.771 -2.9546 -0.4225  1.7220
 7536SOL    HW234245   3.279   2.954   8.902  1.7512 -0.5178  2.4750
 7537SOL     OW34246   1.339   4.108   2.146  0.0254 -0.0564 -0.0014
 7537SOL    HW134247   1.250   4.096   2.113 -2.1831 -0.7643  6.1834
 7537SOL    HW234248   1.342   4.061   2.229  4.0179 -0.0233 -0.1332
 7538SOL     OW34249   0.006   4.337   3.754  0.2195  0.2372 -0.2451
 7538SOL    HW134250   4.657   4.299   3.739 -0.2891  1.6420 -0.7572
 7538SOL    HW234251   4.710   4.425   3.767 -0.2542  0.0497 -0.1743
 7539SOL     OW34252   4.702   1.926   8.124 -0.1854 -0.3369  0.1358
 7539SOL    HW134253   0.013   1.973   8.192 -1.2394 -1.0919  1.4045
 7539SOL    HW234254   4.610   1.946   8.140 -1.0863 -3.0778 -1.6111
 7540SOL     OW34255   0.065   0.636   6.479  0.0901  0.4230  0.1258
 7540SOL    HW134256   0.107   0.680   6.405  3.5100 -0.3997  1.5642
 7540SOL    HW234257   0.024   0.561   6.434 -1.0022  0.1777  1.5418
 7541SOL     OW34258   4.629   0.761   6.646 -0.8135 -0.4888 -0.6748
 7541SOL    HW134259   4.670   0.834   6.693  0.3875 -1.7781  0.2742
 7541SOL    HW234260   4.700   0.706   6.611 -0.0857 -0.8308  1.3053
 7542SOL     OW34261   3.891   3.737   7.115  0.4308  0.0946  0.2405
 7542SOL    HW134262   3.894   3.692   7.200 -0.3022 -0.4211 -0.0024
 7542SOL    HW234263   3.802   3.774   7.113  0.0794 -0.7399  0.3119
 7543SOL     OW34264   4.295   1.871   8.341 -0.3186  0.4967 -0.6100
 7543SOL    HW134265   4.241   1.937   8.386 -1.3600  1.0700 -2.6883
 7543SOL    HW234266   4.370   1.873   8.401 -0.8317 -1.2359  0.0866
 7544SOL     OW34267   3.291   0.203   4.735 -0.3545 -0.1103  0.1763
 7544SOL    HW134268   3.272   0.112   4.760 -0.3338 -0.4815 -1.1564
 7544SOL    HW234269   3.384   0.215   4.756 -1.1385  0.7721  3.1303
 7545SOL     OW34270   0.436   0.226  12.628 -0.0392  0.0848  0.1505
 7545SOL    HW134271   0.361   0.286  12.627 -0.4371 -0.4215 -1.2244
 7545SOL    HW234272   0.402   0.169  12.698 -0.7979 -0.6734 -0.8184
 7546SOL     OW34273   1.489   0.942   8.163 -0.1412 -0.6504 -0.1546
 7546SOL    HW134274   1.494   1.026   8.208 -1.1361  0.1781 -1.6142
 7546SOL    HW234275   1.443   0.890   8.229  2.6446 -0.0314  2.2596
 7547SOL     OW34276   3.889   0.737   7.821  1.2188  0.3061 -0.0641
 7547SOL    HW134277   3.878   0.683   7.899 -1.6973 -0.3662 -0.9220
 7547SOL    HW234278   3.883   0.665   7.758 -3.4346  0.1689  0.5234
 7548SOL     OW34279   3.111   4.069   5.852  0.0386  0.3701  0.1380
 7548SOL    HW134280   3.128   4.048   5.760  1.5472  0.3436  0.4257
 7548SOL    HW234281   3.137   4.160   5.864 -2.0999  0.9795  0.2681
 7549SOL     OW34282   3.189   0.626   3.631 -0.3697  0.3331  0.5885
 7549SOL    HW134283   3.277   0.611   3.667 -0.3058 -1.5783 -0.3890
 7549SOL    HW234284   3.136   0.562   3.678  1.4729 -1.0705  0.7876
 7550SOL     OW34285   2.968   3.464   8.309 -0.4181  0.4893 -0.2192
 7550SOL    HW134286   2.913   3.526   8.358 -1.6989 -1.4412  0.7471
 7550SOL    HW234287   3.010   3.529   8.252  1.9075 -0.6409  0.1936
 7551SOL     OW34288   3.505   4.189   6.508  0.3662 -0.4053  0.3020
 7551SOL    HW134289   3.590   4.181   6.553 -0.3502 -2.1820  1.3302
 7551SOL    HW234290   3.531   4.269   6.462  0.5417  0.1654  1.4117
 7552SOL     OW34291   1.971   3.798  13.661 -0.1389  0.8795  0.0482
 7552SOL    HW134292   2.002   3.879  13.700  0.4572 -0.2281  1.8688
 7552SOL    HW234293   1.981   3.829  13.571 -2.0119 -2.5007 -1.3476
 7553SOL     OW34294   3.262   4.259  14.520 -0.0075  0.3890 -0.0226
 7553SOL    HW134295   3.340   4.288  14.567  0.2891 -0.6565  0.1125
 7553SOL    HW234296   3.299   4.244  14.433  0.3714 -1.7927  0.5396
 7554SOL     OW34297   0.230   3.683   8.476 -0.2134  0.0291  0.1556
 7554SOL    HW134298   0.264   3.614   8.418 -1.2758 -0.9106  0.6664
 7554SOL    HW234299   0.294   3.683   8.548 -1.2083  1.9286  1.0154
 7555SOL     OW34300   3.713   4.571   7.199  0.3763  0.1516 -0.3793
 7555SOL    HW134301   3.784   4.614   7.247  2.0474 -2.0145 -0.9202
 7555SOL    HW234302   3.694   4.492   7.249 -0.0381  0.3343 -0.2426
 7556SOL     OW34303   2.866   4.705  13.806 -0.0908 -0.4926  0.0874
 7556SOL    HW134304   2.870   0.007  13.719 -3.0767 -2.2404 -0.8244
 7556SOL    HW234305   2.824   4.622  13.786  1.4432 -0.5998 -2.7968
 7557SOL     OW34306   2.361   2.052   2.883 -0.0645 -0.1990 -0.0779
 7557SOL    HW134307   2.422   2.057   2.957 -0.3089 -2.3663  0.2741
 7557SOL    HW234308   2.397   2.124   2.830  1.6947 -2.1016 -1.5067
 7558SOL     OW34309   2.485   4.558  16.804  0.0957 -0.3390  0.0418
 7558SOL    HW134310   2.409   4.519  16.760  0.2885 -1.9645  1.1555
 7558SOL    HW234311   2.448   4.641  16.834  1.6940  0.1562  0.6173
 7559SOL     OW34312   1.598   2.363  10.027  0.3306  0.4329 -0.3641
 7559SOL    HW134313   1.598   2.304   9.952  0.7749  0.1308 -0.1273
 7559SOL    HW234314   1.658   2.308  10.078  1.0563  0.5506 -1.0958
 7560SOL     OW34315   0.732   0.416   3.387  0.0254 -0.4951 -0.2938
 7560SOL    HW134316   0.727   0.338   3.332  0.8929 -1.5265  1.0919
 7560SOL    HW234317   0.717   0.379   3.474  3.3919 -0.3942  0.3184
 7561SOL     OW34318   0.580   0.114  12.399  0.4698 -0.1264 -0.0784
 7561SOL    HW134319   0.518   0.126  12.471  2.6255 -1.1098  1.9410
 7561SOL    HW234320   0.631   0.192  12.418 -1.9932  0.7798  2.7501
 7562SOL     OW34321   0.545   4.134   8.072  0.2650 -0.0257  0.1384
 7562SOL    HW134322   0.616   4.070   8.070  0.1645 -0.2960  3.7164
 7562SOL    HW234323   0.598   4.213   8.086 -0.5713  0.9971 -2.5284
 7563SOL     OW34324   2.195   3.030   5.554 -0.2141  0.0690 -0.0749
 7563SOL    HW134325   2.188   3.123   5.572 -2.9212 -0.1735  0.1368
 7563SOL    HW234326   2.288   3.031   5.533 -0.0865  1.6117  0.5787
 7564SOL     OW34327   0.237   4.428   6.292 -0.2874 -0.0680  0.3225
 7564SOL    HW134328   0.187   4.432   6.374 -0.7487  4.0088 -0.1520
 7564SOL    HW234329   0.201   4.495   6.234  0.1035 -0.1224  0.0172
 7565SOL     OW34330   0.227   1.923  10.984 -0.2620 -0.1798  0.2733
 7565SOL    HW134331   0.178   1.965  11.054 -3.6076  1.7849 -3.2550
 7565SOL    HW234332   0.215   1.832  11.012 -1.4588 -0.8104 -2.2538
 7566SOL     OW34333   3.945   0.941   2.955 -0.1912  0.3003 -0.0171
 7566SOL    HW134334   4.018   0.879   2.956  1.9369  2.8391  1.0056
 7566SOL    HW234335   3.935   0.972   3.045 -0.5874  1.8405 -0.5951
 7567SOL     OW34336   4.194   2.467   8.591 -0.7832  0.1637  0.3704
 7567SOL    HW134337   4.138   2.391   8.576  0.4705 -1.1566  2.3605
 7567SOL    HW234338   4.280   2.429   8.572 -1.0557 -0.7209  0.8940
 7568SOL     OW34339   3.568   1.184   9.017  0.0692  0.3942  0.3721
 7568SOL    HW134340   3.599   1.205   9.105  2.0850 -3.3636  0.5587
 7568SOL    HW234341   3.651   1.159   8.976 -1.7117 -1.5806 -1.9907
 7569SOL     OW34342   0.758   0.265   4.606 -0.2154  0.0040 -0.1576
 7569SOL    HW134343   0.840   0.313   4.621 -1.0343  1.6837 -1.1019
 7569SOL    HW234344   0.790   0.183   4.569  1.1676  0.1802  0.6197
 7570SOL     OW34345   1.295   4.528   6.668  0.1963 -0.6588  0.0350
 7570SOL    HW134346   1.357   4.458   6.685  1.9440  1.1311  0.9921
 7570SOL    HW234347   1.348   4.569   6.600  2.0559 -2.4879  0.3966
 7571SOL     OW34348   2.993   3.144   7.138 -0.3101  0.6603  0.1779
 7571SOL    HW134349   2.958   3.232   7.150  0.8193  1.1281  0.0842
 7571SOL    HW234350   2.937   3.105   7.071 -2.7278  1.6250  1.6420
 7572SOL     OW34351   3.462   1.131   4.618 -0.0015 -0.5279 -0.7369
 7572SOL    HW134352   3.511   1.210   4.596 -1.1092  0.9579  2.0652
 7572SOL    HW234353   3.537   1.075   4.602  2.4802  2.4076  0.5482
 7573SOL     OW34354   0.640   3.350   2.321  0.1710 -0.4512 -0.1276
 7573SOL    HW134355   0.549   3.323   2.315  0.2347 -0.8871  0.8178
 7573SOL    HW234356   0.655   3.332   2.414 -0.4362  0.1308  0.0797
 7574SOL     OW34357   4.317   0.370  11.941 -0.1559 -1.0741  0.6009
 7574SOL    HW134358   4.366   0.443  11.980 -1.5586  0.3668 -0.3300
 7574SOL    HW234359   4.311   0.305  12.011 -0.9304 -0.5088  1.0666
 7575SOL     OW34360   3.934   1.041   3.209  0.0214  0.1857 -0.4900
 7575SOL    HW134361   3.933   1.036   3.305  0.7354  2.0650 -0.4005
 7575SOL    HW234362   3.899   1.129   3.199  0.5783  0.2965 -1.4373
 7576SOL     OW34363   0.002   3.741  13.517 -0.1133 -0.1342 -0.2240
 7576SOL    HW134364   0.029   3.742  13.609 -0.9203 -0.7698  0.0139
 7576SOL    HW234365   0.046   3.825  13.505  2.2484 -1.2572  0.5487
 7577SOL     OW34366   0.486   2.992  17.210  0.1330  0.3101  0.2723
 7577SOL    HW134367   0.548   3.046  17.258  1.2460 -0.4818 -0.2883
 7577SOL    HW234368   0.524   2.973  17.125 -0.5431  0.2707 -0.0231
 7578SOL     OW34369   1.616   1.911   5.426  0.2377  0.9029  0.4221
 7578SOL    HW134370   1.570   1.897   5.508  1.6807 -0.1649  1.0545
 7578SOL    HW234371   1.557   1.978   5.391  0.4947  2.2347  2.5974
 7579SOL     OW34372   4.424   4.548   3.615 -0.5849  0.5517  0.0972
 7579SOL    HW134373   4.372   4.538   3.694 -0.6748  0.3198  0.0098
 7579SOL    HW234374   4.509   4.573   3.650 -0.0320 -1.1403  0.0077
 7580SOL     OW34375   0.125   3.354   2.183 -0.0329  0.3707  0.2235
 7580SOL    HW134376   0.060   3.424   2.182 -0.6801 -0.2290 -0.6450
 7580SOL    HW234377   0.128   3.312   2.097  3.1098  0.6638  0.1645
 7581SOL     OW34378   3.544   3.998   3.395 -0.0117 -0.5971  0.2668
 7581SOL    HW134379   3.466   3.987   3.340 -0.1967 -0.5061  0.5090
 7581SOL    HW234380   3.497   4.053   3.458 -0.9034  0.3540 -1.2365
 7582SOL     OW34381   0.153   4.543   2.489  0.2717 -0.2015  0.1643
 7582SOL    HW134382   0.168   4.491   2.410 -0.0406  1.7338 -1.1610
 7582SOL    HW234383   0.213   4.617   2.478 -1.3062  0.7452 -2.1298
 7583SOL     OW34384   4.517   4.138   4.495 -0.6173 -0.0630 -0.5570
 7583SOL    HW134385   4.491   4.066   4.553  0.2341  0.9377  1.0797
 7583SOL    HW234386   4.539   4.098   4.411  2.4531 -0.3134  0.3703
 7584SOL     OW34387   1.785   0.530  14.043  0.2340 -0.0655  0.3988
 7584SOL    HW134388   1.723   0.475  13.996 -0.2769 -0.2203  1.2627
 7584SOL    HW234389   1.740   0.614  14.045  1.8895  0.8144  0.9993
 7585SOL     OW34390   2.702   2.169   6.068  0.2075 -0.2020 -0.1543
 7585SOL    HW134391   2.718   2.223   5.991  0.2941 -0.1455 -0.0973
 7585SOL    HW234392   2.733   2.085   6.034 -1.3651 -1.9634  2.7899
 7586SOL     OW34393   1.495   3.117   3.959 -0.2507  0.6241  0.4434
 7586SOL    HW134394   1.467   3.026   3.949 -2.7770  1.1377  2.9002
 7586SOL    HW234395   1.570   3.119   4.018 -0.2970  1.9660  0.4519
 7587SOL     OW34396   0.077   2.244  16.649  0.0731 -0.3429  0.0051
 7587SOL    HW134397   0.160   2.199  16.633 -0.6008 -1.1975 -1.1295
 7587SOL    HW234398   0.031   2.200  16.577  2.9766  0.8514 -2.6141
 7588SOL     OW34399   2.415   1.074   3.337  0.2380 -0.1020  0.2439
 7588SOL    HW134400   2.350   1.058   3.406  0.2979 -1.6608 -0.0716
 7588SOL    HW234401   2.432   1.166   3.357  1.3814  0.1988 -2.1631
 7589SOL     OW34402   0.096   1.904   3.391  0.0369 -0.0514  0.4556
 7589SOL    HW134403   0.062   1.817   3.369 -0.1139  0.0234  0.3930
 7589SOL    HW234404   0.041   1.959   3.335 -2.6697 -1.6328  1.5559
 7590SOL     OW34405   3.356   4.390  10.823 -0.7318  0.0544  0.4361
 7590SOL    HW134406   3.346   4.374  10.917  0.7798  0.5484  0.6825
 7590SOL    HW234407   3.431   4.450  10.830 -0.3390 -0.2966 -0.9502
 7591SOL     OW34408   2.043   1.880   9.216  0.0922 -0.3015  0.4497
 7591SOL    HW134409   2.120   1.825   9.204 -1.5208 -2.4174 -0.2544
 7591SOL    HW234410   2.089   1.959   9.246  0.2477  0.5824 -2.0668
 7592SOL     OW34411   3.315   1.700   7.946 -0.5929  0.1313  0.1973
 7592SOL    HW134412   3.324   1.791   7.974  0.9424  0.8794 -2.7084
 7592SOL    HW234413   3.400   1.660   7.964 -0.5161 -0.4358 -1.4069
 7593SOL     OW34414   2.387   0.055   8.424  0.2145 -0.5314 -0.2630
 7593SOL    HW134415   2.331   0.071   8.500 -0.8303  1.2305 -1.4042
 7593SOL    HW234416   2.386   0.137   8.374 -1.1013 -0.9283 -0.8930
 7594SOL     OW34417   3.843   4.136   7.141  0.3185  0.2678  0.0549
 7594SOL    HW134418   3.936   4.129   7.120 -0.3719  0.5382 -3.0715
 7594SOL    HW234419   3.858   4.151   7.235 -1.5329  0.4075  0.3197
 7595SOL     OW34420   0.548   3.923  12.647 -0.4694 -0.1370  0.6390
 7595SOL    HW134421   0.590   3.923  12.733 -1.5486 -1.0553  1.1866
 7595SOL    HW234422   0.580   4.006  12.613  1.8380 -1.1263  0.4353
 7596SOL     OW34423   3.632   0.766   3.722  0.0692 -0.4308  0.0816
 7596SOL    HW134424   3.681   0.685   3.714 -1.0042 -1.2868  2.3752
 7596SOL    HW234425   3.665   0.811   3.800 -1.9971 -0.3780  0.9215
 7597SOL     OW34426   4.404   4.392   4.578  0.2154 -0.5305 -0.2245
 7597SOL    HW134427   4.480   4.419   4.527 -0.7763  3.1105  0.1944
 7597SOL    HW234428   4.416   4.297   4.571  1.9051 -0.3228  0.0207
 7598SOL     OW34429   4.536   3.583   9.009 -0.4142  0.3937 -0.4389
 7598SOL    HW134430   4.592   3.521   9.054 -0.3814  0.7773  0.0441
 7598SOL    HW234431   4.563   3.571   8.918  1.2615  1.3911 -0.0690
 7599SOL     OW34432   3.844   2.823   7.311 -0.6640 -0.1258  0.2957
 7599SOL    HW134433   3.823   2.730   7.314  0.3164 -0.3799 -0.7020
 7599SOL    HW234434   3.938   2.822   7.290 -0.8987 -2.0493 -0.6591
 7600SOL     OW34435   3.021   0.129   3.066  0.3061 -0.1274  0.7159
 7600SOL    HW134436   2.987   0.126   2.977  2.0817 -1.8425  0.1010
 7600SOL    HW234437   2.938   0.129   3.114  0.1015 -1.6698  0.3641
 7601SOL     OW34438   3.388   2.141   0.392  0.1360 -0.3047 -0.0350
 7601SOL    HW134439   3.403   2.232   0.365  0.8885  0.6802  3.7103
 7601SOL    HW234440   3.419   2.135   0.482 -1.8492 -0.0087  0.6701
 7602SOL     OW34441   2.447   0.970   1.991 -0.5500 -0.1416  0.0953
 7602SOL    HW134442   2.508   1.018   1.935 -0.3818  0.5897  0.9183
 7602SOL    HW234443   2.372   1.029   1.980 -0.0688  0.1782 -1.6024
 7603SOL     OW34444   2.630   2.676   3.221  0.6121  0.1004  0.5608
 7603SOL    HW134445   2.574   2.688   3.144 -0.4263 -0.6622  1.1931
 7603SOL    HW234446   2.686   2.603   3.196  0.2184  0.1977 -0.5965
 7604SOL     OW34447   2.638   1.092   7.616 -0.3023  0.2662 -0.5141
 7604SOL    HW134448   2.542   1.097   7.621 -0.4272 -0.5873 -1.8854
 7604SOL    HW234449   2.661   1.178   7.582 -0.4044  0.0196 -1.2143
 7605SOL     OW34450   3.288   3.031  13.109  0.2127 -0.2940 -0.0852
 7605SOL    HW134451   3.292   2.984  13.026 -1.1870 -1.2607  0.3976
 7605SOL    HW234452   3.240   2.971  13.166 -0.9077  1.1546  0.4903
 7606SOL     OW34453   2.766   1.389   3.283 -0.3428  0.2498 -0.6299
 7606SOL    HW134454   2.804   1.346   3.206 -1.1336 -1.5860  0.0001
 7606SOL    HW234455   2.840   1.383   3.343  0.5152 -1.0925 -1.7913
 7607SOL     OW34456   1.046   2.453   0.448  0.4466  0.5262 -0.3275
 7607SOL    HW134457   0.973   2.406   0.406  0.2538  0.0614  0.5236
 7607SOL    HW234458   1.068   2.408   0.529 -0.7892 -0.0859 -0.3334
 7608SOL     OW34459   3.990   1.719  10.931  0.0573  0.3775 -0.0222
 7608SOL    HW134460   3.952   1.658  10.995 -0.4103 -0.5599 -1.1886
 7608SOL    HW234461   3.920   1.784  10.928 -0.5581 -0.1886  2.1091
 7609SOL     OW34462   1.615   3.745   5.983  0.0302 -0.1075  0.3933
 7609SOL    HW134463   1.681   3.807   5.952  2.2443 -1.6020  2.1315
 7609SOL    HW234464   1.625   3.672   5.922 -2.0327 -0.6294  0.6555
 7610SOL     OW34465   2.558   2.804   1.872  0.1981  0.0101 -0.0780
 7610SOL    HW134466   2.639   2.830   1.828  0.8159  0.4529  1.3258
 7610SOL    HW234467   2.525   2.740   1.808  3.1177  0.2168 -1.7785
 7611SOL     OW34468   0.261   4.534   9.556  0.2361 -0.3298 -0.2428
 7611SOL    HW134469   0.202   4.547   9.631  0.9807  1.0158  0.1201
 7611SOL    HW234470   0.342   4.580   9.579 -0.4527  0.5363  0.4670
 7612SOL     OW34471   3.136   0.431   4.126 -0.3575 -0.4288  0.1731
 7612SOL    HW134472   3.140   0.429   4.031  0.1575 -0.3418  0.1902
 7612SOL    HW234473   3.156   0.341   4.154  1.6440 -0.8885 -2.7669
 7613SOL     OW34474   3.632   3.346  15.014  0.6498  0.4593 -0.1013
 7613SOL    HW134475   3.580   3.313  14.940  0.7771 -1.8005  0.7978
 7613SOL    HW234476   3.685   3.405  14.961 -0.9163 -0.9305 -3.2789
 7614SOL     OW34477   2.290   2.313   9.172  0.2305 -0.3925 -0.2012
 7614SOL    HW134478   2.250   2.393   9.139 -1.4169 -0.3440  1.9626
 7614SOL    HW234479   2.326   2.268   9.096 -0.9525  0.2386 -1.1347
 7615SOL     OW34480   3.709   2.230   7.301  0.2809 -0.0861 -0.4266
 7615SOL    HW134481   3.622   2.195   7.280  0.5576  0.4699 -2.4900
 7615SOL    HW234482   3.690   2.306   7.356  1.6002  0.8328 -1.2348
 7616SOL     OW34483   4.100   1.437   6.195 -0.0348 -0.3738 -0.0757
 7616SOL    HW134484   4.086   1.397   6.281 -0.1428  3.1222  1.5541
 7616SOL    HW234485   4.192   1.418   6.177  0.0381  0.8667 -1.0170
 7617SOL     OW34486   0.459   1.153  16.286  0.1798 -0.1410  0.3894
 7617SOL    HW134487   0.410   1.093  16.343  0.0979 -0.0045  0.4626
 7617SOL    HW234488   0.517   1.095  16.236 -0.3559 -0.3561  0.0154
 7618SOL     OW34489   4.715   4.564   5.659  0.2316  0.6846 -0.3146
 7618SOL    HW134490   4.698   4.578   5.752  1.5518  1.4788 -0.1963
 7618SOL    HW234491   0.005   4.472   5.657 -0.7958  0.3770 -0.1138
 7619SOL     OW34492   0.049   2.363  15.805  1.0355  0.5112  0.3548
 7619SOL    HW134493   4.702   2.409  15.812  0.8594  0.0062  1.5108
 7619SOL    HW234494   0.027   2.284  15.854  3.1700  0.3077  0.9720
 7620SOL     OW34495   4.304   0.342   8.575 -0.3372  0.2060  0.8890
 7620SOL    HW134496   4.257   0.260   8.565  1.2903 -0.3928 -2.0625
 7620SOL    HW234497   4.360   0.318   8.649  0.7026  0.1968  0.1050
 7621SOL     OW34498   2.337   4.177   6.069 -0.0966 -0.7226 -0.2230
 7621SOL    HW134499   2.402   4.244   6.050 -0.7361  0.0095  0.1637
 7621SOL    HW234500   2.311   4.207   6.156 -0.3862 -0.3825 -0.4259
 7622SOL     OW34501   1.403   2.298   9.825  0.0180 -0.0486  0.0907
 7622SOL    HW134502   1.317   2.309   9.866 -0.7882 -0.3466 -1.4988
 7622SOL    HW234503   1.442   2.385   9.833  1.6726 -0.8594  0.7805
 7623SOL     OW34504   2.720   1.164   2.768  0.0195 -0.5033 -0.2217
 7623SOL    HW134505   2.627   1.144   2.778 -0.1083  0.9589  1.4386
 7623SOL    HW234506   2.713   1.244   2.716 -1.6301 -0.7260 -0.3247
 7624SOL     OW34507   3.958   2.990   6.845  0.1990 -0.3400 -0.3773
 7624SOL    HW134508   3.997   2.992   6.933 -2.0916  0.7777  0.6012
 7624SOL    HW234509   3.872   2.972   6.883  0.7759  0.2374  1.2009
 7625SOL     OW34510   2.695   3.261   6.047 -0.6564 -0.0101 -0.1802
 7625SOL    HW134511   2.729   3.198   5.983  1.0017 -0.0960  0.8095
 7625SOL    HW234512   2.701   3.343   5.998 -0.6800  0.6144  0.8815
 7626SOL     OW34513   4.236   1.169  17.298 -0.5824 -0.0779  0.0801
 7626SOL    HW134514   4.200   1.251  17.266  1.6103 -0.4090 -3.2356
 7626SOL    HW234515   4.327   1.196  17.304 -0.5099  0.0186 -1.4045
 7627SOL     OW34516   4.699   3.906   3.151 -0.3120 -0.2420  0.4153
 7627SOL    HW134517   4.622   3.956   3.180 -1.0592 -0.7218 -0.7440
 7627SOL    HW234518   4.696   3.912   3.055 -0.9800 -0.7316  0.4072
 7628SOL     OW34519   4.120   3.122   2.169  0.1934  0.0236 -0.1471
 7628SOL    HW134520   4.053   3.120   2.101 -0.7863 -1.8031  0.8709
 7628SOL    HW234521   4.067   3.135   2.247 -0.4234 -1.5925 -0.3047
 7629SOL     OW34522   4.703   4.191   2.849 -0.1023 -0.2298  0.3198
 7629SOL    HW134523   4.690   4.276   2.807  0.6285  0.7194  2.0307
 7629SOL    HW234524   0.015   4.231   2.920  1.0913 -2.9267  1.0011
 7630SOL     OW34525   3.316   3.359   7.026 -0.5537 -0.3013  0.0258
 7630SOL    HW134526   3.322   3.263   7.021  2.5222 -0.0542 -0.6727
 7630SOL    HW234527   3.348   3.378   7.114  1.1687 -1.7636 -0.2690
 7631SOL     OW34528   1.728   2.860   1.534 -0.4563  0.5953  0.4364
 7631SOL    HW134529   1.701   2.906   1.614  0.0096  0.6633  0.5520
 7631SOL    HW234530   1.682   2.910   1.466 -0.3551 -1.0858 -0.8617
 7632SOL     OW34531   1.791   3.606  17.254 -0.1627 -0.0401 -0.2508
 7632SOL    HW134532   1.716   3.587  17.197 -0.3064 -0.5559  0.1115
 7632SOL    HW234533   1.771   3.560  17.335  0.3303 -1.8244 -1.1577
 7633SOL     OW34534   0.283   4.625   4.657  0.3258  0.2721  0.0361
 7633SOL    HW134535   0.297   4.530   4.659 -1.4955  0.0095  0.4045
 7633SOL    HW234536   0.357   4.655   4.605  0.2165  0.9628  0.2814
 7634SOL     OW34537   3.986   4.072  10.727 -0.1876  0.2208 -0.1018
 7634SOL    HW134538   3.932   4.144  10.695 -0.5745  0.2267  0.5673
 7634SOL    HW234539   3.924   4.004  10.753  1.7679 -1.1556  1.0038
 7635SOL     OW34540   3.126   0.666   3.347  0.3466 -0.2493 -0.2324
 7635SOL    HW134541   3.056   0.607   3.318  1.0018 -0.2321 -1.8511
 7635SOL    HW234542   3.124   0.667   3.442  2.0517  2.0485 -0.2184
 7636SOL     OW34543   2.986   4.423   6.429 -0.7804  1.0852 -0.3136
 7636SOL    HW134544   2.956   4.443   6.518 -0.5613 -2.0370  0.4641
 7636SOL    HW234545   2.908   4.420   6.375 -1.6972 -2.0094  1.1721
 7637SOL     OW34546   2.934   4.078   5.529  0.0480  0.9774  0.3978
 7637SOL    HW134547   2.861   4.141   5.525 -0.6946  0.1043  0.1339
 7637SOL    HW234548   3.013   4.121   5.497  1.3158 -2.7114 -1.4220
 7638SOL     OW34549   0.158   0.193   5.197  0.1608  0.2584 -0.3011
 7638SOL    HW134550   0.203   0.178   5.114 -0.1763 -0.1179 -0.4189
 7638SOL    HW234551   0.218   0.136   5.244 -0.3549  0.8431  1.0566
 7639SOL     OW34552   0.575   3.699   2.019 -0.0289 -0.2528  0.1664
 7639SOL    HW134553   0.603   3.790   2.028 -0.3038 -0.2229  0.7203
 7639SOL    HW234554   0.654   3.654   2.048  0.9770  0.6935 -1.0632
 7640SOL     OW34555   1.244   0.544  10.812 -0.1673 -0.6618  0.1871
 7640SOL    HW134556   1.161   0.591  10.829  1.0274  1.3077  0.6457
 7640SOL    HW234557   1.212   0.484  10.745 -0.3950  0.6719 -0.9105
 7641SOL     OW34558   2.182   2.336   3.676  0.2499 -0.1306 -0.1509
 7641SOL    HW134559   2.183   2.307   3.767  2.3749 -4.6567 -1.6452
 7641SOL    HW234560   2.216   2.426   3.677  1.3979 -0.5392 -1.7192
 7642SOL     OW34561   3.445   0.726   6.337  0.2130 -0.5881  0.5067
 7642SOL    HW134562   3.450   0.799   6.399  2.6624 -0.3989  0.0737
 7642SOL    HW234563   3.354   0.734   6.307  1.0440 -0.7837 -2.1103
 7643SOL     OW34564   4.202   2.178   3.508  0.2493  0.2363  0.4684
 7643SOL    HW134565   4.138   2.116   3.474  1.5968 -1.1582  0.4477
 7643SOL    HW234566   4.268   2.180   3.439  1.0063 -1.1906  1.1634
 7644SOL     OW34567   0.332   2.022   7.584 -0.1612  0.0522  0.2161
 7644SOL    HW134568   0.288   2.105   7.569 -0.4352 -0.1344 -0.0111
 7644SOL    HW234569   0.286   2.010   7.667 -0.7180  1.5750  0.1168
 7645SOL     OW34570   0.728   4.333   2.089 -0.3935  0.5000 -0.1519
 7645SOL    HW134571   0.750   4.282   2.167  0.4953 -1.8673 -1.9583
 7645SOL    HW234572   0.798   4.288   2.040  0.4447  1.2398  0.3706
 7646SOL     OW34573   0.407   0.868   2.060 -0.1376 -0.1711 -0.2191
 7646SOL    HW134574   0.465   0.932   2.017 -0.0947 -0.1776 -0.1702
 7646SOL    HW234575   0.466   0.847   2.132 -0.7110  3.0397  1.1839
 7647SOL     OW34576   2.591   3.547  10.096 -0.1165  0.5800  0.1377
 7647SOL    HW134577   2.667   3.497  10.124 -0.9424  0.2211  1.7541
 7647SOL    HW234578   2.552   3.560  10.182 -0.2709 -0.2621  0.2020
 7648SOL     OW34579   3.923   1.277   8.431 -0.6069 -0.4594  0.2962
 7648SOL    HW134580   3.850   1.331   8.462  0.3293  1.1610 -0.3166
 7648SOL    HW234581   3.877   1.221   8.368  1.4493 -2.2948  0.4160
 7649SOL     OW34582   3.697   1.149   2.102  0.2341 -0.3476  0.2391
 7649SOL    HW134583   3.678   1.077   2.041 -0.1458 -0.5091  0.5494
 7649SOL    HW234584   3.789   1.126   2.117 -0.1704 -2.6482 -0.6717
 7650SOL     OW34585   1.976   2.835   3.506 -0.9912  0.5180 -0.6434
 7650SOL    HW134586   2.002   2.924   3.481 -1.6833  0.4556 -1.5663
 7650SOL    HW234587   2.068   2.809   3.516 -0.6918  1.6747 -0.3480
 7651SOL     OW34588   3.920   4.096  16.637  0.8489 -0.3657  0.6545
 7651SOL    HW134589   3.829   4.104  16.610  0.5205 -1.7320  1.3811
 7651SOL    HW234590   3.923   4.177  16.689  0.7044 -1.2004  1.9408
 7652SOL     OW34591   2.048   3.669   2.217  0.7962  0.0760 -0.0604
 7652SOL    HW134592   1.994   3.591   2.228 -1.4104  1.8242  1.5491
 7652SOL    HW234593   2.138   3.637   2.220  0.4264 -1.0383 -1.3457
 7653SOL     OW34594   3.565   1.382   5.399 -1.0610 -0.1576  0.1135
 7653SOL    HW134595   3.639   1.428   5.437 -0.3844 -1.5566  0.5094
 7653SOL    HW234596   3.601   1.296   5.378  0.4016  0.4039  0.3208
 7654SOL     OW34597   1.954   2.325   4.200 -0.0359  0.4362 -0.8002
 7654SOL    HW134598   1.966   2.291   4.289  0.7091  1.2846 -0.5759
 7654SOL    HW234599   1.873   2.369   4.226 -0.1995 -1.0262  1.1750
 7655SOL     OW34600   2.204   1.379   8.706  0.0190 -0.1830 -0.5707
 7655SOL    HW134601   2.264   1.436   8.659  1.3828 -2.1810 -1.2777
 7655SOL    HW234602   2.122   1.419   8.676  1.0406  1.9018 -0.5457
 7656SOL     OW34603   1.893   3.008   4.855  0.1461  0.3595  0.4826
 7656SOL    HW134604   1.887   3.097   4.823 -0.3381  0.5841  1.1804
 7656SOL    HW234605   1.878   3.029   4.948 -1.3421  2.1365 -0.1640
 7657SOL     OW34606   2.093   1.256   2.629 -0.5831  0.0219  0.0997
 7657SOL    HW134607   2.063   1.247   2.538 -1.5091 -1.3449  0.5601
 7657SOL    HW234608   2.024   1.210   2.676  0.6728 -0.8404  1.0944
 7658SOL     OW34609   0.060   3.489   5.626  0.5484  0.2702 -0.7566
 7658SOL    HW134610   4.702   3.489   5.621  0.5601 -0.1342 -0.9412
 7658SOL    HW234611   0.072   3.584   5.633  2.7834 -0.2129  1.9838
 7659SOL     OW34612   4.597   3.100   8.657  0.4088 -0.2447 -0.0627
 7659SOL    HW134613   4.621   3.067   8.744  0.4750 -1.7359 -0.6593
 7659SOL    HW234614   4.537   3.171   8.682 -0.1413 -0.4018 -0.9407
 7660SOL     OW34615   3.543   3.312   2.253 -0.2486  0.4952 -0.0709
 7660SOL    HW134616   3.473   3.365   2.292 -1.0590  0.7314 -1.8466
 7660SOL    HW234617   3.509   3.227   2.279 -1.5325 -0.0278 -3.4970
 7661SOL     OW34618   1.478   4.575  16.484  0.3709  0.0173 -0.8095
 7661SOL    HW134619   1.412   4.510  16.461  1.1821 -0.2737 -2.3371
 7661SOL    HW234620   1.433   4.658  16.494  0.0494 -0.0514 -1.6637
 7662SOL     OW34621   4.069   3.536   9.507  0.1960  0.2199  0.4677
 7662SOL    HW134622   4.007   3.463   9.520  0.0736  0.0194 -1.1863
 7662SOL    HW234623   4.016   3.607   9.470 -1.4404 -1.1157  0.2266
 7663SOL     OW34624   2.249   0.272   3.943 -0.2801  0.3979  0.0923
 7663SOL    HW134625   2.269   0.180   3.960 -0.1047  0.4759  0.3108
 7663SOL    HW234626   2.168   0.252   3.895 -0.1582 -1.4335  0.6555
 7664SOL     OW34627   1.498   4.351  16.109  0.1441 -0.4191  0.1220
 7664SOL    HW134628   1.485   4.274  16.053  1.2873 -0.0730 -0.6256
 7664SOL    HW234629   1.468   4.313  16.191  0.4220 -0.8228  0.0358
 7665SOL     OW34630   0.071   1.832  12.625 -0.4137  0.4687  0.4010
 7665SOL    HW134631   4.729   1.869  12.586  0.1428 -0.6131 -1.7604
 7665SOL    HW234632   0.045   1.832  12.717  0.7275  2.4099  0.7330
 7666SOL     OW34633   1.009   2.534   3.167 -0.2342 -0.0917  0.2279
 7666SOL    HW134634   1.053   2.542   3.251 -0.4236 -1.0755  0.4232
 7666SOL    HW234635   1.068   2.578   3.106 -0.8002  0.0236 -0.2354
 7667SOL     OW34636   4.412   0.211   7.705  0.4369  0.5562 -0.2461
 7667SOL    HW134637   4.365   0.130   7.721 -1.0006  1.4361 -0.0201
 7667SOL    HW234638   4.354   0.240   7.635 -0.0057  0.3281  0.0270
 7668SOL     OW34639   3.451   0.892   7.889  0.2539 -0.7107 -0.4625
 7668SOL    HW134640   3.379   0.871   7.949 -1.1724 -1.7042 -2.5257
 7668SOL    HW234641   3.470   0.985   7.906 -2.0551  0.1543 -2.6137
 7669SOL     OW34642   0.768   2.527   4.685  0.0902  0.1280 -0.0150
 7669SOL    HW134643   0.811   2.612   4.695 -0.9982  0.9363 -2.2256
 7669SOL    HW234644   0.683   2.555   4.651 -0.8211 -1.0987  1.2643
 7670SOL     OW34645   2.316   2.576   3.687 -1.2369 -0.2819 -0.0563
 7670SOL    HW134646   2.396   2.563   3.636 -1.3762 -0.9428 -0.1046
 7670SOL    HW234647   2.277   2.656   3.651  1.6882  1.4959  0.8047
 7671SOL     OW34648   3.541   2.800   8.897  0.5466  0.4962 -0.9422
 7671SOL    HW134649   3.498   2.720   8.869 -4.4157  2.6895  0.4552
 7671SOL    HW234650   3.478   2.871   8.882  0.8357  0.7368 -1.0282
 7672SOL     OW34651   3.703   3.104   4.571  0.2608 -0.1424 -0.2518
 7672SOL    HW134652   3.712   3.189   4.528  3.1527  0.3902  1.3860
 7672SOL    HW234653   3.786   3.064   4.543 -0.6888 -2.0778 -0.3423
 7673SOL     OW34654   1.148   3.487   4.593  0.2340  0.5667 -0.4246
 7673SOL    HW134655   1.237   3.506   4.621 -0.2981 -1.7992  2.8596
 7673SOL    HW234656   1.160   3.434   4.515  1.1531  0.7032 -0.3779
 7674SOL     OW34657   2.080   4.455   4.412  0.1879  0.0073 -0.1748
 7674SOL    HW134658   2.027   4.516   4.361 -2.1383  0.6150  2.9235
 7674SOL    HW234659   2.075   4.508   4.492  0.6561  0.5889 -0.5399
 7675SOL     OW34660   0.014   2.684   3.168 -0.5356 -0.4141 -0.2238
 7675SOL    HW134661   0.017   2.761   3.224  2.7675 -1.3391  0.8663
 7675SOL    HW234662   0.076   2.631   3.218  1.3852  0.6339 -1.4875
 7676SOL     OW34663   0.370   2.725   4.830 -0.2488  0.3554  0.0136
 7676SOL    HW134664   0.332   2.693   4.912 -1.3410  3.5911  0.7623
 7676SOL    HW234665   0.302   2.707   4.764 -1.9810 -0.9265  2.1585
 7677SOL     OW34666   1.424   1.381   5.264 -0.1118 -0.0692  0.4130
 7677SOL    HW134667   1.424   1.383   5.360  1.3283 -0.4220  0.4172
 7677SOL    HW234668   1.340   1.425   5.250 -1.1371 -2.1644 -0.1712
 7678SOL     OW34669   4.379   0.210   1.045  0.1506 -0.2634 -0.2395
 7678SOL    HW134670   4.425   0.145   0.992  0.4446  1.0973 -1.6470
 7678SOL    HW234671   4.420   0.294   1.026 -2.4654  1.5220  2.0635
 7679SOL     OW34672   0.947   1.355   2.826  0.1765 -0.2353 -0.4710
 7679SOL    HW134673   0.867   1.355   2.773 -0.7091 -3.9907  0.8447
 7679SOL    HW234674   0.939   1.430   2.884  2.7359  1.0244 -1.7239
 7680SOL     OW34675   2.725   1.301   5.292  0.5204 -0.6053 -0.4181
 7680SOL    HW134676   2.766   1.387   5.285  0.6484 -0.6698 -0.4777
 7680SOL    HW234677   2.783   1.247   5.237  0.3132 -1.5019  0.2490
 7681SOL     OW34678   0.024   1.546   4.390 -0.0612  0.1858 -0.0056
 7681SOL    HW134679   0.013   1.462   4.345  0.0336 -0.9715  2.0971
 7681SOL    HW234680   0.000   1.610   4.324  2.5215 -1.0578 -2.1322
 7682SOL     OW34681   0.735   0.429  11.205  0.4502 -0.2593 -0.2783
 7682SOL    HW134682   0.719   0.426  11.299  1.6033  0.0298 -0.0707
 7682SOL    HW234683   0.645   0.406  11.184  0.0725  0.6886  0.2969
 7683SOL     OW34684   0.831   1.798   2.757  0.2192 -1.3337 -0.4736
 7683SOL    HW134685   0.760   1.735   2.762  0.1278 -1.1349  0.9874
 7683SOL    HW234686   0.849   1.789   2.664  2.2204  0.5876 -0.2781
 7684SOL     OW34687   4.368   1.998   9.399  0.5400  0.2208  0.4867
 7684SOL    HW134688   4.454   1.956   9.405  1.0118  1.4211  1.8544
 7684SOL    HW234689   4.373   2.052   9.320  1.4528 -0.6098 -0.0278
 7685SOL     OW34690   3.055   1.243   6.497  0.3218 -0.3860  0.2438
 7685SOL    HW134691   2.971   1.224   6.540 -0.1123 -2.0268 -1.2988
 7685SOL    HW234692   3.031   1.325   6.453 -0.0022 -2.3821 -3.2981
 7686SOL     OW34693   3.294   2.542  12.666 -0.1309 -0.1163  0.4326
 7686SOL    HW134694   3.260   2.453  12.678  0.7386 -0.2620  1.6969
 7686SOL    HW234695   3.307   2.541  12.571 -0.2752  0.5269  0.4104
 7687SOL     OW34696   3.482   3.516  15.177  0.0008 -0.1723  0.2182
 7687SOL    HW134697   3.505   3.607  15.160 -0.7197 -0.0667 -0.1960
 7687SOL    HW234698   3.547   3.474  15.121  0.8204  0.4432  0.7146
 7688SOL     OW34699   1.799   0.067   6.773 -0.2963  0.2661 -0.4641
 7688SOL    HW134700   1.783   0.135   6.839 -1.4710  0.1333 -0.6140
 7688SOL    HW234701   1.847   0.113   6.704  0.3223  0.6717  0.2475
 7689SOL     OW34702   1.765   1.273  17.161 -0.0155 -0.2289 -0.2322
 7689SOL    HW134703   1.735   1.202  17.218  0.1343 -0.5639 -0.5697
 7689SOL    HW234704   1.697   1.337  17.181 -1.8196 -0.9817 -3.9231
 7690SOL     OW34705   1.443   0.212   3.175  0.6888  0.1481  0.3857
 7690SOL    HW134706   1.434   0.132   3.227  4.9986 -0.7381 -0.1905
 7690SOL    HW234707   1.534   0.234   3.194  1.0470  0.1580 -1.3696
 7691SOL     OW34708   4.561   4.330   9.881  0.3213  0.2914  0.4890
 7691SOL    HW134709   4.541   4.398   9.816  1.3673 -0.6373 -0.7997
 7691SOL    HW234710   4.573   4.257   9.821  1.3226  1.4217 -0.6870
 7692SOL     OW34711   2.634   1.468  10.210  0.1450  0.4330 -0.1257
 7692SOL    HW134712   2.613   1.472  10.116  0.7045  1.1094 -0.2241
 7692SOL    HW234713   2.556   1.518  10.234 -2.2052 -3.3624  0.1158
 7693SOL     OW34714   0.587   2.314  16.022 -0.5904 -0.3661 -0.1316
 7693SOL    HW134715   0.584   2.242  15.959  0.4405 -0.1860 -0.3975
 7693SOL    HW234716   0.517   2.367  15.985 -0.5053 -0.4308 -0.3922
 7694SOL     OW34717   4.701   1.890  16.328 -0.2787  0.3839  0.3024
 7694SOL    HW134718   0.047   1.843  16.322 -0.4431 -0.1117  2.0586
 7694SOL    HW234719   4.652   1.834  16.267 -0.8754  0.4876  0.6855
 7695SOL     OW34720   4.422   1.724   7.138 -0.1043  0.0129 -0.1469
 7695SOL    HW134721   4.366   1.798   7.117 -2.0244 -1.3712  0.1052
 7695SOL    HW234722   4.493   1.737   7.075 -0.6409 -3.5770 -1.4834
 7696SOL     OW34723   0.260   1.266  16.935 -0.2582 -0.1125  0.1421
 7696SOL    HW134724   0.292   1.223  16.856  1.5873  1.0122  0.2911
 7696SOL    HW234725   0.328   1.250  17.000 -1.2708 -0.9818  0.9857
 7697SOL     OW34726   3.204   0.550  14.408  0.0638 -1.0166 -0.5517
 7697SOL    HW134727   3.165   0.610  14.345  0.7200  0.7082  0.6889
 7697SOL    HW234728   3.135   0.489  14.432 -1.1274  1.2464  1.8039
 7698SOL     OW34729   0.227   3.403  17.420 -0.4056  0.3828 -0.1584
 7698SOL    HW134730   0.265   3.413  17.333 -0.8365  1.1939 -0.2571
 7698SOL    HW234731   0.267   3.471  17.475 -0.8657  0.4421  0.1036
 7699SOL     OW34732   4.132   2.738   4.325 -0.1602 -0.7326 -0.2772
 7699SOL    HW134733   4.151   2.714   4.416  0.4360 -0.8572 -0.4373
 7699SOL    HW234734   4.220   2.765   4.299 -0.1176  0.5516  1.1380
 7700SOL     OW34735   1.230   1.669   2.987 -0.5427  0.4583 -0.0514
 7700SOL    HW134736   1.243   1.745   3.043 -0.5911 -1.3531  2.4392
 7700SOL    HW234737   1.218   1.597   3.049  1.3627 -0.7059 -1.0179
 7701SOL     OW34738   1.725   0.628   5.129 -0.3768 -0.0007 -0.5299
 7701SOL    HW134739   1.725   0.686   5.205  3.4939 -1.6866  0.7253
 7701SOL    HW234740   1.707   0.701   5.069  3.1146  1.0035 -0.3610
 7702SOL     OW34741   1.404   3.937   0.452  0.1588 -0.2999 -0.0444
 7702SOL    HW134742   1.453   3.879   0.511  0.7245  0.4036  0.1636
 7702SOL    HW234743   1.368   3.879   0.385 -1.2396 -0.3441  0.7374
 7703SOL     OW34744   0.816   0.758   3.256 -0.1510 -0.0430 -0.3151
 7703SOL    HW134745   0.861   0.701   3.194  0.4994  0.7531 -0.5623
 7703SOL    HW234746   0.885   0.779   3.318  0.5450 -0.3360 -0.9895
 7704SOL     OW34747   1.445   4.290   7.682  0.4161  0.3789  0.4123
 7704SOL    HW134748   1.477   4.200   7.687 -0.1368  0.2688  1.9756
 7704SOL    HW234749   1.357   4.283   7.720 -0.3380 -2.0434 -1.7438
 7705SOL     OW34750   2.065   0.613   1.685 -0.1459  0.1957 -0.2760
 7705SOL    HW134751   2.155   0.584   1.675 -0.4688 -0.5808 -0.9495
 7705SOL    HW234752   2.043   0.598   1.778  1.0295 -1.1867 -0.2249
 7706SOL     OW34753   1.957   3.793  13.089 -0.0938  0.7986 -0.1247
 7706SOL    HW134754   1.954   3.849  13.011 -0.1190 -1.2682 -1.6091
 7706SOL    HW234755   2.045   3.756  13.080  0.0634  1.2749 -0.5958
 7707SOL     OW34756   2.264   2.724   8.145  0.1313  0.1435 -0.3869
 7707SOL    HW134757   2.300   2.782   8.213  0.8149  1.0426 -1.5100
 7707SOL    HW234758   2.218   2.796   8.102 -0.0554  0.3939  0.2250
 7708SOL     OW34759   4.050   4.130  10.466 -0.0324  0.1015  0.0734
 7708SOL    HW134760   4.069   4.042  10.433 -1.2695 -0.9188  2.0267
 7708SOL    HW234761   4.021   4.117  10.557 -0.9186  2.5534  0.1434
 7709SOL     OW34762   1.927   3.673   1.718 -0.6747 -0.1099  0.0440
 7709SOL    HW134763   1.956   3.706   1.632 -0.9214  0.1397  0.0539
 7709SOL    HW234764   1.979   3.595   1.734  0.8562  1.0410  0.6403
 7710SOL     OW34765   3.469   4.394   2.340  0.4449 -0.0630  0.2236
 7710SOL    HW134766   3.467   4.423   2.431  2.8492  0.7478  0.0143
 7710SOL    HW234767   3.547   4.341   2.328  0.9745  0.7175  0.1828
 7711SOL     OW34768   1.092   2.928   1.544 -0.2116  0.1767 -0.6089
 7711SOL    HW134769   1.015   2.873   1.528  0.4190 -0.8972  0.0397
 7711SOL    HW234770   1.152   2.875   1.493  1.2348  0.7049  0.5292
 7712SOL     OW34771   3.520   0.326  12.402  0.4428  0.0511  0.0840
 7712SOL    HW134772   3.610   0.335  12.371  0.7631  1.1839  1.3263
 7712SOL    HW234773   3.483   0.382  12.334 -0.3886 -0.3362  0.2164
 7713SOL     OW34774   0.347   2.059   5.068 -0.1228  0.1382  0.8831
 7713SOL    HW134775   0.368   1.972   5.035 -2.1310 -0.6386  1.6643
 7713SOL    HW234776   0.371   2.118   4.997 -3.1252  1.2934  0.8429
 7714SOL     OW34777   2.178   3.282  12.367 -0.1297 -0.1549 -0.3672
 7714SOL    HW134778   2.172   3.203  12.312  0.6751 -0.8658  0.5704
 7714SOL    HW234779   2.239   3.336  12.317 -1.6631  2.4834  0.5972
 7715SOL     OW34780   3.973   2.053  16.433  0.2746 -0.1324  0.2780
 7715SOL    HW134781   3.940   2.004  16.508 -0.5013  2.4024  1.5947
 7715SOL    HW234782   3.902   2.116  16.419 -1.4449 -2.0551  0.3618
 7716SOL     OW34783   3.137   3.877   5.315 -0.0127  0.3532 -0.2343
 7716SOL    HW134784   3.152   3.839   5.229 -1.8679 -0.2562 -0.2862
 7716SOL    HW234785   3.174   3.963   5.296 -2.2730  1.4758  0.4071
 7717SOL     OW34786   3.234   0.871   5.981 -0.0067 -0.2534  0.2331
 7717SOL    HW134787   3.330   0.873   5.978 -0.0225  1.1469  0.8849
 7717SOL    HW234788   3.211   0.945   5.925  1.2400 -1.1246 -1.4420
 7718SOL     OW34789   1.786   3.034   2.818  0.0154 -0.1755  0.0369
 7718SOL    HW134790   1.835   3.044   2.737  1.1093  0.8596  0.8269
 7718SOL    HW234791   1.701   3.022   2.777 -0.2418  0.1712  0.4761
 7719SOL     OW34792   2.517   3.636  16.562  0.2325  0.4270  0.4101
 7719SOL    HW134793   2.450   3.705  16.562 -0.2698 -0.0670 -0.8892
 7719SOL    HW234794   2.596   3.690  16.563 -0.6008  1.6801 -1.2023
 7720SOL     OW34795   0.404   0.143   1.434  0.2105  0.1746 -0.1002
 7720SOL    HW134796   0.498   0.155   1.451  0.0669  0.9980  0.1412
 7720SOL    HW234797   0.385   0.057   1.470 -0.5674  0.6429  0.5882
 7721SOL     OW34798   3.813   0.547  10.330 -0.5397 -0.8337 -0.2362
 7721SOL    HW134799   3.768   0.563  10.247 -0.5085 -2.9431 -0.6611
 7721SOL    HW234800   3.818   0.451  10.327  1.0020 -0.7459 -0.8242
 7722SOL     OW34801   1.874   3.140   1.559  0.0224  0.4561 -0.1619
 7722SOL    HW134802   1.939   3.076   1.587  1.5830  0.6876 -3.2373
 7722SOL    HW234803   1.901   3.164   1.470  0.1152  1.5987  0.1846
 7723SOL     OW34804   4.317   0.613   4.054 -0.0339 -0.2196 -0.2553
 7723SOL    HW134805   4.250   0.569   4.001 -0.1916 -0.5674  0.2219
 7723SOL    HW234806   4.329   0.693   4.004  1.4295  0.0874  0.5968
 7724SOL     OW34807   2.288   0.841   8.174 -0.2346 -0.0963  0.2913
 7724SOL    HW134808   2.368   0.800   8.140 -1.4240 -0.8058 -1.6222
 7724SOL    HW234809   2.309   0.926   8.134 -0.2746  0.2256  0.9586
 7725SOL     OW34810   0.183   3.199   1.936  0.2107 -0.4466  0.0072
 7725SOL    HW134811   0.276   3.183   1.950  0.2795  0.6505  0.7539
 7725SOL    HW234812   0.191   3.168   1.845  0.0183 -0.3132 -0.0541
 7726SOL     OW34813   2.026   3.143  15.909 -0.3875  0.5921  0.0732
 7726SOL    HW134814   1.973   3.211  15.949 -1.2594 -2.3734  3.9641
 7726SOL    HW234815   2.087   3.197  15.859  1.4256 -1.5054  0.0127
 7727SOL     OW34816   4.254   3.557   9.018 -0.1180 -0.2595  0.9965
 7727SOL    HW134817   4.234   3.526   8.929 -0.6853  0.8892  0.7313
 7727SOL    HW234818   4.346   3.584   9.016 -1.0692  2.8763  0.2722
 7728SOL     OW34819   1.470   0.159  10.659 -0.4065  0.1471 -0.3001
 7728SOL    HW134820   1.519   0.238  10.685 -1.0397  0.5085 -0.1996
 7728SOL    HW234821   1.477   0.114  10.743  2.8455  0.3893 -0.4422
 7729SOL     OW34822   1.855   4.438   2.703 -0.0404  0.7672 -0.4338
 7729SOL    HW134823   1.760   4.452   2.704  0.1821  2.1526  0.9515
 7729SOL    HW234824   1.863   4.425   2.797 -0.2427  1.4874 -0.3218
 7730SOL     OW34825   2.609   1.755   6.445  0.0702  0.1243 -0.1506
 7730SOL    HW134826   2.630   1.665   6.421  2.1126  0.4393  0.4705
 7730SOL    HW234827   2.545   1.736   6.513  1.0760 -1.1885  0.4173
 7731SOL     OW34828   2.339   1.195   9.456 -0.4832 -0.0273  0.2444
 7731SOL    HW134829   2.296   1.109   9.453  0.5885 -0.5660  0.4585
 7731SOL    HW234830   2.393   1.170   9.531  0.7138  0.2432 -0.5425
 7732SOL     OW34831   4.558   0.914   8.229 -0.1568 -0.4211  0.0499
 7732SOL    HW134832   4.635   0.860   8.245 -1.7033 -2.0258  2.3182
 7732SOL    HW234833   4.590   0.983   8.172  1.2598 -1.6697 -0.6462
 7733SOL     OW34834   2.693   4.372   5.171  0.8345  0.0496  0.7587
 7733SOL    HW134835   2.763   4.433   5.193  0.4112  0.3573  1.2414
 7733SOL    HW234836   2.734   4.293   5.207 -0.2009 -0.3230  1.1154
 7734SOL     OW34837   3.988   3.215   4.586  0.1077 -0.4888  0.2103
 7734SOL    HW134838   3.944   3.246   4.507  2.4298 -1.6090 -1.5392
 7734SOL    HW234839   4.064   3.171   4.547  1.4753  0.6466  1.6526
 7735SOL     OW34840   2.232   1.466   4.877 -0.4846 -0.3750 -0.0830
 7735SOL    HW134841   2.239   1.464   4.781 -0.7602 -1.9648 -0.0810
 7735SOL    HW234842   2.266   1.379   4.900  0.6805  0.5520  1.6335
 7736SOL     OW34843   4.730   3.730   1.566 -0.3357  0.2938 -0.1219
 7736SOL    HW134844   4.649   3.766   1.604 -0.9812 -0.1844 -1.0338
 7736SOL    HW234845   0.064   3.774   1.612 -0.5376 -0.9100  1.3585
 7737SOL     OW34846   1.030   3.017  10.508 -0.6076  0.0538 -0.2546
 7737SOL    HW134847   1.125   3.020  10.518 -0.6275 -2.0685  0.6649
 7737SOL    HW234848   1.025   2.954  10.437  1.4476  1.3169 -1.4951
 7738SOL     OW34849   4.108   3.669   7.649 -0.2512 -0.0468 -0.4282
 7738SOL    HW134850   4.063   3.594   7.688 -0.9682 -0.6196 -2.3729
 7738SOL    HW234851   4.114   3.645   7.557 -1.4183  0.3377 -0.6156
 7739SOL     OW34852   4.421   0.355   6.696  0.1945 -0.1596 -0.0867
 7739SOL    HW134853   4.406   0.290   6.765  3.7132 -0.4432  0.3970
 7739SOL    HW234854   4.440   0.430   6.753 -0.0123  0.6731 -1.1216
 7740SOL     OW34855   3.778   1.806   7.985  0.2149 -0.1265 -0.1689
 7740SOL    HW134856   3.740   1.828   7.900  2.9298  3.2712 -0.4640
 7740SOL    HW234857   3.865   1.844   7.975  0.7103 -1.2110 -0.0690
 7741SOL     OW34858   3.051   1.142   9.013  0.1139 -0.3194  0.0298
 7741SOL    HW134859   3.084   1.130   9.102 -0.0853  2.0000  0.4394
 7741SOL    HW234860   3.132   1.174   8.974  1.5983 -2.2812  1.5484
 7742SOL     OW34861   2.411   3.463   7.586 -0.2568  0.2097  0.1649
 7742SOL    HW134862   2.449   3.396   7.642 -0.9204 -1.8936 -1.9259
 7742SOL    HW234863   2.463   3.453   7.506 -1.1450 -0.8219 -0.2829
 7743SOL     OW34864   3.210   2.782  14.997  0.0864 -0.3828  0.1333
 7743SOL    HW134865   3.152   2.843  15.043 -0.1118 -0.2697 -0.2651
 7743SOL    HW234866   3.197   2.816  14.909 -1.9541  0.2159  0.6660
 7744SOL     OW34867   0.411   1.895  17.029 -0.4284 -0.2032  0.1502
 7744SOL    HW134868   0.364   1.955  17.087  1.1003  2.8467 -1.7122
 7744SOL    HW234869   0.348   1.852  16.973  0.2846  1.1319 -1.6811
 7745SOL     OW34870   0.121   0.433   5.710 -0.3652  0.1079  0.4775
 7745SOL    HW134871   0.132   0.485   5.631  1.1131  0.2258  0.7597
 7745SOL    HW234872   0.212   0.405   5.725 -0.1544  0.1884 -0.6837
 7746SOL     OW34873   2.398   1.090  14.788 -0.1982 -0.3863  0.3089
 7746SOL    HW134874   2.474   1.089  14.731 -0.7741  0.6512 -0.4788
 7746SOL    HW234875   2.427   1.041  14.865  0.7876  1.6718  1.2143
 7747SOL     OW34876   1.136   3.840   6.820 -0.0915 -0.2941 -0.2810
 7747SOL    HW134877   1.119   3.933   6.802  0.2881 -0.0206  0.7615
 7747SOL    HW234878   1.232   3.838   6.815 -0.0096  0.8304  0.8194
 7748SOL     OW34879   2.000   0.207   0.485 -0.0726 -0.2985  0.1546
 7748SOL    HW134880   1.918   0.192   0.438 -0.9467 -0.9998  1.8632
 7748SOL    HW234881   2.054   0.152   0.428  2.7030  3.0668 -0.4097
 7749SOL     OW34882   3.443   0.082   6.497 -0.0220 -0.1526 -0.0163
 7749SOL    HW134883   3.464   0.076   6.590  0.5693  0.1755 -0.1285
 7749SOL    HW234884   3.375   0.150   6.491 -0.5219 -0.7310 -0.8887
 7750SOL     OW34885   2.610   0.958  13.135  0.0180  0.3196  0.2872
 7750SOL    HW134886   2.658   0.981  13.215  1.2995  0.6725 -0.5951
 7750SOL    HW234887   2.681   0.917  13.086 -0.7647 -1.8607  0.9517
 7751SOL     OW34888   3.874   0.200   5.037  0.6249 -0.3521 -0.3273
 7751SOL    HW134889   3.918   0.278   5.004  0.0759  0.2201  0.3111
 7751SOL    HW234890   3.810   0.247   5.090 -0.3634  1.8403 -3.4252
 7752SOL     OW34891   4.112   0.621  14.733 -0.0081 -0.4789  0.9684
 7752SOL    HW134892   4.151   0.661  14.656  0.8540 -0.7725  1.2504
 7752SOL    HW234893   4.037   0.573  14.699  1.4241  0.8386 -4.0100
 7753SOL     OW34894   2.790   0.202   5.223 -0.7383 -0.3288 -0.2144
 7753SOL    HW134895   2.720   0.137   5.232 -3.5315  2.6922 -0.2771
 7753SOL    HW234896   2.797   0.198   5.128  0.7252 -2.3965 -0.0349
 7754SOL     OW34897   3.016   2.690  15.395  0.1352 -0.2564  0.5725
 7754SOL    HW134898   3.030   2.760  15.459 -0.3101 -0.7262  1.1864
 7754SOL    HW234899   3.025   2.624  15.464  0.7067 -0.6064  0.1617
 7755SOL     OW34900   3.972   1.641   4.524 -0.3082  0.2542 -0.0698
 7755SOL    HW134901   4.015   1.586   4.590 -3.2452 -0.9150  0.8664
 7755SOL    HW234902   3.923   1.576   4.473  0.5787  0.5957 -1.3535
 7756SOL     OW34903   0.480   2.772   5.693 -0.1031 -0.6532  0.3416
 7756SOL    HW134904   0.518   2.713   5.759 -1.2668 -1.2964  0.4298
 7756SOL    HW234905   0.557   2.820   5.662 -0.1199 -0.3343  0.7839
 7757SOL     OW34906   3.213   3.870   1.706  0.3446  0.6559 -0.0459
 7757SOL    HW134907   3.212   3.916   1.790  0.8582 -1.7274  1.2586
 7757SOL    HW234908   3.175   3.790   1.742  0.3393  0.4313 -0.5469
 7758SOL     OW34909   4.233   3.547   5.502 -0.3257 -0.3234 -0.1309
 7758SOL    HW134910   4.148   3.538   5.457  0.2133  1.1238 -1.4658
 7758SOL    HW234911   4.220   3.634   5.539 -1.4779 -0.8107  0.6030
 7759SOL     OW34912   1.072   4.040   2.162 -0.0247 -0.1621 -0.1714
 7759SOL    HW134913   1.018   4.059   2.085  0.8347  1.3801 -0.4102
 7759SOL    HW234914   1.073   4.132   2.190  1.3144  0.1895 -1.3722
 7760SOL     OW34915   2.897   4.244  14.992  0.0626 -0.4412 -0.2650
 7760SOL    HW134916   2.912   4.251  14.898  3.9302  0.3023  0.4242
 7760SOL    HW234917   2.919   4.330  15.025 -1.4407 -0.8987  1.9522
 7761SOL     OW34918   1.127   3.708   7.836  0.1767 -0.0248  0.0410
 7761SOL    HW134919   1.140   3.706   7.742 -1.8642  2.6378 -0.2865
 7761SOL    HW234920   1.162   3.621   7.857 -0.3703  0.0118  1.1434
 7762SOL     OW34921   3.660   3.377   7.292  0.2061 -0.2554  0.2561
 7762SOL    HW134922   3.743   3.347   7.256 -0.7086  0.4356 -2.5034
 7762SOL    HW234923   3.694   3.436   7.358  0.9653 -0.3671 -0.0388
 7763SOL     OW34924   2.175   4.235   9.997  0.3990  0.6515  0.0101
 7763SOL    HW134925   2.193   4.141   9.987 -0.4370  0.4087  0.7873
 7763SOL    HW234926   2.263   4.264   9.974  1.0002 -1.9238 -0.9434
 7764SOL     OW34927   2.968   2.428   7.571 -0.1477 -0.0432 -0.7683
 7764SOL    HW134928   3.043   2.473   7.534  0.1169  0.3376  0.2385
 7764SOL    HW234929   2.920   2.400   7.493 -2.1524 -2.2884  1.2588
 7765SOL     OW34930   3.614   2.617   0.244 -0.0474 -0.0341 -0.3598
 7765SOL    HW134931   3.613   2.708   0.215 -1.6189  0.3124  0.8275
 7765SOL    HW234932   3.709   2.604   0.242  0.0287  0.9660 -2.5360
 7766SOL     OW34933   3.979   3.730   8.621  0.1876 -0.1450 -0.1229
 7766SOL    HW134934   4.070   3.737   8.653 -0.4343 -0.1888  1.6786
 7766SOL    HW234935   3.964   3.819   8.652 -2.0243 -1.1579  1.6769
 7767SOL     OW34936   4.311   2.960   3.240 -0.1355  0.0111  0.1805
 7767SOL    HW134937   4.232   2.997   3.280  1.3912 -0.4939  3.6143
 7767SOL    HW234938   4.375   3.030   3.253  1.8188 -1.6061 -0.7688
 7768SOL     OW34939   2.563   3.783   7.502  0.1095 -0.4756 -0.3410
 7768SOL    HW134940   2.501   3.716   7.473 -1.1943  0.3598  0.5033
 7768SOL    HW234941   2.502   3.852   7.530  1.4795 -0.2524  2.0718
 7769SOL     OW34942   1.385   0.815  13.507 -0.2412 -0.0919 -0.4903
 7769SOL    HW134943   1.341   0.789  13.426 -0.8128  2.7124 -1.0660
 7769SOL    HW234944   1.316   0.868  13.547  0.7483 -0.5421  1.7615
 7770SOL     OW34945   1.365   0.104   6.008 -0.0089 -0.1921 -1.1666
 7770SOL    HW134946   1.314   0.172   6.053 -0.3137 -0.4715 -1.0857
 7770SOL    HW234947   1.301   0.034   5.993 -0.3123 -0.3649  0.9098
 7771SOL     OW34948   1.831   2.234   9.515  0.4495 -0.9600  0.5641
 7771SOL    HW134949   1.741   2.249   9.546  1.4128  2.9362  1.4588
 7771SOL    HW234950   1.827   2.201   9.425 -1.8708  0.9576 -0.0532
 7772SOL     OW34951   2.083   1.924   5.535  0.0183  0.2547  0.0844
 7772SOL    HW134952   2.158   1.962   5.488 -0.4321 -0.7618 -1.4441
 7772SOL    HW234953   2.118   1.848   5.582 -1.5132 -0.2009  0.4730
 7773SOL     OW34954   2.891   1.027   1.675  0.0545 -0.0747  0.0666
 7773SOL    HW134955   2.907   1.114   1.713 -1.4237  0.3389 -0.2304
 7773SOL    HW234956   2.964   1.032   1.613 -0.9881  2.1707 -0.9916
 7774SOL     OW34957   0.441   0.887   4.326  0.1304 -0.0904  0.1865
 7774SOL    HW134958   0.439   0.876   4.421 -2.7421 -0.5461  0.0893
 7774SOL    HW234959   0.486   0.805   4.307 -0.5998 -0.9629  2.2244
 7775SOL     OW34960   0.675   3.652   6.697 -0.2143 -0.2016 -0.2781
 7775SOL    HW134961   0.754   3.694   6.732 -1.2318  0.6870  0.9510
 7775SOL    HW234962   0.694   3.636   6.604  1.8106  1.5309 -0.1599
 7776SOL     OW34963   1.259   1.742   7.590 -0.1021  0.1776 -0.0749
 7776SOL    HW134964   1.333   1.695   7.629 -0.2675  1.0681  1.2933
 7776SOL    HW234965   1.309   1.770   7.513 -0.4607  0.7889 -0.0890
 7777SOL     OW34966   3.106   0.027   4.122 -0.6976 -0.4179  0.5284
 7777SOL    HW134967   3.082   4.672   4.124  1.8187 -1.0688  0.4978
 7777SOL    HW234968   3.152   0.035   4.205 -0.5501  1.7523  0.2486
 7778SOL     OW34969   1.075   3.488   3.508  0.1130  0.0890 -0.0993
 7778SOL    HW134970   1.041   3.530   3.586  0.1870 -1.3695  0.7178
 7778SOL    HW234971   1.037   3.402   3.525 -0.5599  0.4620  0.2461
 7779SOL     OW34972   1.592   2.133  10.331 -0.3666 -0.0077  0.4177
 7779SOL    HW134973   1.655   2.197  10.297 -0.7534 -0.6925 -1.5954
 7779SOL    HW234974   1.511   2.178  10.305  0.1701 -0.5656 -2.2724
 7780SOL     OW34975   4.246   2.258  14.118 -0.0607  0.1599  0.2921
 7780SOL    HW134976   4.314   2.216  14.170  1.4953  0.2044 -1.6867
 7780SOL    HW234977   4.240   2.188  14.053 -0.1507 -1.0581  1.6273
 7781SOL     OW34978   4.255   1.841   5.981  0.3723  0.2085  0.0988
 7781SOL    HW134979   4.348   1.823   5.965  0.7784  0.9169  1.6373
 7781SOL    HW234980   4.244   1.924   5.935 -0.3268  0.7706  1.2870
 7782SOL     OW34981   1.760   3.265   2.397  0.3537  0.5323 -0.6381
 7782SOL    HW134982   1.736   3.223   2.314 -0.7708 -1.5673  0.7526
 7782SOL    HW234983   1.795   3.191   2.446  0.6429  0.0958 -1.4988
 7783SOL     OW34984   2.576   0.111   3.217  0.1341  0.2086  0.0716
 7783SOL    HW134985   2.509   0.165   3.259  1.0660  1.6809 -0.3472
 7783SOL    HW234986   2.641   0.096   3.285  0.4287 -1.3223 -0.5421
 7784SOL     OW34987   3.245   0.552  14.970 -0.1321 -0.6952  0.0766
 7784SOL    HW134988   3.254   0.541  14.875 -0.3420  0.2791 -0.0611
 7784SOL    HW234989   3.315   0.492  14.994  0.7469  0.0673 -0.5899
 7785SOL     OW34990   0.477   4.441   6.595 -0.1345  0.2044  0.5924
 7785SOL    HW134991   0.531   4.497   6.539 -0.2332 -0.1353  0.1611
 7785SOL    HW234992   0.411   4.500   6.632 -1.5888 -1.2917  0.3575
 7786SOL     OW34993   2.981   4.655   0.150 -0.2583  0.0388 -0.3113
 7786SOL    HW134994   2.938   4.676   0.232 -0.9543  0.9279 -0.9042
 7786SOL    HW234995   2.969   4.736   0.100  1.0907 -0.5382 -1.5573
 7787SOL     OW34996   3.935   2.315   2.022 -0.0664  0.3995 -0.0539
 7787SOL    HW134997   3.934   2.396   1.971 -1.6371  0.5308  0.1943
 7787SOL    HW234998   3.875   2.259   1.973  1.0867 -0.3632 -0.5838
 7788SOL     OW34999   2.528   2.071   6.256 -0.1500  0.5479  0.5080
 7788SOL    HW135000   2.552   2.119   6.177 -1.6532 -0.8172 -0.7804
 7788SOL    HW235001   2.557   2.132   6.323  1.2743 -0.7993  1.1189
 7789SOL     OW35002   4.250   0.103   9.664  0.8009 -0.2103 -0.1495
 7789SOL    HW135003   4.306   0.038   9.707 -0.4170 -0.6694  0.7388
 7789SOL    HW235004   4.166   0.105   9.709 -0.2758  0.5531 -2.1766
 7790SOL     OW35005   1.673   0.468   9.235 -0.3310 -0.0685  0.2623
 7790SOL    HW135006   1.724   0.508   9.165 -1.4216 -1.6117 -1.4187
 7790SOL    HW235007   1.698   0.376   9.232  1.7277  0.4134  3.3812
 7791SOL     OW35008   1.120   4.578   5.174  0.3731 -1.1816 -0.0137
 7791SOL    HW135009   1.140   4.522   5.099 -0.1507 -3.3540  1.4645
 7791SOL    HW235010   1.204   4.573   5.221  0.1257  1.0479  0.6469
 7792SOL     OW35011   2.148   2.684  17.581  0.2438  0.5255 -0.2324
 7792SOL    HW135012   2.233   2.719  17.609 -0.4324  2.0192 -0.0647
 7792SOL    HW235013   2.169   2.636  17.501 -1.2478  0.1422 -0.3974
 7793SOL     OW35014   0.101   0.722   2.251  0.1119  0.1742 -0.1703
 7793SOL    HW135015   0.175   0.667   2.225  0.2433  0.1075  0.3566
 7793SOL    HW235016   0.154   0.788   2.296  0.3253  1.0728 -1.7257
 7794SOL     OW35017   0.278   3.508   6.700  0.2000  0.2320 -0.1141
 7794SOL    HW135018   0.317   3.429   6.663 -4.4056 -1.3177 -1.6907
 7794SOL    HW235019   0.187   3.488   6.678  0.0812 -0.2481  0.8028
 7795SOL     OW35020   1.663   4.422   5.420 -0.0915 -0.0557 -0.0286
 7795SOL    HW135021   1.598   4.450   5.485 -0.5561  1.2966 -1.0586
 7795SOL    HW235022   1.670   4.332   5.449  0.2665  0.3683  1.2055
 7796SOL     OW35023   0.961   0.813   3.659  0.1586 -0.0524 -0.5596
 7796SOL    HW135024   0.886   0.756   3.649  0.9070 -1.1575  0.0880
 7796SOL    HW235025   0.918   0.890   3.697 -0.0219 -1.1206  1.3987
 7797SOL     OW35026   4.065   2.281  17.602  0.6321  0.0393  0.0865
 7797SOL    HW135027   4.031   2.240  17.681  0.6541 -2.7103 -1.3304
 7797SOL    HW235028   4.130   2.212  17.592  0.9068  0.2814  0.2105
 7798SOL     OW35029   1.098   2.808   9.592  0.7651 -0.4828 -0.2448
 7798SOL    HW135030   1.158   2.860   9.539  0.2200  1.0557  0.6464
 7798SOL    HW235031   1.090   2.731   9.535  0.1496  0.6170 -1.6351
 7799SOL     OW35032   2.554   1.903   2.656 -0.1991 -0.5153  0.0966
 7799SOL    HW135033   2.585   1.918   2.745  0.3847 -0.8877 -0.0453
 7799SOL    HW235034   2.462   1.926   2.671  0.0264  1.8586 -2.2924
 7800SOL     OW35035   0.356   4.397   1.404 -0.1653  0.1970  0.3431
 7800SOL    HW135036   0.366   4.344   1.325  1.5433 -0.7959  1.2267
 7800SOL    HW235037   0.354   4.328   1.469  1.7122  0.0084  0.2055
 7801SOL     OW35038   1.858   4.030  12.358 -0.0301 -0.1122 -0.2604
 7801SOL    HW135039   1.879   4.108  12.306  0.1258 -1.3167 -2.0209
 7801SOL    HW235040   1.885   4.061  12.444  1.0944 -2.3831  0.2134
 7802SOL     OW35041   0.578   2.625   4.486  0.0987  0.1989  0.6944
 7802SOL    HW135042   0.508   2.689   4.476 -0.3918 -0.9895 -3.4033
 7802SOL    HW235043   0.530   2.542   4.489 -2.5855  1.7202 -0.8257
 7803SOL     OW35044   0.153   1.198   2.403 -0.0887  0.2256  0.4726
 7803SOL    HW135045   0.101   1.121   2.428 -0.6328  0.2430 -0.6293
 7803SOL    HW235046   0.153   1.247   2.485 -0.3892  0.4612  0.3320
 7804SOL     OW35047   1.612   4.524   2.435  0.2273 -0.2434  0.1152
 7804SOL    HW135048   1.598   4.466   2.361  1.2053  0.9277 -0.9839
 7804SOL    HW235049   1.559   4.472   2.495 -0.0328  1.2268  1.1729
 7805SOL     OW35050   1.624   1.552   6.262  0.4770 -0.1646  0.0104
 7805SOL    HW135051   1.546   1.510   6.298 -0.0069  1.9790  1.4957
 7805SOL    HW235052   1.591   1.633   6.221  0.7235  1.3399  2.7458
 7806SOL     OW35053   2.420   1.274  11.999 -0.3627  0.8552 -0.5560
 7806SOL    HW135054   2.459   1.210  11.940 -0.9609  1.5464 -1.6937
 7806SOL    HW235055   2.490   1.265  12.064 -0.1266 -0.0214 -0.9362
 7807SOL     OW35056   2.568   3.294   8.266  0.2369 -0.4438 -0.3387
 7807SOL    HW135057   2.514   3.249   8.201 -0.3041  1.5102 -1.2611
 7807SOL    HW235058   2.605   3.369   8.219  1.7362  0.6405  2.5418
 7808SOL     OW35059   2.377   1.541   1.251  0.7416  0.4023 -0.8694
 7808SOL    HW135060   2.296   1.489   1.250  2.3895 -2.2730  2.9266
 7808SOL    HW235061   2.446   1.477   1.267  0.2786 -0.2402 -1.4793
 7809SOL     OW35062   0.073   1.240   5.491 -0.1050 -0.0292 -0.0755
 7809SOL    HW135063   0.067   1.153   5.450 -0.4967 -0.6347  1.2588
 7809SOL    HW235064   0.164   1.263   5.471  0.0523 -2.5077 -2.1945
 7810SOL     OW35065   4.261   2.825   6.991 -0.6233  0.3539 -0.2712
 7810SOL    HW135066   4.291   2.748   7.039 -0.2897  1.2115  0.8668
 7810SOL    HW235067   4.252   2.786   6.903 -2.5705  1.0377 -0.3719
 7811SOL     OW35068   2.649   3.977   5.188 -0.6807  0.1646  0.2031
 7811SOL    HW135069   2.727   4.030   5.206 -2.2333  2.3848  0.3758
 7811SOL    HW235070   2.618   4.017   5.107  0.9195 -1.4456 -1.2062
 7812SOL     OW35071   1.152   0.491  14.801 -0.3113 -0.7378 -0.2143
 7812SOL    HW135072   1.203   0.460  14.876  2.9520 -0.4806 -2.3487
 7812SOL    HW235073   1.071   0.441  14.814 -1.1844  0.2240 -1.9567
 7813SOL     OW35074   4.206   0.412   2.889  0.2415  0.1202 -0.5544
 7813SOL    HW135075   4.292   0.448   2.872  0.6081  0.1062  1.2603
 7813SOL    HW235076   4.213   0.358   2.968  1.2197  0.0066 -0.7294
 7814SOL     OW35077   4.105   2.308   6.461  0.2535  0.4190 -0.5285
 7814SOL    HW135078   4.017   2.343   6.474 -0.1636 -0.8113 -0.0514
 7814SOL    HW235079   4.082   2.218   6.441 -1.2340  0.1863  2.1350
 7815SOL     OW35080   3.942   2.748   8.503  0.1010  0.1213  0.2096
 7815SOL    HW135081   3.888   2.825   8.484 -0.5683 -0.1078  1.1649
 7815SOL    HW235082   3.919   2.682   8.438  1.5334 -0.5090  0.3356
 7816SOL     OW35083   4.417   3.891   6.920 -0.1541 -0.5081  0.1272
 7816SOL    HW135084   4.379   3.804   6.933  0.7559 -1.0858 -1.0220
 7816SOL    HW235085   4.453   3.884   6.832 -2.2377 -0.0977 -0.7385
 7817SOL     OW35086   0.899   0.957  12.935  0.4117  0.5290 -0.5712
 7817SOL    HW135087   0.805   0.955  12.956  0.6383  1.6312  0.5043
 7817SOL    HW235088   0.933   0.984  13.020 -0.8024 -0.9971  0.4215
 7818SOL     OW35089   4.609   3.341   4.323  0.2166  0.2026 -0.2019
 7818SOL    HW135090   4.644   3.405   4.386 -0.3282 -0.7661  1.0877
 7818SOL    HW235091   4.636   3.375   4.238 -1.2719  2.1915  0.1054
 7819SOL     OW35092   2.679   1.331  11.803 -0.1949  0.0128  0.0293
 7819SOL    HW135093   2.663   1.325  11.709  1.2318  0.6251 -0.2458
 7819SOL    HW235094   2.661   1.240  11.827 -0.3321  0.2457  0.8273
 7820SOL     OW35095   1.750   4.583  15.480  0.7928  0.2851 -0.0841
 7820SOL    HW135096   1.755   4.617  15.569  1.5488 -0.0872  0.0148
 7820SOL    HW235097   1.830   4.530  15.477 -2.1631 -4.1106 -0.2577
 7821SOL     OW35098   4.230   1.438   2.291  0.2253 -0.0718 -0.3740
 7821SOL    HW135099   4.224   1.417   2.385  0.1100 -1.6557 -0.7385
 7821SOL    HW235100   4.179   1.518   2.299 -2.7912 -2.0466 -0.0750
 7822SOL     OW35101   2.411   2.035   0.970  0.2488 -0.4637  0.1079
 7822SOL    HW135102   2.440   1.944   0.962 -1.4049 -0.9838  0.1139
 7822SOL    HW235103   2.418   2.050   1.065  0.7119 -1.1842  0.1879
 7823SOL     OW35104   1.974   2.132   4.404 -0.4605  0.2604  0.3930
 7823SOL    HW135105   1.944   2.113   4.493 -0.2546  1.9433  0.8212
 7823SOL    HW235106   1.972   2.045   4.365 -1.3030 -0.1139  1.2655
 7824SOL     OW35107   3.750   0.275   6.780  0.1488 -0.3529  0.0763
 7824SOL    HW135108   3.827   0.328   6.799  0.6046 -0.9761 -0.0440
 7824SOL    HW235109   3.773   0.232   6.698  1.2632 -0.4483  0.4384
 7825SOL     OW35110   4.301   4.252  15.589 -0.3421 -0.0212  0.2487
 7825SOL    HW135111   4.265   4.184  15.533 -0.6115 -0.4866  0.9800
 7825SOL    HW235112   4.392   4.227  15.605  0.1594  1.9816  0.5603
 7826SOL     OW35113   1.600   2.476   3.385  0.2224  0.1978 -0.0213
 7826SOL    HW135114   1.672   2.540   3.386  0.8090 -0.4599  0.0813
 7826SOL    HW235115   1.585   2.472   3.480 -1.6168 -0.1857 -0.3391
 7827SOL     OW35116   2.243   1.777   7.493  0.1363 -0.7916 -0.1915
 7827SOL    HW135117   2.257   1.685   7.513 -0.0499 -0.8222 -0.2029
 7827SOL    HW235118   2.276   1.820   7.572  2.6017 -2.6677 -0.2016
 7828SOL     OW35119   4.402   2.300   5.541  0.5268  0.2908 -0.3324
 7828SOL    HW135120   4.329   2.239   5.535 -0.6324  1.3463  2.8095
 7828SOL    HW235121   4.364   2.355   5.610 -3.9775 -1.2161 -1.6436
 7829SOL     OW35122   1.497   1.340   3.406 -0.2957 -0.3633  0.0487
 7829SOL    HW135123   1.503   1.431   3.379  1.5241 -0.3242  0.5898
 7829SOL    HW235124   1.412   1.337   3.450  0.4652 -3.3658  1.3221
 7830SOL     OW35125   4.573   4.146   1.953  0.4709 -0.0185  0.4052
 7830SOL    HW135126   4.617   4.188   2.026 -1.7081  3.3766 -0.2126
 7830SOL    HW235127   4.483   4.151   1.985 -0.9800  0.1256 -3.6655
 7831SOL     OW35128   3.121   3.965  15.794  0.0462  0.0208  0.2891
 7831SOL    HW135129   3.112   4.039  15.732 -1.6478  0.6210  1.2452
 7831SOL    HW235130   3.197   4.001  15.839 -0.3071 -0.2296  1.0716
 7832SOL     OW35131   3.715   3.272  13.043 -0.1306  0.1669 -0.2011
 7832SOL    HW135132   3.725   3.279  13.138  3.8022 -0.3700 -0.5653
 7832SOL    HW235133   3.702   3.362  13.014  0.7832  0.9223  1.7291
 7833SOL     OW35134   1.641   1.407   3.839  0.2534  0.0136 -0.1603
 7833SOL    HW135135   1.599   1.474   3.786 -2.0866 -1.5702 -0.2841
 7833SOL    HW235136   1.670   1.348   3.769  1.1922 -0.3044  0.4887
 7834SOL     OW35137   2.915   2.576   2.008 -0.1241 -0.2655 -0.0450
 7834SOL    HW135138   2.913   2.540   2.096  0.0229 -0.4756 -0.1268
 7834SOL    HW235139   2.989   2.522   1.978 -0.1979 -0.4503  0.1071
 7835SOL     OW35140   0.351   2.337   6.147 -0.4564 -0.0371 -0.1527
 7835SOL    HW135141   0.283   2.356   6.081 -0.2501  2.4993  0.3893
 7835SOL    HW235142   0.360   2.410   6.209 -0.9419 -0.8899  0.9211
 7836SOL     OW35143   2.111   3.430   7.036  0.0776 -0.2782 -0.2948
 7836SOL    HW135144   2.020   3.418   7.062  0.2245 -1.3794 -0.2781
 7836SOL    HW235145   2.129   3.511   7.083  0.8638  0.6804 -2.2972
 7837SOL     OW35146   4.586   3.073   4.348 -0.4081 -0.8648  0.4471
 7837SOL    HW135147   4.577   3.163   4.318  0.8133 -1.0970 -0.5953
 7837SOL    HW235148   4.681   3.072   4.359 -0.5014  4.1985  1.4758
 7838SOL     OW35149   4.103   1.604   8.349  0.2995  0.7556 -0.2906
 7838SOL    HW135150   4.153   1.650   8.282  0.1593 -0.0679 -0.9613
 7838SOL    HW235151   4.025   1.580   8.299  0.7312  0.0970 -0.6411
 7839SOL     OW35152   3.971   0.044   5.793  0.0428 -0.0616 -0.1740
 7839SOL    HW135153   4.001   0.012   5.707 -0.2573  0.3696 -0.4418
 7839SOL    HW235154   3.996   0.136   5.787  2.6838 -0.8134 -0.7763
 7840SOL     OW35155   4.378   3.272   4.463  0.2601 -0.1298  0.2895
 7840SOL    HW135156   4.320   3.306   4.396  0.2006 -1.1858 -0.1920
 7840SOL    HW235157   4.462   3.293   4.423  0.1694  2.9279  1.7051
 7841SOL     OW35158   3.497   3.017   0.469 -0.8177  0.0831  0.2119
 7841SOL    HW135159   3.499   3.084   0.537 -1.2859  0.5119 -0.1950
 7841SOL    HW235160   3.519   3.079   0.399 -0.4985 -2.1441 -1.6583
 7842SOL     OW35161   0.837   0.456   7.148  0.0970 -0.4297  0.7484
 7842SOL    HW135162   0.801   0.479   7.234 -1.6596  0.3789 -0.2171
 7842SOL    HW235163   0.928   0.451   7.176  0.4501 -0.0213 -0.3197
 7843SOL     OW35164   3.689   3.745   2.593 -0.1376  0.0404 -0.0398
 7843SOL    HW135165   3.622   3.797   2.548 -1.6419 -2.4914 -0.6990
 7843SOL    HW235166   3.771   3.771   2.551 -1.1612  2.4811 -0.4982
 7844SOL     OW35167   0.582   0.925   8.921 -0.0553 -0.3202  0.3571
 7844SOL    HW135168   0.506   0.889   8.874  0.3532  0.1735 -0.6744
 7844SOL    HW235169   0.634   0.960   8.848  0.0178 -2.7247 -0.7807
 7845SOL     OW35170   0.814   4.045   5.165  0.2359 -0.0510 -0.3053
 7845SOL    HW135171   0.889   3.996   5.198 -0.2527 -2.0546 -2.2315
 7845SOL    HW235172   0.844   4.136   5.172 -0.9232  0.2448  0.6847
 7846SOL     OW35173   1.298   4.460   6.206  0.6451  0.0311  0.1838
 7846SOL    HW135174   1.380   4.420   6.178 -0.6357 -0.7167 -2.4834
 7846SOL    HW235175   1.329   4.525   6.269  0.2533 -0.0157  0.4243
 7847SOL     OW35176   2.652   2.509   1.358  0.5410  0.1024  0.0869
 7847SOL    HW135177   2.596   2.436   1.385  0.0319  0.6289  0.4613
 7847SOL    HW235178   2.736   2.464   1.359  1.0517  1.0441 -0.5584
 7848SOL     OW35179   4.203   3.853   7.309 -0.5494  0.2243 -0.0805
 7848SOL    HW135180   4.171   3.935   7.346  0.6986  0.4698  0.4655
 7848SOL    HW235181   4.196   3.863   7.214 -0.4984 -1.7311 -0.2836
 7849SOL     OW35182   2.102   3.900  16.574 -0.0317 -0.3173  0.6975
 7849SOL    HW135183   2.105   3.825  16.515 -0.4876  0.8219 -0.7517
 7849SOL    HW235184   2.148   3.966  16.524  0.1678 -0.6982  0.3773
 7850SOL     OW35185   0.306   3.395   4.869  0.4290 -0.3367  0.2934
 7850SOL    HW135186   0.352   3.472   4.903 -0.0914  0.4839 -0.8474
 7850SOL    HW235187   0.306   3.339   4.946  0.0906 -0.1396  0.4362
 7851SOL     OW35188   3.903   2.733   6.215  0.2670  0.5324 -0.1113
 7851SOL    HW135189   3.913   2.778   6.131  1.1661 -1.5429 -1.1216
 7851SOL    HW235190   3.837   2.788   6.256  0.9631  0.3415  1.2437
 7852SOL     OW35191   0.428   0.591   8.310  0.4884  0.1369  0.2030
 7852SOL    HW135192   0.358   0.566   8.249  1.0981 -1.0758 -0.0029
 7852SOL    HW235193   0.494   0.522   8.308 -0.8603 -1.2550  3.7502
 7853SOL     OW35194   1.158   1.785   5.736 -0.0078  0.6685 -0.2937
 7853SOL    HW135195   1.106   1.816   5.810 -1.8156  2.3695 -2.2942
 7853SOL    HW235196   1.192   1.866   5.698 -0.8471  0.8629 -0.6137
 7854SOL     OW35197   0.685   2.842   8.584  0.2467 -0.8593 -0.3154
 7854SOL    HW135198   0.686   2.890   8.667 -0.4563 -2.2111  0.4575
 7854SOL    HW235199   0.768   2.874   8.548 -0.7086  2.6868  0.5961
 7855SOL     OW35200   2.425   2.132   1.269  0.1999  0.1481 -0.6211
 7855SOL    HW135201   2.516   2.128   1.299  0.1406  0.7374 -0.3651
 7855SOL    HW235202   2.413   2.227   1.267  0.3828  0.1570 -1.6101
 7856SOL     OW35203   2.787   2.312  14.529  0.2000  0.1761  0.0325
 7856SOL    HW135204   2.848   2.261  14.476 -0.5019  0.0037 -0.6141
 7856SOL    HW235205   2.802   2.402  14.499 -2.3040  0.6139  0.1175
 7857SOL     OW35206   3.169   1.681   6.082  0.3735  0.3828  0.1598
 7857SOL    HW135207   3.225   1.657   6.156  0.5257  0.7694  0.1680
 7857SOL    HW235208   3.223   1.640   6.014  1.7938  0.1025  1.4650
 7858SOL     OW35209   0.365   1.844   4.325 -0.2626  0.0250  0.6945
 7858SOL    HW135210   0.307   1.906   4.281 -1.2171 -0.1287  1.7350
 7858SOL    HW235211   0.309   1.768   4.311 -0.0761  0.1640 -0.7903
 7859SOL     OW35212   4.054   1.411   4.652  0.2109 -0.2148  0.4269
 7859SOL    HW135213   3.973   1.361   4.655 -0.0350  0.0226 -2.1791
 7859SOL    HW235214   4.111   1.354   4.704  1.9148 -0.0692 -1.2710
 7860SOL     OW35215   0.834   1.816   6.994 -0.4086 -0.7975 -0.1119
 7860SOL    HW135216   0.773   1.879   7.033  1.0564 -1.0116  2.5296
 7860SOL    HW235217   0.782   1.772   6.927 -1.1360 -0.0287 -0.0493
 7861SOL     OW35218   1.436   4.291   6.713 -0.1749 -0.5173 -0.0621
 7861SOL    HW135219   1.530   4.294   6.732  0.0858 -0.2716 -1.3954
 7861SOL    HW235220   1.438   4.214   6.657 -0.0901 -1.0332  0.6488
 7862SOL     OW35221   3.412   0.761   0.890 -0.2022  0.5126  0.1023
 7862SOL    HW135222   3.489   0.781   0.835  1.7383 -0.2848  2.5511
 7862SOL    HW235223   3.367   0.722   0.815 -1.2123  0.1436  0.9191
 7863SOL     OW35224   1.445   1.080   3.327 -0.5974  0.4649  0.2646
 7863SOL    HW135225   1.437   1.157   3.384 -0.5199 -0.4616  1.5258
 7863SOL    HW235226   1.536   1.058   3.344  0.4718  2.3614 -2.9450
 7864SOL     OW35227   2.676   1.532   6.052  0.2677 -0.4550 -0.3554
 7864SOL    HW135228   2.711   1.471   5.988  2.6392 -1.1406  1.5573
 7864SOL    HW235229   2.753   1.589   6.063  0.4522 -0.8216  0.2530
 7865SOL     OW35230   0.162   4.517   0.780 -0.0174 -0.1984  1.0760
 7865SOL    HW135231   0.207   4.485   0.858 -0.3439 -1.3132  0.8043
 7865SOL    HW235232   0.125   4.434   0.747  0.2624  0.5770 -1.2058
 7866SOL     OW35233   0.330   2.172   4.452 -0.4019 -0.2316 -0.8572
 7866SOL    HW135234   0.292   2.131   4.530  1.9551 -1.3524 -0.2787
 7866SOL    HW235235   0.397   2.109   4.426 -1.4172 -1.1533 -1.2544
 7867SOL     OW35236   1.216   4.281   7.803  0.4943  0.2181 -0.0542
 7867SOL    HW135237   1.157   4.210   7.776  1.3164 -1.2363  1.9953
 7867SOL    HW235238   1.204   4.279   7.898  1.8677  1.1206  0.1320
 7868SOL     OW35239   2.431   3.353   6.274  0.3533 -0.6700 -0.4416
 7868SOL    HW135240   2.410   3.428   6.330  3.2471 -0.0087 -0.1937
 7868SOL    HW235241   2.527   3.363   6.270  0.5866 -1.8549  3.0700
 7869SOL     OW35242   3.859   0.711   2.346 -0.1836  0.4281  0.7035
 7869SOL    HW135243   3.772   0.676   2.362 -0.5852  2.2112  2.3571
 7869SOL    HW235244   3.858   0.716   2.250  1.7498 -0.0965  0.6413
 7870SOL     OW35245   3.105   1.803  12.310 -0.2950  0.0210 -0.4353
 7870SOL    HW135246   3.107   1.823  12.404  2.5496 -1.7485 -0.1215
 7870SOL    HW235247   3.011   1.819  12.307 -0.3627 -0.1621  0.6063
 7871SOL     OW35248   4.172   0.008  16.556 -0.5739  0.4411 -0.0844
 7871SOL    HW135249   4.141   0.022  16.467  0.8835 -1.1874 -0.8320
 7871SOL    HW235250   4.211   4.659  16.547 -0.4665  0.1723  2.8006
 7872SOL     OW35251   2.531   4.558   6.039 -0.2779 -0.5717  0.1299
 7872SOL    HW135252   2.513   4.652   6.033  0.6925 -0.2868  1.9575
 7872SOL    HW235253   2.481   4.536   6.117  0.8081  0.3130  1.0674
 7873SOL     OW35254   4.412   1.772   2.233 -0.1518  0.3790  0.2414
 7873SOL    HW135255   4.326   1.730   2.240  0.3216 -1.0611 -2.3486
 7873SOL    HW235256   4.382   1.859   2.209 -0.2552 -0.3858 -2.4007
 7874SOL     OW35257   3.466   0.870   5.119 -0.3059  0.1234  0.0987
 7874SOL    HW135258   3.378   0.836   5.135 -0.7619  0.0037 -2.6447
 7874SOL    HW235259   3.484   0.931   5.191 -3.5710 -0.0674  1.0908
 7875SOL     OW35260   2.226   3.234   8.259  0.4744  0.1706 -0.2433
 7875SOL    HW135261   2.290   3.210   8.191  1.4990  2.3489 -0.0664
 7875SOL    HW235262   2.286   3.259   8.330 -1.1125  0.0804  1.1089
 7876SOL     OW35263   4.411   0.318   4.413  0.2000 -0.0218 -0.6847
 7876SOL    HW135264   4.376   0.405   4.395  1.8216  0.3771 -1.9120
 7876SOL    HW235265   4.470   0.338   4.485 -1.4035 -0.4363  0.7559
 7877SOL     OW35266   0.762   3.279  17.586 -0.5825  0.2879 -0.3078
 7877SOL    HW135267   0.808   3.229  17.653 -0.7528  0.7216  0.1306
 7877SOL    HW235268   0.722   3.349  17.637 -2.4867 -0.2134 -1.1041
 7878SOL     OW35269   3.116   1.008   8.440 -0.0906  0.4115  0.1241
 7878SOL    HW135270   3.091   0.976   8.353  1.1431  1.6439 -0.7003
 7878SOL    HW235271   3.178   0.938   8.457  0.0349  0.5572  0.2654
 7879SOL     OW35272   1.123   0.097   3.257 -0.0935 -0.1217  0.5451
 7879SOL    HW135273   1.128   0.007   3.224  1.0419  0.4715 -0.8985
 7879SOL    HW235274   1.166   0.085   3.342 -0.0509 -1.0443  0.3965
 7880SOL     OW35275   1.754   4.302   5.766  0.2979  0.2830  0.0944
 7880SOL    HW135276   1.813   4.289   5.840  0.9642  1.3469 -0.2369
 7880SOL    HW235277   1.695   4.367   5.805  1.3330  0.4962  1.2974
 7881SOL     OW35278   1.520   0.263  15.410  0.0075 -0.0096 -0.3896
 7881SOL    HW135279   1.580   0.323  15.366 -1.1593  0.6127 -1.1523
 7881SOL    HW235280   1.495   0.307  15.491 -1.8431 -2.6394  0.4955
 7882SOL     OW35281   3.718   2.954   5.826 -0.2100  0.3068  0.7400
 7882SOL    HW135282   3.660   2.936   5.900 -1.1146 -1.4969 -0.4211
 7882SOL    HW235283   3.653   2.942   5.757  1.7427  1.2761 -1.2517
 7883SOL     OW35284   2.642   1.887  10.048  0.4004 -0.3265  0.3457
 7883SOL    HW135285   2.596   1.820  10.100  0.5302  1.0961  2.2842
 7883SOL    HW235286   2.660   1.948  10.119  0.3689  1.2375 -1.0077
 7884SOL     OW35287   1.619   3.518   4.229  0.3281 -0.2692  0.5110
 7884SOL    HW135288   1.577   3.469   4.300  0.7002 -1.0204  0.2073
 7884SOL    HW235289   1.699   3.545   4.273  0.4626  1.6446 -0.8948
 7885SOL     OW35290   2.347   3.975   5.291  0.0279 -0.3160 -0.4993
 7885SOL    HW135291   2.420   3.943   5.344  1.0370  0.5088 -1.3820
 7885SOL    HW235292   2.349   4.067   5.316  2.2755 -0.4938 -0.0298
 7886SOL     OW35293   1.871   0.101   5.975  0.0516 -0.2049 -0.0605
 7886SOL    HW135294   1.778   0.096   5.999  0.6347 -0.1816  2.1948
 7886SOL    HW235295   1.876   0.193   5.949  0.5525 -0.1923  0.0851
 7887SOL     OW35296   3.995   0.462   3.132 -0.0567 -0.0124 -0.0807
 7887SOL    HW135297   4.009   0.464   3.038  2.5047  0.2843  0.3032
 7887SOL    HW235298   3.917   0.516   3.150 -0.2599 -0.2439 -0.2810
 7888SOL     OW35299   1.551   2.066   1.276  0.1498  0.0843  0.6815
 7888SOL    HW135300   1.469   2.114   1.288 -0.0721 -0.9729  3.3084
 7888SOL    HW235301   1.537   1.980   1.316 -1.7756  0.3054  0.4942
 7889SOL     OW35302   4.316   0.871  14.472  0.8145  0.0133  0.2219
 7889SOL    HW135303   4.337   0.860  14.565  0.2195 -1.5846  0.1649
 7889SOL    HW235304   4.269   0.954  14.467  0.0596 -0.4202  0.1861
 7890SOL     OW35305   1.423   1.412   5.552  0.0592 -0.0374 -0.5192
 7890SOL    HW135306   1.406   1.327   5.592  0.5121  0.5904  1.0104
 7890SOL    HW235307   1.514   1.436   5.570  0.5074 -1.1041 -1.4001
 7891SOL     OW35308   1.734   0.132   3.182  0.0864  0.7229  0.3742
 7891SOL    HW135309   1.802   0.121   3.115  0.9232  2.9400  0.8351
 7891SOL    HW235310   1.735   0.043   3.216  0.5665  1.1843  1.5495
 7892SOL     OW35311   1.893   0.963  13.746 -1.1688 -0.1832  0.5705
 7892SOL    HW135312   1.817   0.966  13.688 -0.1345 -3.1387 -0.9312
 7892SOL    HW235313   1.857   0.965  13.834 -2.0545  0.1298  0.1974
 7893SOL     OW35314   3.075   0.507   8.730  0.1255  0.4590  0.9418
 7893SOL    HW135315   3.069   0.498   8.635 -0.6129  0.4315  0.9908
 7893SOL    HW235316   3.112   0.595   8.742  0.1123  0.2941  2.2186
 7894SOL     OW35317   3.074   1.833   3.879 -0.1961 -0.1352  0.0568
 7894SOL    HW135318   3.056   1.892   3.952  0.1157  0.7890 -0.6148
 7894SOL    HW235319   3.092   1.892   3.806 -2.4093  0.1233 -0.2791
 7895SOL     OW35320   1.156   2.886   6.429  0.3888  0.1004 -1.0315
 7895SOL    HW135321   1.092   2.831   6.475  0.7079  0.5666 -0.0413
 7895SOL    HW235322   1.233   2.866   6.481 -0.6041 -1.5085 -0.1920
 7896SOL     OW35323   3.324   0.071   8.002 -0.2746  0.0484 -0.2230
 7896SOL    HW135324   3.361   0.085   7.915 -0.6310 -0.1103 -0.3985
 7896SOL    HW235325   3.317   4.713   7.994  0.8137 -0.0398 -0.1614
 7897SOL     OW35326   0.495   0.328   6.150 -0.1652  0.5866 -0.0032
 7897SOL    HW135327   0.551   0.285   6.085  0.2134 -0.2744  0.9078
 7897SOL    HW235328   0.505   0.263   6.219  1.8664  0.3888 -0.4630
 7898SOL     OW35329   2.337   4.033  10.779  0.0644 -0.2899  0.1937
 7898SOL    HW135330   2.251   4.073  10.779  1.1541  2.0477  3.0111
 7898SOL    HW235331   2.312   3.950  10.738 -0.2346 -1.2291  2.2616
 7899SOL     OW35332   3.585   0.981  12.770  0.5505  0.5298  0.1097
 7899SOL    HW135333   3.671   0.991  12.728  1.1349  1.1772  1.4780
 7899SOL    HW235334   3.601   1.012  12.859 -0.7681  1.8330 -0.1114
 7900SOL     OW35335   3.508   0.894   5.933 -0.1700  0.1766 -0.4937
 7900SOL    HW135336   3.571   0.878   6.003 -0.1594  1.5275 -0.1948
 7900SOL    HW235337   3.551   0.965   5.885  0.1530  0.0221 -0.4337
 7901SOL     OW35338   1.666   2.993   9.008 -0.3101  0.3476 -0.3806
 7901SOL    HW135339   1.580   2.969   9.042  0.0257 -0.3038  0.0170
 7901SOL    HW235340   1.648   3.087   8.995 -0.3960  0.6429  1.7899
 7902SOL     OW35341   1.188   2.824  17.389  0.1603 -0.2396 -0.0762
 7902SOL    HW135342   1.246   2.770  17.443 -2.2000 -1.3402  1.3289
 7902SOL    HW235343   1.105   2.817  17.435 -0.0257  0.4507 -0.2982
 7903SOL     OW35344   4.143   3.927   5.634 -0.2409  0.1224 -0.0865
 7903SOL    HW135345   4.144   4.010   5.681  0.2043  1.2056 -2.0207
 7903SOL    HW235346   4.053   3.900   5.648  0.1928 -1.6137 -0.6087
 7904SOL     OW35347   1.309   4.431   0.953 -0.3563 -0.1291  0.8055
 7904SOL    HW135348   1.358   4.357   0.918  0.5244  1.0389 -0.4340
 7904SOL    HW235349   1.221   4.399   0.933  0.5025 -0.9563 -1.6077
 7905SOL     OW35350   2.312   2.879  12.105  0.3682 -0.2883  0.4608
 7905SOL    HW135351   2.371   2.905  12.034 -2.9629 -0.3582 -2.3264
 7905SOL    HW235352   2.342   2.789  12.118 -2.1171 -1.3834 -1.3812
 7906SOL     OW35353   0.265   0.166   3.595  0.0684  0.1207  0.7541
 7906SOL    HW135354   0.262   0.071   3.600  0.6615  0.0403 -0.4577
 7906SOL    HW235355   0.288   0.190   3.685 -0.5615  0.2403  0.8796
 7907SOL     OW35356   1.588   2.510   1.419 -0.0065 -0.2477  0.2472
 7907SOL    HW135357   1.639   2.549   1.348 -0.5653  0.7597  0.3976
 7907SOL    HW235358   1.640   2.435   1.447  2.3988  1.2640 -0.2055
 7908SOL     OW35359   0.683   2.126   8.646 -0.4663  0.1879 -0.2928
 7908SOL    HW135360   0.765   2.099   8.606 -1.8518 -1.8554 -1.7621
 7908SOL    HW235361   0.698   2.213   8.683 -0.2455 -0.0469  0.1668
 7909SOL     OW35362   2.096   0.503  16.960  0.0058 -0.2695  0.5505
 7909SOL    HW135363   2.105   0.580  16.904  1.4040 -0.3543  0.6357
 7909SOL    HW235364   2.005   0.521  16.983 -0.2047  1.0107 -1.2774
 7910SOL     OW35365   2.424   1.366   2.920 -0.0788 -0.6880  0.3713
 7910SOL    HW135366   2.330   1.357   2.933 -0.4861 -0.1098 -2.0775
 7910SOL    HW235367   2.428   1.457   2.892  0.7433 -0.8502 -0.0585
 7911SOL     OW35368   3.473   4.735   7.423 -0.1021  0.1009  0.3553
 7911SOL    HW135369   3.494   4.654   7.377 -0.4029 -0.2571  0.8535
 7911SOL    HW235370   3.431   4.696   7.500  1.1278 -1.4244  0.2456
 7912SOL     OW35371   0.365   3.788   5.820  0.7705 -0.0789  0.0799
 7912SOL    HW135372   0.384   3.882   5.814  2.9162 -0.4279  1.1373
 7912SOL    HW235373   0.324   3.763   5.737  0.6772 -1.3362  0.5110
 7913SOL     OW35374   3.212   0.599  15.987 -0.3272  0.0367 -0.3835
 7913SOL    HW135375   3.196   0.648  16.068 -0.8837 -0.3033 -0.2922
 7913SOL    HW235376   3.159   0.524  16.013 -0.2141  0.2395  0.4582
 7914SOL     OW35377   3.024   3.662   4.567 -0.0229  0.3306  0.5579
 7914SOL    HW135378   3.116   3.676   4.589  0.2321 -2.3729  1.1956
 7914SOL    HW235379   2.992   3.589   4.619 -0.8110  0.7037  0.5986
 7915SOL     OW35380   1.428   2.872   8.605 -0.5823 -0.1544 -0.3143
 7915SOL    HW135381   1.520   2.883   8.583 -0.0579 -0.9739  1.4563
 7915SOL    HW235382   1.422   2.823   8.688 -0.2416 -0.4290 -0.4527
 7916SOL     OW35383   3.850   0.824   8.679 -0.4509  0.8368  0.2389
 7916SOL    HW135384   3.786   0.895   8.674 -2.8337 -1.3308  0.3239
 7916SOL    HW235385   3.919   0.879   8.642  1.8412 -1.6447  0.8631
 7917SOL     OW35386   2.567   2.530   5.642 -0.1808  0.5508 -0.4019
 7917SOL    HW135387   2.575   2.621   5.671  0.7441  0.5038 -0.5269
 7917SOL    HW235388   2.547   2.538   5.549  3.9808 -0.6800 -1.3741
 7918SOL     OW35389   1.069   0.219   7.337 -0.3348  0.4274 -0.0404
 7918SOL    HW135390   1.034   0.195   7.423 -2.2499  0.0067 -0.9413
 7918SOL    HW235391   1.089   0.310   7.358  0.5611  0.1525  0.2808
 7919SOL     OW35392   3.507   2.632   0.852  0.1092 -0.3637 -0.6296
 7919SOL    HW135393   3.474   2.650   0.940 -1.5906  1.6471 -1.6874
 7919SOL    HW235394   3.595   2.668   0.864  0.3832 -1.7765  1.6593
 7920SOL     OW35395   3.709   2.351   3.226  0.0311 -0.2337 -0.2264
 7920SOL    HW135396   3.708   2.255   3.218  1.8226 -0.2027 -0.8701
 7920SOL    HW235397   3.639   2.378   3.168 -1.0578 -3.7354 -0.5316
 7921SOL     OW35398   3.737   4.149   8.785  0.3454 -0.0855  0.3925
 7921SOL    HW135399   3.645   4.145   8.757  0.1216  0.6743  1.0003
 7921SOL    HW235400   3.744   4.112   8.873  0.0987 -0.3952  0.2811
 7922SOL     OW35401   2.181   2.336   2.753  0.1445  0.2750 -0.1269
 7922SOL    HW135402   2.104   2.324   2.697 -1.0973 -0.1927  1.6938
 7922SOL    HW235403   2.248   2.327   2.685 -0.4377  1.0718 -0.8093
 7923SOL     OW35404   0.841   0.953   6.863  0.7641  0.8438  0.1009
 7923SOL    HW135405   0.902   0.950   6.789  1.7802  2.5887  0.8489
 7923SOL    HW235406   0.817   1.046   6.865  1.1185  0.9287  0.5322
 7924SOL     OW35407   1.313   3.379  11.680  0.0078 -0.3517 -0.5184
 7924SOL    HW135408   1.408   3.390  11.677  0.1852 -1.4041  1.3634
 7924SOL    HW235409   1.291   3.423  11.598 -1.6202 -3.0453 -1.5286
 7925SOL     OW35410   4.458   1.255   5.870  0.3965  0.4424 -0.5643
 7925SOL    HW135411   4.487   1.345   5.884 -0.2393  0.3736  1.2549
 7925SOL    HW235412   4.542   1.222   5.837 -1.1426 -2.8412 -1.1696
 7926SOL     OW35413   4.368   3.864  16.348 -0.4942 -0.5694 -0.7309
 7926SOL    HW135414   4.317   3.896  16.422 -0.8220 -1.4938 -0.5650
 7926SOL    HW235415   4.346   3.771  16.341 -0.4731 -0.6669  0.5959
 7927SOL     OW35416   1.174   1.195   9.159  0.3452  0.4954  0.2180
 7927SOL    HW135417   1.169   1.268   9.220 -0.0462 -0.5731  1.4648
 7927SOL    HW235418   1.118   1.236   9.093 -0.9466 -0.7442  0.5355
 7928SOL     OW35419   1.922   2.137   5.595 -0.5398  0.6874 -0.4857
 7928SOL    HW135420   1.979   2.061   5.581  0.1776  1.3609 -1.2035
 7928SOL    HW235421   1.950   2.149   5.686 -1.1870 -0.0226 -0.1903
 7929SOL     OW35422   2.832   0.551  12.934 -0.2334 -0.1877  0.1422
 7929SOL    HW135423   2.763   0.484  12.928 -1.8365  1.4722  0.0264
 7929SOL    HW235424   2.854   0.572  12.843  3.4490  1.2810  1.3673
 7930SOL     OW35425   4.363   2.174   0.130  0.2211  0.0524  0.3752
 7930SOL    HW135426   4.353   2.268   0.144 -1.2013 -0.0464 -0.0150
 7930SOL    HW235427   4.316   2.131   0.202  0.4839  0.6722  0.9095
 7931SOL     OW35428   0.241   2.358   1.889 -0.4969 -0.6435  0.0443
 7931SOL    HW135429   0.292   2.342   1.969  0.2225  0.5625 -0.1704
 7931SOL    HW235430   0.165   2.300   1.885 -1.4903  0.6983 -0.5645
 7932SOL     OW35431   3.842   1.899   3.279  0.5441  0.3253 -0.0871
 7932SOL    HW135432   3.857   1.993   3.289  0.6544  0.0228  2.4346
 7932SOL    HW235433   3.934   1.874   3.287  0.7428  0.9283 -0.4851
 7933SOL     OW35434   0.189   4.491   9.044  0.5349 -0.8080  0.4107
 7933SOL    HW135435   0.190   4.396   9.051 -2.1842 -0.7186  2.2479
 7933SOL    HW235436   0.134   4.522   9.116  0.6594  2.7748 -1.0112
 7934SOL     OW35437   0.317   3.148   3.516  0.3561 -0.1521  0.0102
 7934SOL    HW135438   0.310   3.059   3.549 -1.4629 -0.5043 -1.2819
 7934SOL    HW235439   0.316   3.194   3.600  0.7596 -1.6883  0.8391
 7935SOL     OW35440   0.392   1.270   6.561  0.5160  0.4349  0.1451
 7935SOL    HW135441   0.327   1.337   6.537  1.3911  0.8798 -1.0253
 7935SOL    HW235442   0.337   1.191   6.553  1.1098  0.0180  0.2245
 7936SOL     OW35443   0.134   4.448   3.275  0.1329 -0.2240 -0.0378
 7936SOL    HW135444   0.162   4.402   3.354 -0.2178  1.2840  0.9740
 7936SOL    HW235445   0.042   4.468   3.294  0.4998  0.2846  1.2081
 7937SOL     OW35446   3.816   4.120  16.983 -0.0152  0.5621  0.4183
 7937SOL    HW135447   3.736   4.084  16.945  0.1075  0.2850  0.4182
 7937SOL    HW235448   3.841   4.181  16.914 -0.2154 -0.0292 -0.1723
 7938SOL     OW35449   0.656   4.700   3.925 -0.3403 -0.2670  0.3709
 7938SOL    HW135450   0.601   4.717   4.002 -1.4331 -3.1060  0.2125
 7938SOL    HW235451   0.710   0.042   3.925  0.1209 -0.5790 -0.6243
 7939SOL     OW35452   1.773   1.694   9.271  0.1659  0.0173 -0.5209
 7939SOL    HW135453   1.795   1.758   9.338 -1.3272  0.7230 -0.7123
 7939SOL    HW235454   1.855   1.661   9.233  0.0469 -0.6777 -0.1703
 7940SOL     OW35455   3.289   2.456   6.074  0.0394  0.0039 -0.0867
 7940SOL    HW135456   3.252   2.522   6.134  1.2780  0.4244  0.2189
 7940SOL    HW235457   3.275   2.498   5.989 -0.2070 -0.4339 -0.2592
 7941SOL     OW35458   0.117   0.818   3.996  0.3391  0.4813  0.0514
 7941SOL    HW135459   0.179   0.883   4.029 -1.7976  1.4835  2.0945
 7941SOL    HW235460   0.049   0.813   4.063 -1.1022 -1.6849 -1.5728
 7942SOL     OW35461   4.219   2.356   7.459 -0.0290 -0.0282 -0.2084
 7942SOL    HW135462   4.212   2.336   7.366 -2.3310 -1.0928  0.2094
 7942SOL    HW235463   4.261   2.440   7.439  1.1108 -0.5610 -0.0500
 7943SOL     OW35464   1.087   1.905   3.540  0.1807 -0.2972  0.4758
 7943SOL    HW135465   1.008   1.923   3.591 -1.3288 -0.7823 -1.7060
 7943SOL    HW235466   1.114   1.995   3.520 -0.3931 -0.8306 -2.6193
 7944SOL     OW35467   2.355   4.733   4.811 -0.0152 -0.1092 -0.4970
 7944SOL    HW135468   2.331   4.733   4.718  0.7638 -0.2716 -0.6971
 7944SOL    HW235469   2.412   4.655   4.816 -0.8209 -0.7649 -1.4701
 7945SOL     OW35470   1.052   1.745   4.508 -0.2033  0.2144 -0.1049
 7945SOL    HW135471   1.051   1.659   4.549  1.1412 -0.6541 -1.9025
 7945SOL    HW235472   1.009   1.777   4.588 -0.2319 -3.0923  1.1871
 7946SOL     OW35473   3.230   0.898   7.234 -0.0907  0.0441 -0.2920
 7946SOL    HW135474   3.216   0.988   7.206 -0.1592  0.5226  1.2883
 7946SOL    HW235475   3.316   0.901   7.275 -1.0926 -2.2381  2.0491
 7947SOL     OW35476   0.043   1.648  15.535  0.3162 -0.3869  0.2389
 7947SOL    HW135477   0.001   1.570  15.573 -1.0267 -0.3130 -1.0706
 7947SOL    HW235478   0.128   1.610  15.515 -0.0367 -0.5321 -0.9712
 7948SOL     OW35479   4.002   1.265   1.934 -0.1354  0.0556  0.2827
 7948SOL    HW135480   3.992   1.245   2.027  2.1250 -0.7907  0.3541
 7948SOL    HW235481   4.094   1.253   1.908 -0.3033 -0.1514 -0.2103
 7949SOL     OW35482   0.069   2.219  14.271  0.1755 -0.3708  0.2594
 7949SOL    HW135483   0.152   2.188  14.306  0.3618 -0.2858 -0.1051
 7949SOL    HW235484   0.004   2.199  14.338 -0.7902 -0.9830 -0.8415
 7950SOL     OW35485   3.247   0.553  17.459  0.9037 -1.2249  0.1294
 7950SOL    HW135486   3.294   0.494  17.400  2.0992 -0.3868  0.2351
 7950SOL    HW235487   3.169   0.500  17.478  2.4639 -4.6088 -2.9578
 7951SOL     OW35488   0.913   0.081   5.708 -0.4687  0.5155  0.4733
 7951SOL    HW135489   0.911   4.723   5.710  1.7231  0.4106 -2.2215
 7951SOL    HW235490   0.827   0.104   5.674  0.3857  1.8969 -0.7706
 7952SOL     OW35491   2.389   1.420   1.855  0.6484  0.5385  0.0047
 7952SOL    HW135492   2.481   1.407   1.834  0.7545 -0.3693  1.0327
 7952SOL    HW235493   2.357   1.405   1.766  0.8055  0.1182  0.0211
 7953SOL     OW35494   2.734   2.472  14.201  0.4918  0.7518 -0.2504
 7953SOL    HW135495   2.650   2.429  14.217  0.7767  0.8210  1.4261
 7953SOL    HW235496   2.739   2.459  14.106 -0.0801  0.0841 -0.1878
 7954SOL     OW35497   3.552   3.571   5.245 -0.4925 -0.1841 -0.0563
 7954SOL    HW135498   3.497   3.497   5.271 -0.9537  1.1082  2.6344
 7954SOL    HW235499   3.568   3.606   5.333 -0.5017  0.9378 -0.5108
 7955SOL     OW35500   0.093   4.578   0.295  0.0596 -0.1362 -0.0586
 7955SOL    HW135501   0.145   4.554   0.218  0.3391 -0.5829  0.2624
 7955SOL    HW235502   0.023   4.513   0.302  1.3299 -1.5028 -0.0261
 7956SOL     OW35503   2.669   3.776   1.948 -0.1873  0.3688  0.5509
 7956SOL    HW135504   2.669   3.845   1.882  0.0674 -0.8270 -0.6834
 7956SOL    HW235505   2.575   3.767   1.965  0.0670 -1.8456  0.7753
 7957SOL     OW35506   2.156   1.689   8.044  0.0039  0.1874 -0.5055
 7957SOL    HW135507   2.090   1.652   7.986  0.7414 -1.3299 -0.3567
 7957SOL    HW235508   2.107   1.711   8.123 -2.7977 -1.3351 -1.8249
 7958SOL     OW35509   3.211   1.806   7.651  0.2622 -0.1421  0.0668
 7958SOL    HW135510   3.209   1.898   7.677 -0.8799  0.2828 -1.5336
 7958SOL    HW235511   3.156   1.808   7.573 -0.0564  0.4237  0.3033
 7959SOL     OW35512   3.767   3.503   6.316  0.0523 -0.1111 -0.0433
 7959SOL    HW135513   3.688   3.503   6.370  1.0413  0.3162  1.3944
 7959SOL    HW235514   3.738   3.569   6.252  0.6464 -1.1136 -1.3551
 7960SOL     OW35515   1.762   3.638   1.925 -0.3492  0.3798  0.3428
 7960SOL    HW135516   1.831   3.592   1.972  0.5609  0.8506 -0.5521
 7960SOL    HW235517   1.814   3.682   1.858 -1.2211  0.4815 -0.2712
 7961SOL     OW35518   3.765   0.111   7.861 -0.7225 -0.7752  0.2852
 7961SOL    HW135519   3.728   0.133   7.775  1.4849 -0.2314 -0.5218
 7961SOL    HW235520   3.702   0.158   7.915 -0.5678 -1.0840  0.7416
 7962SOL     OW35521   3.065   2.116  16.667  0.0284  0.0819  0.1739
 7962SOL    HW135522   3.154   2.121  16.634  0.8202  1.5400  2.5256
 7962SOL    HW235523   3.030   2.206  16.668  0.6166  0.3046  0.9991
 7963SOL     OW35524   2.861   1.357   9.010 -0.6386  0.2509 -0.0619
 7963SOL    HW135525   2.931   1.292   9.011 -1.8243 -1.0522 -2.0995
 7963SOL    HW235526   2.869   1.378   8.917  2.3038  1.8749  0.5662
 7964SOL     OW35527   4.325   2.050   8.701  0.3911  0.0309 -0.7017
 7964SOL    HW135528   4.421   2.060   8.704  0.6787 -1.9170 -3.4517
 7964SOL    HW235529   4.316   1.974   8.758 -0.5918  0.1377 -0.7288
 7965SOL     OW35530   4.076   2.474   1.677 -0.3823 -0.5121  0.0163
 7965SOL    HW135531   4.158   2.495   1.632 -0.7078 -1.0424 -0.8269
 7965SOL    HW235532   4.112   2.405   1.733 -2.5750 -1.2410  0.5441
 7966SOL     OW35533   3.911   0.801  16.542  0.0590 -0.1710  0.6541
 7966SOL    HW135534   3.909   0.786  16.636  1.1910 -1.3630  0.4814
 7966SOL    HW235535   3.993   0.755  16.526 -0.1049  0.2840 -1.5942
 7967SOL     OW35536   2.701   3.437   8.031 -0.3231 -0.4784  0.0290
 7967SOL    HW135537   2.768   3.501   8.006 -0.4112 -0.8997 -1.2574
 7967SOL    HW235538   2.674   3.407   7.944 -0.3925 -2.4060  0.7043
 7968SOL     OW35539   3.350   1.185  12.258  0.1515  0.7627 -0.3370
 7968SOL    HW135540   3.304   1.246  12.201  1.0381  0.6529 -1.1636
 7968SOL    HW235541   3.443   1.209  12.260  0.2455  0.4560 -1.1592
 7969SOL     OW35542   2.413   0.546   5.116 -0.5006 -0.5288  0.2696
 7969SOL    HW135543   2.396   0.454   5.136  1.4184 -1.0732 -0.6384
 7969SOL    HW235544   2.390   0.585   5.200 -2.1017 -1.5702  0.3143
 7970SOL     OW35545   0.970   1.183   7.667  0.5566 -0.4795 -0.0283
 7970SOL    HW135546   1.024   1.249   7.624 -0.9820  1.2281  0.6521
 7970SOL    HW235547   1.041   1.128   7.701 -0.0482 -0.8087  0.7026
 7971SOL     OW35548   0.991   1.669   4.236 -0.1746 -0.0439 -0.2703
 7971SOL    HW135549   0.896   1.659   4.231 -0.2285  0.7245 -0.8393
 7971SOL    HW235550   1.007   1.677   4.330 -1.6132  1.3907 -0.1360
 7972SOL     OW35551   2.932   3.086   2.864 -0.3119  0.0688 -0.4994
 7972SOL    HW135552   2.905   3.104   2.954  1.5236  0.1138  0.0526
 7972SOL    HW235553   3.011   3.138   2.849  1.2501 -2.2415 -0.3971
 7973SOL     OW35554   0.630   1.743   8.217  0.5424  0.1639  0.0942
 7973SOL    HW135555   0.541   1.716   8.195  0.8907 -1.2634  0.4357
 7973SOL    HW235556   0.658   1.772   8.130 -1.6951 -0.3624 -0.8037
 7974SOL     OW35557   1.708   4.585   3.252  0.0579 -0.1851  0.2352
 7974SOL    HW135558   1.671   4.497   3.247 -2.0630  0.7688 -1.2264
 7974SOL    HW235559   1.795   4.547   3.239 -1.0480 -2.2717 -1.1918
 7975SOL     OW35560   1.927   1.688   8.347  0.3282  0.3639 -0.2632
 7975SOL    HW135561   1.883   1.722   8.269 -0.5467 -0.1014  0.0222
 7975SOL    HW235562   2.012   1.731   8.348  0.8745 -0.7067 -0.9831
 7976SOL     OW35563   2.113   2.544   5.555 -0.2746 -0.0040 -0.1639
 7976SOL    HW135564   2.073   2.534   5.641 -2.4787  0.3013 -1.1608
 7976SOL    HW235565   2.169   2.619   5.574 -1.1261  0.5413  0.2165
 7977SOL     OW35566   2.928   3.156   6.499  0.1203 -0.1007 -0.9715
 7977SOL    HW135567   2.935   3.249   6.476 -2.2749  0.3836  0.2333
 7977SOL    HW235568   2.862   3.129   6.436 -1.7708 -0.1798  1.0357
 7978SOL     OW35569   1.448   2.736   8.831  0.4852  0.0745 -0.4471
 7978SOL    HW135570   1.497   2.778   8.901 -0.1980 -1.6619  1.0870
 7978SOL    HW235571   1.365   2.732   8.878  2.1260 -0.0942  2.4208
 7979SOL     OW35572   0.938   0.510   4.597 -0.3190 -0.5064  0.3307
 7979SOL    HW135573   1.027   0.490   4.626 -0.7883 -1.9500  0.7632
 7979SOL    HW235574   0.928   0.605   4.602  0.1593 -0.3956 -0.9514
 7980SOL     OW35575   1.144   1.340   7.535  0.4260  0.0329 -0.1305
 7980SOL    HW135576   1.226   1.387   7.550  1.0252 -1.0541  0.0297
 7980SOL    HW235577   1.164   1.306   7.448  2.3909 -0.3759  0.5018
 7981SOL     OW35578   0.248   4.152   4.522  0.3098 -0.1004  0.0636
 7981SOL    HW135579   0.203   4.132   4.604  0.4081 -0.7671 -0.0453
 7981SOL    HW235580   0.291   4.232   4.550 -0.5497 -0.1086  1.4303
 7982SOL     OW35581   1.738   3.945  10.748 -0.1928 -0.1317  0.1000
 7982SOL    HW135582   1.814   3.886  10.747 -0.3355 -0.2719 -1.6275
 7982SOL    HW235583   1.669   3.884  10.722 -0.4166  0.6593 -1.1274
 7983SOL     OW35584   2.979   0.051  10.286  0.2699 -0.6184  0.5262
 7983SOL    HW135585   3.022   0.129  10.323 -2.2091 -0.0434  2.1751
 7983SOL    HW235586   3.035   0.019  10.216 -0.4378  1.5959 -1.0595
 7984SOL     OW35587   2.013   1.610   1.709 -0.6308 -0.1769 -0.0385
 7984SOL    HW135588   2.049   1.661   1.782 -0.0862  2.5905 -2.2278
 7984SOL    HW235589   2.093   1.565   1.683  0.0380  0.6599  0.5696
 7985SOL     OW35590   1.542   1.397   1.873  0.0589 -0.5169  0.4066
 7985SOL    HW135591   1.580   1.311   1.889  0.4577 -0.1035  1.7205
 7985SOL    HW235592   1.609   1.440   1.926 -0.5493 -0.0212  0.7685
 7986SOL     OW35593   0.247   1.102  13.050 -0.0236 -0.1567  0.2484
 7986SOL    HW135594   0.291   1.135  13.128 -0.1987 -2.7798  1.4722
 7986SOL    HW235595   0.264   1.008  13.059  0.2109 -0.0868  0.5273
 7987SOL     OW35596   3.772   3.953   6.815  0.2986  0.2526  0.0469
 7987SOL    HW135597   3.788   3.859   6.805  1.0042  0.3824 -0.0103
 7987SOL    HW235598   3.860   3.989   6.812  1.0616 -1.6255 -0.4703
 7988SOL     OW35599   0.405   4.653   3.606  0.0485  0.5600 -0.1509
 7988SOL    HW135600   0.500   4.650   3.598 -0.0064 -0.9226 -0.2178
 7988SOL    HW235601   0.381   4.576   3.555  1.3506  0.5891 -0.8028
 7989SOL     OW35602   1.072   0.504  11.168  0.0227  0.0676 -0.6759
 7989SOL    HW135603   1.082   0.558  11.246 -1.6183 -0.0665 -0.3629
 7989SOL    HW235604   1.130   0.431  11.191 -0.2704  0.2466  0.6109
 7990SOL     OW35605   1.493   0.001  12.450  0.6498 -0.4269  0.0442
 7990SOL    HW135606   1.472   0.051  12.372 -0.6324  2.2789  2.1326
 7990SOL    HW235607   1.426   4.670  12.443 -0.9340  1.3387 -1.7791
 7991SOL     OW35608   2.198   4.047  13.043 -0.1411 -0.2742  0.1246
 7991SOL    HW135609   2.181   4.136  13.014 -1.8994 -1.1758 -1.6122
 7991SOL    HW235610   2.126   4.001  12.999 -0.1979  0.0069 -0.0748
 7992SOL     OW35611   1.049   2.647   7.638  0.4373  0.0017 -0.3476
 7992SOL    HW135612   1.066   2.592   7.715 -1.9534  0.3493  0.4373
 7992SOL    HW235613   1.006   2.722   7.679  0.6163  0.7783 -1.5902
 7993SOL     OW35614   0.970   4.013   7.079  0.4282  0.6153  0.1566
 7993SOL    HW135615   0.994   3.935   7.130 -1.1094  0.3591  0.4879
 7993SOL    HW235616   1.046   4.011   7.021  0.6414  0.2482  0.4466
 7994SOL     OW35617   0.600   2.737   9.422  0.2465  0.1049  0.1195
 7994SOL    HW135618   0.584   2.728   9.516 -0.8374 -0.9931 -0.1598
 7994SOL    HW235619   0.537   2.678   9.379  0.7888  0.4884 -1.2006
 7995SOL     OW35620   4.424   4.494   9.693 -0.1013  0.0026 -0.6304
 7995SOL    HW135621   4.393   4.418   9.644  0.9550 -1.1990  0.5570
 7995SOL    HW235622   4.499   4.522   9.641 -0.5438 -0.9863 -1.7870
 7996SOL     OW35623   3.076   1.903   2.181  0.6995 -0.1939  0.0825
 7996SOL    HW135624   3.024   1.855   2.116 -1.3068 -0.3868  1.8379
 7996SOL    HW235625   3.094   1.986   2.137 -1.1972 -0.4924 -1.2434
 7997SOL     OW35626   0.591   3.688   2.371  0.6590  0.5105  0.1549
 7997SOL    HW135627   0.680   3.657   2.359 -0.3936 -2.5879  0.4092
 7997SOL    HW235628   0.539   3.648   2.301  2.0699 -0.6219 -0.2434
 7998SOL     OW35629   2.475   0.231   6.779  0.7296  0.3408  0.7893
 7998SOL    HW135630   2.398   0.276   6.744 -0.8297 -1.2959  2.0568
 7998SOL    HW235631   2.547   0.292   6.764 -0.3852  1.4315 -0.1113
 7999SOL     OW35632   4.055   2.271   8.460  0.2655  0.0741 -0.0624
 7999SOL    HW135633   3.960   2.277   8.468  0.6085  2.5329  2.2955
 7999SOL    HW235634   4.072   2.179   8.485 -0.0941  0.1630  0.5140
 8000SOL     OW35635   3.650   3.024   2.533  0.2171 -0.4332  0.0814
 8000SOL    HW135636   3.696   2.972   2.599 -0.4929  0.1828  1.0689
 8000SOL    HW235637   3.684   3.113   2.547 -2.3770  0.4902  0.5122
 8001SOL     OW35638   1.088   1.312   0.573 -0.0936 -0.0150 -0.2299
 8001SOL    HW135639   1.178   1.308   0.606  0.2398 -0.9069 -1.2415
 8001SOL    HW235640   1.087   1.401   0.536  0.6015 -0.3163 -0.9651
 8002SOL     OW35641   2.841   2.301   8.832  0.2887 -0.4812 -0.1317
 8002SOL    HW135642   2.827   2.379   8.778 -0.6163  1.8606  3.4863
 8002SOL    HW235643   2.768   2.243   8.807  2.0229 -2.7637  0.0628
 8003SOL     OW35644   1.698   3.365   5.024  0.4983  0.4367  0.2537
 8003SOL    HW135645   1.621   3.393   4.974  1.4601  0.6648 -1.1100
 8003SOL    HW235646   1.653   3.333   5.102 -1.0704 -1.7656 -1.5193
 8004SOL     OW35647   4.649   4.639  12.868 -0.0063 -0.2161 -0.5052
 8004SOL    HW135648   4.644   4.555  12.914 -4.5957  0.5668  0.4626
 8004SOL    HW235649   4.580   4.685  12.916  1.6651  1.2723  0.4582
 8005SOL     OW35650   1.647   3.360   3.464 -0.0973  0.3738  0.2571
 8005SOL    HW135651   1.556   3.386   3.472  0.6126  2.8783  0.0753
 8005SOL    HW235652   1.637   3.266   3.480  0.2207  0.3392  0.2517
 8006SOL     OW35653   3.570   2.139  17.327  0.0732  0.4729 -0.0151
 8006SOL    HW135654   3.499   2.116  17.387  0.5846 -0.2731  0.3014
 8006SOL    HW235655   3.526   2.138  17.242 -1.4861 -1.8881  0.8137
 8007SOL     OW35656   0.944   0.119  14.137 -0.1534 -0.2331  0.1598
 8007SOL    HW135657   1.022   0.072  14.164 -0.2308 -1.8860 -2.4920
 8007SOL    HW235658   0.892   0.108  14.216  0.4265  3.1122  1.0231
 8008SOL     OW35659   0.364   1.291   6.851 -0.6199 -0.6977  0.4928
 8008SOL    HW135660   0.428   1.221   6.865  1.0864  0.5337 -1.1394
 8008SOL    HW235661   0.381   1.319   6.761 -0.5935 -1.2758  0.3157
 8009SOL     OW35662   0.278   0.252   7.704  0.3710 -0.1940 -1.0335
 8009SOL    HW135663   0.190   0.214   7.707 -0.2187  1.4717  2.1037
 8009SOL    HW235664   0.316   0.222   7.621 -1.9187  1.4468 -2.6858
 8010SOL     OW35665   0.846   0.768   8.333 -0.1467 -0.3879  0.7162
 8010SOL    HW135666   0.857   0.680   8.368  0.4926  0.0077  1.5126
 8010SOL    HW235667   0.763   0.793   8.372 -0.1408 -0.0190  0.4914
 8011SOL     OW35668   3.751   1.365  14.382 -0.4930  0.3764  0.1261
 8011SOL    HW135669   3.662   1.398  14.370 -1.0362 -1.2040 -0.2797
 8011SOL    HW235670   3.739   1.286  14.434  2.4242  0.0659  0.3239
 8012SOL     OW35671   1.617   1.136   0.304  0.1743  0.5164  0.6126
 8012SOL    HW135672   1.589   1.052   0.341  1.1637 -0.9148 -1.8935
 8012SOL    HW235673   1.550   1.151   0.238 -0.1010  2.3550  1.3103
 8013SOL     OW35674   3.116   3.301  14.194  0.5007  0.4959 -0.1828
 8013SOL    HW135675   3.036   3.348  14.171  0.5159  0.4045 -0.4265
 8013SOL    HW235676   3.084   3.212  14.212  0.7724  0.6832  1.1866
 8014SOL     OW35677   2.700   3.242  10.401 -0.5242 -0.4865  0.6842
 8014SOL    HW135678   2.775   3.188  10.427 -0.4386 -0.6876  0.0073
 8014SOL    HW235679   2.648   3.222  10.479 -0.6612 -0.0554  0.7060
 8015SOL     OW35680   2.236   4.404   9.468 -0.2822 -0.4210 -0.1802
 8015SOL    HW135681   2.276   4.491   9.473  0.2255 -0.7050  0.6988
 8015SOL    HW235682   2.144   4.423   9.452 -0.3634  0.3707  1.1962
 8016SOL     OW35683   2.322   2.142   1.988 -0.2957  0.1188  0.8321
 8016SOL    HW135684   2.350   2.104   2.071 -0.7204  0.2204  1.0226
 8016SOL    HW235685   2.385   2.213   1.975  0.7023 -0.6710  1.3361
 8017SOL     OW35686   4.188   3.329   8.079  0.5174 -0.3350  0.2003
 8017SOL    HW135687   4.258   3.334   8.144  2.6632  0.2373 -2.1551
 8017SOL    HW235688   4.113   3.350   8.134  0.9391  2.0311 -0.1388
 8018SOL     OW35689   0.425   1.780   8.820 -0.1041 -0.1970  0.2182
 8018SOL    HW135690   0.451   1.853   8.877  0.5671  0.2221 -0.6116
 8018SOL    HW235691   0.494   1.777   8.754  0.2662  0.0372  0.5863
 8019SOL     OW35692   3.428   2.175  15.443  0.4133 -0.1121  0.0094
 8019SOL    HW135693   3.461   2.188  15.354  0.8477  0.1109  0.2015
 8019SOL    HW235694   3.420   2.264  15.477 -0.6700 -0.3767  0.4161
 8020SOL     OW35695   4.503   4.256   3.727  0.4585 -0.4387 -0.3663
 8020SOL    HW135696   4.423   4.208   3.750 -0.8995  2.0706  0.1599
 8020SOL    HW235697   4.480   4.292   3.641 -1.2668 -0.8467 -0.0869
 8021SOL     OW35698   0.895   4.336  11.919  0.0830 -0.2445 -0.2784
 8021SOL    HW135699   0.933   4.423  11.916 -1.4058  0.3905 -0.7456
 8021SOL    HW235700   0.914   4.307  11.830 -2.6646 -0.9353 -0.6487
 8022SOL     OW35701   2.541   2.296  14.235  0.2919  0.2921  0.2980
 8022SOL    HW135702   2.467   2.291  14.296  0.4475 -1.1021  0.3813
 8022SOL    HW235703   2.589   2.219  14.265 -2.1924 -1.1787  0.4655
 8023SOL     OW35704   1.688   2.118   4.360  0.1633 -0.4604  0.0526
 8023SOL    HW135705   1.782   2.131   4.362  0.2531 -1.3907  1.7561
 8023SOL    HW235706   1.695   2.024   4.345  2.4065 -0.4468  1.0301
 8024SOL     OW35707   2.674   2.203  15.522 -0.1687 -0.3970  0.3908
 8024SOL    HW135708   2.605   2.269  15.515 -0.4734 -0.6515  1.0807
 8024SOL    HW235709   2.747   2.257  15.554  0.5235  0.7553 -3.0916
 8025SOL     OW35710   1.063   1.550   1.869  0.2639 -0.4272  0.1019
 8025SOL    HW135711   1.077   1.643   1.850 -1.4479 -0.1667  0.1535
 8025SOL    HW235712   1.156   1.527   1.878  0.6146  0.0980 -2.1064
 8026SOL     OW35713   3.842   4.543   5.299  0.7779 -0.1156  0.1501
 8026SOL    HW135714   3.915   4.531   5.238 -0.3408  1.5256 -1.5000
 8026SOL    HW235715   3.882   4.506   5.378  2.2779 -1.6206 -1.3079
 8027SOL     OW35716   2.046   4.398   9.815 -0.4630  0.6518 -0.4289
 8027SOL    HW135717   2.084   4.340   9.881 -0.6292  1.6985  0.6124
 8027SOL    HW235718   1.966   4.350   9.794 -0.5452  0.6694 -0.1592
 8028SOL     OW35719   4.307   1.805   3.777  0.8910 -0.6021 -0.0401
 8028SOL    HW135720   4.270   1.736   3.831 -0.8224  0.6670  0.4196
 8028SOL    HW235721   4.249   1.807   3.700  0.7261 -0.9310  0.0779
 8029SOL     OW35722   2.424   2.884   6.689  0.1794 -0.1607  0.0552
 8029SOL    HW135723   2.329   2.889   6.693  0.1657 -1.3985  1.3664
 8029SOL    HW235724   2.451   2.969   6.723 -1.8511  0.6685 -0.3948
 8030SOL     OW35725   1.951   0.614  12.262 -0.2827 -0.1857  0.3051
 8030SOL    HW135726   2.031   0.584  12.219 -0.1769 -0.6125  0.7986
 8030SOL    HW235727   1.949   0.569  12.346  0.8414 -0.7765  0.0118
 8031SOL     OW35728   0.413   2.048  11.947  0.5418 -0.3375 -0.0901
 8031SOL    HW135729   0.386   1.995  12.022 -1.6057  2.0539  0.8288
 8031SOL    HW235730   0.471   1.985  11.904  0.1786 -1.0496  0.4606
 8032SOL     OW35731   0.245   1.658   7.315 -0.4651  0.2452  0.3533
 8032SOL    HW135732   0.306   1.714   7.268 -2.3720  0.7865 -1.4594
 8032SOL    HW235733   0.179   1.723   7.341  0.5286  1.3574  0.1028
 8033SOL     OW35734   1.019   2.007   3.865  0.2365 -0.5792  1.0918
 8033SOL    HW135735   0.994   2.085   3.915  1.3211 -0.1199  0.9112
 8033SOL    HW235736   0.942   2.008   3.808  0.3163  1.6409  1.0101
 8034SOL     OW35737   2.975   2.783   2.160  0.3056 -0.0416  0.1511
 8034SOL    HW135738   2.962   2.719   2.089 -1.2384 -1.0994  1.3748
 8034SOL    HW235739   2.881   2.790   2.177  0.2432  2.2770 -1.1875
 8035SOL     OW35740   2.314   4.724   4.523  0.2159 -0.0706  0.2749
 8035SOL    HW135741   2.383   4.722   4.458  0.5089  2.5713  0.5112
 8035SOL    HW235742   2.276   0.073   4.505  0.6789 -0.2755 -1.6899
 8036SOL     OW35743   3.675   1.569   9.913  0.2169 -0.3007 -0.0789
 8036SOL    HW135744   3.580   1.584   9.909  0.4394  1.1127  0.2135
 8036SOL    HW235745   3.692   1.657   9.879  1.5828  0.6336  3.0447
 8037SOL     OW35746   0.124   4.606   6.969  0.1423  0.3925 -0.0671
 8037SOL    HW135747   0.197   4.574   7.021  0.3287  2.0419  0.7018
 8037SOL    HW235748   0.049   4.551   6.992  2.4302 -2.3011  0.9861
 8038SOL     OW35749   2.949   0.187   5.818 -0.4157  0.4958 -0.4298
 8038SOL    HW135750   2.983   0.135   5.746  0.6327  1.7029 -0.7995
 8038SOL    HW235751   2.999   0.269   5.809  2.3100 -1.5242 -3.5705
 8039SOL     OW35752   4.532   3.407  13.498 -0.3274 -0.0067  0.4011
 8039SOL    HW135753   4.479   3.332  13.470  0.1495  0.0366 -0.6172
 8039SOL    HW235754   4.508   3.478  13.438  0.6740  0.6020  0.7309
 8040SOL     OW35755   4.208   4.048  10.893 -0.6269  0.5652  0.2440
 8040SOL    HW135756   4.136   4.074  10.835 -0.4273 -1.8227 -1.0778
 8040SOL    HW235757   4.272   4.012  10.832 -0.2070  0.6518  0.6356
 8041SOL     OW35758   2.579   2.453   6.157  0.8247 -0.6326 -0.0197
 8041SOL    HW135759   2.636   2.485   6.227  2.0405  1.1199 -1.7920
 8041SOL    HW235760   2.637   2.459   6.080  0.1370 -0.5159 -0.5329
 8042SOL     OW35761   1.536   0.022   3.381 -0.3802 -0.1171  0.2692
 8042SOL    HW135762   1.600   4.703   3.338 -1.4908 -2.1164  1.2682
 8042SOL    HW235763   1.568   0.019   3.471  1.5655 -0.1528 -0.4204
 8043SOL     OW35764   3.963   2.071   0.667 -0.0207 -0.1579 -0.1838
 8043SOL    HW135765   3.874   2.066   0.703  0.5491  1.5683  1.4351
 8043SOL    HW235766   3.997   1.997   0.717 -1.5741 -1.0778 -0.4867
 8044SOL     OW35767   0.758   3.860  11.632  0.2178 -0.2952 -0.0473
 8044SOL    HW135768   0.705   3.885  11.557  1.2582 -1.6939 -1.2473
 8044SOL    HW235769   0.801   3.784  11.592 -2.4298 -2.0268  0.3474
 8045SOL     OW35770   4.524   3.843   4.008 -0.4605 -0.1280 -0.3300
 8045SOL    HW135771   4.558   3.907   3.945 -0.1930 -1.7543 -1.8388
 8045SOL    HW235772   4.457   3.795   3.960  0.6382 -0.7225 -1.2876
 8046SOL     OW35773   2.578   1.093   8.238  0.2150 -0.3191  0.4568
 8046SOL    HW135774   2.520   1.118   8.166  1.2809  0.5724 -0.0842
 8046SOL    HW235775   2.561   1.155   8.309 -2.4916 -1.4131  0.7879
 8047SOL     OW35776   0.350   1.232   5.410  0.3538 -0.3634 -0.2379
 8047SOL    HW135777   0.337   1.139   5.394  0.7731 -0.5450  0.4920
 8047SOL    HW235778   0.420   1.248   5.473  1.7849 -1.4108 -1.5621
 8048SOL     OW35779   1.927   1.567   5.335  0.1275 -0.2156  0.0211
 8048SOL    HW135780   1.986   1.539   5.266 -1.7260 -1.6398 -0.9798
 8048SOL    HW235781   1.925   1.663   5.332 -1.9104 -0.1782  2.0561
 8049SOL     OW35782   4.237   1.109   5.360  0.1313  0.5449  0.3480
 8049SOL    HW135783   4.322   1.153   5.355  1.6301 -2.0549  3.3684
 8049SOL    HW235784   4.193   1.133   5.279  2.3249 -0.8371 -1.2396
 8050SOL     OW35785   2.074   1.660   8.800 -0.2410  0.4804 -0.1250
 8050SOL    HW135786   1.997   1.659   8.743  0.1657 -3.3346 -0.6204
 8050SOL    HW235787   2.133   1.720   8.756 -0.1083 -0.8713 -1.7923
 8051SOL     OW35788   0.802   3.027   8.853 -0.6130 -0.1069 -0.5407
 8051SOL    HW135789   0.812   3.055   8.944 -1.2660  0.5997 -0.6883
 8051SOL    HW235790   0.787   3.114   8.816 -0.9222  0.8473  1.8145
 8052SOL     OW35791   3.775   1.652  12.962  0.0622 -0.4938 -0.0582
 8052SOL    HW135792   3.866   1.626  12.973  0.2198 -0.0043 -0.2330
 8052SOL    HW235793   3.735   1.569  12.989 -3.7311  1.3011 -0.0762
 8053SOL     OW35794   0.394   2.895  13.880  0.5024  0.0036 -0.4147
 8053SOL    HW135795   0.353   2.966  13.830  1.4681  1.2038  0.4851
 8053SOL    HW235796   0.463   2.942  13.929  0.3192  0.4012 -0.5421
 8054SOL     OW35797   2.269   1.992   3.893  0.0817  0.0436  0.0247
 8054SOL    HW135798   2.314   2.066   3.935 -2.6786  1.4338  0.5281
 8054SOL    HW235799   2.298   1.926   3.957 -0.0332  0.9648  1.0414
 8055SOL     OW35800   3.489   2.192   3.426 -0.0978 -0.0680 -0.6128
 8055SOL    HW135801   3.462   2.218   3.338  1.5714  2.9057 -0.2336
 8055SOL    HW235802   3.445   2.256   3.482  0.5642  1.6123 -1.9953
 8056SOL     OW35803   2.915   1.551   5.281 -0.0526 -0.0018 -0.2181
 8056SOL    HW135804   2.909   1.595   5.196  2.5891  0.3274 -0.2308
 8056SOL    HW235805   2.869   1.607   5.343  2.2636 -0.5561  1.9862
 8057SOL     OW35806   0.088   2.141   2.858  0.5248  0.1198 -0.6634
 8057SOL    HW135807   0.027   2.215   2.863  1.3397  0.7571 -0.1204
 8057SOL    HW235808   0.030   2.071   2.888  1.9453 -1.4870 -1.6543
 8058SOL     OW35809   4.539   2.969   0.029  0.1806 -0.2427  0.2519
 8058SOL    HW135810   4.606   2.975  17.709  1.8087 -0.1045  1.8499
 8058SOL    HW235811   4.581   3.003   0.108  2.4093  0.3715 -1.1796
 8059SOL     OW35812   3.565   2.239   9.029  0.5888  0.4443  0.3567
 8059SOL    HW135813   3.596   2.193   9.107  1.6480  0.1491 -0.2496
 8059SOL    HW235814   3.470   2.230   9.034  0.6454 -0.7895 -0.7613
 8060SOL     OW35815   4.652   0.688  12.189 -0.6390  0.0774  0.0473
 8060SOL    HW135816   4.650   0.765  12.131 -0.5986 -0.4978 -0.7193
 8060SOL    HW235817   4.676   0.743  12.263  0.0345 -0.4887  0.2440
 8061SOL     OW35818   4.682   4.699   9.636 -0.1369 -0.3795  0.1577
 8061SOL    HW135819   4.725   4.621   9.671  0.0014  0.5917  2.1560
 8061SOL    HW235820   4.635   4.730   9.713  2.3060 -0.4587  1.6774
 8062SOL     OW35821   4.445   0.767   4.243  0.1593 -0.2312 -0.4506
 8062SOL    HW135822   4.383   0.802   4.180 -0.4414  1.6015  1.1910
 8062SOL    HW235823   4.441   0.676   4.211 -2.0060 -0.0666 -0.5853
 8063SOL     OW35824   0.725   4.632   7.742  0.1166  0.4046  0.3033
 8063SOL    HW135825   0.748   4.674   7.824  0.6508  1.2041 -0.2539
 8063SOL    HW235826   0.762   4.546   7.761  0.9759  0.1694 -2.3799
 8064SOL     OW35827   0.554   0.720   9.640  0.4657  0.1888  0.0220
 8064SOL    HW135828   0.635   0.704   9.690  0.7100 -1.0204 -0.7577
 8064SOL    HW235829   0.587   0.740   9.553  1.2978 -0.7378  0.1261
 8065SOL     OW35830   3.880   2.261   7.944  0.1632 -0.0190 -0.2952
 8065SOL    HW135831   3.812   2.318   7.980 -0.8244  0.2849 -2.6368
 8065SOL    HW235832   3.937   2.231   8.014  1.9920  1.0644 -1.2953
 8066SOL     OW35833   3.655   0.511   7.520 -0.0175  0.1862 -0.4194
 8066SOL    HW135834   3.612   0.545   7.599  0.6421 -1.5583  0.6977
 8066SOL    HW235835   3.586   0.468   7.468 -0.7920  0.5450  0.3050
 8067SOL     OW35836   1.612   4.152   1.592 -0.4062 -0.0330  0.3038
 8067SOL    HW135837   1.665   4.231   1.602 -0.6722  0.4548 -2.0085
 8067SOL    HW235838   1.629   4.094   1.666 -0.5285  1.6388  1.6655
 8068SOL     OW35839   3.118   2.460  16.444 -0.4369 -0.3353 -0.1779
 8068SOL    HW135840   3.184   2.444  16.377  0.8353  0.8002  0.7993
 8068SOL    HW235841   3.091   2.372  16.469 -0.8540  0.3883  1.9358
 8069SOL     OW35842   2.153   0.330   2.357  0.2897 -0.7547  0.3762
 8069SOL    HW135843   2.246   0.310   2.345  0.2633 -1.8092  1.9274
 8069SOL    HW235844   2.125   0.241   2.376  0.0110 -1.4371 -3.3005
 8070SOL     OW35845   3.059   1.410   2.254 -1.0824 -0.0092 -0.3065
 8070SOL    HW135846   3.110   1.488   2.274  0.3822 -0.8330 -0.8371
 8070SOL    HW235847   2.980   1.447   2.214 -1.1290 -0.7784 -0.9357
 8071SOL     OW35848   3.363   1.964   7.993  0.0846 -0.0770 -0.6346
 8071SOL    HW135849   3.353   2.004   7.907 -3.0020  0.2537 -0.1463
 8071SOL    HW235850   3.293   2.010   8.040 -0.9825 -0.2975 -1.9973
 8072SOL     OW35851   0.511   2.237   5.273 -0.1160  0.1200  0.1775
 8072SOL    HW135852   0.474   2.170   5.216 -2.4559  1.3198  0.2922
 8072SOL    HW235853   0.436   2.297   5.274  0.2488  0.5317  3.3013
 8073SOL     OW35854   2.983   3.146   4.855 -0.0328  0.0518 -0.3366
 8073SOL    HW135855   2.968   3.070   4.911 -0.0427  0.2443 -0.0773
 8073SOL    HW235856   3.074   3.137   4.827  0.3257 -1.9331  1.4537
 8074SOL     OW35857   0.079   0.204   3.402  0.0715  0.0091 -0.1783
 8074SOL    HW135858   0.130   0.244   3.331 -2.4751  3.1124 -0.2449
 8074SOL    HW235859   0.146   0.201   3.470 -0.7159  1.1143  0.6410
 8075SOL     OW35860   1.017   2.294   0.052 -0.1402 -0.5703  0.3242
 8075SOL    HW135861   0.968   2.253  17.729 -1.1185  1.1153  0.0257
 8075SOL    HW235862   1.026   2.380   0.011 -1.0382 -0.9416 -0.6611
 8076SOL     OW35863   0.546   4.503  13.718 -0.3650 -0.1312  0.6099
 8076SOL    HW135864   0.546   4.409  13.696 -1.3733  0.6561 -2.6902
 8076SOL    HW235865   0.590   4.493  13.802  1.7355  1.2327 -0.3231
 8077SOL     OW35866   2.659   0.391   7.297 -0.2985 -0.8782  0.6447
 8077SOL    HW135867   2.687   0.386   7.389  1.3753  2.3842  0.3108
 8077SOL    HW235868   2.669   0.486   7.285 -1.0676 -1.0530 -1.2355
 8078SOL     OW35869   0.838   4.588   8.180 -0.5233 -0.0812 -0.0791
 8078SOL    HW135870   0.904   4.548   8.237  0.5219 -0.9142 -1.8695
 8078SOL    HW235871   0.767   4.582   8.244 -0.1888  0.8696  0.3869
 8079SOL     OW35872   3.160   1.541   9.109 -0.6022  0.4303  0.0298
 8079SOL    HW135873   3.068   1.547   9.133 -1.0761 -1.1377 -1.4407
 8079SOL    HW235874   3.178   1.448   9.121  1.6526  0.8932  0.3319
 8080SOL     OW35875   2.445   2.879  11.866  0.4944 -0.5052  0.3065
 8080SOL    HW135876   2.514   2.923  11.817 -0.5346  0.3063 -0.4139
 8080SOL    HW235877   2.388   2.850  11.795  0.7796  0.9963 -0.5093
 8081SOL     OW35878   2.174   3.838   3.666  0.1702 -0.7236 -0.1779
 8081SOL    HW135879   2.149   3.895   3.594 -0.3385 -0.2613  0.3668
 8081SOL    HW235880   2.133   3.754   3.647 -0.3518 -0.2338 -1.2629
 8082SOL     OW35881   3.828   0.724   7.448  0.0217 -0.3500 -0.3491
 8082SOL    HW135882   3.755   0.786   7.450 -0.3261 -0.8426  2.8225
 8082SOL    HW235883   3.781   0.641   7.449  0.4225 -0.5855 -1.9532
 8083SOL     OW35884   4.481   2.832   3.603  0.5352  0.3335  0.1919
 8083SOL    HW135885   4.396   2.832   3.558  0.8611 -1.3713 -0.3963
 8083SOL    HW235886   4.468   2.924   3.628 -0.1019 -0.0437  1.2771
 8084SOL     OW35887   0.287   1.132  16.714 -0.8667 -0.7445 -0.0274
 8084SOL    HW135888   0.204   1.096  16.683 -2.2423  2.0560  0.5204
 8084SOL    HW235889   0.344   1.061  16.682 -0.1786 -0.0925 -0.2585
 8085SOL     OW35890   1.555   4.415   1.127 -0.1074  0.1025  0.0354
 8085SOL    HW135891   1.620   4.464   1.075 -0.9939  1.0679 -0.1556
 8085SOL    HW235892   1.478   4.435   1.074 -0.6748 -1.6086  0.2189
 8086SOL     OW35893   4.596   3.880   7.703 -0.1225 -0.0868 -0.4432
 8086SOL    HW135894   4.510   3.853   7.733  0.3561 -1.2429 -0.1070
 8086SOL    HW235895   4.645   3.892   7.784 -3.1149  0.3495  1.2993
 8087SOL     OW35896   3.917   2.848  12.137  0.4549  0.1460  0.0970
 8087SOL    HW135897   3.951   2.905  12.206 -0.0914 -1.5503  1.7709
 8087SOL    HW235898   3.904   2.764  12.181 -1.2513 -0.4489 -1.5581
 8088SOL     OW35899   3.773   0.987  13.957 -0.0576 -0.5026 -0.5334
 8088SOL    HW135900   3.785   1.052  14.026  3.0083 -3.7749  1.9724
 8088SOL    HW235901   3.754   1.037  13.878  0.3166 -0.1115 -0.3780
 8089SOL     OW35902   0.061   1.302   4.249 -0.0836  0.1402  0.5378
 8089SOL    HW135903   0.103   1.359   4.185  0.1153  0.8553  1.3107
 8089SOL    HW235904   0.034   1.226   4.198  2.2146 -0.4730  0.2408
 8090SOL     OW35905   3.335   3.438  14.245 -0.4612 -0.4512  0.2163
 8090SOL    HW135906   3.401   3.372  14.224  0.2523  1.0169 -2.1588
 8090SOL    HW235907   3.263   3.386  14.208  0.3188 -1.6609  0.3849
 8091SOL     OW35908   3.203   3.358  15.428  0.0485 -0.6638  0.4923
 8091SOL    HW135909   3.144   3.417  15.474  0.4511  0.1718 -0.0642
 8091SOL    HW235910   3.174   3.274  15.464 -1.0242 -0.2636  0.5395
 8092SOL     OW35911   1.453   1.705  17.192 -0.1798  0.1312 -0.2149
 8092SOL    HW135912   1.452   1.789  17.237 -1.0228  0.1788 -0.3216
 8092SOL    HW235913   1.454   1.737  17.102 -2.4162  2.5207  0.6169
 8093SOL     OW35914   2.031   0.112   7.143  0.2340  0.2724  0.2126
 8093SOL    HW135915   1.945   0.150   7.127  0.0366 -0.5047 -0.5802
 8093SOL    HW235916   2.010   0.019   7.128  0.1400  0.5477 -1.3647
 8094SOL     OW35917   1.829   3.150   8.393  0.3855 -0.7255 -0.1044
 8094SOL    HW135918   1.791   3.092   8.327 -0.5180  1.2678 -1.3508
 8094SOL    HW235919   1.800   3.235   8.358 -0.4417 -0.1920  1.8683
 8095SOL     OW35920   1.684   2.319   5.598  0.2396 -0.1225 -0.0558
 8095SOL    HW135921   1.730   2.396   5.629 -0.8426  0.7144 -0.5453
 8095SOL    HW235922   1.751   2.252   5.584  0.6163  0.5991 -1.7231
 8096SOL     OW35923   1.488   3.405  10.451  0.0490 -0.3507 -0.1374
 8096SOL    HW135924   1.516   3.330  10.504 -0.4134  0.4913  1.3098
 8096SOL    HW235925   1.420   3.358  10.403 -1.0255 -0.9852  2.0095
 8097SOL     OW35926   4.475   1.241   8.170  0.0424  0.4622  0.2840
 8097SOL    HW135927   4.477   1.333   8.196 -3.6043  0.4748  0.5145
 8097SOL    HW235928   4.425   1.206   8.243  2.0163 -2.2606  0.3395
 8098SOL     OW35929   1.370   4.615   5.264 -0.1029 -0.0624 -0.4603
 8098SOL    HW135930   1.374   4.523   5.290  0.9826  0.4885  1.3669
 8098SOL    HW235931   1.453   4.641   5.224  1.4699 -1.1192  2.0633
 8099SOL     OW35932   2.137   2.919   0.091 -0.5650 -0.0454 -0.1059
 8099SOL    HW135933   2.217   2.871   0.112  0.6074  1.2823 -1.5687
 8099SOL    HW235934   2.154   3.003   0.133 -2.5853 -0.0225  0.6622
 8100SOL     OW35935   0.720   2.091   4.960  0.1165  0.2889  0.4360
 8100SOL    HW135936   0.678   2.176   4.948  0.6548  0.7612  1.9293
 8100SOL    HW235937   0.729   2.076   4.866 -0.4958  0.5341  0.3429
 8101SOL     OW35938   1.999   2.205   2.134  0.4120  0.0138 -0.1799
 8101SOL    HW135939   1.936   2.133   2.129 -0.3539  0.5829  1.4926
 8101SOL    HW235940   1.983   2.231   2.043  0.4605  2.4286  0.5064
 8102SOL     OW35941   2.965   2.304   3.530  0.3905 -0.1118 -1.0680
 8102SOL    HW135942   3.014   2.233   3.487  2.1488  0.2781  0.2685
 8102SOL    HW235943   2.876   2.271   3.540  0.0161  1.6325  1.5147
 8103SOL     OW35944   4.419   3.483   9.879 -0.5379 -0.7910  0.1224
 8103SOL    HW135945   4.328   3.494   9.907 -0.6921  1.0627 -1.1448
 8103SOL    HW235946   4.402   3.533   9.799  0.9990 -1.3178 -0.5273
 8104SOL     OW35947   4.476   3.685   8.033  0.6044  0.6041  0.1681
 8104SOL    HW135948   4.532   3.741   8.087  1.6424  0.9188 -1.2490
 8104SOL    HW235949   4.509   3.602   8.068 -1.4901 -0.7304 -1.0304
 8105SOL     OW35950   2.042   1.816   6.859 -0.3501 -0.1975 -0.2630
 8105SOL    HW135951   2.061   1.900   6.817 -2.4123  0.5563  0.3122
 8105SOL    HW235952   2.128   1.777   6.875  0.2509  0.1751 -2.5860
 8106SOL     OW35953   0.668   1.446   6.935  0.5248  0.5982 -0.0996
 8106SOL    HW135954   0.648   1.523   6.882  1.7955 -0.0030 -1.4533
 8106SOL    HW235955   0.714   1.488   7.007  0.0811  0.6974  0.1245
 8107SOL     OW35956   0.204   1.230   7.494  0.3377  0.2273 -0.0363
 8107SOL    HW135957   0.231   1.303   7.439 -1.1739 -0.2680 -1.4438
 8107SOL    HW235958   0.144   1.267   7.559  2.0479  0.2183  1.5661
 8108SOL     OW35959   3.478   3.318   1.263 -0.8006  0.1567  0.7218
 8108SOL    HW135960   3.528   3.379   1.208  0.6447  0.6436  2.5701
 8108SOL    HW235961   3.431   3.378   1.320 -3.0878  0.4831 -1.5386
 8109SOL     OW35962   0.468   2.252   9.251 -0.3031  0.0445  0.1273
 8109SOL    HW135963   0.423   2.205   9.322 -1.1442  1.2790  0.4037
 8109SOL    HW235964   0.554   2.209   9.248 -0.6101 -0.5404 -0.3897
 8110SOL     OW35965   1.129   2.116  11.719 -0.5619  0.0367  0.2569
 8110SOL    HW135966   1.165   2.057  11.652 -0.9483  0.2692 -0.1536
 8110SOL    HW235967   1.138   2.194  11.664 -0.7678 -0.7160 -0.8466
 8111SOL     OW35968   2.253   1.329  14.794 -0.3737 -0.0431  0.5248
 8111SOL    HW135969   2.287   1.240  14.788  1.2435  0.5219  1.1705
 8111SOL    HW235970   2.328   1.382  14.764  0.2673 -1.0616  0.3439
 8112SOL     OW35971   1.856   4.205  14.328  0.3131 -0.1720 -0.2332
 8112SOL    HW135972   1.790   4.257  14.373  1.6522  1.3655 -0.0660
 8112SOL    HW235973   1.900   4.160  14.401  0.7686  1.0268  0.2254
 8113SOL     OW35974   0.724   2.019  12.163 -0.1129  0.1435 -0.3945
 8113SOL    HW135975   0.761   1.964  12.094  0.1277 -0.0790 -0.0870
 8113SOL    HW235976   0.706   2.103  12.119 -0.1510 -0.2376 -1.1120
 8114SOL     OW35977   4.387   4.094   5.878 -0.1471  0.0655  0.3258
 8114SOL    HW135978   4.386   4.154   5.803  0.0054 -1.8236 -1.1743
 8114SOL    HW235979   4.476   4.099   5.914 -0.5625  1.5636  1.1536
 8115SOL     OW35980   4.479   1.272   6.916  0.3063 -0.2584 -0.0237
 8115SOL    HW135981   4.395   1.273   6.870 -0.2769  0.8120  1.0748
 8115SOL    HW235982   4.546   1.305   6.857  1.1235  0.0217  1.0650
 8116SOL     OW35983   0.861   0.109   0.802 -0.0714  0.0661 -0.2534
 8116SOL    HW135984   0.906   0.026   0.787 -0.8549 -0.5097  0.5391
 8116SOL    HW235985   0.912   0.163   0.741  0.6001 -1.4821 -1.0766
 8117SOL     OW35986   4.385   0.759  14.231  0.1581 -0.1871 -0.3489
 8117SOL    HW135987   4.358   0.775  14.321 -1.4336  1.7497 -1.1684
 8117SOL    HW235988   4.322   0.805  14.175  0.2553  1.1063  0.6169
 8118SOL     OW35989   1.815   2.610   6.294  0.2165  0.4360 -0.4540
 8118SOL    HW135990   1.742   2.577   6.346  1.7349 -0.5444  1.0826
 8118SOL    HW235991   1.882   2.613   6.363 -0.1840  0.1891 -0.0486
 8119SOL     OW35992   3.597   2.330   5.555 -0.3815 -0.6498  0.0755
 8119SOL    HW135993   3.641   2.368   5.478 -2.7698  1.5244 -0.2188
 8119SOL    HW235994   3.522   2.384   5.578  0.6719  1.2156 -0.8492
 8120SOL     OW35995   3.573   1.866   8.833 -0.2901 -0.0620 -0.4225
 8120SOL    HW135996   3.550   1.825   8.916  0.4972  1.5202  0.5690
 8120SOL    HW235997   3.667   1.850   8.837  0.0426  1.7821 -0.7793
 8121SOL     OW35998   0.574   3.481   6.394 -0.5038  0.3408 -0.0634
 8121SOL    HW135999   0.535   3.550   6.340  0.1247 -0.4236 -1.5177
 8121SOL    HW236000   0.502   3.442   6.443  0.5705  0.7867  1.8526
 8122SOL     OW36001   4.646   2.241  16.892  0.0183  0.0729 -0.0748
 8122SOL    HW136002   4.721   2.284  16.932  1.3412 -3.0735  0.8499
 8122SOL    HW236003   4.671   2.257  16.801 -1.1883  0.8924 -0.2541
 8123SOL     OW36004   0.480   2.829   3.189 -0.8829  0.3987 -0.0750
 8123SOL    HW136005   0.540   2.804   3.118 -2.0507  1.0930 -1.3167
 8123SOL    HW236006   0.517   2.907   3.231 -0.2284  1.0311 -1.7807
 8124SOL     OW36007   4.239   1.155   9.032  0.2074 -0.6748 -0.2898
 8124SOL    HW136008   4.199   1.080   9.075  1.1310 -0.5296  0.8326
 8124SOL    HW236009   4.332   1.145   9.055 -0.0842  1.0254  1.7114
 8125SOL     OW36010   4.296   0.435   6.438 -0.1519  1.0262 -0.6218
 8125SOL    HW136011   4.299   0.450   6.532 -0.2672 -0.0732 -0.4505
 8125SOL    HW236012   4.217   0.383   6.449 -2.1726  3.7032 -2.3624
 8126SOL     OW36013   2.414   0.271   0.068  0.1608 -0.7301  0.2674
 8126SOL    HW136014   2.353   0.313   0.128  1.6988  1.8894  0.0024
 8126SOL    HW236015   2.487   0.277   0.130  2.3285 -0.3444 -2.3130
 8127SOL     OW36016   2.460   2.236   2.732 -0.2539 -0.2129 -0.1968
 8127SOL    HW136017   2.553   2.250   2.717 -0.4280 -0.8962 -1.9532
 8127SOL    HW236018   2.426   2.248   2.644  0.8662 -0.1557 -0.6236
 8128SOL     OW36019   3.606   2.429   1.755  0.4982 -0.1304  0.0418
 8128SOL    HW136020   3.572   2.507   1.712 -0.1595 -0.2522  0.3261
 8128SOL    HW236021   3.685   2.457   1.801  0.8462 -0.6214 -0.2571
 8129SOL     OW36022   2.692   0.847   4.938 -0.1860 -0.3673 -0.2293
 8129SOL    HW136023   2.608   0.874   4.900  1.0029  1.6148 -1.4441
 8129SOL    HW236024   2.678   0.755   4.963 -0.7069  0.0366  1.0111
 8130SOL     OW36025   1.715   1.226  10.173 -0.2458  0.0083 -0.1403
 8130SOL    HW136026   1.793   1.269  10.138 -0.2479  1.7465  1.9523
 8130SOL    HW236027   1.649   1.246  10.108 -0.7805 -0.1818  0.3441
 8131SOL     OW36028   4.432   2.842  13.385  0.4849  0.4105 -0.3218
 8131SOL    HW136029   4.381   2.814  13.309  1.1251  0.2822 -0.7057
 8131SOL    HW236030   4.381   2.922  13.399  1.9150  1.2564 -0.0201
 8132SOL     OW36031   2.675   4.046   0.670  0.0696 -0.2240 -0.1267
 8132SOL    HW136032   2.723   3.983   0.725  1.1530 -1.0896 -2.0814
 8132SOL    HW236033   2.581   4.029   0.681 -0.7870  3.5379 -1.6285
 8133SOL     OW36034   3.741   1.730  14.996  0.1542  0.3460  0.3112
 8133SOL    HW136035   3.779   1.701  15.079  1.5705  1.6280  0.1157
 8133SOL    HW236036   3.664   1.675  14.985 -0.9594  1.7512  1.0969
 8134SOL     OW36037   1.109   2.333   2.710 -0.0307 -0.1053 -0.4075
 8134SOL    HW136038   1.150   2.419   2.712 -0.3791 -0.0009  1.6271
 8134SOL    HW236039   1.120   2.300   2.799  2.5609  2.1914  0.1044
 8135SOL     OW36040   4.283   3.080   4.120 -0.7415  0.0204 -0.4471
 8135SOL    HW136041   4.249   3.007   4.171  0.2093  0.6863  1.1444
 8135SOL    HW236042   4.244   3.157   4.161  0.4011  0.5155 -0.2932
 8136SOL     OW36043   3.402   4.000   4.899  0.2052  0.8190 -0.8478
 8136SOL    HW136044   3.474   3.938   4.888  1.1879  1.8464 -0.1602
 8136SOL    HW236045   3.384   4.025   4.808 -0.8413  2.0788 -0.2863
 8137SOL     OW36046   0.511   3.769   1.756 -0.2889  0.3506 -0.1628
 8137SOL    HW136047   0.539   3.861   1.753 -2.8966  1.1816  1.0064
 8137SOL    HW236048   0.537   3.736   1.842  0.6951  0.1006 -0.5574
 8138SOL     OW36049   2.514   0.434   8.916 -0.2257  0.2382 -0.4222
 8138SOL    HW136050   2.496   0.503   8.853 -0.5973 -0.9204 -1.5941
 8138SOL    HW236051   2.595   0.466   8.956 -2.1613 -0.0953  3.7500
 8139SOL     OW36052   2.646   3.686  14.940 -0.0050 -0.1845  0.1669
 8139SOL    HW136053   2.688   3.769  14.916  2.0899 -0.9654  1.0481
 8139SOL    HW236054   2.707   3.663  15.011  0.2024 -0.8302 -0.2191
 8140SOL     OW36055   0.226   4.662  10.753  0.1130 -0.2487  0.1335
 8140SOL    HW136056   0.275   4.583  10.776  0.7903 -0.0819 -0.7499
 8140SOL    HW236057   0.244   4.715  10.831 -0.7890  2.9997 -1.8482
 8141SOL     OW36058   3.714   4.597   5.063 -0.2639  0.5763 -0.2587
 8141SOL    HW136059   3.629   4.557   5.081 -0.0740  0.3089  0.0501
 8141SOL    HW236060   3.747   4.595   5.153 -0.4276 -0.0914 -0.2095
 8142SOL     OW36061   1.451   3.120   6.540  0.0368 -0.3593  0.2636
 8142SOL    HW136062   1.527   3.081   6.583  2.1946  1.6622 -1.8067
 8142SOL    HW236063   1.422   3.058   6.473  2.4658 -0.7443 -0.3974
 8143SOL     OW36064   3.278   2.713  16.866  0.0471 -0.6298  0.0272
 8143SOL    HW136065   3.288   2.622  16.894 -0.2439 -0.7228 -0.1746
 8143SOL    HW236066   3.211   2.758  16.918  2.8801 -0.8779  3.9441
 8144SOL     OW36067   4.280   4.175   4.865  0.3982  0.7309  0.1182
 8144SOL    HW136068   4.267   4.089   4.905  1.3904  0.7374  0.4407
 8144SOL    HW236069   4.291   4.159   4.771  0.2123  2.2445 -0.1555
 8145SOL     OW36070   0.139   2.252   3.589 -0.2325 -0.1300 -0.0343
 8145SOL    HW136071   0.190   2.231   3.510  1.2715  2.3707  0.2918
 8145SOL    HW236072   0.161   2.345   3.591  0.6188 -0.3716  1.2965
 8146SOL     OW36073   1.012   2.801  10.764  0.1226  0.1770 -0.4109
 8146SOL    HW136074   1.093   2.752  10.749 -0.6209 -0.6933 -1.5733
 8146SOL    HW236075   1.040   2.892  10.772  0.8608 -0.2319  1.6178
 8147SOL     OW36076   0.766   0.469   4.862  0.0352 -0.3291 -0.5389
 8147SOL    HW136077   0.679   0.467   4.823  0.6152  0.4119 -1.8486
 8147SOL    HW236078   0.821   0.486   4.785  0.6775  0.1665  0.0255
 8148SOL     OW36079   0.888   1.659   1.629 -0.8108  0.1509 -0.1725
 8148SOL    HW136080   0.947   1.728   1.598  1.6127 -1.6763  0.3519
 8148SOL    HW236081   0.949   1.585   1.633 -1.0607  0.0249  1.1233
 8149SOL     OW36082   3.291   1.418  15.433 -0.1919 -0.3671  0.5937
 8149SOL    HW136083   3.236   1.427  15.511 -0.1278  1.6670  0.3981
 8149SOL    HW236084   3.378   1.402  15.469 -1.3347 -1.4652  2.8928
 8150SOL     OW36085   3.136   4.048   2.606  0.5284  0.1208 -0.0487
 8150SOL    HW136086   3.104   4.106   2.675  1.9045  1.2576 -0.3677
 8150SOL    HW236087   3.141   3.965   2.653  1.6305 -0.3337 -0.9828
 8151SOL     OW36088   2.296   4.689   7.586 -0.2816  0.3433  0.6454
 8151SOL    HW136089   2.363   0.019   7.584  1.4861 -1.5336 -2.0342
 8151SOL    HW236090   2.257   4.707   7.500 -0.8053 -1.3642  0.5295
 8152SOL     OW36091   2.568   0.605   5.591 -0.0769 -0.4581  0.0957
 8152SOL    HW136092   2.638   0.642   5.645 -1.4969  3.1848 -0.6105
 8152SOL    HW236093   2.622   0.553   5.531 -0.9004  0.1114 -1.1208
 8153SOL     OW36094   3.834   1.873   8.271  0.4313  0.1892  0.7181
 8153SOL    HW136095   3.895   1.853   8.199 -0.9306 -1.2261 -0.0449
 8153SOL    HW236096   3.747   1.872   8.230  0.5734  2.2558  0.4108
 8154SOL     OW36097   3.946   3.340  15.216 -0.3024  0.6583  0.4745
 8154SOL    HW136098   3.874   3.288  15.180  0.1500  0.7486 -0.5605
 8154SOL    HW236099   3.917   3.344  15.307  0.2958 -4.2590  0.9062
 8155SOL     OW36100   0.612   1.699   7.239 -0.3643  0.2827  0.5309
 8155SOL    HW136101   0.599   1.629   7.304  4.7926 -1.7173 -0.6304
 8155SOL    HW236102   0.701   1.682   7.210 -0.6930 -2.1945  0.9205
 8156SOL     OW36103   2.920   3.984   3.376 -0.0983  0.5890 -0.0583
 8156SOL    HW136104   2.909   4.062   3.431  1.0744  2.3846 -2.3333
 8156SOL    HW236105   2.900   4.017   3.288 -0.5431 -0.5721 -0.3798
 8157SOL     OW36106   1.832   2.304   7.787 -0.5857  0.0027  0.2928
 8157SOL    HW136107   1.790   2.336   7.707  1.1097  1.7689  0.1008
 8157SOL    HW236108   1.819   2.376   7.849 -0.8715  1.9294 -2.0080
 8158SOL     OW36109   2.443   4.350   4.732 -0.0011 -0.2530 -0.7507
 8158SOL    HW136110   2.470   4.297   4.657  0.1064  0.0125 -0.9013
 8158SOL    HW236111   2.348   4.346   4.725 -0.1824  0.2682  1.7378
 8159SOL     OW36112   0.711   0.853   1.505  0.0478  0.0490  0.0454
 8159SOL    HW136113   0.803   0.854   1.532 -0.1613  1.2129  0.6872
 8159SOL    HW236114   0.695   0.758   1.509  0.7642  0.0605  2.8209
 8160SOL     OW36115   1.247   0.454   3.401 -0.4380  0.0782 -0.2795
 8160SOL    HW136116   1.156   0.486   3.402  0.2557  2.0219  1.1537
 8160SOL    HW236117   1.248   0.409   3.317  4.2170 -2.4464  1.1168
 8161SOL     OW36118   1.068   0.256   2.519 -0.0090  0.1489  0.5994
 8161SOL    HW136119   1.059   0.280   2.427 -1.8655  0.5811  0.8889
 8161SOL    HW236120   1.142   0.314   2.540  0.6790 -0.3699 -0.4158
 8162SOL     OW36121   4.015   4.220   3.901  0.3076 -0.3334  0.3715
 8162SOL    HW136122   3.960   4.171   3.962  0.1728  0.5999  1.0076
 8162SOL    HW236123   4.002   4.312   3.927 -0.0845 -0.4695  0.6658
 8163SOL     OW36124   1.415   2.994   1.648  0.0467 -0.1471 -0.1784
 8163SOL    HW136125   1.502   3.014   1.683 -0.5483 -0.1024  1.2938
 8163SOL    HW236126   1.394   2.913   1.693 -1.0935  0.2067 -0.0792
 8164SOL     OW36127   0.534   3.780   8.369 -0.6946 -0.1446  0.0977
 8164SOL    HW136128   0.565   3.868   8.393  2.8330 -1.4451  0.2451
 8164SOL    HW236129   0.470   3.799   8.300  1.6536 -1.0313 -2.3118
 8165SOL     OW36130   2.603   1.277   0.441  0.5578 -0.2457 -0.2147
 8165SOL    HW136131   2.549   1.294   0.364  0.5544  1.3693  0.1459
 8165SOL    HW236132   2.554   1.327   0.506  2.1116 -0.8462  1.4248
 8166SOL     OW36133   4.273   0.828   6.380  0.1613  0.6702 -0.4722
 8166SOL    HW136134   4.269   0.801   6.471 -0.3571 -0.8509 -0.9450
 8166SOL    HW236135   4.367   0.826   6.361  0.4432  1.0126  0.9394
 8167SOL     OW36136   0.289   1.144   6.217  0.0761  0.2759 -0.2073
 8167SOL    HW136137   0.287   1.239   6.215 -1.1985  0.2151 -1.6593
 8167SOL    HW236138   0.330   1.118   6.300  0.2542 -0.6536 -0.5872
 8168SOL     OW36139   2.524   1.004  15.890 -0.8672 -0.2035 -0.1584
 8168SOL    HW136140   2.533   1.096  15.865 -1.2505 -0.5482 -1.6103
 8168SOL    HW236141   2.611   0.968  15.907 -0.0886  1.0100 -1.6294
 8169SOL     OW36142   3.352   0.780  13.200  0.2835 -0.2677  0.0800
 8169SOL    HW136143   3.338   0.705  13.257  1.0479 -0.7263 -0.3293
 8169SOL    HW236144   3.437   0.752  13.165 -0.5103 -1.7919 -0.6500
 8170SOL     OW36145   4.618   3.136   5.063 -0.4310 -0.1208 -0.0858
 8170SOL    HW136146   4.629   3.230   5.051  1.9738 -0.1040  2.1806
 8170SOL    HW236147   4.574   3.139   5.148  1.6940 -0.0940  1.0069
 8171SOL     OW36148   0.406   3.241   7.043  0.4173  0.5373  0.4783
 8171SOL    HW136149   0.379   3.331   7.027  1.4411  0.7381 -0.1138
 8171SOL    HW236150   0.325   3.195   7.067  0.4785 -0.7017 -1.7766
 8172SOL     OW36151   0.723   3.987  12.859  0.1725  0.5681  0.3624
 8172SOL    HW136152   0.745   4.006  12.951  1.6629  2.3801 -0.3501
 8172SOL    HW236153   0.790   3.922  12.838 -0.3331 -0.8665  3.1503
 8173SOL     OW36154   1.515   4.414  12.945  0.3455 -0.0938 -0.1578
 8173SOL    HW136155   1.592   4.463  12.916  1.7305 -1.2183  1.6275
 8173SOL    HW236156   1.454   4.438  12.875 -1.1275  1.5181  1.6789
 8174SOL     OW36157   3.561   3.770   3.729 -0.1695 -0.1811  0.5411
 8174SOL    HW136158   3.654   3.786   3.713  0.0845 -1.5012  0.7128
 8174SOL    HW236159   3.530   3.736   3.645  0.9927  0.1846 -0.0342
 8175SOL     OW36160   3.927   2.315   3.825  0.1281 -0.0441  0.3345
 8175SOL    HW136161   3.890   2.227   3.834 -1.7179  0.6834 -0.0850
 8175SOL    HW236162   3.959   2.308   3.736 -1.0994 -0.1710 -0.0966
 8176SOL     OW36163   3.507   0.737   4.608  0.5185  0.1138  0.2218
 8176SOL    HW136164   3.469   0.712   4.693 -0.9562 -2.1245 -1.1094
 8176SOL    HW236165   3.522   0.648   4.577 -1.2440 -0.7862  1.9250
 8177SOL     OW36166   3.180   0.120   8.415 -0.3006  0.3143  0.4864
 8177SOL    HW136167   3.208   0.079   8.497 -0.5881 -1.0444 -0.0880
 8177SOL    HW236168   3.088   0.133   8.435 -0.6459 -1.4885  0.0618
 8178SOL     OW36169   3.076   3.372   5.036 -0.2756  0.0277  0.0365
 8178SOL    HW136170   2.986   3.350   5.015 -0.6984  0.5258  1.2675
 8178SOL    HW236171   3.122   3.288   5.032  0.1213  0.1769  1.3174
 8179SOL     OW36172   0.725   1.314   3.642 -0.1281 -0.5951  0.2202
 8179SOL    HW136173   0.631   1.330   3.650 -0.0720 -0.9977  1.6413
 8179SOL    HW236174   0.716   1.228   3.601 -0.0220 -0.3481 -0.3331
 8180SOL     OW36175   1.009   2.409   6.750  0.2975  0.5691  0.1822
 8180SOL    HW136176   1.082   2.423   6.810 -0.0809  1.4401  0.4457
 8180SOL    HW236177   0.953   2.485   6.766 -0.4096 -0.0983  0.8872
 8181SOL     OW36178   1.933   4.025   3.205  0.0512  0.0693 -0.0756
 8181SOL    HW136179   1.883   3.982   3.135 -0.3205  1.9576 -0.9900
 8181SOL    HW236180   1.937   4.105   3.152 -1.7122  0.7063  0.7169
 8182SOL     OW36181   4.226   4.509   6.297  0.2706  0.5845  0.5352
 8182SOL    HW136182   4.135   4.480   6.293  0.8354 -0.8227 -2.2153
 8182SOL    HW236183   4.244   4.518   6.204  0.3370 -0.1866  0.4744
 8183SOL     OW36184   1.061   0.512   9.148 -0.5538 -0.0871  0.1148
 8183SOL    HW136185   1.038   0.604   9.157  1.9811  0.5321  0.1572
 8183SOL    HW236186   1.141   0.512   9.202  0.4374  0.5417 -1.3630
 8184SOL     OW36187   1.025   3.294   2.260 -0.0168  0.2018  0.4882
 8184SOL    HW136188   0.975   3.232   2.314  0.6539  0.3650  1.2908
 8184SOL    HW236189   0.968   3.287   2.183  1.7275  1.9045 -0.9351
 8185SOL     OW36190   0.964   2.037   6.719  0.0130  0.5276  0.3460
 8185SOL    HW136191   1.011   2.053   6.801 -0.7382  1.6103  0.5649
 8185SOL    HW236192   0.984   2.114   6.666 -0.6674  0.3830 -0.1161
 8186SOL     OW36193   3.756   1.728   5.619  0.0966 -0.0587 -0.0992
 8186SOL    HW136194   3.759   1.645   5.572  1.5062  0.6339 -1.2254
 8186SOL    HW236195   3.844   1.731   5.658  0.0411 -0.9216  0.1042
 8187SOL     OW36196   2.312   2.019   5.403  0.2287 -0.4701 -0.5540
 8187SOL    HW136197   2.298   1.944   5.345  0.6921 -0.8248 -0.2184
 8187SOL    HW236198   2.376   2.066   5.349 -0.2383  0.8422  0.0371
 8188SOL     OW36199   1.207   1.870   6.287 -0.2110  0.2411  0.0506
 8188SOL    HW136200   1.225   1.963   6.298  0.5157 -0.1414  2.1712
 8188SOL    HW236201   1.273   1.827   6.342 -0.6566  0.2651  0.5980
 8189SOL     OW36202   0.479   1.837   7.998  0.3242  0.0592 -0.1723
 8189SOL    HW136203   0.479   1.741   8.001 -0.5440  0.1386  2.6410
 8189SOL    HW236204   0.547   1.853   7.933  1.2779  0.9509  1.0396
 8190SOL     OW36205   0.976   2.801   8.874 -0.4679 -0.3018  0.1174
 8190SOL    HW136206   0.939   2.755   8.950 -3.6487 -0.4751 -1.5071
 8190SOL    HW236207   0.910   2.868   8.855  0.1093 -0.0320 -0.9190
 8191SOL     OW36208   1.702   4.215  13.111 -0.1596 -0.2251 -0.4386
 8191SOL    HW136209   1.626   4.165  13.081  0.3807 -0.4865 -1.3994
 8191SOL    HW236210   1.658   4.289  13.152 -1.2442 -0.4479 -1.2105
 8192SOL     OW36211   2.047   2.021   2.688  0.2708  0.4469  0.4454
 8192SOL    HW136212   1.966   1.978   2.661  1.0486  0.5029 -1.9250
 8192SOL    HW236213   2.031   2.113   2.671 -2.0700 -0.1804 -0.7575
 8193SOL     OW36214   4.116   4.159   2.688 -0.2366  0.1089 -0.7339
 8193SOL    HW136215   4.060   4.094   2.645 -1.0596 -0.7616  1.6441
 8193SOL    HW236216   4.176   4.197   2.624 -0.0167  0.4056 -0.3545
 8194SOL     OW36217   0.868   4.641  14.621 -0.0898 -0.6682  0.0986
 8194SOL    HW136218   0.925   4.713  14.650  0.1641 -0.8147 -0.0357
 8194SOL    HW236219   0.919   4.569  14.659 -0.2996 -2.0466 -2.2198
 8195SOL     OW36220   0.629   4.701  16.978 -0.0701 -0.4176  0.8714
 8195SOL    HW136221   0.706   4.684  16.924 -1.8181  0.5332 -1.9071
 8195SOL    HW236222   0.562   4.687  16.911 -0.6887  1.2612  1.1400
 8196SOL     OW36223   3.943   3.964   8.736  0.4067 -0.7075 -0.0613
 8196SOL    HW136224   3.860   4.011   8.723  0.3151 -0.1432  2.6718
 8196SOL    HW236225   4.000   4.018   8.791  0.4986  1.5767 -2.3932
 8197SOL     OW36226   2.335   4.460  15.958  0.1513  0.2130 -0.3811
 8197SOL    HW136227   2.338   4.391  15.891 -0.0198  1.1297 -1.3336
 8197SOL    HW236228   2.416   4.509  15.942  0.2100 -0.0734 -0.9849
 8198SOL     OW36229   2.666   0.416   2.665  0.4498  0.2568  0.2701
 8198SOL    HW136230   2.603   0.344   2.656  1.9551 -1.1674  1.2106
 8198SOL    HW236231   2.626   0.484   2.610  0.2424  0.5056  0.7233
 8199SOL     OW36232   4.668   2.212  11.444 -0.2970  0.0099  0.4229
 8199SOL    HW136233   4.612   2.201  11.522 -0.4536  1.5138  0.5390
 8199SOL    HW236234   0.009   2.170  11.478 -0.5311 -0.1854  0.7301
 8200SOL     OW36235   2.810   3.225   4.665 -0.5900 -0.1553 -0.4747
 8200SOL    HW136236   2.749   3.259   4.730  1.0630  0.6000  0.6730
 8200SOL    HW236237   2.856   3.168   4.726  0.3404 -0.7006 -1.6694
 8201SOL     OW36238   1.027   3.245  10.885 -0.8036 -0.2508 -0.1544
 8201SOL    HW136239   0.932   3.239  10.876 -0.9970 -1.5127  2.6206
 8201SOL    HW236240   1.050   3.160  10.923 -1.3832  1.2374  3.5607
 8202SOL     OW36241   1.834   2.713  17.314  0.2573  0.0785 -0.0745
 8202SOL    HW136242   1.911   2.765  17.337 -0.0972  1.6479 -2.4463
 8202SOL    HW236243   1.876   2.682  17.234  1.3921  0.7979  0.2519
 8203SOL     OW36244   2.114   0.865   1.773 -0.3518 -0.2435 -0.0832
 8203SOL    HW136245   2.125   0.773   1.747 -0.6915 -0.0035 -1.0438
 8203SOL    HW236246   2.079   0.915   1.701 -2.1941 -1.0155  0.2785
 8204SOL     OW36247   1.717   0.758  14.174 -0.1854  0.1379  0.2586
 8204SOL    HW136248   1.758   0.785  14.256 -2.1238  2.1755  0.5422
 8204SOL    HW236249   1.699   0.841  14.131 -0.0282 -1.8074 -3.5895
 8205SOL     OW36250   0.884   3.738   3.424 -0.2681 -0.3930  0.2717
 8205SOL    HW136251   0.816   3.672   3.438 -0.3502 -0.0709  1.3392
 8205SOL    HW236252   0.930   3.731   3.508 -0.5495 -3.2360  0.2033
 8206SOL     OW36253   1.320   2.639   7.257 -0.0129  0.3307  0.0000
 8206SOL    HW136254   1.371   2.569   7.297 -1.2705 -0.6450 -0.1226
 8206SOL    HW236255   1.235   2.599   7.239  1.2771 -2.2712 -0.2238
 8207SOL     OW36256   2.111   4.555   4.657 -0.3275 -0.1678 -0.2004
 8207SOL    HW136257   2.060   4.635   4.672  0.6009  0.2568  0.7457
 8207SOL    HW236258   2.188   4.595   4.616  0.1253  0.0796  0.8767
 8208SOL     OW36259   1.130   0.518   8.347 -0.5677  0.4040 -0.5159
 8208SOL    HW136260   1.200   0.567   8.391 -0.0897  0.7341 -1.6665
 8208SOL    HW236261   1.063   0.587   8.346 -1.1929 -0.2105 -0.7701
 8209SOL     OW36262   3.752   0.294   5.901 -0.5095  0.4489  0.1370
 8209SOL    HW136263   3.797   0.349   5.964  0.0253 -0.1442  0.2748
 8209SOL    HW236264   3.809   0.218   5.908  0.0338  0.8065 -0.4489
 8210SOL     OW36265   0.614   3.675  17.560 -0.5282  0.2364  0.2449
 8210SOL    HW136266   0.653   3.713  17.481  0.1068  0.5831  0.7231
 8210SOL    HW236267   0.530   3.645  17.527  0.5974 -2.7636  0.1406
 8211SOL     OW36268   4.249   1.094   5.809  0.2390  0.0429  0.2746
 8211SOL    HW136269   4.309   1.163   5.836  0.6649  0.0465 -0.6864
 8211SOL    HW236270   4.307   1.032   5.763  0.7429  1.4912 -1.0249
 8212SOL     OW36271   3.755   0.037   5.527 -0.1132 -0.5586  0.0997
 8212SOL    HW136272   3.772   4.683   5.550  1.6882 -0.6077 -1.3571
 8212SOL    HW236273   3.827   0.068   5.471 -0.8240  0.5635 -0.1997
 8213SOL     OW36274   3.823   0.670   3.254  0.0347  0.2948 -0.1851
 8213SOL    HW136275   3.802   0.728   3.181 -0.9499  1.5013  1.0638
 8213SOL    HW236276   3.741   0.628   3.279 -1.3015  2.9936 -0.1045
 8214SOL     OW36277   1.552   0.375   6.139  0.4110  0.1424 -0.1649
 8214SOL    HW136278   1.580   0.466   6.129 -1.3419  0.9317  2.1085
 8214SOL    HW236279   1.540   0.359   6.046  0.1765 -1.3299  0.1167
 8215SOL     OW36280   2.056   4.032   3.475 -0.5040  0.2637  0.2865
 8215SOL    HW136281   2.019   4.119   3.467  1.2382  0.9143 -0.8268
 8215SOL    HW236282   2.056   4.003   3.383  1.8946  1.2333 -0.0326
 8216SOL     OW36283   3.788   2.893   5.051  0.3985 -0.0417 -0.9079
 8216SOL    HW136284   3.741   2.960   5.101  2.9415  0.4308  0.8929
 8216SOL    HW236285   3.804   2.936   4.967  1.5954  2.0723  0.4148
 8217SOL     OW36286   3.519   0.121   3.996 -0.3260 -0.3052 -0.3024
 8217SOL    HW136287   3.535   0.027   4.004  1.5900  0.0459 -0.0985
 8217SOL    HW236288   3.553   0.152   4.080 -1.8908  2.0360 -0.5285
 8218SOL     OW36289   2.574   1.859  17.367  0.7495  0.7103 -0.4500
 8218SOL    HW136290   2.607   1.815  17.288 -0.6878  0.3472 -0.8388
 8218SOL    HW236291   2.554   1.949  17.342 -2.1710  0.3160  0.5175
 8219SOL     OW36292   2.305   4.335   0.952 -0.2306 -0.2470  0.2078
 8219SOL    HW136293   2.244   4.361   0.883 -0.0432  0.7937  0.4359
 8219SOL    HW236294   2.295   4.392   1.028 -0.8275  0.1745 -0.1863
 8220SOL     OW36295   0.544   0.266   1.866 -0.1026 -0.0568 -0.6950
 8220SOL    HW136296   0.538   0.356   1.834  1.6202 -0.2202 -1.4882
 8220SOL    HW236297   0.461   0.269   1.913 -0.7471 -0.6354 -1.7739
 8221SOL     OW36298   2.481   0.447   3.595 -0.3566 -0.2332 -0.4328
 8221SOL    HW136299   2.490   0.539   3.571 -0.9379  0.6194  2.6464
 8221SOL    HW236300   2.500   0.449   3.688 -1.1447 -1.5136 -0.2316
 8222SOL     OW36301   1.436   4.378   7.440 -0.0778  0.0624  0.5538
 8222SOL    HW136302   1.381   4.312   7.398  0.9016 -0.4755  0.0959
 8222SOL    HW236303   1.433   4.345   7.529  1.4166 -1.3494  0.0838
 8223SOL     OW36304   2.273   1.102   4.690  0.0848  0.3225  0.4829
 8223SOL    HW136305   2.357   1.060   4.672 -0.1952  0.7171 -1.7115
 8223SOL    HW236306   2.298   1.149   4.770  3.0548 -1.8055  0.8196
 8224SOL     OW36307   0.284   1.514   4.992  0.1981 -0.0352 -0.3559
 8224SOL    HW136308   0.218   1.466   5.042  2.2830 -2.0951  0.4644
 8224SOL    HW236309   0.354   1.497   5.056  1.6236 -2.6994 -2.6411
 8225SOL     OW36310   1.707   2.345   7.530  0.9755 -0.7420 -0.6203
 8225SOL    HW136311   1.741   2.255   7.525  1.3782 -0.6856  1.3613
 8225SOL    HW236312   1.679   2.351   7.438  0.8368  1.1274 -0.4516
 8226SOL     OW36313   4.596   4.515   7.597 -0.1936 -0.1685 -0.0321
 8226SOL    HW136314   4.504   4.492   7.589 -0.3367  0.5474 -0.4446
 8226SOL    HW236315   4.638   4.450   7.542 -0.3399  0.7581 -1.2462
 8227SOL     OW36316   3.102   4.617  13.636  0.2657  0.5195 -0.6158
 8227SOL    HW136317   3.049   4.550  13.678  1.2022  0.9622  1.3103
 8227SOL    HW236318   3.037   4.655  13.577  1.4185 -0.0886 -2.2751
 8228SOL     OW36319   3.015   2.106   4.052 -0.0593  0.0257  0.3374
 8228SOL    HW136320   2.972   2.131   4.133 -1.3320 -2.0216  0.2974
 8228SOL    HW236321   3.040   2.018   4.080  2.1159  0.1897 -1.0422
 8229SOL     OW36322   4.371   2.437   9.619 -0.5076  0.2600 -0.1164
 8229SOL    HW136323   4.460   2.452   9.651 -0.5977  0.2599  0.1328
 8229SOL    HW236324   4.369   2.346   9.649 -0.7051  0.1711 -0.3973
 8230SOL     OW36325   2.278   3.260   7.840 -0.1281  0.1949 -0.3122
 8230SOL    HW136326   2.244   3.347   7.861 -1.0273 -0.3966  0.6849
 8230SOL    HW236327   2.370   3.262   7.867 -0.5038  0.3879  0.9636
 8231SOL     OW36328   3.198   0.518   4.892 -0.3734 -0.5954  0.8197
 8231SOL    HW136329   3.193   0.467   4.812  2.0669  1.3513 -0.5818
 8231SOL    HW236330   3.280   0.562   4.869 -0.6792 -0.5431 -0.1749
 8232SOL     OW36331   3.936   0.492   6.070  0.2618  0.4342  0.3346
 8232SOL    HW136332   3.958   0.522   6.158  0.9195  0.4043  0.1760
 8232SOL    HW236333   4.015   0.442   6.050 -0.0512  0.8248 -1.8850
 8233SOL     OW36334   4.541   1.836  10.329 -0.0141 -0.0692  0.3784
 8233SOL    HW136335   4.451   1.867  10.340  0.0623  0.1605  0.3698
 8233SOL    HW236336   4.543   1.811  10.236  0.9579  1.4179 -0.0004
 8234SOL     OW36337   1.065   0.649   6.650 -0.1003 -0.2628 -0.2265
 8234SOL    HW136338   1.103   0.586   6.711 -0.5434 -0.4034 -0.1002
 8234SOL    HW236339   1.134   0.693   6.600 -0.9734  0.9319 -0.3781
 8235SOL     OW36340   2.127   3.338  13.943  0.1632  0.8787  0.0985
 8235SOL    HW136341   2.089   3.403  13.884  1.7151  2.5573  0.9101
 8235SOL    HW236342   2.051   3.288  13.972  0.0351  0.3130 -1.1961
 8236SOL     OW36343   2.730   3.739   9.979 -0.6176  0.0473  0.4082
 8236SOL    HW136344   2.653   3.796   9.983 -0.1185  0.7397  0.2295
 8236SOL    HW236345   2.697   3.668  10.033  0.3443 -1.7729 -1.3751
 8237SOL     OW36346   3.489   4.360   4.891 -0.2776 -0.6322  0.1727
 8237SOL    HW136347   3.471   4.319   4.806  2.0445  0.5528 -0.9138
 8237SOL    HW236348   3.411   4.335   4.940 -0.7452 -1.3531 -0.9388
 8238SOL     OW36349   3.275   0.030   6.969 -0.5826 -0.1829 -0.5681
 8238SOL    HW136350   3.197   4.727   7.008 -1.2597 -1.2884 -3.1278
 8238SOL    HW236351   3.238   0.083   6.899 -0.1186  0.3314 -0.4235
 8239SOL     OW36352   4.320   1.565  16.984 -0.3997 -0.2981 -0.2783
 8239SOL    HW136353   4.397   1.526  16.943  1.2888  2.3689  0.3309
 8239SOL    HW236354   4.343   1.658  16.983 -0.7836 -0.2118 -1.1886
 8240SOL     OW36355   1.167   4.275   5.101  0.2696  0.0378  0.1893
 8240SOL    HW136356   1.221   4.338   5.053 -0.0742 -1.1086 -1.6951
 8240SOL    HW236357   1.220   4.204   5.067 -1.0525 -0.4396 -0.8645
 8241SOL     OW36358   4.086   1.863   3.629  0.2251 -0.6030 -0.4016
 8241SOL    HW136359   4.014   1.861   3.566  0.1622  4.7226 -0.4878
 8241SOL    HW236360   4.086   1.778   3.673 -1.1813 -0.6690 -0.5275
 8242SOL     OW36361   4.055   1.724   4.268 -0.2980  0.2774  0.0787
 8242SOL    HW136362   4.030   1.694   4.356 -0.2888  1.2974  0.4244
 8242SOL    HW236363   3.989   1.793   4.256  0.4070  0.8391 -0.5320
 8243SOL     OW36364   0.602   3.611   1.241  0.1485 -0.6723 -0.0562
 8243SOL    HW136365   0.684   3.608   1.193  0.5522 -1.3643  0.6693
 8243SOL    HW236366   0.566   3.695   1.214  0.5630 -0.8133 -1.0257
 8244SOL     OW36367   4.153   0.989  16.811  0.4159  0.0523 -0.5501
 8244SOL    HW136368   4.202   0.956  16.736  0.6602 -2.1190  0.5580
 8244SOL    HW236369   4.143   0.909  16.863 -0.2621 -1.4839 -3.0526
 8245SOL     OW36370   1.734   4.685   2.076 -0.5322  0.3357  0.1445
 8245SOL    HW136371   1.813   4.635   2.094  0.3954  1.3098 -1.2625
 8245SOL    HW236372   1.722   4.717   2.165  0.3120  0.0064  0.3691
 8246SOL     OW36373   2.047   4.593  12.831  0.2180  0.3638  0.9060
 8246SOL    HW136374   2.077   4.684  12.838  0.8932  0.1215  1.1525
 8246SOL    HW236375   2.117   4.549  12.784  0.0224  1.2944 -0.2717
 8247SOL     OW36376   0.385   0.259   2.728  0.3634 -0.3499 -0.3317
 8247SOL    HW136377   0.372   0.165   2.730  0.2133 -0.3362 -0.6396
 8247SOL    HW236378   0.468   0.268   2.775  0.1844 -0.9645  0.0960
 8248SOL     OW36379   4.734   3.437   9.574  0.4771 -0.3010  0.3543
 8248SOL    HW136380   0.071   3.383   9.546 -1.2100 -2.0801 -0.6929
 8248SOL    HW236381   4.702   3.385   9.648  1.5331 -2.9968 -1.0488
 8249SOL     OW36382   2.737   2.470   5.182 -0.2375 -0.3865  0.6638
 8249SOL    HW136383   2.783   2.529   5.122 -2.6649 -0.6090 -1.4109
 8249SOL    HW236384   2.795   2.395   5.175 -0.3959 -0.4754  0.2859
 8250SOL     OW36385   0.236   3.073  17.666  0.0123  0.2845 -0.5577
 8250SOL    HW136386   0.330   3.083  17.651  0.0545  2.1262  0.9135
 8250SOL    HW236387   0.196   3.100  17.584  0.1905 -0.5974 -0.9302
 8251SOL     OW36388   0.159   0.101   9.559 -0.1474  0.3115  0.2180
 8251SOL    HW136389   0.068   0.077   9.576 -0.4593  1.7508  0.5978
 8251SOL    HW236390   0.195   0.092   9.647  0.3246  0.5490  0.0475
 8252SOL     OW36391   4.118   4.633   4.916  0.0340  0.4164  0.4262
 8252SOL    HW136392   4.205   4.594   4.902 -0.8552 -0.4773 -2.6027
 8252SOL    HW236393   4.118   4.709   4.858 -0.2788  2.0160  2.5226
 8253SOL     OW36394   0.630   1.815   5.033  0.3363 -0.0539  0.3494
 8253SOL    HW136395   0.665   1.903   5.015  1.5766 -0.7714 -0.6873
 8253SOL    HW236396   0.556   1.829   5.092  0.2971  2.0173 -0.1628
 8254SOL     OW36397   1.611   4.582   7.498 -0.2673 -0.0930 -0.4929
 8254SOL    HW136398   1.624   4.630   7.417 -2.3509  1.3570  0.0443
 8254SOL    HW236399   1.550   4.510   7.484  0.7636 -0.8089 -1.2625
 8255SOL     OW36400   3.173   1.696  17.655  0.2452 -0.3161  0.0337
 8255SOL    HW136401   3.138   1.640  17.724 -0.2007  1.1298  0.9708
 8255SOL    HW236402   3.096   1.751  17.645  0.8743  0.6583  0.5502
 8256SOL     OW36403   3.592   0.502   3.254  0.5138  0.1785 -0.4100
 8256SOL    HW136404   3.500   0.487   3.233  0.9258 -1.0353 -1.3555
 8256SOL    HW236405   3.618   0.428   3.310  1.7082 -0.6529 -2.0695
 8257SOL     OW36406   3.302   2.165   5.308 -0.5127  0.4426  0.7191
 8257SOL    HW136407   3.273   2.135   5.222 -1.3904 -0.2684  1.2542
 8257SOL    HW236408   3.353   2.243   5.285  2.2402 -1.7396 -0.5890
 8258SOL     OW36409   0.374   2.507   4.022  0.3698 -0.4212  0.7459
 8258SOL    HW136410   0.369   2.432   4.082  1.9526 -0.1711  1.1824
 8258SOL    HW236411   0.302   2.490   3.961  0.4197  0.7608  0.3618
 8259SOL     OW36412   1.909   2.683   1.484 -0.2061  0.2957  0.1027
 8259SOL    HW136413   1.834   2.742   1.493 -0.3750 -0.1416  1.6523
 8259SOL    HW236414   1.935   2.690   1.576  0.6367 -1.6529  0.0184
 8260SOL     OW36415   3.152   3.601   9.632 -0.2194  0.2852  0.1381
 8260SOL    HW136416   3.135   3.613   9.538  1.3445  0.6450 -0.0978
 8260SOL    HW236417   3.193   3.514   9.628 -0.2275  0.2360  1.1128
 8261SOL     OW36418   1.051   4.633  11.919  0.8830  0.1963  0.4120
 8261SOL    HW136419   1.073   4.725  11.932 -0.2081  0.4471  0.4606
 8261SOL    HW236420   1.123   4.613  11.859  0.3664  1.9452 -0.7811
 8262SOL     OW36421   1.558   4.522   2.735 -0.0076 -0.2620 -0.0857
 8262SOL    HW136422   1.556   4.593   2.671 -3.2889  0.1056  0.4110
 8262SOL    HW236423   1.513   4.568   2.805 -1.4612  0.2002 -1.3391
 8263SOL     OW36424   2.698   1.040   6.283 -0.1439 -0.7024  0.3699
 8263SOL    HW136425   2.712   1.082   6.199 -1.4799  1.5630  1.2842
 8263SOL    HW236426   2.649   1.112   6.321  1.5328  1.3341 -1.3466
 8264SOL     OW36427   0.848   3.047   3.731  0.3960  0.3609 -0.4807
 8264SOL    HW136428   0.881   2.957   3.736  1.5712  0.5994 -3.7422
 8264SOL    HW236429   0.871   3.072   3.820 -0.7776  2.0772 -0.6782
 8265SOL     OW36430   4.175   2.132   3.786 -0.3513 -0.2300 -0.1304
 8265SOL    HW136431   4.215   2.045   3.790  1.1109  0.4063 -0.8981
 8265SOL    HW236432   4.199   2.156   3.696 -0.2351 -0.9995 -0.3049
 8266SOL     OW36433   4.710   2.849  10.978 -0.3649  0.0590  0.1771
 8266SOL    HW136434   0.006   2.829  10.891 -3.1243 -1.6106 -0.4909
 8266SOL    HW236435   0.054   2.844  11.029  0.3325  1.9986 -0.7375
 8267SOL     OW36436   0.936   1.862   4.730 -0.0745 -0.2830 -0.3700
 8267SOL    HW136437   0.889   1.935   4.690  1.8575  1.6386  0.8339
 8267SOL    HW236438   0.867   1.809   4.770  0.0170  0.5353  0.9063
 8268SOL     OW36439   2.471   3.928   2.171  0.0379 -0.3893 -0.6102
 8268SOL    HW136440   2.418   3.902   2.246  0.6914 -0.8604 -0.3085
 8268SOL    HW236441   2.480   3.847   2.121  0.0605 -0.8948  0.2117
 8269SOL     OW36442   2.269   3.638   7.753  0.4109  0.2913  0.2818
 8269SOL    HW136443   2.306   3.585   7.682  1.6252 -0.0151  1.1606
 8269SOL    HW236444   2.285   3.723   7.712 -0.4500  1.6411  2.7419
 8270SOL     OW36445   2.266   2.366   1.095 -0.5059 -0.3765 -0.5050
 8270SOL    HW136446   2.356   2.390   1.073 -0.8763 -1.0056 -2.7007
 8270SOL    HW236447   2.263   2.274   1.069  0.6919 -0.8746  1.1186
 8271SOL     OW36448   0.189   1.996   4.643  0.0069  0.5621  0.4166
 8271SOL    HW136449   0.232   2.052   4.707 -0.8156  0.5574  0.9735
 8271SOL    HW236450   0.188   1.911   4.686 -0.9416  0.7100  0.6802
 8272SOL     OW36451   0.855   1.484  12.056  0.1262 -0.3264  0.2719
 8272SOL    HW136452   0.859   1.555  12.120  1.4210 -0.4729  0.3480
 8272SOL    HW236453   0.762   1.461  12.056  0.5032 -1.8455 -1.7269
 8273SOL     OW36454   3.048   3.543  15.582  0.4716  0.4666  0.4208
 8273SOL    HW136455   3.031   3.634  15.558 -0.4164  0.1374 -0.1821
 8273SOL    HW236456   2.958   3.516  15.600 -0.0618  2.2626  0.5207
 8274SOL     OW36457   4.716   4.426   2.695  0.3108 -0.2864  0.1377
 8274SOL    HW136458   0.013   4.476   2.620  3.7176 -2.6236  0.1424
 8274SOL    HW236459   0.039   4.460   2.761  0.4582  0.5653 -0.4260
 8275SOL     OW36460   2.068   3.105   3.463  0.5999 -0.5637  0.3009
 8275SOL    HW136461   1.998   3.133   3.404 -1.4836 -1.9051  2.1604
 8275SOL    HW236462   2.045   3.172   3.527  2.8275  0.1745  0.3504
 8276SOL     OW36463   1.632   2.376   4.483 -0.0835  0.0870  0.7357
 8276SOL    HW136464   1.654   2.426   4.405 -0.6989  0.9680  1.1416
 8276SOL    HW236465   1.649   2.285   4.459 -2.2325 -0.1809  0.2479
 8277SOL     OW36466   2.654   3.815   4.923 -0.9433 -0.4232 -0.1485
 8277SOL    HW136467   2.669   3.721   4.938  1.0312  0.3519  2.8788
 8277SOL    HW236468   2.658   3.849   5.013 -2.5555 -1.3979  0.2845
 8278SOL     OW36469   0.348   4.422  17.036  0.0645 -0.8022  0.0761
 8278SOL    HW136470   0.281   4.355  17.047  0.0903 -0.8817 -0.2400
 8278SOL    HW236471   0.389   4.414  16.950 -2.3762  1.9927 -1.3857
 8279SOL     OW36472   2.648   2.676  12.171  0.4152 -0.4105  0.8015
 8279SOL    HW136473   2.717   2.647  12.112 -0.1036  2.5313 -1.2330
 8279SOL    HW236474   2.571   2.645  12.124 -0.4856 -0.1572  2.0985
 8280SOL     OW36475   2.630   0.627  11.846  0.2730  0.1588  0.2956
 8280SOL    HW136476   2.578   0.554  11.813  0.7715 -1.0569  2.1870
 8280SOL    HW236477   2.711   0.580  11.825 -0.3750 -1.3899  1.2156
 8281SOL     OW36478   2.073   0.917   4.087 -0.1196 -0.2263  0.8172
 8281SOL    HW136479   2.043   0.892   3.999 -0.4140 -0.4729  0.9878
 8281SOL    HW236480   2.028   1.001   4.094 -2.4571 -1.4609  0.5402
 8282SOL     OW36481   2.971   2.792   6.625 -0.5331 -0.2961 -0.2433
 8282SOL    HW136482   2.986   2.734   6.700  2.9637 -0.6424 -1.2279
 8282SOL    HW236483   2.888   2.836   6.642  0.1382  0.0055  2.1505
 8283SOL     OW36484   1.892   0.414  10.575 -0.6504  0.0750 -0.0603
 8283SOL    HW136485   1.871   0.354  10.503 -1.4539  1.5807 -1.0703
 8283SOL    HW236486   1.986   0.417  10.563 -0.5741 -0.8761  0.2686
 8284SOL     OW36487   0.628   3.507   8.399 -0.4127  0.2308  0.0925
 8284SOL    HW136488   0.579   3.437   8.355 -3.0504  1.4124  1.1441
 8284SOL    HW236489   0.566   3.580   8.395  0.9792  1.4294  0.4622
 8285SOL     OW36490   0.726   1.312  15.720  0.1827  0.0179 -0.6520
 8285SOL    HW136491   0.809   1.358  15.704  0.9714 -1.3266 -0.4675
 8285SOL    HW236492   0.755   1.221  15.718 -1.3766 -0.4701 -0.8458
 8286SOL     OW36493   2.206   4.053   4.214 -0.2359  0.3712 -0.1463
 8286SOL    HW136494   2.299   4.034   4.219  0.4243  3.5405 -0.3699
 8286SOL    HW236495   2.171   3.966   4.230 -0.8636  0.7095  0.3653
 8287SOL     OW36496   1.847   1.840   9.007 -0.0593 -0.6667  0.4970
 8287SOL    HW136497   1.885   1.915   8.960  1.6405 -0.6428  1.8961
 8287SOL    HW236498   1.923   1.790   9.039 -0.0534  0.5248  2.3851
 8288SOL     OW36499   1.487   1.821   1.393  0.1302  0.3688 -0.0125
 8288SOL    HW136500   1.563   1.768   1.415 -1.0973 -1.6324 -0.5779
 8288SOL    HW236501   1.420   1.765   1.432 -0.9574  2.7034  1.4346
 8289SOL     OW36502   3.997   4.280  13.228  0.1957 -0.2904  0.1487
 8289SOL    HW136503   4.053   4.335  13.173  0.7386 -1.9802 -0.9652
 8289SOL    HW236504   3.927   4.248  13.171  0.6513 -1.1264  0.0707
 8290SOL     OW36505   3.631   0.181   2.135 -0.1286  0.0566  0.2982
 8290SOL    HW136506   3.535   0.190   2.138 -0.3500 -2.1627  0.1214
 8290SOL    HW236507   3.644   0.173   2.041 -1.1896 -2.0828  0.3257
 8291SOL     OW36508   1.917   3.576   9.981 -0.0300  0.4956 -0.1733
 8291SOL    HW136509   1.862   3.650   9.953 -0.5258 -0.0778 -0.7412
 8291SOL    HW236510   1.865   3.510   9.935 -1.6249  2.2776 -0.9200
 8292SOL     OW36511   1.195   3.558   6.692 -0.4116 -0.1878  0.0457
 8292SOL    HW136512   1.164   3.530   6.778  0.6263  2.1031  1.1784
 8292SOL    HW236513   1.286   3.576   6.715 -1.0336  2.0164  0.8073
 8293SOL     OW36514   2.164   1.651  16.919  0.3821  0.3608  0.0207
 8293SOL    HW136515   2.077   1.617  16.896 -0.4424  0.3975  3.1370
 8293SOL    HW236516   2.154   1.681  17.009 -0.8106  1.0030 -0.3183
 8294SOL     OW36517   3.926   4.075   2.471 -0.0178 -0.0292  0.3698
 8294SOL    HW136518   3.871   4.153   2.464  1.5250  1.1925  1.6350
 8294SOL    HW236519   3.878   4.031   2.541 -0.8747 -2.0722 -1.5259
 8295SOL     OW36520   1.058   2.960   2.235 -0.0781 -0.3314 -0.7317
 8295SOL    HW136521   1.116   3.029   2.203 -1.4254  0.5926 -1.1531
 8295SOL    HW236522   0.990   3.021   2.262  0.5374 -0.9439  2.2799
 8296SOL     OW36523   2.023   2.674   7.519 -0.5129 -0.8297  0.0349
 8296SOL    HW136524   1.988   2.713   7.438  1.5053  1.3940  0.2465
 8296SOL    HW236525   2.115   2.694   7.502 -1.3063  1.0931 -2.0050
 8297SOL     OW36526   2.155   4.148  16.384 -0.0424  0.2685 -0.5398
 8297SOL    HW136527   2.211   4.211  16.338 -1.2623  2.0802  0.4371
 8297SOL    HW236528   2.071   4.194  16.383  1.2337  2.6047 -0.6159
 8298SOL     OW36529   1.059   0.942   4.454  0.4971  0.1355 -0.3275
 8298SOL    HW136530   1.017   1.028   4.449 -1.5243 -0.7723  0.8104
 8298SOL    HW236531   1.141   0.976   4.489  0.4378  0.0037 -0.0596
 8299SOL     OW36532   0.460   0.749  12.267 -0.1077  0.0153 -0.3559
 8299SOL    HW136533   0.445   0.825  12.212 -0.5653 -0.5283 -0.9753
 8299SOL    HW236534   0.549   0.771  12.296  0.2469 -2.4645  0.4766
 8300SOL     OW36535   0.403   3.891   2.267  0.1066 -0.6547  0.0816
 8300SOL    HW136536   0.334   3.829   2.243  0.2792 -0.1665 -1.6819
 8300SOL    HW236537   0.474   3.830   2.289 -1.7847 -2.8771  0.0715
 8301SOL     OW36538   2.643   2.713  17.729  0.3221 -0.3347  0.1807
 8301SOL    HW136539   2.725   2.724  17.681  0.7894 -1.6059  0.6906
 8301SOL    HW236540   2.587   2.764  17.670 -1.3274 -2.2398  0.1212
 8302SOL     OW36541   1.588   3.032  14.485  0.3473  0.1882  0.0237
 8302SOL    HW136542   1.526   2.961  14.470 -0.1228  0.0781  2.4026
 8302SOL    HW236543   1.634   2.985  14.555 -2.3076  1.6483  2.7774
 8303SOL     OW36544   1.287   0.413   8.895 -0.4084  0.2697 -0.3896
 8303SOL    HW136545   1.357   0.373   8.844  0.6968  0.7296  0.7487
 8303SOL    HW236546   1.245   0.448   8.817 -0.5505  0.2507 -0.3217
 8304SOL     OW36547   1.519   2.006   4.054 -0.1710  0.2244 -0.3312
 8304SOL    HW136548   1.615   1.999   4.051 -0.3407 -2.3545  0.7354
 8304SOL    HW236549   1.493   1.914   4.051  0.0766  0.1206  0.6353
 8305SOL     OW36550   0.944   4.107   6.158 -0.9674  0.0772  0.3647
 8305SOL    HW136551   1.028   4.064   6.143 -0.5724  0.6453  0.9389
 8305SOL    HW236552   0.967   4.185   6.209 -0.7337  0.2750 -0.0400
 8306SOL     OW36553   1.505   3.770   2.656  0.2142  0.0626  0.5692
 8306SOL    HW136554   1.468   3.697   2.606  0.2004  1.0565 -0.8558
 8306SOL    HW236555   1.431   3.787   2.715 -0.9871  0.1175 -0.9695
 8307SOL     OW36556   0.582   3.977   0.974  0.1506  0.5735 -0.1502
 8307SOL    HW136557   0.501   4.028   0.977  1.5053  2.6288  0.5641
 8307SOL    HW236558   0.576   3.929   0.891 -0.0809  0.1156  0.1290
 8308SOL     OW36559   2.432   2.843   3.340  0.2620  0.6185  0.3207
 8308SOL    HW136560   2.475   2.900   3.275  0.9443 -0.7413 -0.4163
 8308SOL    HW236561   2.481   2.765   3.314  2.2120  2.1092 -0.5448
 8309SOL     OW36562   1.817   0.057   2.805 -0.2432 -0.3239  0.1839
 8309SOL    HW136563   1.820   4.731   2.876  0.5926 -0.4254  0.0583
 8309SOL    HW236564   1.839   0.139   2.848 -0.1729 -1.0640  1.5528
 8310SOL     OW36565   2.925   1.645   8.168  0.4804 -0.3384  0.2474
 8310SOL    HW136566   2.931   1.691   8.252  0.1937 -0.8681  0.5569
 8310SOL    HW236567   2.922   1.718   8.106  0.5019 -1.6265 -1.2946
 8311SOL     OW36568   3.862   3.920  16.238  0.0897  0.1339  0.0900
 8311SOL    HW136569   3.833   3.829  16.229  1.8195 -0.2937 -1.3075
 8311SOL    HW236570   3.955   3.920  16.213 -0.2675  0.1318 -1.2630
 8312SOL     OW36571   3.284   1.641   3.027  0.1547  0.5691  0.0283
 8312SOL    HW136572   3.248   1.721   3.064  0.5766  0.0292  1.5967
 8312SOL    HW236573   3.209   1.585   3.006  1.2791 -0.5456 -1.0315
 8313SOL     OW36574   0.864   4.315   7.176  0.1670 -0.4572  0.1146
 8313SOL    HW136575   0.859   4.391   7.233  1.4301 -0.6298  0.4460
 8313SOL    HW236576   0.957   4.295   7.168  0.2239 -0.1086 -0.0833
 8314SOL     OW36577   3.908   3.909  14.736  0.2453  0.4992  0.1519
 8314SOL    HW136578   3.876   3.989  14.695 -2.9076  0.4399  2.5006
 8314SOL    HW236579   3.860   3.841  14.688  2.0243 -2.7194  2.8968
 8315SOL     OW36580   0.623   0.914  12.969  0.1313 -0.0803  0.2331
 8315SOL    HW136581   0.545   0.900  13.024  0.8146  1.2913  1.5476
 8315SOL    HW236582   0.604   0.844  12.906  0.1041 -0.6556  0.8899
 8316SOL     OW36583   2.687   2.428   7.987 -0.6726  0.2365 -0.0170
 8316SOL    HW136584   2.604   2.466   8.014 -1.3129 -0.2566 -1.3313
 8316SOL    HW236585   2.718   2.492   7.923  0.5187 -0.1712  0.1546
 8317SOL     OW36586   0.241   4.264   3.908  0.7820 -0.2380  0.1560
 8317SOL    HW136587   0.300   4.332   3.874  0.6059 -0.7479 -1.1899
 8317SOL    HW236588   0.159   4.298   3.872  1.5988  0.7328 -0.7777
 8318SOL     OW36589   1.693   2.689   1.840  0.5162 -0.0914  0.2990
 8318SOL    HW136590   1.704   2.594   1.843 -0.1245 -0.2560 -2.2080
 8318SOL    HW236591   1.598   2.697   1.850  0.5654 -1.9856  2.4055
 8319SOL     OW36592   0.922   2.157   1.969 -0.1429 -0.0166  0.7093
 8319SOL    HW136593   0.930   2.109   2.051 -0.1826 -1.3146 -0.0421
 8319SOL    HW236594   0.965   2.239   1.992 -0.6143  0.9342 -1.8906
 8320SOL     OW36595   1.185   0.284  10.868  0.0573  0.2931  0.1172
 8320SOL    HW136596   1.227   0.369  10.879 -0.3368  0.4974  0.0312
 8320SOL    HW236597   1.186   0.283  10.773  0.3492 -0.1594  0.1211
 8321SOL     OW36598   1.955   4.648   4.268  0.0195 -0.0592  0.3847
 8321SOL    HW136599   1.957   0.004   4.288 -1.2460  0.1103 -0.3212
 8321SOL    HW236600   2.043   4.648   4.229 -0.3933 -1.8295 -0.5285
 8322SOL     OW36601   1.772   1.728   2.421 -0.2002  0.1658 -0.3608
 8322SOL    HW136602   1.697   1.672   2.400 -1.9838  1.5040  2.3940
 8322SOL    HW236603   1.801   1.739   2.330  0.7594 -0.4862 -0.1306
 8323SOL     OW36604   3.951   2.508   4.434  0.2905  0.6996 -0.3914
 8323SOL    HW136605   3.978   2.533   4.346  0.3950  0.7321 -0.3497
 8323SOL    HW236606   3.993   2.423   4.449 -3.0448 -0.8020  0.4456
 8324SOL     OW36607   2.332   4.453   6.798  0.7322 -0.2795  0.1136
 8324SOL    HW136608   2.279   4.524   6.836 -0.5978 -1.0307 -0.3490
 8324SOL    HW236609   2.374   4.500   6.726  0.6928  0.9734  0.8977
 8325SOL     OW36610   2.352   2.561   3.352  0.0366  0.0481  0.0484
 8325SOL    HW136611   2.309   2.557   3.266  1.9742  1.1917 -0.9875
 8325SOL    HW236612   2.317   2.649   3.370  0.7510  0.8246 -2.3009
 8326SOL     OW36613   2.581   0.311   9.418 -0.3424  0.3452 -0.0448
 8326SOL    HW136614   2.500   0.266   9.394 -0.4989 -0.6955  2.4146
 8326SOL    HW236615   2.633   0.256   9.359 -1.5401 -0.1768 -0.6124
 8327SOL     OW36616   2.909   2.309   7.089  0.0419  0.1975  0.1811
 8327SOL    HW136617   2.867   2.334   7.171 -1.6983 -0.4334 -0.5367
 8327SOL    HW236618   2.993   2.354   7.104 -0.4769  0.5029  2.0859
 8328SOL     OW36619   1.588   1.708   5.804 -0.0585 -0.1476 -0.7524
 8328SOL    HW136620   1.538   1.668   5.876  1.9476  1.2065  1.3783
 8328SOL    HW236621   1.639   1.631   5.778 -0.2593 -0.5393 -0.0188
 8329SOL     OW36622   3.489   3.674   0.147  0.4540 -0.3467  0.5923
 8329SOL    HW136623   3.546   3.723   0.206  0.5099  1.5211 -1.0070
 8329SOL    HW236624   3.422   3.741   0.131  0.7348  0.3249  2.3110
 8330SOL     OW36625   0.470   0.447   9.300  0.0263  0.5135  0.0274
 8330SOL    HW136626   0.556   0.461   9.340 -0.8583  1.5658  1.5828
 8330SOL    HW236627   0.430   0.368   9.335 -0.7976  0.4924 -0.9734
 8331SOL     OW36628   0.551   2.858   6.689 -0.0423 -0.8451  0.9888
 8331SOL    HW136629   0.600   2.911   6.753 -1.6725  1.5016  0.2726
 8331SOL    HW236630   0.623   2.803   6.659  0.6240  0.3855  0.3635
 8332SOL     OW36631   1.026   3.756  17.450 -0.1814 -0.2303  0.5252
 8332SOL    HW136632   1.019   3.841  17.407 -0.7693 -1.0798 -1.0537
 8332SOL    HW236633   1.071   3.700  17.387  0.4756  0.1914  0.6192
 8333SOL     OW36634   4.523   4.386   0.731  0.2258 -0.3053  0.6007
 8333SOL    HW136635   4.604   4.437   0.726  1.2338 -1.7418  2.2839
 8333SOL    HW236636   4.537   4.339   0.649  1.3148 -0.1182  0.6785
 8334SOL     OW36637   0.903   2.187   7.910  0.1413 -0.1324  0.2143
 8334SOL    HW136638   0.925   2.248   7.839  0.2639 -1.0514 -0.5328
 8334SOL    HW236639   0.902   2.104   7.863  2.4710 -0.2113  0.3135
 8335SOL     OW36640   0.684   2.744   3.019  0.2803  0.3290  0.1045
 8335SOL    HW136641   0.709   2.728   3.110  0.7150  0.5436  0.0201
 8335SOL    HW236642   0.750   2.693   2.972 -0.0514 -0.0516  0.0452
 8336SOL     OW36643   4.199   1.801  14.935  0.4288  0.3117  0.5199
 8336SOL    HW136644   4.249   1.780  14.855 -1.0302  0.5198 -0.4425
 8336SOL    HW236645   4.109   1.785  14.909  0.3393  0.9094  0.4495
 8337SOL     OW36646   3.741   0.516   2.994  0.0638  0.2169 -0.4276
 8337SOL    HW136647   3.709   0.491   3.080  1.0716  2.3097  0.5654
 8337SOL    HW236648   3.666   0.523   2.935 -0.4459  0.8664  0.2928
 8338SOL     OW36649   1.096   3.173   6.480 -0.2989  0.0202 -0.5228
 8338SOL    HW136650   1.099   3.098   6.420 -2.9658  0.0026 -0.6660
 8338SOL    HW236651   1.188   3.194   6.497 -0.9354  2.2391  0.1687
 8339SOL     OW36652   0.877   0.955   3.040 -0.5724 -0.6488  0.4617
 8339SOL    HW136653   0.872   1.004   3.122  1.0814  0.8185 -0.3229
 8339SOL    HW236654   0.962   0.911   3.039 -0.0455  0.3459  2.2609
 8340SOL     OW36655   0.832   0.340   9.143 -0.0312  0.0851 -0.0534
 8340SOL    HW136656   0.801   0.351   9.233 -1.2138  1.4294 -0.6477
 8340SOL    HW236657   0.914   0.388   9.151  0.9899 -1.4413 -1.2406
 8341SOL     OW36658   0.942   1.742   7.383  0.3154  0.1911 -0.7472
 8341SOL    HW136659   0.924   1.658   7.339  2.2790 -0.4563 -0.3159
 8341SOL    HW236660   0.945   1.709   7.473  0.5944 -0.4878 -1.0001
 8342SOL     OW36661   3.627   1.602   4.875  0.1216  0.4696  0.0160
 8342SOL    HW136662   3.682   1.639   4.806 -2.2581  0.2174 -1.9989
 8342SOL    HW236663   3.697   1.561   4.926 -0.4528 -1.2108 -0.5616
 8343SOL     OW36664   2.452   2.155  11.974  0.0576  0.0732 -0.0119
 8343SOL    HW136665   2.422   2.244  11.958  0.2270  0.0494 -0.4782
 8343SOL    HW236666   2.450   2.150  12.069  2.6277 -0.1974  0.0208
 8344SOL     OW36667   1.153   3.640   8.501 -0.2549 -0.3489 -0.1596
 8344SOL    HW136668   1.080   3.689   8.541 -0.3892 -0.0119 -0.8119
 8344SOL    HW236669   1.100   3.599   8.433 -1.5410  0.3327  0.4320
 8345SOL     OW36670   2.584   1.034  10.355 -0.5387  0.2381 -0.2257
 8345SOL    HW136671   2.624   1.121  10.356  2.1667 -1.0083 -0.1827
 8345SOL    HW236672   2.566   1.025  10.261 -1.6852 -3.1224  0.3121
 8346SOL     OW36673   2.971   1.245   8.267  0.2729 -0.6704 -0.1639
 8346SOL    HW136674   2.902   1.292   8.220 -0.2034 -0.9486  0.2519
 8346SOL    HW236675   2.934   1.158   8.249 -0.9731  0.4490 -3.0395
 8347SOL     OW36676   4.123   1.709   2.291  0.0530 -0.0495 -0.2867
 8347SOL    HW136677   4.118   1.784   2.351 -2.7305 -1.6530  1.4817
 8347SOL    HW236678   4.047   1.670   2.335 -1.0974  0.3847 -1.8860
 8348SOL     OW36679   4.304   0.215   3.909  0.0643 -0.6325 -0.2381
 8348SOL    HW136680   4.378   0.208   3.970 -0.3106 -0.7794  0.1961
 8348SOL    HW236681   4.345   0.213   3.822  1.9943 -1.1212  0.6712
 8349SOL     OW36682   1.997   1.490  11.047 -0.1908  0.4622 -0.4849
 8349SOL    HW136683   1.990   1.395  11.049  1.0317  0.3624 -0.8271
 8349SOL    HW236684   1.951   1.510  11.128 -0.9560  0.4253 -0.9179
 8350SOL     OW36685   2.612   2.304   3.138  0.4932 -0.5088 -0.5444
 8350SOL    HW136686   2.584   2.216   3.112 -0.5804  0.0437 -1.2336
 8350SOL    HW236687   2.572   2.358   3.070 -2.0237 -1.5373  0.1364
 8351SOL     OW36688   4.525   2.235  11.661 -0.1582 -0.2503 -0.4827
 8351SOL    HW136689   4.549   2.285  11.739 -0.9961  0.6251 -0.7840
 8351SOL    HW236690   4.462   2.291  11.615 -0.7247 -2.0043 -1.8290
 8352SOL     OW36691   3.472   2.412   0.344 -0.0814 -0.2534 -0.1324
 8352SOL    HW136692   3.524   2.489   0.323 -0.9470  1.0804  2.6027
 8352SOL    HW236693   3.439   2.431   0.432 -1.4274 -0.4738 -0.5904
 8353SOL     OW36694   4.181   4.094  15.401 -0.2899  0.3358 -0.0982
 8353SOL    HW136695   4.200   4.107  15.308 -0.7716 -1.9853 -0.5212
 8353SOL    HW236696   4.092   4.063  15.390 -0.1925 -0.2786  0.7773
 8354SOL     OW36697   4.362   1.701   4.858  0.3218 -0.6493 -0.0457
 8354SOL    HW136698   4.350   1.609   4.834 -0.2328 -0.1060 -1.8611
 8354SOL    HW236699   4.270   1.726   4.871  1.3674  1.8837  2.4134
 8355SOL     OW36700   1.739   3.523  15.176  0.2862  0.1714  0.2779
 8355SOL    HW136701   1.671   3.590  15.165  0.9279  1.1229  2.0370
 8355SOL    HW236702   1.769   3.515  15.086 -3.5365  0.7077 -1.0351
 8356SOL     OW36703   0.312   3.005   8.012  0.3029 -0.3327 -0.2336
 8356SOL    HW136704   0.251   3.073   8.040 -0.6742 -1.1290 -0.4248
 8356SOL    HW236705   0.333   2.946   8.084 -0.9984 -1.6568 -0.9261
 8357SOL     OW36706   2.673   2.110   8.730 -0.3843  0.3856  0.0619
 8357SOL    HW136707   2.616   2.095   8.655  0.9911 -0.4136 -0.8309
 8357SOL    HW236708   2.742   2.046   8.710 -1.5285 -0.8429  0.0246
 8358SOL     OW36709   3.840   0.203   3.562  0.8831  0.1016 -0.5379
 8358SOL    HW136710   3.787   0.162   3.494 -0.3302  2.3323 -0.9394
 8358SOL    HW236711   3.775   0.211   3.631 -0.8061 -0.1365 -2.1029
 8359SOL     OW36712   4.471   1.095   7.158 -0.0226 -0.0719 -0.3352
 8359SOL    HW136713   4.389   1.047   7.163 -0.4974  0.8305  0.4849
 8359SOL    HW236714   4.455   1.138   7.074  3.3971 -2.9432 -2.4532
 8360SOL     OW36715   3.506   4.652  10.660  0.2841 -0.1101 -0.4529
 8360SOL    HW136716   3.597   4.653  10.630  0.8601 -0.6058  1.2464
 8360SOL    HW236717   3.520   4.612  10.746  0.9929 -1.0691 -1.0063
 8361SOL     OW36718   0.525   0.605   3.422  0.3668  0.0428 -0.3102
 8361SOL    HW136719   0.607   0.563   3.395  0.6697  0.0811  0.5385
 8361SOL    HW236720   0.467   0.530   3.410  0.1433 -0.5218  4.2776
 8362SOL     OW36721   2.191   3.301   5.620  0.1932 -0.5212  0.2265
 8362SOL    HW136722   2.170   3.302   5.713  0.8015 -0.4901  0.3625
 8362SOL    HW236723   2.247   3.379   5.613 -1.2547  0.4542 -0.4545
 8363SOL     OW36724   1.879   1.585   4.447  0.2552  0.4158 -0.0544
 8363SOL    HW136725   1.955   1.556   4.396 -1.1703 -1.5029 -1.0839
 8363SOL    HW236726   1.918   1.629   4.523  0.2913  1.3877 -0.6416
 8364SOL     OW36727   0.614   3.193   6.567 -0.7242 -0.2930 -0.1583
 8364SOL    HW136728   0.631   3.285   6.588  0.9840 -0.3411 -1.3515
 8364SOL    HW236729   0.519   3.191   6.552 -1.1101  3.6344  1.5795
 8365SOL     OW36730   1.745   1.570   3.490 -0.1430 -0.5229 -0.5140
 8365SOL    HW136731   1.797   1.571   3.570 -0.1129 -0.6103 -0.5327
 8365SOL    HW236732   1.717   1.479   3.488  1.0959 -0.9194  0.1810
 8366SOL     OW36733   3.512   2.129  14.517 -0.4611 -0.0665  0.0097
 8366SOL    HW136734   3.503   2.046  14.470 -1.1732  0.2209 -0.3676
 8366SOL    HW236735   3.547   2.099  14.601  2.0016 -0.3710 -1.1461
 8367SOL     OW36736   1.434   2.126   1.627  0.5983  0.2292  0.1667
 8367SOL    HW136737   1.352   2.100   1.670  0.3955  0.3750 -0.1340
 8367SOL    HW236738   1.404   2.149   1.539  0.0469  0.4365  0.4109
 8368SOL     OW36739   2.536   1.464   6.661 -0.1501 -0.6851 -0.0090
 8368SOL    HW136740   2.488   1.546   6.675 -0.6134 -0.6819 -1.5561
 8368SOL    HW236741   2.612   1.491   6.608  0.3636  2.8430  2.4838
 8369SOL     OW36742   0.099   1.127   4.694  0.9592  0.2454 -0.5452
 8369SOL    HW136743   0.102   1.209   4.745 -2.1802  1.0748 -1.6456
 8369SOL    HW236744   0.103   1.058   4.760 -1.8073  1.1598  0.6232
 8370SOL     OW36745   4.287   2.927   6.257 -0.3763 -0.0656 -0.2883
 8370SOL    HW136746   4.249   2.857   6.204 -3.4196  0.9913  0.4810
 8370SOL    HW236747   4.300   2.886   6.343  3.2491  0.4223 -0.5923
 8371SOL     OW36748   2.258   0.705  10.551 -0.0024  0.0684 -0.1614
 8371SOL    HW136749   2.211   0.760  10.614 -0.9800 -1.5942  0.5787
 8371SOL    HW236750   2.256   0.759  10.472 -0.4327  0.2896 -0.0017
 8372SOL     OW36751   2.255   2.381   5.399 -0.3919 -0.3021 -0.0093
 8372SOL    HW136752   2.216   2.437   5.466 -0.5140  0.3850 -0.6589
 8372SOL    HW236753   2.190   2.390   5.330 -0.5074  0.0148  0.1399
 8373SOL     OW36754   0.015   4.165   6.889  0.3159  0.7429  0.2206
 8373SOL    HW136755   4.665   4.204   6.881 -0.3280 -0.5938  0.6930
 8373SOL    HW236756   0.061   4.234   6.842  1.7142 -0.9523 -0.8637
 8374SOL     OW36757   1.266   3.218   2.360  0.2490  0.8094 -0.2240
 8374SOL    HW136758   1.322   3.202   2.284 -0.4759  3.2958 -1.2706
 8374SOL    HW236759   1.181   3.235   2.320 -0.9877 -1.8524  1.2729
 8375SOL     OW36760   1.439   1.085   5.018  0.7485  0.2348 -0.0272
 8375SOL    HW136761   1.426   1.179   5.031 -2.6782 -0.4317  1.3356
 8375SOL    HW236762   1.425   1.074   4.924 -1.3371 -1.6642  0.4810
 8376SOL     OW36763   3.895   3.430  10.898  0.1200 -0.0079 -0.2340
 8376SOL    HW136764   3.974   3.459  10.853  0.5662  0.5345  0.9077
 8376SOL    HW236765   3.838   3.504  10.876 -1.9548 -1.4695  0.2273
 8377SOL     OW36766   2.049   4.163   7.026 -0.0635 -0.0439 -0.1163
 8377SOL    HW136767   2.049   4.148   6.931  1.3235 -1.3519  0.0951
 8377SOL    HW236768   1.979   4.228   7.031  1.3175  1.3681  0.5901
 8378SOL     OW36769   3.104   4.036   2.142 -0.3783  0.0867  0.0697
 8378SOL    HW136770   3.020   4.003   2.172 -0.1179 -0.0454  0.6492
 8378SOL    HW236771   3.130   4.075   2.225  1.9707  1.3835 -1.2562
 8379SOL     OW36772   2.176   2.179   1.402 -0.4896 -0.2935  0.3839
 8379SOL    HW136773   2.101   2.129   1.372  0.1098 -0.0810 -1.4861
 8379SOL    HW236774   2.238   2.168   1.331 -1.4480  0.4384 -0.5678
 8380SOL     OW36775   3.533   2.667  14.721  0.1124  0.2828 -0.6762
 8380SOL    HW136776   3.525   2.760  14.739 -0.0440 -0.0380  0.9474
 8380SOL    HW236777   3.518   2.657  14.627 -1.0051  0.9601 -0.5690
 8381SOL     OW36778   2.155   3.226   1.980  0.1609 -0.0906 -0.2993
 8381SOL    HW136779   2.133   3.202   1.890  0.8268  0.4792 -0.6127
 8381SOL    HW236780   2.250   3.211   1.987  0.6499  2.1849 -2.1547
 8382SOL     OW36781   2.012   3.529   7.695  0.1099  0.1047 -0.0648
 8382SOL    HW136782   2.102   3.550   7.722 -0.9940  0.5790  3.2214
 8382SOL    HW236783   2.033   3.508   7.603 -0.4564  2.0895 -0.6542
 8383SOL     OW36784   1.266   0.068  15.790  0.1741  0.0787  0.0978
 8383SOL    HW136785   1.192   0.085  15.731  1.8198  1.2372 -1.6364
 8383SOL    HW236786   1.326   0.062  15.715 -1.9606  2.4296 -1.7780
 8384SOL     OW36787   0.090   2.736   9.231 -0.2669 -0.3338 -0.6057
 8384SOL    HW136788   0.020   2.719   9.168 -2.1286 -2.2383  1.9784
 8384SOL    HW236789   0.107   2.829   9.218 -0.3836 -0.2124  0.0793
 8385SOL     OW36790   2.575   3.899  10.858 -0.0048 -0.3118 -0.1307
 8385SOL    HW136791   2.608   3.959  10.791 -1.7294 -0.3726 -1.0271
 8385SOL    HW236792   2.540   3.825  10.809 -1.6102 -0.1909  0.8191
 8386SOL     OW36793   0.287   1.178   9.306  0.3196  0.2636  0.5619
 8386SOL    HW136794   0.250   1.093   9.281 -2.3620  2.0352 -1.4100
 8386SOL    HW236795   0.319   1.202   9.219 -1.4932  0.2129 -0.1119
 8387SOL     OW36796   3.392   4.618   2.003 -0.0660  0.2003  0.3797
 8387SOL    HW136797   3.453   4.645   2.072  2.2027 -2.3896 -0.5795
 8387SOL    HW236798   3.367   4.527   2.022 -1.4607  0.5369  0.0986
 8388SOL     OW36799   3.553   0.453   7.944  0.1713 -0.0358 -0.0790
 8388SOL    HW136800   3.481   0.489   7.994  0.0852  0.3491 -0.4824
 8388SOL    HW236801   3.546   0.514   7.871 -0.8518 -0.4508 -0.3299
 8389SOL     OW36802   1.703   1.896   8.698 -0.4339  0.0539  0.2997
 8389SOL    HW136803   1.753   1.818   8.676 -1.0238 -0.2837  0.1587
 8389SOL    HW236804   1.776   1.955   8.718 -2.2772  3.2142 -2.3790
 8390SOL     OW36805   3.392   0.123   5.091 -0.2207 -0.3720  0.7487
 8390SOL    HW136806   3.428   0.099   5.176  2.5146  0.9986 -0.0212
 8390SOL    HW236807   3.381   0.036   5.052 -2.8190 -0.2409  1.2365
 8391SOL     OW36808   2.704   1.356  14.719  0.2016 -0.1536  0.1208
 8391SOL    HW136809   2.626   1.386  14.673  2.6444  3.8930 -1.3483
 8391SOL    HW236810   2.694   1.261  14.707  0.6389 -0.3108  0.9462
 8392SOL     OW36811   3.555   3.941  13.171 -0.3598 -0.1390 -0.3588
 8392SOL    HW136812   3.465   3.974  13.173  0.3820  1.8717  0.1688
 8392SOL    HW236813   3.595   4.023  13.140 -0.1579 -0.1746 -0.1939
 8393SOL     OW36814   3.638   2.872   0.179  0.2526  0.3867 -0.4604
 8393SOL    HW136815   3.730   2.895   0.193  0.4108 -0.4088 -0.1920
 8393SOL    HW236816   3.601   2.936   0.239 -0.3326  0.6387 -1.0936
 8394SOL     OW36817   0.291   2.764   3.393 -0.3029 -0.5033  0.3892
 8394SOL    HW136818   0.357   2.808   3.339 -2.6395  2.5411 -0.0112
 8394SOL    HW236819   0.318   2.676   3.367 -0.4891 -0.3524 -0.3101
 8395SOL     OW36820   2.379   1.038   7.127  0.0451  0.0828  0.8814
 8395SOL    HW136821   2.360   0.945   7.130  1.8726 -0.3209 -0.0760
 8395SOL    HW236822   2.469   1.044   7.094  0.2055  1.1937  1.5037
 8396SOL     OW36823   1.631   1.339   6.059 -0.0355 -0.1176 -0.6618
 8396SOL    HW136824   1.685   1.271   6.100 -0.4935 -0.5766 -0.8136
 8396SOL    HW236825   1.620   1.411   6.121  1.7640 -0.1383 -0.3248
 8397SOL     OW36826   1.592   3.080   7.432  0.0152  0.5703 -0.3259
 8397SOL    HW136827   1.633   3.093   7.346  0.9886  0.6986  0.1531
 8397SOL    HW236828   1.503   3.101   7.403 -0.3659 -0.0087  0.4504
 8398SOL     OW36829   2.375   0.466   6.673 -0.2140  0.3693  0.4057
 8398SOL    HW136830   2.462   0.491   6.642 -0.1168  0.4191  0.7237
 8398SOL    HW236831   2.384   0.501   6.761  0.7329  0.5385  0.2446
 8399SOL     OW36832   3.963   2.020   0.957 -0.7909 -0.3543 -0.0329
 8399SOL    HW136833   3.868   2.030   0.944 -0.7147 -3.0299 -2.6595
 8399SOL    HW236834   3.955   1.954   1.026 -0.8317 -1.5648 -1.1983
 8400SOL     OW36835   3.152   0.689  10.332 -0.1243 -0.2897  0.5447
 8400SOL    HW136836   3.103   0.615  10.297 -2.4451  1.7599 -0.5815
 8400SOL    HW236837   3.243   0.668  10.313 -0.2521 -1.7964  1.6281
 8401SOL     OW36838   2.153   2.557   6.203 -0.5188  0.3956 -0.0140
 8401SOL    HW136839   2.065   2.529   6.230 -0.5602 -0.4472 -1.0219
 8401SOL    HW236840   2.178   2.469   6.175  2.5831  0.4528  2.6240
 8402SOL     OW36841   1.367   1.512   0.604 -0.0614 -0.0738  0.4489
 8402SOL    HW136842   1.424   1.583   0.576  0.2133  0.1875  1.7005
 8402SOL    HW236843   1.299   1.553   0.658 -0.8802  0.3739 -0.9190
 8403SOL     OW36844   3.027   2.062  17.727 -0.5182  0.3889 -0.2561
 8403SOL    HW136845   2.969   2.104   0.043  0.7495 -0.2764  1.3452
 8403SOL    HW236846   3.014   1.968  17.739 -1.7038  0.4123 -1.4852
 8404SOL     OW36847   0.494   1.579   5.372 -0.1347 -0.1389 -0.1607
 8404SOL    HW136848   0.482   1.560   5.465 -3.8036 -0.2675 -0.6650
 8404SOL    HW236849   0.557   1.650   5.388 -1.1012  1.0410 -1.5715
 8405SOL     OW36850   2.852   3.797   6.607 -0.3298 -0.6026  0.4866
 8405SOL    HW136851   2.833   3.716   6.655 -0.8683  0.3554  1.8837
 8405SOL    HW236852   2.857   3.871   6.667 -2.2461 -0.4602  0.4617
 8406SOL     OW36853   1.071   2.543   7.173  0.1038 -0.6805  0.0362
 8406SOL    HW136854   1.008   2.614   7.162 -0.0526 -0.9854 -1.0187
 8406SOL    HW236855   1.032   2.473   7.226 -0.6210 -0.2758  0.0496
 8407SOL     OW36856   3.038   3.960  13.281  0.2012 -0.6859  0.0756
 8407SOL    HW136857   2.983   3.889  13.250 -0.1575 -1.2343  1.9425
 8407SOL    HW236858   2.994   3.992  13.360  1.9997 -0.8765  1.1499
 8408SOL     OW36859   0.799   0.318  16.737  0.0998  0.4622 -0.6762
 8408SOL    HW136860   0.738   0.378  16.781 -3.0102 -1.4199 -2.4057
 8408SOL    HW236861   0.851   0.283  16.809  1.1379 -0.1060 -1.7029
 8409SOL     OW36862   1.688   4.733  10.362 -0.6009 -0.1400  0.5735
 8409SOL    HW136863   1.617   0.022  10.420 -0.5861  0.8951  0.1217
 8409SOL    HW236864   1.678   4.638  10.366  0.6922 -0.3606 -1.1189
 8410SOL     OW36865   4.651   0.636  11.237 -0.0084 -0.4285 -0.3108
 8410SOL    HW136866   4.670   0.548  11.271 -0.6719 -0.6924 -0.6167
 8410SOL    HW236867   4.659   0.636  11.142 -3.0583 -0.2411 -0.5737
 8411SOL     OW36868   2.232   1.278   8.315  0.3534  0.3887  0.0988
 8411SOL    HW136869   2.178   1.205   8.284 -0.1396  0.6038  0.4474
 8411SOL    HW236870   2.183   1.356   8.291 -0.3721  0.4905  1.8983
 8412SOL     OW36871   3.798   0.010   4.841  0.2619 -0.7063  0.3988
 8412SOL    HW136872   3.810   0.102   4.864  1.8460 -0.5861 -0.9709
 8412SOL    HW236873   3.835   4.705   4.919 -1.3346 -0.8870  1.0640
 8413SOL     OW36874   1.442   4.525   7.219 -0.2166  0.3524 -0.2072
 8413SOL    HW136875   1.417   4.488   7.304 -1.8433  0.9735 -0.4142
 8413SOL    HW236876   1.534   4.550   7.222 -0.8910  2.5747  1.5416
 8414SOL     OW36877   4.102   3.023  11.458  0.7985  0.0191  0.4014
 8414SOL    HW136878   4.046   3.093  11.490  0.5204  0.4626 -1.0481
 8414SOL    HW236879   4.182   3.032  11.508  2.4742 -0.2798 -2.2017
 8415SOL     OW36880   0.294   0.788   5.289  0.0659 -0.1172  0.0792
 8415SOL    HW136881   0.375   0.836   5.278 -0.2909  0.2463 -1.0169
 8415SOL    HW236882   0.326   0.698   5.278 -0.4454 -0.5928  2.4961
 8416SOL     OW36883   1.605   0.030   6.114 -0.0937  0.1590  0.1486
 8416SOL    HW136884   1.529   0.068   6.069  0.0293 -1.6330 -1.6049
 8416SOL    HW236885   1.601   0.071   6.200  1.6622 -0.0026  0.3071
 8417SOL     OW36886   0.724   3.457   4.656  0.0761  0.4827  0.3069
 8417SOL    HW136887   0.630   3.455   4.643  0.2391 -2.5929 -0.4349
 8417SOL    HW236888   0.752   3.547   4.640 -0.7225  0.4544 -1.1855
 8418SOL     OW36889   2.719   1.535  13.317  0.2410  0.1855 -0.0483
 8418SOL    HW136890   2.811   1.522  13.297  0.5198  3.5561 -0.8481
 8418SOL    HW236891   2.686   1.482  13.244 -1.0833  0.9782 -0.0326
 8419SOL     OW36892   2.050   0.328   5.594  0.1836 -0.2708  0.3969
 8419SOL    HW136893   2.033   0.410   5.548 -0.2521 -1.0131 -0.7486
 8419SOL    HW236894   1.961   0.296   5.607  0.7121 -2.3600 -1.0689
 8420SOL     OW36895   3.141   4.589   5.504  0.3558  0.2728 -0.7654
 8420SOL    HW136896   3.227   4.585   5.545 -1.4921 -2.4581  2.8665
 8420SOL    HW236897   3.125   4.678   5.533  0.8790  0.9690 -2.6202
 8421SOL     OW36898   2.824   0.925   4.735 -0.6041  0.1679  0.1050
 8421SOL    HW136899   2.796   0.889   4.819 -1.0173  2.9673  1.1801
 8421SOL    HW236900   2.917   0.902   4.730 -0.5443  0.3470  0.3671
 8422SOL     OW36901   0.055   3.154   8.063 -0.5320  0.6800  0.0997
 8422SOL    HW136902   4.707   3.122   8.034 -1.1105  2.0395  0.3154
 8422SOL    HW236903   0.062   3.103   8.143 -0.7598  0.6345  0.0906
 8423SOL     OW36904   2.208   4.218   7.689  0.1015 -0.4304 -0.3289
 8423SOL    HW136905   2.190   4.125   7.695  2.1215 -0.9355 -2.0888
 8423SOL    HW236906   2.200   4.246   7.781  0.7041  1.5563 -0.8730
 8424SOL     OW36907   0.071   4.664   3.489 -0.7771  0.4591  0.2597
 8424SOL    HW136908   0.060   0.019   3.466 -2.1126  0.2188 -0.0766
 8424SOL    HW236909   0.103   4.637   3.403 -2.6048 -0.1613 -0.2368
 8425SOL     OW36910   3.930   2.435   7.732  0.1818  0.3860 -0.0740
 8425SOL    HW136911   4.024   2.445   7.750  0.4043 -1.7321 -0.1046
 8425SOL    HW236912   3.910   2.382   7.808  0.9474  1.1713  0.6796
 8426SOL     OW36913   1.621   3.032  17.047  0.1300  0.4740  0.0128
 8426SOL    HW136914   1.662   3.113  17.016  1.7503  0.5702  2.3928
 8426SOL    HW236915   1.594   3.046  17.138  1.0837  1.7149  0.0980
 8427SOL     OW36916   0.257   1.681   5.915  0.1890  0.1848  0.0482
 8427SOL    HW136917   0.323   1.727   5.965 -0.6360  2.2095 -0.7314
 8427SOL    HW236918   0.270   1.589   5.941 -1.7995 -0.2844 -0.5954
 8428SOL     OW36919   0.760   0.664  12.663 -0.0048  0.1050 -0.5906
 8428SOL    HW136920   0.744   0.662  12.569  0.3113 -0.2713 -0.6367
 8428SOL    HW236921   0.731   0.578  12.694 -0.3267  0.1840 -0.6734
 8429SOL     OW36922   4.569   3.267   9.999  0.4232 -0.0269 -0.1504
 8429SOL    HW136923   4.516   3.333   9.955  0.3147 -1.2974 -1.9094
 8429SOL    HW236924   4.510   3.192   9.991 -0.7963  0.9356 -0.1725
 8430SOL     OW36925   1.063   0.262  15.318  0.2694  0.2075  0.1854
 8430SOL    HW136926   0.980   0.281  15.275  0.7485  0.0273 -0.8263
 8430SOL    HW236927   1.103   0.214  15.245 -0.4058  1.1525 -0.8157
 8431SOL     OW36928   3.897   2.552   3.344  0.0571  0.5123  0.1477
 8431SOL    HW136929   3.871   2.477   3.292 -0.0163 -0.1446  1.1350
 8431SOL    HW236930   3.975   2.521   3.390 -0.9998 -1.5571  0.5472
 8432SOL     OW36931   4.247   3.332   6.070  0.4711 -0.4628  0.0011
 8432SOL    HW136932   4.159   3.354   6.099  0.1916 -0.7019 -0.6642
 8432SOL    HW236933   4.290   3.296   6.147  0.1138 -1.9406 -0.4851
 8433SOL     OW36934   3.480   3.197  14.261 -0.1675  0.4455  0.1466
 8433SOL    HW136935   3.456   3.196  14.169  1.2617 -1.4681 -0.1898
 8433SOL    HW236936   3.522   3.113  14.278 -1.1654 -0.0434  0.2156
 8434SOL     OW36937   2.874   1.732   5.079 -0.1850  0.0877 -0.0181
 8434SOL    HW136938   2.921   1.725   4.996  0.8358  2.1133  0.3982
 8434SOL    HW236939   2.804   1.794   5.060 -1.3540 -0.8248  1.2742
 8435SOL     OW36940   2.774   2.836   7.337 -0.2789  1.0782 -0.2439
 8435SOL    HW136941   2.853   2.805   7.381 -3.1431 -2.5549  2.3791
 8435SOL    HW236942   2.781   2.931   7.340 -0.6305  1.0506  1.1744
 8436SOL     OW36943   2.562   4.564   3.893  0.0579 -0.6792  0.0965
 8436SOL    HW136944   2.517   4.487   3.930  1.1892 -2.7786 -2.9488
 8436SOL    HW236945   2.652   4.532   3.900  0.0857 -0.5825  0.1810
 8437SOL     OW36946   2.539   0.458   4.716 -0.2239 -0.4637 -0.1046
 8437SOL    HW136947   2.626   0.463   4.677 -0.0027 -0.4750  0.3969
 8437SOL    HW236948   2.548   0.541   4.763 -0.9846 -0.4570  0.0361
 8438SOL     OW36949   1.078   2.761   0.307 -0.5822  0.3644  0.7277
 8438SOL    HW136950   1.142   2.815   0.260 -0.9532  0.7958  0.7149
 8438SOL    HW236951   1.030   2.718   0.236  1.4825 -0.7220 -0.0161
 8439SOL     OW36952   0.154   4.336   7.837  0.4394  0.0777 -0.1095
 8439SOL    HW136953   0.127   4.263   7.780  0.4433  0.5506 -0.7198
 8439SOL    HW236954   0.243   4.305   7.851 -0.2902 -1.0619  2.0524
 8440SOL     OW36955   0.835   3.666   0.162 -0.2601  0.6591 -0.0316
 8440SOL    HW136956   0.894   3.664   0.237  3.2520  2.1397 -2.7384
 8440SOL    HW236957   0.899   3.667   0.091 -1.3446 -3.5510 -1.0788
 8441SOL     OW36958   4.512   1.988   1.529 -0.3011  0.2193  0.0894
 8441SOL    HW136959   4.571   2.043   1.477 -0.1889  0.5287  0.5441
 8441SOL    HW236960   4.513   1.907   1.478  1.5024  0.4513 -0.2363
 8442SOL     OW36961   3.776   1.287   2.333  0.0868  0.5093  0.6700
 8442SOL    HW136962   3.715   1.277   2.260  1.2163  0.0169 -0.2039
 8442SOL    HW236963   3.758   1.217   2.396 -3.8339  0.9909  0.1028
 8443SOL     OW36964   2.173   3.913  16.244  0.0533  0.2277 -0.4643
 8443SOL    HW136965   2.168   3.999  16.285  0.4503  0.3544 -0.6830
 8443SOL    HW236966   2.253   3.880  16.285 -0.4704  0.0038  0.3850
 8444SOL     OW36967   1.344   0.234   6.517 -0.3494  0.1626  0.1158
 8444SOL    HW136968   1.412   0.217   6.452 -0.3844  0.7087 -0.0673
 8444SOL    HW236969   1.337   0.329   6.508  0.4941  0.2861  0.7731
 8445SOL     OW36970   0.722   1.143   4.212  0.3723  0.2489 -0.0905
 8445SOL    HW136971   0.659   1.143   4.284  1.9691  3.5496  1.3058
 8445SOL    HW236972   0.681   1.213   4.160 -1.0397  0.0906  0.8005
 8446SOL     OW36973   2.899   2.897   8.229  0.3766  0.1865 -0.3252
 8446SOL    HW136974   2.832   2.883   8.297  0.8103 -1.6325 -0.2728
 8446SOL    HW236975   2.865   2.854   8.150  0.6742 -1.0083  0.1885
 8447SOL     OW36976   2.519   4.624  16.309 -0.1198  0.3853  0.1260
 8447SOL    HW136977   2.527   4.630  16.405  0.7189 -2.4203  0.2165
 8447SOL    HW236978   2.534   4.533  16.286  2.4049  0.3780  1.8091
 8448SOL     OW36979   1.106   4.434  15.925  0.7275 -0.3418 -0.0861
 8448SOL    HW136980   1.068   4.500  15.868  0.7024 -2.3220 -2.3372
 8448SOL    HW236981   1.178   4.408  15.869 -0.7798 -1.0645 -1.6744
 8449SOL     OW36982   3.407   1.839   2.861  0.0282 -0.6426 -0.0122
 8449SOL    HW136983   3.384   1.753   2.896  3.1699 -1.2103  0.6406
 8449SOL    HW236984   3.322   1.870   2.829 -0.2289 -0.3740  0.9037
 8450SOL     OW36985   1.069   3.778   4.605  0.0345  0.1275  0.1521
 8450SOL    HW136986   1.037   3.689   4.616  1.7223 -0.5413 -0.3378
 8450SOL    HW236987   1.104   3.775   4.516 -0.8678 -1.2308 -0.1412
 8451SOL     OW36988   3.309   4.707   0.636  0.0597  0.7328 -0.0931
 8451SOL    HW136989   3.322   4.645   0.564 -2.4357 -1.3921  1.2973
 8451SOL    HW236990   3.337   4.656   0.712 -1.4943 -1.7722 -1.2053
 8452SOL     OW36991   2.173   3.940  13.548  0.6248  0.3025  0.5224
 8452SOL    HW136992   2.099   3.911  13.494 -0.0907  1.1205  1.0683
 8452SOL    HW236993   2.249   3.915  13.495  2.1632  1.4269  2.2194
 8453SOL     OW36994   0.157   3.226   1.431 -0.2306 -0.6441 -0.2027
 8453SOL    HW136995   0.124   3.311   1.403 -0.3119 -1.2975 -2.0988
 8453SOL    HW236996   0.229   3.217   1.368  1.2001  2.8519  0.9361
 8454SOL     OW36997   2.378   1.435  11.760  0.3556 -0.7679  0.8736
 8454SOL    HW136998   2.292   1.394  11.757  0.3138 -0.7817  2.3240
 8454SOL    HW236999   2.418   1.393  11.836 -1.3977 -4.0087 -0.0132
 8455SOL     OW37000   1.845   4.343   6.956  0.0903  0.0868  0.4107
 8455SOL    HW137001   1.819   4.299   6.875  0.0624  0.5788  0.1557
 8455SOL    HW237002   1.755   4.340   6.989  0.3833  1.5624  1.3409
 8456SOL     OW37003   2.036   0.317   2.017 -0.1788 -0.0719 -0.0282
 8456SOL    HW137004   2.053   0.286   2.106  0.3551 -1.3286 -0.5789
 8456SOL    HW237005   1.980   0.251   1.978  0.0051 -0.5363  0.4943
 8457SOL     OW37006   3.748   0.426  17.570  0.0785  0.1215 -0.2682
 8457SOL    HW137007   3.678   0.487  17.593  0.4391 -0.2449  1.8887
 8457SOL    HW237008   3.816   0.492  17.556  1.1920 -0.8749  0.4110
 8458SOL     OW37009   3.801   0.394  12.367 -0.4289  0.0139  0.0643
 8458SOL    HW137010   3.842   0.465  12.416 -1.3071  0.7780 -0.2992
 8458SOL    HW237011   3.876   0.335  12.357  0.9604  1.6896  0.6988
 8459SOL     OW37012   4.254   1.551  15.894  0.3037  0.5343 -0.1256
 8459SOL    HW137013   4.191   1.596  15.838  0.7903  0.2461 -0.9103
 8459SOL    HW237014   4.237   1.588  15.980  0.7115 -1.6982  0.9330
 8460SOL     OW37015   4.322   4.172  15.168  0.5530  0.3214  0.1650
 8460SOL    HW137016   4.385   4.121  15.118 -0.2868 -2.1800  1.6806
 8460SOL    HW237017   4.274   4.221  15.101  0.4599  0.1722  0.1231
 8461SOL     OW37018   1.708   3.227  12.752 -0.0882  0.1306 -0.2215
 8461SOL    HW137019   1.766   3.215  12.827  1.0234  1.5550 -0.8466
 8461SOL    HW237020   1.632   3.173  12.775  0.4141 -0.3447  0.3093
 8462SOL     OW37021   4.244   4.090  12.791 -0.1773  0.2229 -0.2053
 8462SOL    HW137022   4.284   4.006  12.814  3.0556  1.7720 -0.2521
 8462SOL    HW237023   4.309   4.117  12.727 -1.3732  3.6314  0.0249
 8463SOL     OW37024   2.827   3.936   7.770 -0.3390  0.4022 -0.2223
 8463SOL    HW137025   2.733   3.918   7.773 -0.5310  1.7499  2.9651
 8463SOL    HW237026   2.842   3.955   7.863  1.0086  3.6813 -1.1265
 8464SOL     OW37027   2.920   2.095   6.920 -0.1155  0.5461 -0.2954
 8464SOL    HW137028   2.839   2.045   6.919 -0.2151  0.7109 -0.4792
 8464SOL    HW237029   2.891   2.170   6.972 -1.1484 -0.3326  0.3948
 8465SOL     OW37030   4.711   0.442   1.346 -0.2122  0.6985 -1.0844
 8465SOL    HW137031   0.060   0.401   1.347 -0.3499  0.5226  2.2130
 8465SOL    HW237032   4.651   0.368   1.356 -0.6685  1.1587 -0.4173
 8466SOL     OW37033   0.192   4.328   8.390 -0.8704  0.0130 -0.4166
 8466SOL    HW137034   0.181   4.393   8.321 -0.0930  0.2927 -0.2752
 8466SOL    HW237035   0.191   4.248   8.338  0.0654 -0.4917  0.3306
 8467SOL     OW37036   0.178   2.738   4.076 -0.2726  0.0196 -0.0104
 8467SOL    HW137037   0.142   2.723   4.163 -1.7085  0.0629 -0.5991
 8467SOL    HW237038   0.248   2.672   4.078 -1.0664 -0.7530  1.5235
 8468SOL     OW37039   1.644   1.711   6.523 -0.3757  0.0378  0.0360
 8468SOL    HW137040   1.716   1.747   6.576  0.7724  0.2292 -1.6457
 8468SOL    HW237041   1.688   1.632   6.493  2.4946  1.5558  0.1788
 8469SOL     OW37042   3.640   3.828   2.861 -0.1248 -0.1492 -0.3079
 8469SOL    HW137043   3.656   3.772   2.785 -1.5606 -0.5978 -0.2871
 8469SOL    HW237044   3.662   3.774   2.936 -1.9447 -1.3186 -0.6118
 8470SOL     OW37045   3.206   0.355   7.516 -0.2617  0.1519  0.0932
 8470SOL    HW137046   3.210   0.283   7.454 -0.4468 -1.2322  1.6768
 8470SOL    HW237047   3.268   0.334   7.586  0.6281  1.7822 -0.2027
 8471SOL     OW37048   0.163   3.647   7.717  0.3343  0.0702  0.2195
 8471SOL    HW137049   0.116   3.730   7.725  2.3882  1.3892 -1.2783
 8471SOL    HW237050   0.106   3.586   7.763 -0.3260  0.7876  0.3557
 8472SOL     OW37051   1.051   0.427   0.896  0.2943  0.0655 -0.3313
 8472SOL    HW137052   1.131   0.480   0.898 -0.4377  1.1268  0.3981
 8472SOL    HW237053   1.008   0.458   0.976 -0.1840 -2.0910  0.2342
 8473SOL     OW37054   2.959   2.105   1.512 -0.4668  0.1423 -0.2913
 8473SOL    HW137055   2.921   2.181   1.556 -1.1938 -0.1321 -0.4345
 8473SOL    HW237056   2.951   2.038   1.580 -0.8409 -0.0551 -0.5269
 8474SOL     OW37057   0.139   2.604   1.542  0.3003 -0.5054 -0.4933
 8474SOL    HW137058   0.050   2.575   1.564  0.1058 -0.9104 -1.8203
 8474SOL    HW237059   0.120   2.697   1.555  0.3395 -0.2479 -2.2724
 8475SOL     OW37060   3.473   4.259   5.892 -0.5272 -0.1715 -0.3771
 8475SOL    HW137061   3.377   4.261   5.892 -0.5885 -3.2212 -0.7727
 8475SOL    HW237062   3.481   4.182   5.949 -1.4061  0.2475  0.3158
 8476SOL     OW37063   3.732   0.494  10.051  0.2218  0.1622  0.4017
 8476SOL    HW137064   3.686   0.416  10.019 -0.8292 -0.1602  2.6742
 8476SOL    HW237065   3.792   0.507   9.978  1.4039  2.6315  1.8053
 8477SOL     OW37066   0.026   4.101   3.324  0.6310 -0.0560  0.2258
 8477SOL    HW137067   0.007   4.036   3.392  0.0853  0.1995  0.3201
 8477SOL    HW237068   0.016   4.037   3.253  0.2015  0.5966 -0.3013
 8478SOL     OW37069   4.517   2.710   5.795 -0.1375 -0.3014 -0.1202
 8478SOL    HW137070   4.574   2.739   5.866  0.9716 -1.7164 -0.4396
 8478SOL    HW237071   4.517   2.619   5.824 -1.4217  0.3224  1.8587
 8479SOL     OW37072   2.218   0.319   6.339  0.2771 -0.1832  0.2756
 8479SOL    HW137073   2.311   0.319   6.316 -0.4848 -1.6555 -2.7572
 8479SOL    HW237074   2.219   0.249   6.405  2.1980 -0.0025  0.4547
 8480SOL     OW37075   3.200   3.984   9.827  0.7805 -0.0358 -0.4980
 8480SOL    HW137076   3.226   4.072   9.856  1.2765 -1.5189  3.4724
 8480SOL    HW237077   3.109   4.000   9.801  0.7750  1.1244  0.2429
 8481SOL     OW37078   3.719   4.215   2.902  0.5028 -0.0206  0.5808
 8481SOL    HW137079   3.727   4.168   2.985 -0.6769 -1.5117 -0.1499
 8481SOL    HW237080   3.778   4.288   2.916 -0.2460  1.0123 -1.6441
 8482SOL     OW37081   2.891   1.395   8.728  0.4528 -0.2262 -0.5179
 8482SOL    HW137082   2.888   1.486   8.697 -1.9659  0.3685  1.4165
 8482SOL    HW237083   2.940   1.347   8.662  2.3720  1.2134 -0.1323
 8483SOL     OW37084   3.022   0.552   2.170  0.6066 -0.3620 -0.0860
 8483SOL    HW137085   2.999   0.470   2.213  1.5414  0.4272  1.9040
 8483SOL    HW237086   3.070   0.517   2.094  1.0453 -0.0775  0.0545
 8484SOL     OW37087   0.637   3.064   6.856  0.2002  0.4174 -0.1751
 8484SOL    HW137088   0.576   3.136   6.843 -0.3608 -0.0298  0.0084
 8484SOL    HW237089   0.719   3.099   6.820  0.7294  1.1093  1.6853
 8485SOL     OW37090   2.292   4.051   2.564  0.1711 -0.2482  0.4077
 8485SOL    HW137091   2.335   4.084   2.485 -0.7698 -2.4946 -1.0685
 8485SOL    HW237092   2.226   3.993   2.526 -0.2430  2.3805 -2.9512
 8486SOL     OW37093   2.900   0.958   1.352 -0.8177 -0.0070 -0.1627
 8486SOL    HW137094   2.883   1.049   1.377  0.1246 -0.1792  1.1158
 8486SOL    HW237095   2.988   0.964   1.315 -0.6031 -0.3108  0.2989
 8487SOL     OW37096   0.393   0.839  13.372 -0.5528  0.5441  0.4658
 8487SOL    HW137097   0.304   0.871  13.359 -0.9948 -0.7605  0.2879
 8487SOL    HW237098   0.378   0.778  13.444  0.5983  2.3903  2.2914
 8488SOL     OW37099   4.498   1.478   3.256  0.2723  0.9659  0.0526
 8488SOL    HW137100   4.518   1.390   3.288 -0.5015  0.4614 -0.8769
 8488SOL    HW237101   4.537   1.471   3.169 -0.3240  0.1361 -0.1510
 8489SOL     OW37102   2.698   2.664   2.197 -0.0134 -0.3663  0.2107
 8489SOL    HW137103   2.696   2.569   2.198 -0.8458 -0.3975 -3.8208
 8489SOL    HW237104   2.715   2.677   2.290 -3.3072  0.0082  0.7415
 8490SOL     OW37105   4.491   2.344   5.284  0.3559 -1.0181 -0.6539
 8490SOL    HW137106   4.434   2.328   5.359  0.6112  2.3550  0.2397
 8490SOL    HW237107   4.458   2.434   5.272 -1.6639 -1.8199 -1.2356
 8491SOL     OW37108   1.412   3.200  10.801 -0.0355 -0.6004  0.4612
 8491SOL    HW137109   1.380   3.111  10.809 -2.7786  0.3368  0.1247
 8491SOL    HW237110   1.420   3.233  10.891 -1.4380 -0.3537  0.4988
 8492SOL     OW37111   3.115   3.454   5.314  0.8418 -0.3746  0.5657
 8492SOL    HW137112   3.047   3.435   5.250 -0.7219 -2.0613  2.7139
 8492SOL    HW237113   3.156   3.367   5.315  2.6564  0.4856  1.3470
 8493SOL     OW37114   0.886   3.190   1.509 -0.2077  0.1660 -0.6333
 8493SOL    HW137115   0.862   3.137   1.585  1.9008 -0.3189 -0.2877
 8493SOL    HW237116   0.870   3.276   1.547  2.5211  0.2146  0.4131
 8494SOL     OW37117   3.978   2.864   9.173  0.5326 -0.0236  0.5055
 8494SOL    HW137118   4.010   2.847   9.261 -0.7575  0.6439  1.1000
 8494SOL    HW237119   4.016   2.794   9.121 -2.3714 -1.1879 -0.0106
 8495SOL     OW37120   1.680   0.101   1.157 -0.0090  0.2011  0.1175
 8495SOL    HW137121   1.680   0.182   1.106  0.5263 -0.6463 -1.2057
 8495SOL    HW237122   1.592   0.070   1.136 -1.4401  2.8636  2.0598
 8496SOL     OW37123   1.491   4.207   1.309 -0.1075  0.6166  0.8990
 8496SOL    HW137124   1.541   4.205   1.390  1.6977 -0.8443 -0.2559
 8496SOL    HW237125   1.514   4.292   1.271 -0.5609 -0.0514 -0.8894
 8497SOL     OW37126   2.024   2.529   7.061  0.2120  0.0708 -0.8464
 8497SOL    HW137127   2.011   2.622   7.080  0.2353 -0.0601 -0.1761
 8497SOL    HW237128   2.069   2.529   6.977  1.2183  1.7589 -0.3132
 8498SOL     OW37129   0.816   2.020   0.167 -0.0771  0.0654 -0.2424
 8498SOL    HW137130   0.765   2.001   0.088  1.5406 -0.0303 -1.2666
 8498SOL    HW237131   0.748   2.033   0.233 -0.2240 -1.8049 -0.0134
 8499SOL     OW37132   1.282   3.477  12.416 -0.3807  0.4917 -0.4869
 8499SOL    HW137133   1.256   3.447  12.504  0.0441 -1.1489 -0.9119
 8499SOL    HW237134   1.290   3.570  12.437 -1.4275  0.5424 -0.3023
 8500SOL     OW37135   4.414   3.655  16.689  0.3759  0.0235 -0.2623
 8500SOL    HW137136   4.468   3.730  16.666  4.1875 -2.5650  0.2676
 8500SOL    HW237137   4.482   3.589  16.675  0.1632 -0.3539  0.4736
 8501SOL     OW37138   3.448   4.282   9.576 -0.5208  0.4486 -0.3733
 8501SOL    HW137139   3.534   4.304   9.611  0.4188  1.1363 -3.1456
 8501SOL    HW237140   3.472   4.192   9.552  1.2647  1.5890 -2.8592
 8502SOL     OW37141   4.274   2.097   1.496 -0.5831  0.3674 -0.2071
 8502SOL    HW137142   4.244   2.133   1.580 -2.7946  2.4850 -1.8906
 8502SOL    HW237143   4.344   2.040   1.527 -0.0448  1.8521  1.3176
 8503SOL     OW37144   3.627   1.429   7.626 -0.6118  0.1060 -0.4661
 8503SOL    HW137145   3.709   1.416   7.674 -1.3522 -1.9975  0.2457
 8503SOL    HW237146   3.604   1.520   7.639 -0.8312 -0.0590  0.2581
 8504SOL     OW37147   0.107   3.901   4.879 -0.0256 -0.1919 -0.0235
 8504SOL    HW137148   0.158   3.966   4.927 -0.1742 -0.3147  0.3032
 8504SOL    HW237149   0.125   3.826   4.937 -1.4226  1.1062  2.0966
 8505SOL     OW37150   2.236   1.852   2.750  0.0099  0.2290 -0.1991
 8505SOL    HW137151   2.156   1.901   2.729 -0.0249 -0.6787 -2.2240
 8505SOL    HW237152   2.289   1.914   2.800  0.2214 -0.1181  0.0102
 8506SOL     OW37153   1.494   1.637   2.431 -0.3382  0.3379  0.1464
 8506SOL    HW137154   1.431   1.572   2.461 -0.1692  0.7684  1.4567
 8506SOL    HW237155   1.512   1.688   2.510 -3.2928  0.8807  0.4741
 8507SOL     OW37156   3.874   1.202   4.649  0.0288 -0.5022  0.2949
 8507SOL    HW137157   3.904   1.133   4.590  0.6922 -0.1016  0.1605
 8507SOL    HW237158   3.789   1.226   4.613  1.1200  1.1399 -1.1541
 8508SOL     OW37159   0.315   1.317   3.066 -0.1200 -0.3006 -0.1577
 8508SOL    HW137160   0.410   1.311   3.081  0.0157  2.1676 -0.0879
 8508SOL    HW237161   0.276   1.230   3.075 -0.4536 -0.1326  0.0135
 8509SOL     OW37162   2.744   0.085   6.300  0.1366 -0.0366  0.4465
 8509SOL    HW137163   2.791   0.146   6.356 -0.6254 -0.0763  1.1344
 8509SOL    HW237164   2.810   0.070   6.232  1.0119 -2.6906  1.8864
 8510SOL     OW37165   0.047   1.114  12.845 -0.2271 -0.2786  0.4233
 8510SOL    HW137166   0.071   1.200  12.811  3.1497 -0.6889  1.7212
 8510SOL    HW237167   0.129   1.081  12.883 -0.0753 -1.4029 -0.8814
 8511SOL     OW37168   1.527   4.657  17.721  0.5710  0.0727  0.2767
 8511SOL    HW137169   1.620   4.644  17.700  0.1952 -0.4947 -1.0646
 8511SOL    HW237170   1.499   4.719  17.653  2.5344  1.2131  0.5032
 8512SOL     OW37171   3.509   1.821  17.389  0.2552 -0.5838  0.5616
 8512SOL    HW137172   3.434   1.842  17.333  0.8356 -0.5069 -0.1848
 8512SOL    HW237173   3.579   1.830  17.324 -1.7588  0.4474 -1.4622
 8513SOL     OW37174   3.825   1.622   3.189 -0.6065  0.2094 -0.1242
 8513SOL    HW137175   3.832   1.713   3.217 -1.1325 -0.0414  0.8524
 8513SOL    HW237176   3.739   1.624   3.147 -0.5443 -0.5421 -0.2873
 8514SOL     OW37177   4.565   3.952   4.301  0.0053 -0.4764  0.0626
 8514SOL    HW137178   4.547   3.927   4.211  1.9880 -0.8901 -0.2150
 8514SOL    HW237179   4.644   3.902   4.319 -1.2910 -1.8469  1.8907
 8515SOL     OW37180   3.236   3.732   4.247  0.0513 -0.1959 -0.3824
 8515SOL    HW137181   3.284   3.812   4.231 -0.8958  0.3824 -0.3199
 8515SOL    HW237182   3.254   3.714   4.339  0.6208  1.8655 -0.0946
 8516SOL     OW37183   1.712   3.077   4.520  0.9759  0.6319  0.0587
 8516SOL    HW137184   1.642   3.020   4.550 -0.4862  1.3830 -1.9059
 8516SOL    HW237185   1.777   3.020   4.479  0.3813  0.7037 -0.9922
 8517SOL     OW37186   3.341   2.850   6.786  0.3943  0.2621 -0.0612
 8517SOL    HW137187   3.344   2.755   6.784  1.8998  0.2884  0.6214
 8517SOL    HW237188   3.426   2.880   6.819 -0.2899 -0.5805  2.4330
 8518SOL     OW37189   2.361   3.945   4.718 -0.0844  0.3401  0.2284
 8518SOL    HW137190   2.377   3.889   4.795 -0.7642 -0.7828 -0.4438
 8518SOL    HW237191   2.299   4.004   4.759 -3.6061 -1.6962 -2.1575
 8519SOL     OW37192   0.868   3.454   2.764 -0.3068 -0.0150 -0.1006
 8519SOL    HW137193   0.874   3.550   2.768 -0.8273  0.0824 -1.7519
 8519SOL    HW237194   0.876   3.439   2.670 -1.2078 -1.3056  0.0284
 8520SOL     OW37195   2.617   2.995   7.918  0.3708  0.0380 -0.8091
 8520SOL    HW137196   2.562   2.943   7.859 -1.5084 -0.5928  1.4897
 8520SOL    HW237197   2.696   2.942   7.909  0.4309  0.3716 -2.2764
 8521SOL     OW37198   3.729   1.992   4.689  0.3445 -0.3616  0.1548
 8521SOL    HW137199   3.815   2.010   4.652  1.4189  1.3996  3.5135
 8521SOL    HW237200   3.743   2.008   4.782  0.4660 -0.0736  0.0880
 8522SOL     OW37201   1.016   3.356  12.101  0.1136  0.0963  0.1188
 8522SOL    HW137202   1.092   3.378  12.048 -0.2571 -0.3425 -0.5866
 8522SOL    HW237203   0.959   3.417  12.054  1.5448  0.6326 -0.9137
 8523SOL     OW37204   0.417   0.846   7.022  0.6894  0.0317  0.3099
 8523SOL    HW137205   0.375   0.802   6.948  0.5610  1.1069 -0.2650
 8523SOL    HW237206   0.364   0.825   7.098 -1.4440  1.1742 -0.8651
 8524SOL     OW37207   1.759   4.534  12.849 -0.0589  0.0409 -0.0884
 8524SOL    HW137208   1.732   4.597  12.782 -0.1582  0.7669  0.6382
 8524SOL    HW237209   1.854   4.541  12.841 -0.1692 -0.0487 -1.4563
 8525SOL     OW37210   1.123   2.725   2.970 -0.1391 -0.5018  0.2365
 8525SOL    HW137211   1.159   2.674   2.897 -0.5572 -1.5096  0.7423
 8525SOL    HW237212   1.035   2.745   2.938  0.6960  1.2208 -0.9807
 8526SOL     OW37213   2.631   1.728   4.445 -0.2499  0.0751  0.2040
 8526SOL    HW137214   2.571   1.798   4.419  0.4035  0.4978 -0.1711
 8526SOL    HW237215   2.591   1.711   4.531  0.4544 -1.4455  0.2266
 8527SOL     OW37216   1.748   2.101   6.756 -0.0628 -0.3983  0.1097
 8527SOL    HW137217   1.699   2.086   6.675  0.6379  1.2768 -0.6210
 8527SOL    HW237218   1.830   2.133   6.719  0.2243  0.1375  1.2407
 8528SOL     OW37219   0.474   2.206  11.273  0.1185  0.1395  0.0199
 8528SOL    HW137220   0.407   2.230  11.209 -1.0889 -1.2636  0.7492
 8528SOL    HW237221   0.450   2.261  11.347  0.1564  0.8128 -0.4733
 8529SOL     OW37222   0.867   0.509   8.470  0.5051 -0.1012 -0.1794
 8529SOL    HW137223   0.950   0.464   8.456  0.4526 -0.3853  0.4647
 8529SOL    HW237224   0.877   0.547   8.557 -0.4713 -0.2062 -0.0261
 8530SOL     OW37225   2.340   2.353   6.132 -0.3843  0.1577 -0.7110
 8530SOL    HW137226   2.430   2.387   6.137  0.0073 -0.9132 -0.5948
 8530SOL    HW237227   2.325   2.321   6.221 -0.4307  2.1053 -0.0163
 8531SOL     OW37228   2.089   2.379   6.823  0.2765 -0.3220 -0.6293
 8531SOL    HW137229   2.175   2.377   6.782  0.0404 -0.5657 -1.1104
 8531SOL    HW237230   2.038   2.330   6.759 -1.9033  1.8478 -0.5545
 8532SOL     OW37231   0.129   0.699   2.612 -0.1524 -0.6256  0.0072
 8532SOL    HW137232   0.210   0.739   2.645 -0.5343 -0.4694  0.7389
 8532SOL    HW237233   0.143   0.611   2.647  2.6777 -0.1265  0.1387
 8533SOL     OW37234   4.131   4.190   5.714  0.2950 -0.3817  0.1623
 8533SOL    HW137235   4.067   4.259   5.732 -0.3227 -0.4740 -1.6971
 8533SOL    HW237236   4.175   4.204   5.631  0.6404 -1.2428  0.2053
 8534SOL     OW37237   0.074   3.471  13.474  0.5804  0.7465 -0.1658
 8534SOL    HW137238   0.075   3.565  13.493 -1.0693  0.8011 -0.3666
 8534SOL    HW237239   4.717   3.455  13.467  0.3416  0.6559  3.0585
 8535SOL     OW37240   0.752   0.960   7.305  0.0184 -0.5182 -0.4380
 8535SOL    HW137241   0.768   0.881   7.254 -1.2018 -1.0148 -0.0653
 8535SOL    HW237242   0.809   0.935   7.378  0.8793  2.1110 -0.1895
 8536SOL     OW37243   2.568   1.918  12.135 -0.4021 -0.0371 -0.0590
 8536SOL    HW137244   2.477   1.934  12.110 -0.4558 -1.0191 -0.4944
 8536SOL    HW237245   2.599   1.850  12.075 -0.6282  0.3355 -0.5961
 8537SOL     OW37246   2.749   4.697   3.058 -0.2297  0.7391  0.3409
 8537SOL    HW137247   2.738   0.030   2.995  2.2184 -0.1189 -1.0635
 8537SOL    HW237248   2.683   4.720   3.122 -0.7924  2.5909 -0.9063
 8538SOL     OW37249   1.805   0.955   9.037 -0.7047  0.3906 -0.3690
 8538SOL    HW137250   1.885   0.963   9.088 -0.0606 -0.7103 -1.2033
 8538SOL    HW237251   1.763   0.874   9.067 -2.9054  1.2107 -1.2273
 8539SOL     OW37252   2.063   0.732   6.139 -0.5183 -0.1357  0.7638
 8539SOL    HW137253   2.110   0.702   6.061 -3.3948  0.7362 -1.2817
 8539SOL    HW237254   2.125   0.698   6.203  0.2258 -0.8412 -0.3288
 8540SOL     OW37255   4.680   4.221  10.113 -0.2295  0.0894 -0.3321
 8540SOL    HW137256   4.622   4.250  10.043 -0.8805 -1.2142 -0.3354
 8540SOL    HW237257   4.658   4.295  10.170 -2.1285 -0.5610 -0.2343
 8541SOL     OW37258   0.085   1.470  16.957 -0.3162 -0.2410  0.1353
 8541SOL    HW137259   0.108   1.545  16.902  2.5431 -1.1380  0.1068
 8541SOL    HW237260   0.157   1.414  16.928 -0.9678 -0.7174 -0.5546
 8542SOL     OW37261   0.769   3.652   0.585  0.2293 -0.2235 -0.3636
 8542SOL    HW137262   0.792   3.627   0.675 -2.8406  1.3181  0.8568
 8542SOL    HW237263   0.849   3.648   0.533  1.5812 -1.5273  1.8000
 8543SOL     OW37264   3.334   3.155   0.942  0.0254 -0.1684 -0.3609
 8543SOL    HW137265   3.300   3.111   0.864 -0.6647  1.5658 -1.0465
 8543SOL    HW237266   3.425   3.174   0.922 -0.3085  0.3751 -1.3759
 8544SOL     OW37267   3.342   2.523   7.914 -0.3100  0.5265 -0.2691
 8544SOL    HW137268   3.417   2.579   7.896 -0.5572  0.9601  0.0483
 8544SOL    HW237269   3.336   2.483   7.827  1.0092  0.5748 -0.3698
 8545SOL     OW37270   2.278   0.333   1.838  0.2356  0.3758  0.5488
 8545SOL    HW137271   2.195   0.293   1.865 -0.1892  0.8731  0.0060
 8545SOL    HW237272   2.344   0.309   1.903  1.3159  1.2223 -0.2429
 8546SOL     OW37273   4.622   2.665   9.041 -0.1265  0.1826  0.2165
 8546SOL    HW137274   4.533   2.672   9.008 -0.8958 -0.5966  2.1065
 8546SOL    HW237275   4.650   2.592   8.987 -2.9484  0.6238 -1.8358
 8547SOL     OW37276   2.104   0.280   7.689  0.3966  0.0132  0.0399
 8547SOL    HW137277   2.062   0.339   7.751 -0.2710 -2.7897  2.2579
 8547SOL    HW237278   2.034   0.217   7.670 -0.1323  0.8428 -0.7940
 8548SOL     OW37279   3.803   3.592   1.340  0.0666  0.1522 -0.1492
 8548SOL    HW137280   3.794   3.526   1.409  2.1091 -0.7231 -0.7248
 8548SOL    HW237281   3.891   3.579   1.305 -0.3018 -2.3012 -0.1915
 8549SOL     OW37282   3.409   4.357   5.420 -0.1190 -0.1236  0.3307
 8549SOL    HW137283   3.483   4.312   5.379 -2.1648 -1.1669 -2.2241
 8549SOL    HW237284   3.452   4.375   5.504 -1.3208  0.0582  0.9159
 8550SOL     OW37285   0.760   1.401   2.361  0.0543  0.1610  0.3488
 8550SOL    HW137286   0.854   1.403   2.345 -0.2290  0.1005 -1.4162
 8550SOL    HW237287   0.718   1.384   2.276  0.0678  1.7515  0.0234
 8551SOL     OW37288   0.864   1.550  15.221  0.0800 -0.0553  0.2825
 8551SOL    HW137289   0.823   1.580  15.302 -0.4060 -0.7323  0.2888
 8551SOL    HW237290   0.918   1.627  15.205  1.1378 -0.6902  0.7809
 8552SOL     OW37291   3.012   0.060   1.934  0.1745 -0.3068 -0.1089
 8552SOL    HW137292   3.103   0.077   1.960 -0.2940 -1.3928  2.1737
 8552SOL    HW237293   3.021   0.116   1.857 -1.0825 -0.1539 -0.1465
 8553SOL     OW37294   4.558   1.228  17.599 -0.2957 -0.1468 -0.2604
 8553SOL    HW137295   4.534   1.137  17.613  0.4446 -0.2797  0.1224
 8553SOL    HW237296   4.530   1.250  17.510 -1.4313 -4.4575 -0.9617
 8554SOL     OW37297   4.146   2.541   5.484  0.0799  0.3568  0.1728
 8554SOL    HW137298   4.207   2.525   5.556  1.0401 -0.5272 -0.8386
 8554SOL    HW237299   4.117   2.626   5.519 -2.0194 -0.0096 -0.6874
 8555SOL     OW37300   4.561   3.578   6.505 -0.4134 -0.1697  0.4144
 8555SOL    HW137301   4.542   3.494   6.548  0.1526  0.0407  1.0724
 8555SOL    HW237302   4.586   3.644   6.569  0.6415 -0.0184 -0.1562
 8556SOL     OW37303   4.302   1.444   7.134 -0.6173 -0.2068  0.0297
 8556SOL    HW137304   4.363   1.384   7.091  0.1538  1.2238 -0.9053
 8556SOL    HW237305   4.366   1.510   7.160 -0.5681 -0.7245  1.2061
 8557SOL     OW37306   3.264   1.269   3.657  0.0905 -0.4377 -0.3315
 8557SOL    HW137307   3.169   1.260   3.653  0.2756 -1.2069 -2.8197
 8557SOL    HW237308   3.273   1.354   3.614  5.1037  0.7233  2.9482
 8558SOL     OW37309   4.623   0.156   4.911  0.7906  0.5666 -0.1997
 8558SOL    HW137310   4.690   0.088   4.903  1.7111  1.4653 -0.2218
 8558SOL    HW237311   4.547   0.099   4.923  0.5079  0.7765 -1.0134
 8559SOL     OW37312   3.867   3.776   7.610  0.3132 -0.2719 -0.1218
 8559SOL    HW137313   3.906   3.855   7.646 -0.2640 -1.2139  2.5288
 8559SOL    HW237314   3.941   3.715   7.610 -0.7280 -1.5508 -1.2008
 8560SOL     OW37315   2.176   4.685   3.921 -0.4033 -0.1793 -0.4477
 8560SOL    HW137316   2.087   4.717   3.904  0.6250  4.0519  1.9877
 8560SOL    HW237317   2.180   4.692   4.016 -1.7911 -0.4967 -0.3762
 8561SOL     OW37318   0.661   2.372   0.683 -0.1971  0.2814  0.6230
 8561SOL    HW137319   0.734   2.332   0.729  0.1447  0.1168 -0.0588
 8561SOL    HW237320   0.595   2.352   0.749 -1.5669  2.1816 -0.1666
 8562SOL     OW37321   4.240   4.359  13.052 -0.2973 -0.0427  0.1429
 8562SOL    HW137322   4.238   4.406  13.135  0.3061  0.4382 -0.1124
 8562SOL    HW237323   4.330   4.380  13.027  0.0323  1.4057  2.4974
 8563SOL     OW37324   4.002   3.661  16.049  0.7157  0.0260  0.5637
 8563SOL    HW137325   3.921   3.657  16.099  1.5498 -0.0929  1.8934
 8563SOL    HW237326   4.052   3.586  16.083 -1.0587 -1.1547  0.5814
 8564SOL     OW37327   2.785   1.048  15.420 -0.0595 -0.0471 -0.2178
 8564SOL    HW137328   2.806   0.988  15.349  1.8701 -2.0701  2.0900
 8564SOL    HW237329   2.865   1.095  15.441  1.7491 -2.5772 -1.4997
 8565SOL     OW37330   4.174   2.503   7.857  0.5617 -0.6174  0.1601
 8565SOL    HW137331   4.197   2.592   7.882 -0.5884 -0.1463 -0.4332
 8565SOL    HW237332   4.192   2.453   7.936 -0.5774 -2.3058 -0.6408
 8566SOL     OW37333   3.976   1.336   5.312  0.3507 -0.2746 -0.0710
 8566SOL    HW137334   4.005   1.291   5.232  0.9799  2.8619 -1.5800
 8566SOL    HW237335   4.057   1.381   5.335 -0.5218  1.2565  0.0063
 8567SOL     OW37336   1.486   1.923   8.540 -0.3951  0.3435 -0.0344
 8567SOL    HW137337   1.560   1.910   8.598 -1.2388  0.8921  1.1664
 8567SOL    HW237338   1.519   1.872   8.466 -1.4479 -1.1897  0.5389
 8568SOL     OW37339   3.187   3.535   7.713 -0.0461 -0.5589  0.2368
 8568SOL    HW137340   3.182   3.488   7.797  0.8752  2.2706  1.8822
 8568SOL    HW237341   3.134   3.483   7.653  1.0466  0.3141 -1.4531
 8569SOL     OW37342   4.300   0.696   8.676  0.4680 -0.2794 -0.4123
 8569SOL    HW137343   4.382   0.672   8.718  0.6500 -0.6445 -0.9800
 8569SOL    HW237344   4.319   0.673   8.585 -0.6387  0.2035 -0.7704
 8570SOL     OW37345   3.685   4.349   4.554 -0.3133 -0.1896 -0.2050
 8570SOL    HW137346   3.668   4.431   4.599  1.7759  0.8261 -1.2776
 8570SOL    HW237347   3.608   4.299   4.582 -0.5552 -0.3052 -1.1030
 8571SOL     OW37348   3.220   1.524  15.184 -0.3039 -0.3068 -0.8300
 8571SOL    HW137349   3.258   1.465  15.119  0.2490 -0.6189 -0.2199
 8571SOL    HW237350   3.235   1.474  15.263  3.1555  2.4789  0.2738
 8572SOL     OW37351   2.915   0.122   2.817  0.4168  0.1305  0.2504
 8572SOL    HW137352   2.987   0.126   2.753 -0.4261 -1.6628 -0.8095
 8572SOL    HW237353   2.849   0.064   2.780 -0.7940  0.1089  2.4445
 8573SOL     OW37354   1.611   2.378   4.003  0.1878 -0.0084 -0.1786
 8573SOL    HW137355   1.609   2.325   3.923 -0.3694  1.3444 -1.0642
 8573SOL    HW237356   1.585   2.456   3.953  0.1416  1.5373  2.2516
 8574SOL     OW37357   0.681   2.867   7.092  0.4323 -0.0987  0.0354
 8574SOL    HW137358   0.627   2.934   7.133  0.6561 -0.1199  0.3641
 8574SOL    HW237359   0.718   2.900   7.010  2.3662 -0.6099  0.6973
 8575SOL     OW37360   1.702   1.625   5.472  0.3116  0.0399  0.1616
 8575SOL    HW137361   1.791   1.617   5.437 -0.9120  0.5364 -3.1112
 8575SOL    HW237362   1.684   1.719   5.477 -0.1862 -0.0345 -0.1535
 8576SOL     OW37363   0.783   0.779   7.121  0.1097  0.4994 -0.0021
 8576SOL    HW137364   0.765   0.786   7.027 -1.2621 -2.5693  0.0471
 8576SOL    HW237365   0.779   0.685   7.136  0.2545  0.3478 -0.8829
 8577SOL     OW37366   2.920   2.442   5.689  0.1886 -0.2127 -0.2728
 8577SOL    HW137367   2.872   2.364   5.661  0.1255  0.3346 -1.6926
 8577SOL    HW237368   2.914   2.485   5.604 -2.3392 -2.2138 -1.1118
 8578SOL     OW37369   3.091   0.236  10.476  0.0521 -0.3751  0.3261
 8578SOL    HW137370   3.174   0.254  10.520  0.9025 -1.3763 -0.8739
 8578SOL    HW237371   3.023   0.258  10.540 -0.1412  1.1018 -0.3768
 8579SOL     OW37372   4.512   3.080   3.686  0.3021 -0.1944 -0.3270
 8579SOL    HW137373   4.581   3.138   3.654 -1.3150  2.0656  0.2613
 8579SOL    HW237374   4.481   3.130   3.762  1.8528 -0.0236  0.1927
 8580SOL     OW37375   0.410   4.570  15.990  0.1323 -0.1583 -0.4937
 8580SOL    HW137376   0.428   4.664  15.995 -1.7795  0.1228  1.2087
 8580SOL    HW237377   0.497   4.533  16.003  0.6606  0.6546 -1.6788
 8581SOL     OW37378   3.610   2.001   6.176 -0.4971 -0.0719 -1.0580
 8581SOL    HW137379   3.678   1.935   6.185 -0.2749  0.3825  0.6698
 8581SOL    HW237380   3.602   1.991   6.081 -0.3929  2.1679 -1.3034
 8582SOL     OW37381   2.298   0.055   0.510 -0.3912 -0.0225  0.4391
 8582SOL    HW137382   2.383   0.099   0.517  0.0678 -0.9913  1.0007
 8582SOL    HW237383   2.292   0.052   0.415 -1.7540  2.5182  0.4714
 8583SOL     OW37384   0.920   0.202   4.339 -0.2115  0.4622  0.0881
 8583SOL    HW137385   0.939   0.221   4.248 -0.7665 -0.4710 -0.2169
 8583SOL    HW237386   1.005   0.188   4.380 -1.0463  0.2234  1.7434
 8584SOL     OW37387   0.135   0.665  16.380 -0.0567 -0.4562 -0.0922
 8584SOL    HW137388   0.130   0.731  16.450  2.8990 -1.5735  1.2050
 8584SOL    HW237389   0.075   0.611  16.431 -2.5970  1.1018 -1.4378
 8585SOL     OW37390   1.612   3.654   7.112  0.0814  0.0960 -0.6285
 8585SOL    HW137391   1.702   3.665   7.081 -0.2359 -0.6218 -1.7818
 8585SOL    HW237392   1.573   3.596   7.047  2.3053 -2.3987  0.2629
 8586SOL     OW37393   3.235   1.974  15.106 -0.0075  0.3523 -0.1415
 8586SOL    HW137394   3.310   1.915  15.109  0.1018  0.5920  1.8199
 8586SOL    HW237395   3.282   2.053  15.080  1.9849 -1.4771 -2.0209
 8587SOL     OW37396   0.748   2.722  10.660  0.3273 -0.1235 -0.6906
 8587SOL    HW137397   0.680   2.733  10.726 -0.8956 -0.6912 -1.8488
 8587SOL    HW237398   0.813   2.782  10.696 -0.2599  1.4472 -2.2422
 8588SOL     OW37399   2.505   1.783   1.138 -0.3311  0.0968 -0.8105
 8588SOL    HW137400   2.549   1.817   1.216  2.0413 -0.8688 -1.7251
 8588SOL    HW237401   2.447   1.716   1.175  0.1309  0.4122  0.4860
 8589SOL     OW37402   1.590   4.369   4.971 -0.3492 -0.0407  0.2919
 8589SOL    HW137403   1.679   4.384   4.940 -0.8977  1.3230 -0.6405
 8589SOL    HW237404   1.601   4.279   5.003  1.0870 -0.0498 -0.2365
 8590SOL     OW37405   3.143   1.511   8.609  0.2009 -0.8059  0.3625
 8590SOL    HW137406   3.239   1.511   8.611  0.2589  2.9732 -2.3911
 8590SOL    HW237407   3.128   1.439   8.670  1.8446 -2.3906 -1.0995
 8591SOL     OW37408   0.250   3.786   6.579  0.4404  0.5852  0.4685
 8591SOL    HW137409   0.290   3.701   6.600 -1.1712  0.0578  1.4346
 8591SOL    HW237410   0.333   3.834   6.573  1.1044 -0.5908  0.2872
 8592SOL     OW37411   2.810   3.553   5.194  0.1212  0.0711  0.9027
 8592SOL    HW137412   2.885   3.610   5.214  1.5744 -1.6956  0.4704
 8592SOL    HW237413   2.781   3.523   5.280 -3.1434  1.2626  0.2072
 8593SOL     OW37414   2.797   3.689   2.242  0.2596  0.4200  0.1439
 8593SOL    HW137415   2.740   3.631   2.192  0.2808  0.1124  0.4794
 8593SOL    HW237416   2.731   3.738   2.292  1.5689  0.7264  1.5791
 8594SOL     OW37417   4.579   1.071   5.357  0.5239  0.6920 -0.0153
 8594SOL    HW137418   4.552   0.979   5.355  0.7556  0.5837  1.7885
 8594SOL    HW237419   4.673   1.057   5.353  0.1992 -0.8461 -2.2050
 8595SOL     OW37420   1.984   0.146  16.103  0.1622  0.3917 -0.1592
 8595SOL    HW137421   1.925   0.218  16.080  0.3109  0.8630  0.9227
 8595SOL    HW237422   2.067   0.195  16.097 -0.4971  1.2752 -1.8991
 8596SOL     OW37423   1.731   3.847  14.721  0.0168  0.5222 -0.3237
 8596SOL    HW137424   1.799   3.909  14.747 -0.9296  1.5235 -0.2302
 8596SOL    HW237425   1.783   3.783  14.673  4.5198  3.7177  0.2523
 8597SOL     OW37426   4.083   0.385   5.230 -0.0416 -0.2847  1.1025
 8597SOL    HW137427   4.123   0.463   5.191 -1.3083 -1.4091 -2.4574
 8597SOL    HW237428   4.135   0.377   5.310 -0.0301 -0.6986  1.0507
 8598SOL     OW37429   0.090   1.643   2.475 -0.2870 -0.5915  0.6269
 8598SOL    HW137430   0.069   1.556   2.440  0.0510 -1.1821  1.8704
 8598SOL    HW237431   0.004   1.673   2.504 -0.5021 -0.2954 -0.3366
 8599SOL     OW37432   2.944   2.205   4.331 -0.0561  0.6532 -0.0267
 8599SOL    HW137433   2.978   2.256   4.404 -0.0490  0.8264 -0.1517
 8599SOL    HW237434   2.851   2.221   4.351 -0.0785 -1.0278  1.3195
 8600SOL     OW37435   3.103   2.290   7.755  0.3404  0.0996 -0.1772
 8600SOL    HW137436   3.196   2.302   7.737 -0.2878 -0.5613 -3.8174
 8600SOL    HW237437   3.065   2.348   7.689  0.1693 -1.2859 -1.2877
 8601SOL     OW37438   4.377   2.151   4.742  0.3897 -0.0686 -0.2023
 8601SOL    HW137439   4.418   2.167   4.657 -1.0246  0.8491 -0.7207
 8601SOL    HW237440   4.393   2.057   4.731 -0.3046 -0.1663 -0.3622
 8602SOL     OW37441   3.550   1.879   8.183 -0.0621  0.4702  0.2151
 8602SOL    HW137442   3.558   1.810   8.118 -1.4155 -0.1878  0.7556
 8602SOL    HW237443   3.518   1.952   8.131  2.6990 -0.2740 -2.5117
 8603SOL     OW37444   2.552   4.484   9.636 -0.1247  0.0441  0.2330
 8603SOL    HW137445   2.547   4.520   9.725 -1.2447 -0.2541  0.2847
 8603SOL    HW237446   2.514   4.552   9.580  1.0439  1.0134  0.6165
 8604SOL     OW37447   3.367   3.736   4.487 -0.8644 -0.5288 -0.0845
 8604SOL    HW137448   3.367   3.671   4.557  0.7958 -2.1881 -1.6611
 8604SOL    HW237449   3.447   3.719   4.438 -0.9737  1.3085 -0.9032
 8605SOL     OW37450   0.038   3.375   4.770 -0.1529  0.0009 -0.0580
 8605SOL    HW137451   0.124   3.404   4.799  0.3440 -0.9429 -0.5973
 8605SOL    HW237452   4.729   3.395   4.852 -3.3951 -1.6100 -1.5183
 8606SOL     OW37453   4.654   2.999   5.714  0.2810  0.1846 -0.1415
 8606SOL    HW137454   4.600   3.026   5.788 -0.4245 -0.3901 -0.4447
 8606SOL    HW237455   4.732   2.979   5.765  0.6474  1.3453 -0.2396
 8607SOL     OW37456   0.465   4.695   0.329 -0.3429 -0.0007 -0.3434
 8607SOL    HW137457   0.539   4.737   0.285 -0.8977 -0.3637 -1.6168
 8607SOL    HW237458   0.428   0.037   0.369 -0.6489 -0.2398 -0.1464
 8608SOL     OW37459   1.342   0.987   7.417  0.0293  0.1401  0.3176
 8608SOL    HW137460   1.288   1.004   7.340  0.3024 -1.0415 -0.1321
 8608SOL    HW237461   1.289   0.914   7.451 -1.7501  1.6542  0.8391
 8609SOL     OW37462   4.371   2.517  12.470 -0.8373  0.2574 -0.6933
 8609SOL    HW137463   4.379   2.571  12.391  0.7396  0.8586 -0.1060
 8609SOL    HW237464   4.376   2.428  12.435 -0.3429  0.2077 -0.4968
 8610SOL     OW37465   4.131   2.798   5.563 -0.7412  0.1688  0.4054
 8610SOL    HW137466   4.046   2.842   5.568 -0.0971  1.4852 -0.3923
 8610SOL    HW237467   4.177   2.863   5.509 -0.8753  1.2489  1.5958
 8611SOL     OW37468   1.542   0.800   1.627  0.0633  0.6485  0.3715
 8611SOL    HW137469   1.580   0.774   1.711  2.3440 -0.8380 -1.1222
 8611SOL    HW237470   1.618   0.818   1.573 -0.7949  2.8156 -0.0952
 8612SOL     OW37471   0.237   2.914   5.860 -0.8407  0.3542  0.4214
 8612SOL    HW137472   0.322   2.885   5.892 -0.6305  2.3816  1.6880
 8612SOL    HW237473   0.211   2.944   5.947 -0.7908  0.8611  0.2602
 8613SOL     OW37474   2.842   0.376  15.367  0.3650  0.5677  0.2702
 8613SOL    HW137475   2.749   0.395  15.359  0.4060  0.2682 -0.9698
 8613SOL    HW237476   2.885   0.435  15.305  0.1837  0.0196 -0.3901
 8614SOL     OW37477   1.013   3.586   3.761 -0.6222  0.1632  0.0307
 8614SOL    HW137478   1.078   3.528   3.801  1.2431  2.2469  0.0434
 8614SOL    HW237479   1.063   3.666   3.745 -0.5079  0.0320 -0.2748
 8615SOL     OW37480   1.557   0.131  10.117 -0.4966 -0.1280 -0.1645
 8615SOL    HW137481   1.528   0.154  10.206  1.0765 -1.8909  0.8014
 8615SOL    HW237482   1.591   0.043  10.129 -0.9751 -0.2878  0.0302
 8616SOL     OW37483   1.810   4.166   6.331  0.1733 -0.2463  0.0835
 8616SOL    HW137484   1.828   4.259   6.317  1.2296 -0.0768  2.6599
 8616SOL    HW237485   1.855   4.117   6.262 -2.2422 -0.6316 -1.2084
 8617SOL     OW37486   2.784   2.065  12.977 -0.0404  0.5451  0.1315
 8617SOL    HW137487   2.731   2.106  13.046  0.1886 -1.1606  1.3124
 8617SOL    HW237488   2.843   2.007  13.024  1.0635  0.8995 -0.8252
 8618SOL     OW37489   4.697   2.137   4.082  0.3888  0.6964 -0.3544
 8618SOL    HW137490   4.603   2.157   4.080  0.0610 -0.7964  0.2477
 8618SOL    HW237491   4.715   2.119   3.990 -0.3325 -1.9686  0.0316
 8619SOL     OW37492   0.685   2.833  11.618 -0.0745 -0.4251  0.7631
 8619SOL    HW137493   0.765   2.857  11.665 -0.5822 -0.1071  1.4712
 8619SOL    HW237494   0.684   2.910  11.561  1.3196  0.8164  2.3827
 8620SOL     OW37495   1.027   4.292   2.524 -0.8644 -0.0015  0.3766
 8620SOL    HW137496   1.105   4.264   2.571 -0.0635  0.9489 -0.3896
 8620SOL    HW237497   1.013   4.377   2.565 -1.0854 -0.2286  0.7814
 8621SOL     OW37498   1.310   1.201   0.961  0.3032  0.1562 -0.2404
 8621SOL    HW137499   1.357   1.157   0.890 -0.0990  1.9840 -1.6208
 8621SOL    HW237500   1.323   1.136   1.031  0.1524  0.3921  0.0071
 8622SOL     OW37501   3.613   1.766   0.558  0.0391 -0.0312 -0.3178
 8622SOL    HW137502   3.579   1.842   0.605  0.3122 -0.3834  0.4553
 8622SOL    HW237503   3.569   1.777   0.474  1.5310  2.0935 -0.7965
 8623SOL     OW37504   1.318   0.144  12.629 -0.5513  0.5970  0.0456
 8623SOL    HW137505   1.379   0.122  12.559  0.9822  2.1052  0.8888
 8623SOL    HW237506   1.334   0.239  12.633 -0.5070  0.5584  0.9668
 8624SOL     OW37507   0.733   3.894   4.378 -0.0489 -0.0672 -0.4369
 8624SOL    HW137508   0.637   3.900   4.386  0.1970 -0.1911  2.7118
 8624SOL    HW237509   0.735   3.921   4.286 -0.0122  1.1063 -0.0974
 8625SOL     OW37510   2.068   4.651   9.685 -0.1322  0.6251  0.0591
 8625SOL    HW137511   2.093   4.583   9.747 -4.3392 -0.3191  0.7104
 8625SOL    HW237512   1.995   4.701   9.722 -1.8008 -0.1873 -2.1851
 8626SOL     OW37513   4.405   4.182  13.830 -0.0060 -0.3786 -0.1242
 8626SOL    HW137514   4.318   4.211  13.801  0.2368  0.5529  0.0655
 8626SOL    HW237515   4.410   4.088  13.813 -0.0879 -0.3332 -0.4150
 8627SOL     OW37516   3.592   2.468  15.896  0.7890  0.2601  0.2018
 8627SOL    HW137517   3.651   2.393  15.883  0.0326 -0.3047  0.0651
 8627SOL    HW237518   3.657   2.532  15.866  0.3178 -0.4931 -2.4826
 8628SOL     OW37519   3.536   3.552   6.462 -0.2091 -0.5365 -0.3294
 8628SOL    HW137520   3.460   3.598   6.427  0.8807  0.9560 -0.7449
 8628SOL    HW237521   3.511   3.532   6.552 -1.0164 -1.9465 -0.8471
 8629SOL     OW37522   3.905   2.197   9.632 -0.8780  0.0341  0.4645
 8629SOL    HW137523   3.948   2.224   9.550 -0.8389  1.2434  0.8861
 8629SOL    HW237524   3.814   2.206   9.606 -1.2674  0.5985  2.0448
 8630SOL     OW37525   0.435   3.603   4.966  0.0511 -0.1910 -0.1294
 8630SOL    HW137526   0.391   3.688   4.969 -1.5047 -1.0038  0.0934
 8630SOL    HW237527   0.426   3.579   5.058 -0.4191 -0.1878 -0.1733
 8631SOL     OW37528   4.534   3.639  15.133 -0.3193 -0.2952  0.0749
 8631SOL    HW137529   4.448   3.613  15.101 -1.4940 -0.0102  2.9999
 8631SOL    HW237530   4.580   3.555  15.128 -0.0331 -0.2494  2.0421
 8632SOL     OW37531   3.561   3.799   5.102  0.4793  0.3264 -0.0527
 8632SOL    HW137532   3.540   3.706   5.109 -3.4228  1.2619  0.5817
 8632SOL    HW237533   3.652   3.785   5.077  0.6731 -0.4470  1.0989
 8633SOL     OW37534   0.776   0.540   6.616 -0.0714  0.0381  0.2188
 8633SOL    HW137535   0.863   0.577   6.612 -0.1604  0.3497  1.1294
 8633SOL    HW237536   0.762   0.521   6.709  0.2216 -2.2500 -0.2000
 8634SOL     OW37537   1.238   1.161  14.511  0.1186  0.1389  0.4301
 8634SOL    HW137538   1.146   1.137  14.521 -0.3805  0.6388 -2.9071
 8634SOL    HW237539   1.284   1.078  14.501  0.1406  0.3788 -1.4481
 8635SOL     OW37540   4.499   2.746  11.130 -0.0287  0.1270  0.2043
 8635SOL    HW137541   4.566   2.783  11.072 -0.1122 -0.5315 -0.3219
 8635SOL    HW237542   4.495   2.818  11.192  0.9673  1.4245 -1.2526
 8636SOL     OW37543   0.312   1.475  11.982  0.0966  0.1618  0.4329
 8636SOL    HW137544   0.305   1.445  11.892  1.7578 -3.2696  1.4671
 8636SOL    HW237545   0.373   1.547  11.971 -0.0100 -0.2358 -2.6421
 8637SOL     OW37546   3.882   1.164   0.946  0.5393 -0.3036 -0.2349
 8637SOL    HW137547   3.916   1.192   0.861 -2.0544  2.7228 -0.2861
 8637SOL    HW237548   3.964   1.164   0.995  1.7642  2.5139 -2.3360
 8638SOL     OW37549   4.230   2.726   8.487  0.5147 -0.0228  0.0301
 8638SOL    HW137550   4.194   2.640   8.510  0.2530  0.3369  0.9980
 8638SOL    HW237551   4.168   2.791   8.520  0.7373 -0.4577  1.3153
 8639SOL     OW37552   0.538   4.553   4.259 -0.0874  0.6250 -0.4907
 8639SOL    HW137553   0.607   4.516   4.203 -0.8662 -2.3829  0.5542
 8639SOL    HW237554   0.469   4.489   4.242 -1.2851  1.6244  0.6913
 8640SOL     OW37555   1.251   1.855   8.398  0.5059 -0.3747  0.3996
 8640SOL    HW137556   1.171   1.898   8.428  0.2779 -0.6470  0.1865
 8640SOL    HW237557   1.310   1.861   8.473  0.4786  0.4804  0.3426
 8641SOL     OW37558   3.823   2.341   6.453  0.1324  0.9167 -0.4676
 8641SOL    HW137559   3.755   2.275   6.436  1.0201 -0.5513  1.6140
 8641SOL    HW237560   3.784   2.392   6.524 -2.4082 -1.3312 -0.2451
 8642SOL     OW37561   2.835   3.936  10.558 -0.0882  0.4898  0.0371
 8642SOL    HW137562   2.927   3.959  10.549  0.1681 -0.9048 -1.1149
 8642SOL    HW237563   2.809   3.885  10.480  0.9193  2.0569 -1.3174
 8643SOL     OW37564   0.509   4.024  17.588  0.1850 -0.2571  0.5502
 8643SOL    HW137565   0.560   4.005  17.667  1.7311 -1.5592 -0.7418
 8643SOL    HW237566   0.561   3.972  17.526 -0.9807 -0.2557 -0.4305
 8644SOL     OW37567   1.000   1.609   2.243 -0.6024 -0.2533 -0.4319
 8644SOL    HW137568   0.928   1.570   2.193  1.8457  0.3482 -4.4724
 8644SOL    HW237569   1.077   1.570   2.200  2.2770  0.9315  3.6772
 8645SOL     OW37570   1.958   3.898   4.769 -0.3254  0.1223  0.4036
 8645SOL    HW137571   1.995   3.824   4.721 -1.3899  0.6457 -1.2579
 8645SOL    HW237572   2.033   3.949   4.799 -0.2013 -0.0001  0.2989
 8646SOL     OW37573   3.246   4.359   7.723 -0.3021 -0.2812  0.2055
 8646SOL    HW137574   3.324   4.366   7.778 -0.0752 -1.4798  0.0342
 8646SOL    HW237575   3.269   4.289   7.662  1.2510 -1.2057  1.8459
 8647SOL     OW37576   2.009   0.868   3.433 -0.5061 -0.4422 -0.1171
 8647SOL    HW137577   1.944   0.845   3.499 -0.1265 -1.2276 -0.0218
 8647SOL    HW237578   2.006   0.796   3.371 -0.2436 -0.3858 -0.1959
 8648SOL     OW37579   2.399   1.803  11.523  0.3480  0.5726  0.2309
 8648SOL    HW137580   2.424   1.785  11.614  1.3973 -0.1601 -0.2092
 8648SOL    HW237581   2.462   1.750  11.475 -2.5081 -1.0264 -1.7155
 8649SOL     OW37582   0.546   3.253   1.795  0.2215 -0.3729 -0.2191
 8649SOL    HW137583   0.558   3.344   1.824  0.7596  0.4810 -3.0776
 8649SOL    HW237584   0.519   3.228   1.883 -0.8787  1.8672  0.0972
 8650SOL     OW37585   4.284   4.073   5.198 -0.4472  0.2510  0.3252
 8650SOL    HW137586   4.356   4.132   5.178  0.1748 -0.9022 -0.8532
 8650SOL    HW237587   4.249   4.059   5.110 -0.5149 -0.8872  0.5292
 8651SOL     OW37588   4.166   0.356   1.781  0.1761  0.0365  0.3051
 8651SOL    HW137589   4.112   0.324   1.709  2.6943  0.0316 -1.5723
 8651SOL    HW237590   4.229   0.397   1.723  0.2812  1.4489  1.3976
 8652SOL     OW37591   3.569   2.073   1.848 -0.1184 -0.2072  0.1653
 8652SOL    HW137592   3.509   2.111   1.912  0.2416 -0.2656  0.5403
 8652SOL    HW237593   3.529   1.986   1.853 -1.2696  0.1953 -2.4050
 8653SOL     OW37594   2.413   0.910  12.798 -0.3147 -0.0408 -0.5000
 8653SOL    HW137595   2.507   0.925  12.803 -0.6356  1.6245  0.2632
 8653SOL    HW237596   2.379   0.928  12.885  0.5087 -1.5118  0.1243
 8654SOL     OW37597   4.412   3.930   2.562  0.4314  0.5256  0.3497
 8654SOL    HW137598   4.417   3.968   2.649  1.5370 -2.0742  1.4109
 8654SOL    HW237599   4.354   3.858   2.584  0.2724  0.6097  0.2039
 8655SOL     OW37600   0.947   4.058   0.960  0.3705  0.1322  0.5391
 8655SOL    HW137601   1.020   4.031   1.015 -0.9620 -1.6753  1.4212
 8655SOL    HW237602   0.903   4.122   1.016 -0.3671  0.8553 -0.8811
 8656SOL     OW37603   1.839   2.382  14.755 -0.1411 -0.4998  0.0602
 8656SOL    HW137604   1.822   2.358  14.846 -0.8354 -1.5547 -0.3456
 8656SOL    HW237605   1.765   2.441  14.743 -0.1260 -0.0937  2.0196
 8657SOL     OW37606   3.808   3.704   5.048 -0.2303  0.4200  0.4948
 8657SOL    HW137607   3.873   3.698   5.118  0.1283 -1.1436  0.0137
 8657SOL    HW237608   3.856   3.720   4.967  0.5870  0.5008  0.9933
 8658SOL     OW37609   1.868   0.049   9.801 -0.3178 -0.6026 -0.1239
 8658SOL    HW137610   1.900   0.126   9.847  0.2742 -1.1998  0.4459
 8658SOL    HW237611   1.844   0.088   9.716  1.4400 -0.8262 -0.7155
 8659SOL     OW37612   1.239   0.474   2.489 -0.2213  0.0266  0.0160
 8659SOL    HW137613   1.240   0.545   2.554 -3.5976  0.3788 -0.3024
 8659SOL    HW237614   1.181   0.514   2.424  0.8067  0.3815 -0.6773
 8660SOL     OW37615   1.199   0.454   4.680  0.4580 -0.3091 -0.6689
 8660SOL    HW137616   1.270   0.438   4.617 -0.2643 -0.2546 -1.4868
 8660SOL    HW237617   1.219   0.545   4.704 -1.0642 -0.7913  2.4270
 8661SOL     OW37618   2.072   0.852   8.818  0.2900 -0.6671 -0.4052
 8661SOL    HW137619   2.106   0.782   8.874  1.2825  0.5575  0.5197
 8661SOL    HW237620   2.112   0.929   8.859 -0.4644 -1.7317  2.3156
 8662SOL     OW37621   1.767   4.118   4.946  0.1459  0.1679  0.3174
 8662SOL    HW137622   1.829   4.052   4.916 -0.4542 -1.3890  2.5274
 8662SOL    HW237623   1.717   4.068   5.010  0.2193 -1.3058 -0.7991
 8663SOL     OW37624   0.541   3.959   6.328 -0.1677 -0.1535  0.0560
 8663SOL    HW137625   0.506   4.047   6.332 -0.4434 -0.2065 -1.2318
 8663SOL    HW237626   0.605   3.963   6.257  3.0998 -0.1421  2.9589
 8664SOL     OW37627   3.706   2.331   6.028  0.2811 -0.2371  0.3752
 8664SOL    HW137628   3.773   2.340   6.096  1.0178  1.8225 -0.6267
 8664SOL    HW237629   3.752   2.278   5.962 -0.2377 -0.3431  0.1004
 8665SOL     OW37630   4.106   1.579   1.063 -0.1527 -0.4191 -0.1434
 8665SOL    HW137631   4.173   1.634   1.103  0.1182 -0.4346 -0.5681
 8665SOL    HW237632   4.033   1.638   1.081 -0.2668 -0.8145  0.6641
 8666SOL     OW37633   2.155   4.674   5.970 -0.4996  0.6591 -0.5022
 8666SOL    HW137634   2.176   0.029   5.986  0.7192  0.5548 -1.4671
 8666SOL    HW237635   2.114   4.680   5.884 -1.2656 -1.5294 -0.2741
 8667SOL     OW37636   2.196   1.953  16.894 -0.3907  0.4678 -0.3171
 8667SOL    HW137637   2.171   1.864  16.917  2.2322 -0.4568 -1.1011
 8667SOL    HW237638   2.290   1.939  16.906 -0.0386  2.0250 -1.1993
 8668SOL     OW37639   1.914   0.351   2.615 -0.1031 -0.3150 -0.1428
 8668SOL    HW137640   1.875   0.329   2.530 -0.2917 -1.5492  0.2560
 8668SOL    HW237641   2.003   0.317   2.608  0.3332  0.9703 -0.8558
 8669SOL     OW37642   1.974   3.676  12.072 -0.1613 -0.0527  0.0322
 8669SOL    HW137643   1.892   3.680  12.122 -0.5586 -2.9864 -0.4306
 8669SOL    HW237644   1.947   3.682  11.981 -1.3208  0.3594  0.4061
 8670SOL     OW37645   3.321   2.356   3.255  0.1921 -0.1069  0.1817
 8670SOL    HW137646   3.237   2.379   3.215  1.7825  1.5714 -2.2485
 8670SOL    HW237647   3.309   2.391   3.343  0.3489 -0.4061  0.3214
 8671SOL     OW37648   4.002   1.042   6.752 -0.0418 -0.1003  0.4082
 8671SOL    HW137649   3.964   0.981   6.815 -0.6506  0.2692  0.3931
 8671SOL    HW237650   3.936   1.111   6.750  0.7977  0.7201  1.0863
 8672SOL     OW37651   4.570   3.696   9.291  0.4770  0.4962  0.3055
 8672SOL    HW137652   4.643   3.743   9.250  1.5290 -2.9793 -1.8406
 8672SOL    HW237653   4.530   3.654   9.215 -0.1022  2.5067 -0.5238
 8673SOL     OW37654   0.963   3.236   7.386 -0.2936 -0.1890  0.2568
 8673SOL    HW137655   1.027   3.281   7.441 -1.5506  2.4785 -0.4234
 8673SOL    HW237656   0.923   3.180   7.452  0.6604 -0.3504  0.7010
 8674SOL     OW37657   1.306   4.408   4.603 -0.7734 -0.0638 -0.9757
 8674SOL    HW137658   1.248   4.364   4.665  1.0268 -0.6712  0.2799
 8674SOL    HW237659   1.243   4.405   4.531 -2.0790 -1.9826  0.2549
 8675SOL     OW37660   4.710   3.972  10.251  0.2252 -0.6364 -0.1826
 8675SOL    HW137661   4.727   4.055  10.205  0.7685 -0.1532  0.8729
 8675SOL    HW237662   0.021   3.914  10.193  0.9024  0.6966 -0.9574
 8676SOL     OW37663   0.023   0.091   5.901 -0.3241 -0.2358 -0.0007
 8676SOL    HW137664   0.028   0.124   5.991 -1.7961  1.7501 -0.6481
 8676SOL    HW237665   0.116   0.073   5.885 -0.2992  0.5160 -0.7035
 8677SOL     OW37666   1.552   0.216   6.338  0.4835 -0.3710 -0.1294
 8677SOL    HW137667   1.629   0.254   6.380  1.1466  0.3297 -1.9373
 8677SOL    HW237668   1.545   0.281   6.267 -0.4070 -0.6548 -0.2957
 8678SOL     OW37669   1.504   1.314   3.119  0.0693 -0.4031 -0.3528
 8678SOL    HW137670   1.453   1.394   3.111  1.7308  0.4304 -2.5911
 8678SOL    HW237671   1.537   1.322   3.208 -0.7606 -0.6152 -0.0283
 8679SOL     OW37672   2.274   3.025  14.465 -0.3403  0.0882 -0.6775
 8679SOL    HW137673   2.181   3.019  14.489  0.6122 -0.6935  2.7385
 8679SOL    HW237674   2.296   2.934  14.448  2.0355  0.9056 -2.0181
 8680SOL     OW37675   3.877   1.305   3.243  0.0111  0.2040  1.1183
 8680SOL    HW137676   3.892   1.399   3.235  0.8271  0.3711  4.6415
 8680SOL    HW237677   3.831   1.301   3.159 -0.5928  2.4484  1.3424
 8681SOL     OW37678   2.375   4.697   0.135 -0.2546 -0.1346  0.2153
 8681SOL    HW137679   2.417   0.007   0.064  1.3859  0.3918  1.5322
 8681SOL    HW237680   2.438   4.693   0.208  0.2487 -0.8747 -0.2604
 8682SOL     OW37681   2.854   2.009   7.430 -0.2570  0.3439 -0.0939
 8682SOL    HW137682   2.854   2.080   7.366  1.4395  1.3986  1.0847
 8682SOL    HW237683   2.782   2.021   7.491 -1.5540 -0.5618 -1.4481
 8683SOL     OW37684   0.553   3.422   6.776 -0.4776 -0.5527 -0.0666
 8683SOL    HW137685   0.462   3.448   6.771 -0.6876 -1.1772  0.5762
 8683SOL    HW237686   0.593   3.509   6.767 -0.1935 -0.5076  1.6910
 8684SOL     OW37687   2.605   2.628   3.607  0.0452  0.4588  0.1464
 8684SOL    HW137688   2.623   2.699   3.546 -0.8241  3.0814  2.9814
 8684SOL    HW237689   2.622   2.557   3.545  1.8244  2.3340 -1.4568
 8685SOL     OW37690   3.079   1.569   1.925 -0.0547  0.0995 -0.3971
 8685SOL    HW137691   3.162   1.613   1.947 -0.4132  0.5394  0.0792
 8685SOL    HW237692   3.113   1.480   1.916  2.1029  1.1368 -2.7637
 8686SOL     OW37693   4.472   4.050   3.173  0.4431 -0.2488 -0.1001
 8686SOL    HW137694   4.384   4.020   3.150  0.2927 -1.0387  1.5106
 8686SOL    HW237695   4.468   4.146   3.174 -0.7061 -0.2791 -1.7191
 8687SOL     OW37696   1.983   1.937   6.052  0.3874 -0.2271  0.1853
 8687SOL    HW137697   1.901   1.902   6.018  0.4844 -0.0064 -0.2709
 8687SOL    HW237698   1.976   1.914   6.145  1.6720  0.2214  0.3888
 8688SOL     OW37699   2.707   0.249   0.125 -0.1849 -0.1471  0.0449
 8688SOL    HW137700   2.709   0.178   0.061 -1.4195 -0.1586  0.0308
 8688SOL    HW237701   2.722   0.326   0.069 -1.4802 -0.5289 -0.8233
 8689SOL     OW37702   1.697   2.128  17.272 -0.2490  0.1399  0.4818
 8689SOL    HW137703   1.698   2.198  17.338 -0.3655  0.7875 -0.2068
 8689SOL    HW237704   1.764   2.145  17.206  0.2561  1.6743  1.3820
 8690SOL     OW37705   2.176   0.628   9.593 -0.3453  0.4184  0.0562
 8690SOL    HW137706   2.248   0.579   9.553 -1.0937  1.6823 -2.9147
 8690SOL    HW237707   2.148   0.685   9.521  0.3428  0.7610  0.0627
 8691SOL     OW37708   2.690   3.360   6.727 -0.4961 -0.0114  0.2276
 8691SOL    HW137709   2.763   3.417   6.749  1.3402 -1.8868 -0.9452
 8691SOL    HW237710   2.622   3.422   6.700  0.6539  0.6288 -1.1954
 8692SOL     OW37711   0.517   0.853   7.386  0.0625 -0.1583  1.1532
 8692SOL    HW137712   0.602   0.895   7.393  0.8419 -1.5045 -0.1453
 8692SOL    HW237713   0.482   0.907   7.316 -1.4074 -2.1016  0.3861
 8693SOL     OW37714   4.313   3.182   6.291  0.4105 -0.5709 -0.3703
 8693SOL    HW137715   4.305   3.087   6.278  2.5146 -1.1569  2.4324
 8693SOL    HW237716   4.280   3.184   6.381  0.9835 -0.5297 -0.1641
 8694SOL     OW37717   3.268   3.432   3.456 -0.3007  0.8640  0.4766
 8694SOL    HW137718   3.276   3.386   3.540  0.3987 -1.8817 -1.0724
 8694SOL    HW237719   3.293   3.365   3.392 -2.3669  0.4032  0.1409
 8695SOL     OW37720   3.269   3.971  13.158  0.2394  0.0947 -0.6502
 8695SOL    HW137721   3.243   3.938  13.072  0.4906 -0.4957 -0.4980
 8695SOL    HW237722   3.192   3.944  13.207  0.7933 -1.0834 -0.4350
 8696SOL     OW37723   0.510   0.414   2.503  0.2196  1.0152 -0.0665
 8696SOL    HW137724   0.599   0.392   2.532  0.2159 -1.1640 -1.6763
 8696SOL    HW237725   0.453   0.360   2.557  0.2394  0.5381 -0.5239
 8697SOL     OW37726   3.264   3.085   7.098  0.4796 -0.0636  0.5657
 8697SOL    HW137727   3.171   3.094   7.120  0.3716 -2.2761  1.0259
 8697SOL    HW237728   3.264   2.994   7.067 -0.7633  0.1237  0.0083
 8698SOL     OW37729   4.260   0.578   4.424 -0.4132 -0.3971 -0.2934
 8698SOL    HW137730   4.197   0.622   4.366 -1.1463  0.3500  1.0654
 8698SOL    HW237731   4.224   0.600   4.510 -1.2218 -0.0598 -0.7206
 8699SOL     OW37732   1.103   1.911   9.131  0.8689 -0.8933  0.2112
 8699SOL    HW137733   1.129   1.929   9.040  2.4782 -2.8866  0.2548
 8699SOL    HW237734   1.037   1.849   9.099 -0.1752  1.0150 -1.3019
 8700SOL     OW37735   2.533   1.307   3.422 -0.7061  0.5672  0.0162
 8700SOL    HW137736   2.491   1.389   3.449  1.0077  1.9697 -1.6059
 8700SOL    HW237737   2.604   1.344   3.369  0.0473  0.0629  0.6844
 8701SOL     OW37738   2.391   4.217   9.322 -0.1910  0.3028  0.1875
 8701SOL    HW137739   2.334   4.260   9.387  0.6741  1.1062  0.4075
 8701SOL    HW237740   2.473   4.219   9.370 -2.7769  0.1242  4.6353
 8702SOL     OW37741   2.450   3.506   7.285  0.5165  0.1217  0.1875
 8702SOL    HW137742   2.537   3.478   7.259  0.5089  0.8013 -0.5534
 8702SOL    HW237743   2.434   3.570   7.216 -2.1783 -1.4625 -0.6925
 8703SOL     OW37744   2.555   0.184   0.455 -0.2733  0.3681 -0.0744
 8703SOL    HW137745   2.602   0.218   0.531 -0.6785  1.0358 -0.1220
 8703SOL    HW237746   2.541   0.266   0.407 -2.2731  0.3725  0.5061
 8704SOL     OW37747   1.230   1.696   4.987 -1.0036 -0.2631 -0.1428
 8704SOL    HW137748   1.142   1.661   5.004  0.2410 -1.9400  2.8585
 8704SOL    HW237749   1.272   1.618   4.951  0.5643 -0.0541  1.2352
 8705SOL     OW37750   3.362   2.631  15.254  0.3868  0.3594  0.0371
 8705SOL    HW137751   3.363   2.715  15.301  3.7001  1.0295 -1.1826
 8705SOL    HW237752   3.407   2.562  15.303 -1.3471  0.6793  2.1096
 8706SOL     OW37753   4.147   4.681  15.318  0.3687 -0.6507  0.2400
 8706SOL    HW137754   4.234   4.720  15.319  0.1990 -0.2159 -1.9695
 8706SOL    HW237755   4.146   4.608  15.381 -1.1467 -1.4403 -0.6970
 8707SOL     OW37756   3.504   3.375   8.892  0.3189 -1.2052 -0.5372
 8707SOL    HW137757   3.440   3.344   8.828 -0.2294  0.3884 -0.7546
 8707SOL    HW237758   3.542   3.293   8.923 -0.7931 -0.6806  2.1869
 8708SOL     OW37759   2.289   1.202   4.959 -0.0120 -0.1429 -0.1768
 8708SOL    HW137760   2.382   1.208   4.983 -0.3357  1.5104  0.6871
 8708SOL    HW237761   2.252   1.163   5.038 -0.1753 -1.0497 -0.7004
 8709SOL     OW37762   1.451   3.141   8.289 -0.0140 -0.4541  0.7434
 8709SOL    HW137763   1.402   3.084   8.347 -1.9888  0.8310  0.3604
 8709SOL    HW237764   1.517   3.078   8.261  1.1456  1.1911 -0.2426
 8710SOL     OW37765   1.794   4.447   4.585  0.3853 -0.2367 -0.0560
 8710SOL    HW137766   1.724   4.390   4.619  0.9415 -0.9622 -0.1352
 8710SOL    HW237767   1.854   4.433   4.657  1.5407 -2.8993 -1.5625
 8711SOL     OW37768   1.017   3.547   8.281 -0.2320  0.0365  0.2016
 8711SOL    HW137769   0.945   3.484   8.273  0.3009 -0.4812 -0.4997
 8711SOL    HW237770   1.065   3.542   8.199  0.2236 -0.1685  0.4840
 8712SOL     OW37771   1.136   0.372   5.740  0.1920  1.2126  0.1636
 8712SOL    HW137772   1.213   0.323   5.769 -0.1129  0.3043 -0.5757
 8712SOL    HW237773   1.129   0.336   5.651 -1.4902  0.7058  0.5163
 8713SOL     OW37774   2.204   3.302   4.472 -0.4888 -0.1062  0.4886
 8713SOL    HW137775   2.282   3.292   4.528 -0.3388 -0.5204  0.2141
 8713SOL    HW237776   2.145   3.263   4.536 -0.2611  1.7653  1.8373
 8714SOL     OW37777   1.999   0.688   0.523 -0.0511 -0.2279  0.7271
 8714SOL    HW137778   2.002   0.697   0.618  1.1637  3.3707  0.3584
 8714SOL    HW237779   2.021   0.776   0.492 -1.5234 -0.6687 -1.6325
 8715SOL     OW37780   2.475   1.424   0.601  0.1679 -0.2195  0.3378
 8715SOL    HW137781   2.504   1.512   0.577 -1.3008  0.1250 -0.1666
 8715SOL    HW237782   2.492   1.420   0.696  2.2662  1.4488  0.0197
 8716SOL     OW37783   1.963   1.076   9.810 -0.2413  0.0732 -0.4093
 8716SOL    HW137784   1.904   1.079   9.734  1.1339 -0.8320 -1.5179
 8716SOL    HW237785   1.931   1.001   9.861  0.0716 -1.3584 -2.3164
 8717SOL     OW37786   0.869   4.561   7.335 -0.6030  0.5833 -0.0037
 8717SOL    HW137787   0.803   4.623   7.365 -0.2025  0.5798  0.8968
 8717SOL    HW237788   0.910   4.615   7.267  0.8353  1.2398  1.3587
 8718SOL     OW37789   4.636   0.042   7.545  0.4129  0.5495 -0.3196
 8718SOL    HW137790   4.642   4.685   7.558 -1.1792  0.4399 -0.4030
 8718SOL    HW237791   4.647   0.052   7.451  2.8221  0.0040 -0.1087
 8719SOL     OW37792   0.531   2.308   6.918 -0.2219 -0.7791  0.1304
 8719SOL    HW137793   0.443   2.270   6.920 -1.4542  1.8920 -2.7736
 8719SOL    HW237794   0.510   2.402   6.919  0.9308 -0.5226 -0.5028
 8720SOL     OW37795   3.424   0.825   3.068 -0.2360  0.3180  0.4301
 8720SOL    HW137796   3.397   0.757   3.130  1.3472  0.7629  1.6051
 8720SOL    HW237797   3.386   0.781   2.992  1.8917 -1.4449  0.3812
 8721SOL     OW37798   0.829   4.681   5.104  0.3314  0.1094  0.2296
 8721SOL    HW137799   0.908   4.627   5.099  1.0457  1.3322 -1.7957
 8721SOL    HW237800   0.841   4.730   5.185  0.1506  2.2546 -1.0310
 8722SOL     OW37801   1.644   2.628   6.885  0.4766 -0.6617  0.3244
 8722SOL    HW137802   1.683   2.542   6.903 -0.5956 -1.1235  0.4168
 8722SOL    HW237803   1.592   2.600   6.810  0.3536  0.7924 -0.1336
 8723SOL     OW37804   2.722   0.337   6.738 -0.9169 -0.1331  0.1145
 8723SOL    HW137805   2.771   0.281   6.798 -0.7485 -0.8916 -0.7332
 8723SOL    HW237806   2.774   0.417   6.733  0.4407 -1.0015  0.0138
 8724SOL     OW37807   2.688   1.677   2.016 -0.1796 -0.2902 -0.0497
 8724SOL    HW137808   2.664   1.602   1.961  2.4391 -0.9722 -0.2246
 8724SOL    HW237809   2.738   1.643   2.090  0.0494 -0.3538 -0.2352
 8725SOL     OW37810   0.814   2.750  13.518  0.2810  0.5204  0.1560
 8725SOL    HW137811   0.815   2.683  13.449 -1.4468 -0.4989  1.1321
 8725SOL    HW237812   0.854   2.822  13.468  1.4117  0.3324  0.7865
 8726SOL     OW37813   2.184   3.395  15.832 -0.3672  0.5643 -0.1167
 8726SOL    HW137814   2.246   3.399  15.760  0.4750  2.0118  0.6891
 8726SOL    HW237815   2.101   3.411  15.786 -0.6319 -1.9659 -0.5391
 8727SOL     OW37816   1.073   1.936   8.124 -0.2424 -0.2110 -0.5712
 8727SOL    HW137817   1.004   1.998   8.145 -0.3079 -0.8471  1.1080
 8727SOL    HW237818   1.044   1.897   8.042  0.0485  0.8098 -1.1536
 8728SOL     OW37819   3.885   4.384   8.715  0.1592  0.2347  0.0034
 8728SOL    HW137820   3.838   4.302   8.708  0.5121  0.0817 -0.5741
 8728SOL    HW237821   3.855   4.424   8.796 -1.6954  0.0555 -0.6073
 8729SOL     OW37822   3.209   0.615   1.857  0.4942  0.0989 -0.0994
 8729SOL    HW137823   3.191   0.528   1.893 -0.1907  0.6341  0.8638
 8729SOL    HW237824   3.122   0.654   1.855  0.1403 -0.7718 -1.4552
 8730SOL     OW37825   0.795   1.856  13.291  0.1092  0.6003 -0.0908
 8730SOL    HW137826   0.773   1.799  13.365 -4.2201  2.1805 -0.1790
 8730SOL    HW237827   0.710   1.897  13.273 -1.0454 -1.8531 -0.2716
 8731SOL     OW37828   2.809   2.632   7.780  0.2104  0.2139 -0.1150
 8731SOL    HW137829   2.759   2.661   7.703 -0.7320  0.3839  0.5594
 8731SOL    HW237830   2.869   2.564   7.750 -0.6685 -0.9096  0.6935
 8732SOL     OW37831   1.885   1.883   4.349 -0.6122  0.2061  0.8580
 8732SOL    HW137832   1.840   1.867   4.266 -3.0075 -0.9537  2.3849
 8732SOL    HW237833   1.880   1.801   4.397  1.2023 -0.1840  0.3474
 8733SOL     OW37834   3.438   3.225   7.928 -0.1503  0.5521 -0.6206
 8733SOL    HW137835   3.438   3.159   7.858  0.4757  0.0089 -0.1113
 8733SOL    HW237836   3.529   3.252   7.924 -0.2236  0.9603  0.4600
 8734SOL     OW37837   1.126   0.723  17.655 -0.0130 -0.7049  0.3060
 8734SOL    HW137838   1.089   0.666  17.723  2.5868 -1.2302  1.3012
 8734SOL    HW237839   1.060   0.793  17.655  2.2795  1.4433 -0.1316
 8735SOL     OW37840   2.739   2.071   2.202 -0.3778  0.0244 -0.2692
 8735SOL    HW137841   2.692   2.054   2.121  1.9815 -1.9789 -1.2080
 8735SOL    HW237842   2.662   2.058   2.258 -0.2096 -0.6534 -0.1912
 8736SOL     OW37843   1.750   0.629   4.322 -0.4012  0.0047 -0.0841
 8736SOL    HW137844   1.738   0.723   4.309 -0.7410  0.0769  0.7835
 8736SOL    HW237845   1.728   0.631   4.415  1.0029 -0.2012  0.2528
 8737SOL     OW37846   0.683   0.737   1.919  0.2753  0.8087 -0.6314
 8737SOL    HW137847   0.613   0.723   1.855  0.2690 -1.7870 -0.0858
 8737SOL    HW237848   0.637   0.740   2.002  1.8929  1.5311  0.2294
 8738SOL     OW37849   4.269   2.557  17.023  0.3772 -0.2098  0.4255
 8738SOL    HW137850   4.345   2.536  17.077 -0.1115  1.2147  1.6731
 8738SOL    HW237851   4.283   2.527  16.933 -1.5453  0.5245 -0.1309
 8739SOL     OW37852   3.057   1.992   8.679 -0.2863  0.6335  0.1659
 8739SOL    HW137853   2.972   1.949   8.675  0.1199 -0.1771  0.0595
 8739SOL    HW237854   3.098   1.938   8.747  1.2743  2.7713  0.9232
 8740SOL     OW37855   4.658   2.132   0.121  0.0925 -0.4103  0.0579
 8740SOL    HW137856   4.573   2.093   0.144  0.7846 -3.0818 -1.9702
 8740SOL    HW237857   4.640   2.222   0.149  3.3707 -0.3500  1.8848
 8741SOL     OW37858   3.726   4.567  11.782 -0.4181  0.4756  0.6372
 8741SOL    HW137859   3.672   4.599  11.709 -0.8656  1.7833  1.5407
 8741SOL    HW237860   3.728   4.648  11.832 -0.7704  0.1954  1.1007
 8742SOL     OW37861   1.859   4.018  16.019  0.0062 -0.0426 -0.3685
 8742SOL    HW137862   1.918   4.093  16.012  1.7589 -1.5050 -1.3737
 8742SOL    HW237863   1.803   4.052  15.950  0.2682 -0.5373 -0.8315
 8743SOL     OW37864   2.788   0.491   0.027  0.0246 -0.0627 -0.1262
 8743SOL    HW137865   2.882   0.472   0.035 -0.4524 -2.4804 -0.0894
 8743SOL    HW237866   2.795   0.585   0.039  0.0772 -0.3605  2.3447
 8744SOL     OW37867   4.300   3.392   3.730 -0.5383 -0.5163  0.0638
 8744SOL    HW137868   4.207   3.372   3.723 -0.3415 -0.9339 -1.4323
 8744SOL    HW237869   4.331   3.332   3.798 -1.8700 -1.2838 -0.0079
 8745SOL     OW37870   1.951   2.725  12.952 -0.0700 -0.2384  0.0117
 8745SOL    HW137871   2.021   2.741  13.015  0.7710  1.0025 -1.2250
 8745SOL    HW237872   1.923   2.639  12.981 -1.6400 -0.2267 -1.4840
 8746SOL     OW37873   0.387   2.746  14.966  0.1726 -0.6361  0.8391
 8746SOL    HW137874   0.360   2.798  15.042  0.0769 -1.5848  1.4659
 8746SOL    HW237875   0.326   2.779  14.901  2.4712  1.7908 -0.0649
 8747SOL     OW37876   3.944   0.275   8.066  0.2200  0.3746  0.5237
 8747SOL    HW137877   3.860   0.240   8.095  0.3884 -0.1424  0.3809
 8747SOL    HW237878   4.006   0.219   8.111 -1.1694 -2.4677 -1.1325
 8748SOL     OW37879   4.700   4.535  12.623 -0.8111 -0.1638 -0.0798
 8748SOL    HW137880   4.673   4.586  12.546  0.6359  2.0659  0.9139
 8748SOL    HW237881   4.645   4.583  12.684  1.2567 -0.8941  2.3525
 8749SOL     OW37882   3.815   1.310  11.577  0.0933 -0.7080  0.1310
 8749SOL    HW137883   3.731   1.275  11.607  0.9663 -3.1724 -0.3298
 8749SOL    HW237884   3.796   1.301  11.484 -1.2495 -4.3737  0.7733
 8750SOL     OW37885   1.724   4.196   6.755 -0.0860 -0.4977 -0.2279
 8750SOL    HW137886   1.760   4.160   6.674 -0.5013 -2.8594  0.6309
 8750SOL    HW237887   1.684   4.119   6.795  1.2575 -0.7544  0.6226
 8751SOL     OW37888   0.812   3.679   4.109 -0.0777  0.6053 -0.1602
 8751SOL    HW137889   0.755   3.755   4.121 -0.5243  0.1472  0.6729
 8751SOL    HW237890   0.787   3.635   4.191  0.2556 -2.4240 -1.7088
 8752SOL     OW37891   3.909   3.029   8.164 -0.4915 -0.5381 -0.2640
 8752SOL    HW137892   3.851   2.955   8.181 -0.1424 -0.7833 -0.1283
 8752SOL    HW237893   3.865   3.087   8.102  1.4043  0.1069 -0.9901
 8753SOL     OW37894   4.184   2.686   2.356  0.2859 -0.4611 -0.8049
 8753SOL    HW137895   4.125   2.759   2.376 -2.5233 -2.9318 -0.2046
 8753SOL    HW237896   4.197   2.703   2.263 -2.3089 -0.8656 -1.2255
 8754SOL     OW37897   1.730   3.500   6.883  0.3010  0.1239  0.0487
 8754SOL    HW137898   1.748   3.408   6.861  1.6818  0.3098  0.3943
 8754SOL    HW237899   1.683   3.530   6.805 -2.7621 -2.1401  1.0247
 8755SOL     OW37900   4.203   2.031   5.511  0.5057  0.1969  0.3929
 8755SOL    HW137901   4.206   1.989   5.425 -2.3130 -1.2364  0.9985
 8755SOL    HW237902   4.152   2.106   5.480  1.5179  0.8346  0.2785
 8756SOL     OW37903   4.315   3.591   3.351  0.2741  0.5265 -0.2729
 8756SOL    HW137904   4.370   3.525   3.394 -0.9919  0.3203  1.0218
 8756SOL    HW237905   4.376   3.620   3.283  0.4433  1.7327  0.3954
 8757SOL     OW37906   4.661   3.927   5.753  0.3943 -0.2674 -0.0056
 8757SOL    HW137907   4.702   4.001   5.798 -1.6091  1.3413 -0.8132
 8757SOL    HW237908   4.589   3.909   5.813  0.2495 -0.9232 -0.3811
 8758SOL     OW37909   1.929   1.065   4.426  0.2883  0.1287  0.0671
 8758SOL    HW137910   2.016   1.097   4.447 -0.9211  1.6013  2.8077
 8758SOL    HW237911   1.898   1.145   4.384  1.9279 -0.1102 -1.5965
 8759SOL     OW37912   0.898   1.187   5.408  0.0045 -0.1892  0.3778
 8759SOL    HW137913   0.856   1.189   5.322 -2.7076 -0.3436  1.7224
 8759SOL    HW237914   0.990   1.193   5.383  0.1529  1.1181  1.2372
 8760SOL     OW37915   2.757   3.450   1.023  0.4091 -0.2146 -0.2056
 8760SOL    HW137916   2.837   3.501   1.012 -0.0971  0.5874 -0.1794
 8760SOL    HW237917   2.740   3.414   0.936  0.2216  0.9418 -0.6415
 8761SOL     OW37918   2.237   0.317   9.793  0.3249 -0.1426  0.3799
 8761SOL    HW137919   2.304   0.383   9.809  2.6010 -2.9187  2.3453
 8761SOL    HW237920   2.249   0.251   9.861 -0.1339 -1.3170 -0.6618
 8762SOL     OW37921   0.726   3.879  17.369  0.9581 -0.2531  0.1634
 8762SOL    HW137922   0.719   3.955  17.311 -0.1394 -1.1974 -0.9265
 8762SOL    HW237923   0.816   3.875  17.403  0.5864 -1.9429  0.9349
 8763SOL     OW37924   3.067   1.499   0.047 -0.0102 -0.0929 -0.2160
 8763SOL    HW137925   3.023   1.537   0.124  0.8006  0.5494 -0.0647
 8763SOL    HW237926   3.004   1.431   0.021 -0.6690  0.3626  0.1699
 8764SOL     OW37927   2.381   0.591   2.205 -0.1777  0.6383 -0.2568
 8764SOL    HW137928   2.369   0.503   2.169 -0.2417  0.5898 -0.1183
 8764SOL    HW237929   2.467   0.606   2.165  0.7346  1.0533  1.8390
 8765SOL     OW37930   2.051   1.864   1.920  0.0781 -0.4658  0.0387
 8765SOL    HW137931   2.016   1.821   1.998 -1.1438  1.0655  0.3398
 8765SOL    HW237932   2.144   1.841   1.919 -0.0191 -0.7891 -2.1131
 8766SOL     OW37933   2.616   1.346  13.100  0.0841  0.8485  0.2009
 8766SOL    HW137934   2.575   1.397  13.029  0.1578  1.3055  0.4903
 8766SOL    HW237935   2.687   1.300  13.056  0.0729  0.6333  0.4092
 8767SOL     OW37936   0.905   3.454  12.372  0.3807 -0.3522 -0.3199
 8767SOL    HW137937   0.825   3.490  12.333 -0.2724 -1.7482 -0.2502
 8767SOL    HW237938   0.942   3.407  12.297  1.2789  1.5553 -1.0911
 8768SOL     OW37939   3.808   2.296   4.945  0.1908 -0.4176  0.2581
 8768SOL    HW137940   3.842   2.311   5.034 -1.3003  1.4825  0.4932
 8768SOL    HW237941   3.738   2.359   4.930 -0.8141 -0.8262  3.1563
 8769SOL     OW37942   2.341   4.383   4.391 -0.2569  0.8628  0.4244
 8769SOL    HW137943   2.335   4.387   4.295 -0.1372 -0.8264  0.3502
 8769SOL    HW237944   2.260   4.428   4.416 -1.3001 -0.1393 -1.1392
 8770SOL     OW37945   1.080   3.982   7.785 -0.2117 -0.2867  0.3102
 8770SOL    HW137946   0.985   3.975   7.797 -0.2810 -0.6252 -0.4329
 8770SOL    HW237947   1.108   3.905   7.834  1.8122  1.4112  1.8130
 8771SOL     OW37948   0.207   4.363   5.216 -0.4153 -0.1341 -0.1866
 8771SOL    HW137949   0.159   4.445   5.226 -0.9067 -0.6127  1.4698
 8771SOL    HW237950   0.293   4.405   5.208 -2.0979  2.7969 -2.4636
 8772SOL     OW37951   1.531   1.710   7.173  0.2998 -0.0845 -0.4853
 8772SOL    HW137952   1.538   1.616   7.158 -0.5887 -0.4517  1.4651
 8772SOL    HW237953   1.505   1.744   7.088  0.8686  0.3425 -0.4893
 8773SOL     OW37954   0.694   4.516   3.101 -0.3917  0.7430 -0.1036
 8773SOL    HW137955   0.766   4.473   3.054 -0.3801 -0.1776  0.7561
 8773SOL    HW237956   0.624   4.499   3.039  0.3896 -0.6011 -0.6236
 8774SOL     OW37957   4.001   4.454  15.173 -0.5358 -0.3833  0.0010
 8774SOL    HW137958   3.956   4.418  15.250  0.3589 -1.5711 -0.0256
 8774SOL    HW237959   4.086   4.481  15.208 -0.9385  0.2073  0.5274
 8775SOL     OW37960   2.444   2.385   7.421  0.0162  0.0159 -0.3629
 8775SOL    HW137961   2.349   2.382   7.431 -0.1122  0.2378 -1.4651
 8775SOL    HW237962   2.448   2.441   7.344 -1.4453  0.8779  0.1914
 8776SOL     OW37963   0.908   0.226   0.524 -0.1554  0.2107 -0.1057
 8776SOL    HW137964   0.853   0.201   0.450  1.0612 -4.2085  0.4674
 8776SOL    HW237965   0.999   0.229   0.497 -0.5737 -2.8960 -1.8307
 8777SOL     OW37966   2.942   3.896   9.879  0.2775 -0.8084  0.2170
 8777SOL    HW137967   2.864   3.864   9.923 -0.8656 -0.7088 -1.7386
 8777SOL    HW237968   3.018   3.846   9.908  0.6551 -1.4612 -1.9046
 8778SOL     OW37969   3.789   2.335  15.701 -0.0753  0.5250  0.1527
 8778SOL    HW137970   3.738   2.412  15.677  1.0406  1.8288  1.9719
 8778SOL    HW237971   3.801   2.298  15.613  1.8559 -0.1010  0.6805
 8779SOL     OW37972   1.024   0.673   1.653  0.7220  0.4046  0.2834
 8779SOL    HW137973   1.119   0.672   1.657  0.7939  1.3309 -0.9697
 8779SOL    HW237974   1.008   0.767   1.645  0.3028  0.2226 -1.1185
 8780SOL     OW37975   1.794   4.438   7.652 -0.5439 -0.3362  0.5374
 8780SOL    HW137976   1.731   4.493   7.605  1.1471  2.1106  1.1881
 8780SOL    HW237977   1.784   4.349   7.617 -0.3519 -0.6414  1.2510
 8781SOL     OW37978   2.415   3.965   5.891  0.2155 -0.2791  0.2961
 8781SOL    HW137979   2.429   4.025   5.817 -1.5912 -0.6534 -0.3423
 8781SOL    HW237980   2.371   4.019   5.956  0.7013  0.3171  0.1310
 8782SOL     OW37981   3.955   2.279   7.471  0.2742  0.4506 -0.2044
 8782SOL    HW137982   4.049   2.294   7.480  0.2822 -0.3274  0.9208
 8782SOL    HW237983   3.928   2.299   7.560 -0.0020  0.9094 -0.3883
 8783SOL     OW37984   0.365   2.148  14.713 -0.0018 -0.2273 -0.3154
 8783SOL    HW137985   0.410   2.231  14.704  0.4004 -0.4938 -0.7684
 8783SOL    HW237986   0.385   2.136  14.806  0.7890 -1.1737 -0.6145
 8784SOL     OW37987   2.660   0.504   3.339 -0.0015 -0.3402  0.2291
 8784SOL    HW137988   2.589   0.466   3.287  0.2711 -2.1358  1.1603
 8784SOL    HW237989   2.636   0.476   3.427 -2.3244 -0.3260 -0.4059
 8785SOL     OW37990   3.691   1.245   5.758  0.3048  0.2310 -0.3500
 8785SOL    HW137991   3.629   1.176   5.779  1.4458 -0.9286 -0.8500
 8785SOL    HW237992   3.731   1.211   5.679  0.5301  1.0349 -0.5886
 8786SOL     OW37993   0.371   2.299   2.119 -0.2536 -0.2906  0.1944
 8786SOL    HW137994   0.467   2.294   2.118 -0.2690 -0.4095 -0.6469
 8786SOL    HW237995   0.370   2.374   2.178  0.3723  0.9915 -1.4387
 8787SOL     OW37996   1.049   4.565   8.403 -0.3915  0.0959 -0.2011
 8787SOL    HW137997   1.120   4.527   8.352  0.3297  0.2809  0.6703
 8787SOL    HW237998   1.050   4.512   8.483 -0.7144  0.7020  0.2106
 8788SOL     OW37999   0.720   2.515   0.476 -0.1284  1.0875  0.0673
 8788SOL    HW138000   0.741   2.453   0.406  0.7520 -0.8703  2.0584
 8788SOL    HW238001   0.716   2.454   0.550  0.5111  2.1830  1.0150
 8789SOL     OW38002   3.304   4.006   1.934  0.3623 -0.0506 -0.3706
 8789SOL    HW138003   3.299   3.929   1.991 -0.9760 -1.2777 -2.0949
 8789SOL    HW238004   3.239   4.063   1.976  0.3718  0.4655 -1.0520
 8790SOL     OW38005   1.923   0.139  12.882 -0.0776 -0.6465 -0.3339
 8790SOL    HW138006   1.912   0.221  12.931 -1.5689 -1.0264 -0.0420
 8790SOL    HW238007   2.016   0.129  12.900  0.2270  1.6603 -0.6041
 8791SOL     OW38008   0.749   4.616  16.543  0.2533  0.4186 -0.9762
 8791SOL    HW138009   0.663   4.658  16.554  0.3044  0.5479 -1.0665
 8791SOL    HW238010   0.714   4.528  16.550 -1.0793  1.0807  0.7351
 8792SOL     OW38011   3.925   4.361   5.762  0.7176  0.2998  0.1974
 8792SOL    HW138012   3.857   4.296   5.778  0.9181 -0.1169 -0.6416
 8792SOL    HW238013   3.887   4.442   5.794  1.5751  0.2667  1.3019
 8793SOL     OW38014   2.233   1.655   2.246  0.0849  0.2711  0.3355
 8793SOL    HW138015   2.269   1.673   2.333  3.0621  0.9059 -1.0321
 8793SOL    HW238016   2.311   1.643   2.191 -0.6290 -1.8121 -0.2149
 8794SOL     OW38017   0.892   0.205  11.062 -0.1321 -0.9014 -0.4830
 8794SOL    HW138018   0.870   0.268  11.131 -1.3754 -0.0699 -1.6418
 8794SOL    HW238019   0.941   0.263  11.003 -1.0623  0.4037  0.0491
 8795SOL     OW38020   1.284   4.736   1.569 -0.0710  0.2283 -0.2311
 8795SOL    HW138021   1.304   0.082   1.527  1.7549  0.0621  0.3199
 8795SOL    HW238022   1.367   4.688   1.563 -1.0777 -1.3561 -1.6211
 8796SOL     OW38023   0.585   3.082   3.642  0.3461 -0.0378 -0.4724
 8796SOL    HW138024   0.670   3.070   3.683 -0.8838  0.1038  2.1476
 8796SOL    HW238025   0.551   2.993   3.652  0.2231  0.2373  1.5889
 8797SOL     OW38026   1.248   3.753   4.046  0.4190 -0.4320 -0.2527
 8797SOL    HW138027   1.224   3.791   3.961  1.2983  0.3094 -0.1705
 8797SOL    HW238028   1.296   3.821   4.094  0.4642 -0.1677 -0.6753
 8798SOL     OW38029   0.598   1.777   5.824 -0.0577  0.2154 -0.1947
 8798SOL    HW138030   0.627   1.686   5.828 -0.8903 -0.1286 -1.9485
 8798SOL    HW238031   0.646   1.815   5.897 -0.2259  2.6687 -1.3402
 8799SOL     OW38032   2.456   3.025   5.799 -0.4484 -0.6117  0.4131
 8799SOL    HW138033   2.433   2.932   5.803 -1.3320 -0.2726  2.9642
 8799SOL    HW238034   2.419   3.057   5.881 -0.6984  1.4289 -0.5010
 8800SOL     OW38035   3.420   1.052   6.262  0.0141  0.5101 -0.1488
 8800SOL    HW138036   3.367   0.984   6.221 -2.3309  2.7560 -0.8552
 8800SOL    HW238037   3.490   0.994   6.291  1.2688  2.6323  1.1268
 8801SOL     OW38038   1.011   4.172   1.392 -0.1810 -0.0194 -0.0018
 8801SOL    HW138039   1.065   4.112   1.443  0.4530  1.1989  0.7505
 8801SOL    HW238040   1.074   4.198   1.325  0.3816 -0.4162  0.3742
 8802SOL     OW38041   1.012   0.436   6.008  0.2177 -0.6698  0.8829
 8802SOL    HW138042   1.105   0.416   6.012  0.9336  2.1952 -1.6451
 8802SOL    HW238043   0.984   0.348   5.983  2.7611 -1.6973  1.6568
 8803SOL     OW38044   1.907   1.366   8.631 -0.3030  0.6941 -0.4743
 8803SOL    HW138045   1.894   1.335   8.720 -2.7508  1.5025 -0.5442
 8803SOL    HW238046   1.952   1.290   8.596 -0.3217  1.0390 -1.2511
 8804SOL     OW38047   0.769   1.765   3.097 -0.3612 -0.1355  0.7184
 8804SOL    HW138048   0.711   1.693   3.073  1.0878 -1.2604  0.6261
 8804SOL    HW238049   0.696   1.827   3.104  0.0164  0.4500 -0.5682
 8805SOL     OW38050   2.522   0.801   8.087 -0.2293 -0.2800  0.2588
 8805SOL    HW138051   2.569   0.857   8.025 -0.8502 -0.8839 -0.7599
 8805SOL    HW238052   2.579   0.811   8.163 -1.3150  0.6837  0.9384
 8806SOL     OW38053   2.988   1.263   2.460 -0.5767 -0.4949  0.1496
 8806SOL    HW138054   3.046   1.329   2.423 -2.1071  0.9233  0.2864
 8806SOL    HW238055   2.924   1.317   2.507  1.0826  0.6800  1.0809
 8807SOL     OW38056   4.555   3.619  11.496 -0.2155  0.1591  0.0220
 8807SOL    HW138057   4.459   3.625  11.500 -0.0527  2.0503  0.9327
 8807SOL    HW238058   4.561   3.630  11.401 -2.6118 -0.0726 -0.1515
 8808SOL     OW38059   2.820   3.691   7.615  0.3255  0.7261  0.4594
 8808SOL    HW138060   2.750   3.751   7.591 -0.7669 -1.0054 -0.6672
 8808SOL    HW238061   2.896   3.749   7.619  0.4248  0.7467 -1.3195
 8809SOL     OW38062   2.788   1.105   8.770 -0.4899  0.1927 -0.0934
 8809SOL    HW138063   2.825   1.030   8.724  0.7232  1.7570 -1.6710
 8809SOL    HW238064   2.858   1.167   8.750 -0.7365  0.0528 -1.4132
 8810SOL     OW38065   3.901   3.155  11.885  0.0739  0.2659 -0.2683
 8810SOL    HW138066   3.833   3.175  11.949  0.9821  0.0062  0.7743
 8810SOL    HW238067   3.874   3.221  11.821  0.9063 -1.4105 -2.3789
 8811SOL     OW38068   1.674   2.263  10.651  0.0067  0.2608 -0.6049
 8811SOL    HW138069   1.681   2.171  10.673  1.4436  0.2564 -1.0708
 8811SOL    HW238070   1.650   2.297  10.737 -0.1605  0.2460 -0.6463
 8812SOL     OW38071   3.690   0.329   9.062  0.0078  0.2215 -0.4356
 8812SOL    HW138072   3.658   0.416   9.037  1.8336  1.6616  2.2098
 8812SOL    HW238073   3.650   0.318   9.148  1.7501 -0.3261  0.3012
 8813SOL     OW38074   3.943   1.505  13.215  1.4871 -0.4144  0.2191
 8813SOL    HW138075   3.985   1.498  13.129  0.4878 -2.3813 -0.1236
 8813SOL    HW238076   3.968   1.422  13.255  1.0918 -0.8377 -0.4018
 8814SOL     OW38077   0.989   1.866   1.878 -0.4097  0.1606  0.0856
 8814SOL    HW138078   0.993   1.852   1.973  0.4577 -1.7952 -0.2203
 8814SOL    HW238079   0.897   1.881   1.860 -1.0237 -2.6035  0.8180
 8815SOL     OW38080   4.177   0.771  12.226 -0.1304 -0.0176 -0.3331
 8815SOL    HW138081   4.155   0.864  12.216 -0.3879 -0.3930 -3.3433
 8815SOL    HW238082   4.100   0.732  12.183  1.0952 -0.6243 -1.9553
 8816SOL     OW38083   3.876   1.674   6.704 -0.4213  0.0783 -0.4220
 8816SOL    HW138084   3.783   1.679   6.681 -0.1856  1.8255 -0.9855
 8816SOL    HW238085   3.904   1.641   6.619  2.0817 -2.4329  1.3843
 8817SOL     OW38086   3.804   1.727  16.997 -0.2718  0.4663  0.0520
 8817SOL    HW138087   3.895   1.745  17.020  0.0107 -0.9991  0.0355
 8817SOL    HW238088   3.802   1.632  16.986 -0.2091  0.1191  3.1338
 8818SOL     OW38089   1.846   3.628   2.582  0.2331 -0.5947  0.5079
 8818SOL    HW138090   1.792   3.596   2.653 -0.9321  0.9315  0.3204
 8818SOL    HW238091   1.911   3.685   2.624  1.7004 -1.8076 -0.1018
 8819SOL     OW38092   0.225   2.597   0.490  0.0218 -0.0251 -0.0673
 8819SOL    HW138093   0.298   2.536   0.480  0.4605  0.4211  0.3812
 8819SOL    HW238094   0.234   2.598   0.586 -3.0571  0.9612  0.2311
 8820SOL     OW38095   1.011   2.733   1.968 -0.0956  0.0527 -0.1029
 8820SOL    HW138096   1.017   2.821   1.930 -1.9760  0.4229  0.4672
 8820SOL    HW238097   1.061   2.684   1.903 -0.1967  0.3232 -0.3857
 8821SOL     OW38098   1.222   1.361   6.987  0.0342  0.0822 -0.5327
 8821SOL    HW138099   1.172   1.298   7.039 -0.3313  1.2031  0.4453
 8821SOL    HW238100   1.244   1.316   6.905 -1.5301  1.5410 -1.7329
 8822SOL     OW38101   2.114   0.409   6.786  0.2516  0.7634  0.1883
 8822SOL    HW138102   2.153   0.378   6.868  0.1753  0.5650  0.1485
 8822SOL    HW238103   2.188   0.402   6.725  0.1877  1.0771  0.0721
 8823SOL     OW38104   4.733   2.744   0.412  0.4378 -0.2503 -0.1093
 8823SOL    HW138105   0.070   2.794   0.376  0.3931 -0.0872  0.0281
 8823SOL    HW238106   0.040   2.677   0.463 -0.7192 -1.3376 -0.5449
 8824SOL     OW38107   1.294   1.136  12.263  0.0309 -0.5809  0.1083
 8824SOL    HW138108   1.224   1.166  12.322 -0.5432  0.3128 -1.0270
 8824SOL    HW238109   1.295   1.041  12.267  0.2260 -0.5629  0.5373
 8825SOL     OW38110   0.087   2.417   8.019  0.3338 -0.2049 -0.3286
 8825SOL    HW138111   0.125   2.421   8.107 -0.8706  0.1800  0.1817
 8825SOL    HW238112   0.137   2.487   7.977  0.5170 -0.3428 -0.3412
 8826SOL     OW38113   1.097   0.859   8.363  0.4326 -0.6246  0.0143
 8826SOL    HW138114   1.012   0.836   8.327  0.1922  1.0500 -0.5148
 8826SOL    HW238115   1.128   0.914   8.290  1.8434 -0.7185  0.5419
 8827SOL     OW38116   4.355   0.535   8.959 -0.0668 -0.7973 -0.9745
 8827SOL    HW138117   4.417   0.555   8.889  0.6838 -1.2884 -0.4567
 8827SOL    HW238118   4.410   0.525   9.037 -1.7947  1.7600  0.5645
 8828SOL     OW38119   1.686   4.118   7.116 -0.3253 -0.6184  0.3360
 8828SOL    HW138120   1.654   4.199   7.077  0.3028 -0.6600 -0.2551
 8828SOL    HW238121   1.724   4.151   7.197  2.9917 -0.4014 -1.3059
 8829SOL     OW38122   1.890   1.366   4.965 -0.7767  0.5295 -0.8395
 8829SOL    HW138123   1.800   1.393   4.946 -2.0624 -2.0815  1.5011
 8829SOL    HW238124   1.913   1.329   4.880  1.5272  0.2733 -0.0936
 8830SOL     OW38125   2.260   3.465   2.095  0.0495  0.9150  0.2020
 8830SOL    HW138126   2.165   3.478   2.091 -0.1345 -0.2475  0.6490
 8830SOL    HW238127   2.272   3.401   2.025 -1.0885 -0.5494  1.3282
 8831SOL     OW38128   2.220   2.958   1.157  0.4500  0.1105 -0.2297
 8831SOL    HW138129   2.229   2.973   1.062  1.3161  2.5549  0.2307
 8831SOL    HW238130   2.135   2.916   1.166  0.6378 -0.1831  0.1555
 8832SOL     OW38131   3.803   2.460   2.221 -0.3394  0.0777 -0.4574
 8832SOL    HW138132   3.856   2.407   2.280 -1.6288 -0.9258 -0.1892
 8832SOL    HW238133   3.856   2.442   2.143 -0.3886  0.6805 -0.6293
 8833SOL     OW38134   2.795   1.395   2.603  0.2510 -0.3218  0.2356
 8833SOL    HW138135   2.753   1.468   2.558 -1.1756 -0.9917  0.4917
 8833SOL    HW238136   2.848   1.440   2.669 -1.4452  1.5765  0.2807
 8834SOL     OW38137   0.884   0.205  11.485  0.3953  0.7476  0.3054
 8834SOL    HW138138   0.881   0.223  11.579 -1.0788 -2.4818  0.8835
 8834SOL    HW238139   0.841   0.285  11.457 -1.5984 -1.0164 -1.6646
 8835SOL     OW38140   2.571   1.041   9.555  0.1362 -0.4754 -0.3370
 8835SOL    HW138141   2.563   1.033   9.650  0.0965 -1.8724 -0.4599
 8835SOL    HW238142   2.599   0.953   9.529 -0.5406 -0.3118 -1.5963
 8836SOL     OW38143   3.226   4.314   5.970 -0.0335  0.7648  0.1981
 8836SOL    HW138144   3.251   4.287   6.058  0.1144  0.2059 -0.0147
 8836SOL    HW238145   3.226   4.410   5.978  0.2428  0.4459  4.0580
 8837SOL     OW38146   0.252   0.978   5.974 -0.1961  0.7034  0.2113
 8837SOL    HW138147   0.276   1.026   6.054  1.1701  0.3962 -0.0074
 8837SOL    HW238148   0.340   0.939   5.970 -0.8753 -0.6916 -0.9628
 8838SOL     OW38149   2.397   0.376   2.896 -0.2927 -0.3901 -0.8516
 8838SOL    HW138150   2.370   0.388   2.805  0.3336  0.6357 -0.9101
 8838SOL    HW238151   2.448   0.455   2.912 -2.8324  0.9918  0.3915
 8839SOL     OW38152   3.909   1.203  17.055  0.2554 -0.3134 -0.2324
 8839SOL    HW138153   3.912   1.216  17.149  2.5762  2.7010 -0.7114
 8839SOL    HW238154   3.839   1.263  17.033 -0.7625 -1.1170  0.8117
 8840SOL     OW38155   0.411   2.871   6.462  0.0315  0.1067  0.2695
 8840SOL    HW138156   0.483   2.928   6.438 -0.2919  0.8142  0.9831
 8840SOL    HW238157   0.443   2.835   6.545 -0.5377  1.6500  1.1563
 8841SOL     OW38158   0.752   4.049   3.937 -0.0263 -0.2181  0.1150
 8841SOL    HW138159   0.813   4.045   4.011 -0.0244 -0.3768  0.1043
 8841SOL    HW238160   0.743   3.959   3.907 -0.8740  0.5599 -1.9854
 8842SOL     OW38161   0.799   4.500   1.161  1.1128  0.3693 -0.0695
 8842SOL    HW138162   0.745   4.529   1.234  0.3413 -1.2286 -0.0075
 8842SOL    HW238163   0.762   4.552   1.089 -1.0455  1.3300  1.7534
 8843SOL     OW38164   3.297   4.230   8.106  0.4032  0.0824 -0.3504
 8843SOL    HW138165   3.231   4.198   8.044  0.9292 -0.7903 -0.4683
 8843SOL    HW238166   3.378   4.204   8.061  0.4753 -1.4892  0.6541
 8844SOL     OW38167   4.289   4.238   2.967 -0.4121  0.0074 -0.0164
 8844SOL    HW138168   4.215   4.180   2.989  0.4413  0.5491  4.2612
 8844SOL    HW238169   4.307   4.278   3.052 -0.6174  0.4834 -0.1998
 8845SOL     OW38170   2.717   2.823   3.448  0.0129 -0.0591  0.6003
 8845SOL    HW138171   2.705   2.801   3.355  1.7405 -1.4956  0.7153
 8845SOL    HW238172   2.808   2.795   3.459  0.1956  0.4421  0.3869
 8846SOL     OW38173   0.773   2.629  11.406  0.1385 -0.3538 -0.6016
 8846SOL    HW138174   0.743   2.682  11.480  0.7130  0.2946 -0.8324
 8846SOL    HW238175   0.740   2.542  11.427  1.5534 -0.3388  1.7543
 8847SOL     OW38176   4.031   0.017   5.151  0.1808  0.2273 -0.3080
 8847SOL    HW138177   4.048   4.690   5.083 -0.6496 -0.6700  0.3508
 8847SOL    HW238178   3.978   0.078   5.100 -1.0329  0.1942  0.9162
 8848SOL     OW38179   0.672   3.940   9.378  0.7029  0.6588 -0.0854
 8848SOL    HW138180   0.697   3.936   9.471 -2.9890  0.5322  0.9129
 8848SOL    HW238181   0.740   3.992   9.335 -1.0134  3.0342  0.1252
 8849SOL     OW38182   0.926   1.190   8.510  0.2661  0.3266  0.6107
 8849SOL    HW138183   0.969   1.216   8.428 -0.6009  1.4468  0.5055
 8849SOL    HW238184   0.835   1.205   8.486  0.2914  2.0159  1.5386
 8850SOL     OW38185   0.173   1.905  16.798  0.1749 -0.1235  0.0193
 8850SOL    HW138186   0.170   1.811  16.816  0.1880 -0.3030 -0.9129
 8850SOL    HW238187   0.107   1.940  16.858  0.9760  0.5529  0.5133
 8851SOL     OW38188   1.178   0.295   3.920  0.5173 -0.0953 -0.3486
 8851SOL    HW138189   1.257   0.347   3.907  0.5206 -0.6732 -2.5684
 8851SOL    HW238190   1.224   0.213   3.936  1.1535 -0.2340 -2.9873
 8852SOL     OW38191   2.573   0.113   1.760  0.2331 -0.3218  0.3586
 8852SOL    HW138192   2.645   0.072   1.808  0.5882  0.9172  0.8684
 8852SOL    HW238193   2.499   0.058   1.785 -0.1518  0.3957  0.7775
 8853SOL     OW38194   1.785   1.833   0.088 -0.0762  0.0209 -0.1217
 8853SOL    HW138195   1.829   1.836   0.004 -1.1070 -1.3138 -0.7113
 8853SOL    HW238196   1.760   1.924   0.104  1.9125  0.8257 -1.6501
 8854SOL     OW38197   3.274   3.477  16.175 -0.7896 -0.2994  0.5804
 8854SOL    HW138198   3.273   3.417  16.250  1.8899 -1.2514 -0.1610
 8854SOL    HW238199   3.262   3.564  16.213 -2.1308  0.6193 -1.9638
 8855SOL     OW38200   4.118   2.172   1.709  0.3265 -0.2393  1.1518
 8855SOL    HW138201   4.043   2.166   1.650 -1.0816 -0.1478  2.9264
 8855SOL    HW238202   4.110   2.085   1.749 -0.0676  0.0779  1.7717
 8856SOL     OW38203   2.397   2.396  11.934  0.8272 -0.7524 -0.2154
 8856SOL    HW138204   2.311   2.435  11.915  0.4428 -0.8382  1.3954
 8856SOL    HW238205   2.432   2.458  11.998 -0.1744 -1.1193  0.6902
 8857SOL     OW38206   1.110   2.293   6.527 -0.1950 -0.4769  0.3284
 8857SOL    HW138207   1.134   2.369   6.473 -2.9779  1.1661  1.3951
 8857SOL    HW238208   1.074   2.337   6.604 -2.6828 -1.2270 -0.4110
 8858SOL     OW38209   3.560   3.386   4.571  0.0364 -0.2149 -0.4608
 8858SOL    HW138210   3.506   3.390   4.493  0.2678  1.9294 -0.5267
 8858SOL    HW238211   3.520   3.320   4.628 -1.1295 -0.7689 -1.9438
 8859SOL     OW38212   2.272   0.706   7.073 -0.0693  0.0165  0.3703
 8859SOL    HW138213   2.314   0.690   7.158  1.6062  0.7635 -0.3340
 8859SOL    HW238214   2.333   0.660   7.017 -1.5750 -3.9858  2.0086
 8860SOL     OW38215   4.159   1.233   7.875  0.3546 -0.1403  0.0426
 8860SOL    HW138216   4.184   1.297   7.941  0.6308 -0.6370  0.4146
 8860SOL    HW238217   4.101   1.174   7.923 -1.3802  0.3906 -1.3693
 8861SOL     OW38218   0.547   1.485  15.593  0.0548  0.5932 -0.2595
 8861SOL    HW138219   0.595   1.539  15.530 -0.3308 -0.5543 -1.5430
 8861SOL    HW238220   0.617   1.436  15.637 -0.5351 -1.8563 -2.0206
 8862SOL     OW38221   1.860   0.154   8.750  0.9088 -0.4187 -0.8943
 8862SOL    HW138222   1.868   0.246   8.727 -0.1065  0.4382  2.1471
 8862SOL    HW238223   1.785   0.126   8.698 -1.8191 -3.1778  4.4879
 8863SOL     OW38224   3.673   2.502  12.448 -0.5035 -0.1443 -0.4902
 8863SOL    HW138225   3.613   2.577  12.453  0.8197  0.7666  1.3729
 8863SOL    HW238226   3.738   2.517  12.516 -0.3419 -0.0308 -0.6696
 8864SOL     OW38227   4.669   2.496  16.572 -0.2761  0.0097 -0.3501
 8864SOL    HW138228   4.692   2.417  16.622  1.5354  0.3335 -0.6815
 8864SOL    HW238229   4.605   2.448  16.520 -0.4654  1.2095 -1.2173
 8865SOL     OW38230   0.255   1.195   4.484 -0.1678  0.6343  0.1231
 8865SOL    HW138231   0.195   1.219   4.413 -2.2895  0.4484  1.8780
 8865SOL    HW238232   0.197   1.165   4.554 -1.3278 -1.3307 -1.6632
 8866SOL     OW38233   0.251   0.310  10.354 -0.1494 -0.1935 -0.4765
 8866SOL    HW138234   0.304   0.387  10.375 -2.1804  0.9516  0.4749
 8866SOL    HW238235   0.226   0.262  10.434  0.2099 -0.2854 -0.4221
 8867SOL     OW38236   3.100   0.912   8.171  0.2355  0.1829 -0.2212
 8867SOL    HW138237   3.124   0.890   8.081 -1.1491  0.5912 -0.6814
 8867SOL    HW238238   3.011   0.944   8.162 -0.1214 -0.7422  0.0312
 8868SOL     OW38239   0.214   1.705   6.509  0.4286 -0.0860 -0.5985
 8868SOL    HW138240   0.150   1.709   6.581 -0.4961 -2.0795 -1.3143
 8868SOL    HW238241   0.175   1.768   6.449  0.0892  0.4022  0.1290
 8869SOL     OW38242   2.899   2.456   2.266  0.6848  0.3100  0.0519
 8869SOL    HW138243   2.960   2.473   2.339  0.2860 -1.4071  0.7904
 8869SOL    HW238244   2.818   2.453   2.316  0.8855 -0.7658  0.3311
 8870SOL     OW38245   2.751   0.269  14.247 -0.3316 -0.0686  0.3897
 8870SOL    HW138246   2.780   0.357  14.224  1.2146 -1.0967 -1.6584
 8870SOL    HW238247   2.781   0.220  14.170 -1.0217 -0.2750  0.2590
 8871SOL     OW38248   1.463   4.555   1.444 -0.3521 -0.5258 -0.4965
 8871SOL    HW138249   1.553   4.557   1.411  0.4973 -1.4497  1.7642
 8871SOL    HW238250   1.412   4.551   1.363  0.3820 -1.8517 -0.8952
 8872SOL     OW38251   0.928   1.399  10.802 -0.3670  0.4166  0.5307
 8872SOL    HW138252   1.003   1.339  10.805 -1.6641 -1.2581 -0.8434
 8872SOL    HW238253   0.960   1.474  10.852 -1.1499  0.4934  0.9063
 8873SOL     OW38254   1.462   4.103  15.935  0.4080  0.3512  0.4302
 8873SOL    HW138255   1.426   4.053  16.008  2.4233 -0.0295  1.1505
 8873SOL    HW238256   1.384   4.138  15.891  0.9058  1.0665  0.0989
 8874SOL     OW38257   4.176   3.360  15.047 -0.2611  0.2676 -0.5089
 8874SOL    HW138258   4.117   3.346  15.122  1.5307 -0.6837  0.7169
 8874SOL    HW238259   4.127   3.298  14.992 -1.2166  2.4942 -2.1669
 8875SOL     OW38260   4.715   4.678  12.238  0.0608 -0.1202  0.3899
 8875SOL    HW138261   4.642   4.686  12.300 -0.7234  1.4755 -0.7308
 8875SOL    HW238262   4.702   0.020  12.185 -2.0040 -0.1128  0.8984
 8876SOL     OW38263   2.214   2.970  13.076 -0.1992  0.1788 -0.3028
 8876SOL    HW138264   2.294   2.944  13.123 -0.0349  1.1737 -0.0361
 8876SOL    HW238265   2.162   2.890  13.068 -1.5326  1.4036 -3.6851
 8877SOL     OW38266   1.746   3.391   7.740  0.7439 -0.0487  0.3271
 8877SOL    HW138267   1.803   3.446   7.793  1.0470 -0.2762  0.2386
 8877SOL    HW238268   1.776   3.426   7.656 -0.7508 -0.0997 -0.2293
 8878SOL     OW38269   4.566   4.580   4.390  0.7774 -0.3236  0.2941
 8878SOL    HW138270   4.607   4.523   4.326  0.4175 -0.1237 -0.1147
 8878SOL    HW238271   4.645   4.630   4.413  0.3620 -1.2071  3.7102
 8879SOL     OW38272   4.025   1.761   8.552  0.1743  0.2357 -0.1912
 8879SOL    HW138273   4.082   1.739   8.478 -2.8336 -2.7066 -1.5894
 8879SOL    HW238274   4.028   1.679   8.601  1.6000  1.6433  2.0797
 8880SOL     OW38275   1.879   3.918   7.514 -0.5492 -0.4193 -0.7368
 8880SOL    HW138276   1.866   3.887   7.424 -1.6872 -0.6753 -0.4758
 8880SOL    HW238277   1.829   3.860   7.571 -2.3934 -1.8220 -3.7712
 8881SOL     OW38278   3.541   2.953   8.515 -0.8862  0.4571  0.5113
 8881SOL    HW138279   3.457   2.992   8.536 -1.4776 -0.8156  0.5099
 8881SOL    HW238280   3.504   2.874   8.476  0.7480  0.1691 -0.4779
 8882SOL     OW38281   4.183   0.205   3.099  0.3504  0.1537 -0.0921
 8882SOL    HW138282   4.227   0.147   3.161  0.5417 -0.3677 -0.7119
 8882SOL    HW238283   4.124   0.259   3.151  0.2578 -0.9974  0.9945
 8883SOL     OW38284   4.150   3.199   7.199  0.2168 -0.6383  0.1680
 8883SOL    HW138285   4.201   3.157   7.268 -2.0026 -0.3749  1.9937
 8883SOL    HW238286   4.181   3.288   7.216 -2.5417  0.5820 -1.0311
 8884SOL     OW38287   2.339   1.743   4.075  0.4446  0.5290 -0.2243
 8884SOL    HW138288   2.433   1.754   4.070  0.3115  1.2697 -1.1785
 8884SOL    HW238289   2.331   1.657   4.117 -0.6906  1.2725  1.0832
 8885SOL     OW38290   1.728   3.291  12.493  0.2344  0.1021  0.3498
 8885SOL    HW138291   1.724   3.273  12.587 -2.1911 -0.1614  0.2060
 8885SOL    HW238292   1.659   3.241  12.451 -2.9392  2.5361  2.6417
 8886SOL     OW38293   0.895   4.530   3.306  0.2144 -0.3291  0.2013
 8886SOL    HW138294   0.948   4.582   3.246 -1.0463 -0.3887 -0.9332
 8886SOL    HW238295   0.820   4.497   3.257 -0.2614 -0.8569  1.2791
 8887SOL     OW38296   0.537   0.706  11.141 -0.0026  0.0677 -0.1273
 8887SOL    HW138297   0.623   0.710  11.184 -0.6174 -1.1567  1.2450
 8887SOL    HW238298   0.500   0.622  11.165 -1.0821  0.9674  1.3481
 8888SOL     OW38299   2.482   0.616   6.335  0.5780  0.0730 -0.3693
 8888SOL    HW138300   2.545   0.608   6.406  1.7776  0.2962 -1.3950
 8888SOL    HW238301   2.494   0.710   6.319 -1.5896  0.6783  1.4744
 8889SOL     OW38302   0.917   2.013  10.327  0.3798  0.0627  0.4822
 8889SOL    HW138303   0.839   2.037  10.377 -0.0262  0.0877 -0.1659
 8889SOL    HW238304   0.960   2.090  10.291  1.1162 -2.1279 -3.3437
 8890SOL     OW38305   0.531   4.568   3.328  0.3193  0.3915  0.5229
 8890SOL    HW138306   0.506   4.489   3.376  2.1000 -1.0278 -0.8775
 8890SOL    HW238307   0.589   4.530   3.261  0.1824  2.2002 -0.6320
 8891SOL     OW38308   4.587   0.352   7.015  0.1908 -0.9122  0.1265
 8891SOL    HW138309   4.551   0.356   7.103  1.5184 -1.2146  0.6842
 8891SOL    HW238310   4.676   0.386   7.026  0.2164 -1.3358  1.2050
 8892SOL     OW38311   1.010   3.899  10.050  0.2928  0.4797 -0.2768
 8892SOL    HW138312   1.005   3.985  10.092 -0.4090  0.7057 -0.8256
 8892SOL    HW238313   1.035   3.852  10.129  2.5027 -0.1905 -1.3870
 8893SOL     OW38314   0.469   3.949   4.500  0.6097  0.2640 -0.2354
 8893SOL    HW138315   0.425   4.032   4.514 -2.3206 -0.7965 -3.0298
 8893SOL    HW238316   0.406   3.904   4.442 -1.1948 -0.0443  1.9541
 8894SOL     OW38317   1.342   2.270   6.697 -0.0386  0.2119  0.2310
 8894SOL    HW138318   1.308   2.303   6.779  0.6301 -2.6925  1.6874
 8894SOL    HW238319   1.264   2.237   6.653 -0.2687  0.8663  0.1559
 8895SOL     OW38320   4.557   0.067  15.087  0.4780  0.5904  0.4345
 8895SOL    HW138321   4.565   0.117  15.168 -0.1865  0.9672  0.2694
 8895SOL    HW238322   4.644   0.083  15.051 -0.2086  3.6081  0.1178
 8896SOL     OW38323   1.353   1.285   3.756 -0.1908  0.2508 -0.3696
 8896SOL    HW138324   1.421   1.318   3.815 -1.0944 -1.5733  1.6665
 8896SOL    HW238325   1.302   1.360   3.725  1.1891  0.9639 -0.9520
 8897SOL     OW38326   2.728   2.848   0.618 -0.2941  0.0677  0.0608
 8897SOL    HW138327   2.747   2.775   0.677 -0.8626 -0.0407  0.1189
 8897SOL    HW238328   2.818   2.873   0.600  0.2151 -0.1861  2.2677
 8898SOL     OW38329   4.092   4.730   7.625 -0.1100 -0.1473  0.0582
 8898SOL    HW138330   4.187   4.721   7.618 -0.3081  0.0380 -2.7670
 8898SOL    HW238331   4.067   4.706   7.714  0.3097 -2.3830 -0.4022
 8899SOL     OW38332   4.684   2.779   3.881 -0.0607 -0.5099 -0.1758
 8899SOL    HW138333   4.604   2.776   3.934  0.1968 -0.9088  0.1812
 8899SOL    HW238334   0.010   2.733   3.935 -2.0546  0.2048  2.7860
 8900SOL     OW38335   0.700   3.678   1.549  0.9417  0.2754  0.1648
 8900SOL    HW138336   0.759   3.734   1.600  0.2316  1.1259  0.0608
 8900SOL    HW238337   0.645   3.743   1.505 -0.7361 -0.0693  1.7411
 8901SOL     OW38338   0.869   4.213   2.737  0.0084 -0.0471 -0.1189
 8901SOL    HW138339   0.923   4.236   2.661 -2.1293  1.4680 -1.1764
 8901SOL    HW238340   0.783   4.248   2.714  0.3369  1.6820  1.2716
 8902SOL     OW38341   1.094   4.045   4.389  0.3908 -0.0664  0.1562
 8902SOL    HW138342   1.098   4.044   4.485  1.0751  1.0322  0.1457
 8902SOL    HW238343   1.124   3.957   4.369 -2.2748 -0.2923 -2.7887
 8903SOL     OW38344   1.314   2.603   8.474  0.2228  0.2586  0.5284
 8903SOL    HW138345   1.407   2.587   8.456 -0.0098  0.7814 -1.1644
 8903SOL    HW238346   1.323   2.670   8.542 -0.7160 -0.3292  1.2159
 8904SOL     OW38347   1.841   1.364   7.842 -0.1898 -0.6573  0.3556
 8904SOL    HW138348   1.815   1.271   7.844  0.6443 -0.8974 -0.0160
 8904SOL    HW238349   1.811   1.384   7.753 -0.2708  2.0008  0.9901
 8905SOL     OW38350   2.227   1.934  17.339  0.1351 -0.1454 -0.0761
 8905SOL    HW138351   2.294   1.988  17.298 -0.2843  2.1299  2.2150
 8905SOL    HW238352   2.223   1.969  17.429 -0.3069  0.7916 -0.4537
 8906SOL     OW38353   2.989   2.421   3.197 -0.4894  0.0677 -0.0941
 8906SOL    HW138354   2.941   2.490   3.152 -2.1819 -0.5344  0.8013
 8906SOL    HW238355   2.976   2.445   3.289 -1.2428 -2.9575  0.5918
 8907SOL     OW38356   2.133   2.798   4.596  0.5230 -0.1072  0.0534
 8907SOL    HW138357   2.058   2.774   4.542 -0.8220  0.5351  1.6561
 8907SOL    HW238358   2.116   2.754   4.679 -4.0395  0.8896 -0.3784
 8908SOL     OW38359   3.323   4.662   2.738  0.1369 -0.6756 -0.2020
 8908SOL    HW138360   3.364   4.650   2.823  0.8355  1.1116 -0.2927
 8908SOL    HW238361   3.338   0.019   2.727  0.8124 -0.9601 -1.7681
 8909SOL     OW38362   3.179   4.493  16.051 -0.0035  0.1142 -0.4770
 8909SOL    HW138363   3.111   4.431  16.078 -1.3360  1.3976 -0.8709
 8909SOL    HW238364   3.185   4.477  15.957 -0.7061 -1.0571 -0.3318
 8910SOL     OW38365   0.873   2.275   0.822  0.3123  0.5139 -0.1836
 8910SOL    HW138366   0.877   2.338   0.894  0.4426  0.7072 -0.3642
 8910SOL    HW238367   0.955   2.225   0.821  0.4909  0.8499 -1.5229
 8911SOL     OW38368   1.657   0.209  12.569 -0.4494 -0.3434  0.2554
 8911SOL    HW138369   1.711   0.133  12.591  2.7948  1.1027 -2.7618
 8911SOL    HW238370   1.598   0.158  12.514  0.5480 -3.1918  1.8295
 8912SOL     OW38371   2.358   2.903   8.431  0.2914  0.3035 -0.0975
 8912SOL    HW138372   2.288   2.966   8.444 -1.6684 -1.9820  0.5168
 8912SOL    HW238373   2.438   2.955   8.428  0.1152  0.6233  0.7958
 8913SOL     OW38374   3.924   3.205  12.889  0.3261  0.3120  0.5855
 8913SOL    HW138375   3.935   3.297  12.866  1.3324  0.4873  1.7552
 8913SOL    HW238376   3.838   3.209  12.932  0.3098 -0.3634  0.6115
 8914SOL     OW38377   0.364   3.209   1.274  0.0018 -0.6179 -0.2329
 8914SOL    HW138378   0.357   3.161   1.192  0.1639 -0.5084 -0.3104
 8914SOL    HW238379   0.396   3.290   1.234 -1.0088  0.3371  0.8825
 8915SOL     OW38380   4.480   3.347   6.623 -0.4329  0.5529  0.6413
 8915SOL    HW138381   4.547   3.288   6.589  0.0090  1.4176  0.0118
 8915SOL    HW238382   4.439   3.292   6.689 -0.0086  0.1381  0.5573
 8916SOL     OW38383   3.940   0.879   7.256 -0.0850  0.1532 -0.6131
 8916SOL    HW138384   3.899   0.837   7.332  0.9303 -3.6425 -2.1709
 8916SOL    HW238385   3.932   0.969   7.287  4.3745 -0.4771  2.3900
 8917SOL     OW38386   0.164   3.701   6.137 -0.0024  0.0177 -0.2583
 8917SOL    HW138387   0.092   3.705   6.199 -1.0004  1.0885 -1.4808
 8917SOL    HW238388   0.171   3.794   6.116 -2.3444  0.0276 -1.0005
 8918SOL     OW38389   1.204   2.931   3.724  0.3195  0.1790 -0.3458
 8918SOL    HW138390   1.111   2.906   3.725  0.1688  0.7564  0.9396
 8918SOL    HW238391   1.231   2.914   3.814 -2.0031  0.8462  0.4792
 8919SOL     OW38392   4.159   3.479   9.933  0.8444  0.6414 -0.0349
 8919SOL    HW138393   4.105   3.493   9.855 -0.7030  0.9138  1.0747
 8919SOL    HW238394   4.091   3.469  10.000  0.4412  1.8365 -0.2687
 8920SOL     OW38395   0.585   2.105   5.511  0.2907 -0.1476  0.2641
 8920SOL    HW138396   0.492   2.121   5.522  0.2251 -0.0797 -0.4050
 8920SOL    HW238397   0.603   2.155   5.431  1.8787  1.8735  1.8801
 8921SOL     OW38398   0.898   0.503  10.974 -0.3290 -0.5997 -0.5585
 8921SOL    HW138399   0.835   0.487  11.044  1.1473  1.0494  1.1527
 8921SOL    HW238400   0.980   0.494  11.023  0.1030  1.1600 -0.9314
 8922SOL     OW38401   0.127   2.604   2.734 -0.3437  0.1588 -0.1360
 8922SOL    HW138402   0.197   2.648   2.685 -0.2180 -0.4321 -0.4880
 8922SOL    HW238403   0.080   2.683   2.762 -0.4768  0.0094  0.0618
 8923SOL     OW38404   3.502   2.885   7.344  0.3107 -0.4050 -0.3167
 8923SOL    HW138405   3.475   2.973   7.320 -0.0748 -0.3416  0.3545
 8923SOL    HW238406   3.579   2.906   7.396  0.8237  1.4068 -1.8544
 8924SOL     OW38407   3.379   2.574   8.797 -0.3235 -0.1031 -0.0348
 8924SOL    HW138408   3.368   2.519   8.718  1.7740  0.4693 -0.7079
 8924SOL    HW238409   3.286   2.591   8.811  0.2645  1.7919  1.4752
 8925SOL     OW38410   3.864   2.978   4.011  0.0538  0.1788  0.0150
 8925SOL    HW138411   3.834   2.890   4.031  0.8160 -0.2053 -0.5125
 8925SOL    HW238412   3.794   3.024   3.965  0.5754  2.4455  1.5158
 8926SOL     OW38413   2.623   1.174   1.104  0.0084  0.3601  0.1076
 8926SOL    HW138414   2.657   1.094   1.144 -0.8987 -0.3377 -0.5312
 8926SOL    HW238415   2.663   1.166   1.017 -0.3186  0.8671 -0.0884
 8927SOL     OW38416   2.369   1.118  11.607 -0.4492  0.2800  0.0265
 8927SOL    HW138417   2.386   1.212  11.596 -0.2849 -0.0035 -2.1107
 8927SOL    HW238418   2.298   1.097  11.545  0.2229 -1.9321  0.0383
 8928SOL     OW38419   4.576   4.518  17.011  0.3743  0.1172  0.2772
 8928SOL    HW138420   4.587   4.573  17.088  0.0132 -0.1999  0.5587
 8928SOL    HW238421   4.484   4.494  17.022  1.0740 -1.8367  1.9631
 8929SOL     OW38422   1.374   1.011   3.666 -0.1809  0.1817 -0.9096
 8929SOL    HW138423   1.382   1.099   3.703  0.2452 -0.3357  0.2170
 8929SOL    HW238424   1.305   0.963   3.711 -2.6663  1.4852 -3.3193
 8930SOL     OW38425   3.897   3.535   9.836 -0.3526 -0.1868 -0.0688
 8930SOL    HW138426   3.913   3.480   9.759  1.4162 -0.5440  0.5390
 8930SOL    HW238427   3.811   3.508   9.867  0.1723 -1.0826  0.6166
 8931SOL     OW38428   3.391   2.765   5.498  0.1715 -0.2811 -0.2069
 8931SOL    HW138429   3.451   2.731   5.431  0.1226  1.5508 -1.1916
 8931SOL    HW238430   3.443   2.841   5.527  0.8108 -0.2547 -1.4270
 8932SOL     OW38431   0.871   2.463   7.446  0.2486 -0.1383 -0.3035
 8932SOL    HW138432   0.948   2.501   7.489  0.8200 -2.0200  0.3110
 8932SOL    HW238433   0.799   2.469   7.509 -0.8353  0.3560 -1.5802
 8933SOL     OW38434   4.487   4.113  16.238  0.1753  0.1409  0.0473
 8933SOL    HW138435   4.486   4.100  16.144 -2.2886 -1.8831  0.3559
 8933SOL    HW238436   4.467   4.022  16.260  0.2677 -0.0129 -0.5041
 8934SOL     OW38437   3.320   3.547   4.978 -0.7246 -0.2183  0.3457
 8934SOL    HW138438   3.278   3.627   5.009 -4.4464 -1.3765 -1.6280
 8934SOL    HW238439   3.258   3.488   5.020  0.6703 -1.7340  0.2690
 8935SOL     OW38440   1.798   1.890   2.636  0.0033 -0.0632 -0.3448
 8935SOL    HW138441   1.799   1.844   2.552  0.8637 -2.6817  1.0919
 8935SOL    HW238442   1.717   1.847   2.663  0.8409  0.5602  3.0812
 8936SOL     OW38443   0.121   4.523  12.084  0.0352  0.2029  0.2832
 8936SOL    HW138444   0.194   4.502  12.142 -1.0458  0.3376  1.6891
 8936SOL    HW238445   0.079   4.585  12.144  1.5364  1.6149 -0.1459
 8937SOL     OW38446   0.798   1.441  12.755  0.2378  0.0986 -0.0420
 8937SOL    HW138447   0.702   1.439  12.748  0.2670 -0.6915 -0.1639
 8937SOL    HW238448   0.803   1.418  12.848 -0.8106  0.9634  0.2235
 8938SOL     OW38449   2.864   0.558   6.718  0.0239 -0.1583  0.1505
 8938SOL    HW138450   2.957   0.536   6.724 -0.1481 -0.5949  1.0994
 8938SOL    HW238451   2.866   0.652   6.734  1.8397 -0.0494 -0.7374
 8939SOL     OW38452   3.449   1.024   5.341  0.1611 -0.5304 -0.1110
 8939SOL    HW138453   3.427   0.979   5.423 -0.3562 -0.0808 -0.0053
 8939SOL    HW238454   3.533   1.063   5.367 -0.6556  0.9689  0.3006
 8940SOL     OW38455   4.466   1.718   9.539  0.6524  0.7207 -0.4124
 8940SOL    HW138456   4.542   1.742   9.487 -0.1046  1.3132 -1.2304
 8940SOL    HW238457   4.478   1.624   9.521  3.5083  1.0100 -0.0067
 8941SOL     OW38458   4.382   0.156   0.389 -0.2272 -0.5006  0.0792
 8941SOL    HW138459   4.349   0.071   0.360 -0.3490 -0.8053  1.0970
 8941SOL    HW238460   4.333   0.187   0.465  1.5097  1.1338  0.5129
 8942SOL     OW38461   0.706   4.077   8.736 -0.3037  0.1786 -0.4309
 8942SOL    HW138462   0.611   4.073   8.747 -0.3915 -0.6175 -1.5066
 8942SOL    HW238463   0.737   4.052   8.823  0.0287  0.3976 -0.4858
 8943SOL     OW38464   0.755   4.014   1.432 -0.1712 -0.0978 -0.0820
 8943SOL    HW138465   0.799   3.960   1.498 -0.4072 -1.6242 -1.1726
 8943SOL    HW238466   0.832   4.057   1.396 -0.1645 -1.8563 -2.1651
 8944SOL     OW38467   0.514   1.818   7.549  0.1407  0.7502  0.4884
 8944SOL    HW138468   0.505   1.793   7.457  1.1420 -1.2705  0.9300
 8944SOL    HW238469   0.453   1.890   7.560 -3.3521 -1.7281 -2.6797
 8945SOL     OW38470   2.271   4.221   6.666  0.4333  0.4404  0.3184
 8945SOL    HW138471   2.190   4.187   6.704  1.1009 -0.0636  1.2719
 8945SOL    HW238472   2.283   4.304   6.713  1.7823 -0.4601  1.5364
 8946SOL     OW38473   1.417   2.022   0.609  0.0104  0.8835 -0.1598
 8946SOL    HW138474   1.405   2.117   0.606  0.8980  0.9442 -1.5992
 8946SOL    HW238475   1.504   2.017   0.570 -0.8246 -1.8756 -1.6572
 8947SOL     OW38476   1.712   3.333   4.584 -0.7039  0.1928  0.3491
 8947SOL    HW138477   1.724   3.249   4.541 -1.7887  0.4937 -0.5552
 8947SOL    HW238478   1.780   3.336   4.651  1.1885  0.1805 -1.5751
 8948SOL     OW38479   0.017   0.370   6.549  0.1212 -0.4703  0.4151
 8948SOL    HW138480   0.009   0.302   6.616 -1.9566  0.4233  1.0419
 8948SOL    HW238481   0.026   0.448   6.604  0.8131  1.8774 -3.0104
 8949SOL     OW38482   4.336   3.834   7.767 -0.0693 -0.2333  0.1308
 8949SOL    HW138483   4.297   3.748   7.750 -0.4860  0.6408 -3.3237
 8949SOL    HW238484   4.306   3.872   7.849 -0.6027 -1.1391  0.3562
 8950SOL     OW38485   1.110   0.496   6.879  0.3839 -0.2988 -0.1519
 8950SOL    HW138486   1.140   0.550   6.952  0.7739 -0.0395 -0.5078
 8950SOL    HW238487   1.143   0.408   6.896  0.1433 -0.3596  0.0018
 8951SOL     OW38488   1.550   0.241   2.243  0.7449  0.0112 -0.3963
 8951SOL    HW138489   1.460   0.216   2.221  1.1903 -0.3312 -1.8122
 8951SOL    HW238490   1.584   0.157   2.275  0.8035  0.1149 -0.1809
 8952SOL     OW38491   1.611   0.413   6.721 -0.6442 -0.0740 -0.6708
 8952SOL    HW138492   1.546   0.467   6.767 -1.0339 -0.5288 -0.6839
 8952SOL    HW238493   1.573   0.326   6.734 -1.6742  0.2902 -1.2149
 8953SOL     OW38494   4.325   3.355  13.188  0.1834  0.6691  0.4272
 8953SOL    HW138495   4.360   3.428  13.137  0.6969  0.0657 -0.0871
 8953SOL    HW238496   4.324   3.283  13.125 -1.6298 -0.9502  2.3281
 8954SOL     OW38497   1.598   0.363   9.978  0.8101  0.2708  0.5865
 8954SOL    HW138498   1.557   0.423  10.040 -1.5304  0.0798 -0.7843
 8954SOL    HW238499   1.580   0.279  10.019 -1.2697  0.9421  1.0349
 8955SOL     OW38500   1.124   0.210  15.575 -0.3760  0.2895 -0.7912
 8955SOL    HW138501   1.105   0.251  15.490 -3.6832  1.9143  0.7580
 8955SOL    HW238502   1.196   0.152  15.548 -1.0646 -1.3719  0.9899
 8956SOL     OW38503   1.764   3.066   5.793 -0.2871 -0.4852 -0.6185
 8956SOL    HW138504   1.725   3.005   5.856  0.8557  0.4283  0.9729
 8956SOL    HW238505   1.788   3.017   5.715  1.7915  1.0701 -0.9547
 8957SOL     OW38506   0.246   2.640   7.936 -0.1614  0.5685  0.4898
 8957SOL    HW138507   0.277   2.633   7.845 -2.0116  0.2635 -0.1200
 8957SOL    HW238508   0.320   2.656   7.994 -0.1367 -0.6056  0.7953
 8958SOL     OW38509   0.837   3.513   7.630 -0.2916 -0.4282 -0.2221
 8958SOL    HW138510   0.854   3.552   7.716 -1.3699 -1.2574  0.3786
 8958SOL    HW238511   0.914   3.458   7.618  0.7870  1.0321 -0.0053
 8959SOL     OW38512   1.584   0.031   3.701  0.7772 -0.2080 -0.1504
 8959SOL    HW138513   1.669   0.010   3.739  1.6900  0.8210 -1.6298
 8959SOL    HW238514   1.587   0.122   3.668 -1.2195 -0.6449 -1.5774
 8960SOL     OW38515   3.778   2.734  13.641 -0.0818 -0.5174 -0.0809
 8960SOL    HW138516   3.853   2.675  13.641  0.6398  0.3947  0.1859
 8960SOL    HW238517   3.803   2.807  13.584 -3.6552  1.1143  0.3907
 8961SOL     OW38518   4.150   3.720   2.314  0.0979  0.0032  0.4635
 8961SOL    HW138519   4.189   3.646   2.360  0.7703  0.7214  1.0340
 8961SOL    HW238520   4.226   3.750   2.264 -1.5030 -2.4594 -3.4841
 8962SOL     OW38521   0.349   1.391   0.823  0.1493  0.3758 -0.7440
 8962SOL    HW138522   0.424   1.361   0.772 -0.5890  0.1970 -1.7292
 8962SOL    HW238523   0.322   1.469   0.775  0.4973  0.1906 -1.2387
 8963SOL     OW38524   2.939   1.967   2.418 -0.6567 -0.0653  0.2475
 8963SOL    HW138525   2.873   1.991   2.353  0.5195  0.5631 -0.7104
 8963SOL    HW238526   3.002   1.919   2.364 -1.4496 -1.7586  0.7986
 8964SOL     OW38527   1.898   4.564  16.403 -0.1209  0.0214  0.2803
 8964SOL    HW138528   1.949   4.584  16.324  2.8637 -1.2316  1.8843
 8964SOL    HW238529   1.930   4.637  16.455 -0.1418  0.9117 -0.9459
 8965SOL     OW38530   1.898   3.928   8.094  0.3284  0.4957  0.5142
 8965SOL    HW138531   1.811   3.894   8.116  0.7156 -0.5934  0.3339
 8965SOL    HW238532   1.951   3.876   8.153  0.1749  2.0977  2.0820
 8966SOL     OW38533   0.317   0.828   2.384  0.4249 -0.1790 -0.2138
 8966SOL    HW138534   0.395   0.786   2.419 -0.5786  0.2388  2.5596
 8966SOL    HW238535   0.350   0.913   2.357  0.5249  0.0382  0.5872
 8967SOL     OW38536   3.657   3.104  15.684 -0.1837  0.2082 -0.1320
 8967SOL    HW138537   3.568   3.078  15.659 -0.8802  2.4028  0.1222
 8967SOL    HW238538   3.638   3.151  15.765 -0.0017 -1.6742  1.0195
 8968SOL     OW38539   3.143   1.921   2.829  0.7486 -0.1424 -0.2445
 8968SOL    HW138540   3.065   1.932   2.775 -2.1094  2.4313  4.3975
 8968SOL    HW238541   3.126   1.966   2.912 -0.0068 -0.8591 -0.0208
 8969SOL     OW38542   0.880   1.066   2.056  0.1983  0.0182 -0.2472
 8969SOL    HW138543   0.920   1.122   2.123 -1.7775  0.8887  0.1956
 8969SOL    HW238544   0.946   1.059   1.986 -0.4122  0.1400 -0.8272
 8970SOL     OW38545   1.135   2.976  15.015 -0.4212  0.5205 -0.0849
 8970SOL    HW138546   1.097   3.001  15.099 -0.9641 -0.1271 -0.1362
 8970SOL    HW238547   1.218   2.937  15.040 -1.6433 -1.4283  0.9374
 8971SOL     OW38548   1.653   4.314   3.272  0.4174  0.7547  0.1384
 8971SOL    HW138549   1.631   4.236   3.221 -1.7826  1.3126  0.2236
 8971SOL    HW238550   1.627   4.290   3.362  2.2532  2.7423  1.1925
 8972SOL     OW38551   3.682   3.320  13.321  0.0830  0.9778 -0.2804
 8972SOL    HW138552   3.657   3.300  13.411 -0.4490  2.5377 -0.0812
 8972SOL    HW238553   3.598   3.304  13.279 -0.4673  0.7683  0.9276
 8973SOL     OW38554   3.193   2.294  12.639 -0.3946  0.2318 -0.5121
 8973SOL    HW138555   3.228   2.246  12.564 -0.1199 -0.6442  0.1684
 8973SOL    HW238556   3.100   2.272  12.632 -0.5205  0.4335  0.4684
 8974SOL     OW38557   0.682   3.749   8.665  0.4531 -0.4091 -0.7213
 8974SOL    HW138558   0.607   3.740   8.724  3.1349  0.4740  2.8127
 8974SOL    HW238559   0.636   3.720   8.586 -0.7480  0.5053 -0.3606
 8975SOL     OW38560   2.798   1.927   6.350  0.3340 -0.2884  0.2409
 8975SOL    HW138561   2.741   1.860   6.387 -0.9547  0.5814 -0.1743
 8975SOL    HW238562   2.736   1.999   6.338  0.0905 -0.7439 -1.1819
 8976SOL     OW38563   2.344   0.761  10.281  0.2747  0.5157 -0.4207
 8976SOL    HW138564   2.280   0.740  10.213  0.3582  0.1417 -0.3883
 8976SOL    HW238565   2.416   0.720  10.233  1.3394  0.1249  1.5125
 8977SOL     OW38566   3.108   4.229  14.064 -0.4473 -0.0336 -0.2200
 8977SOL    HW138567   3.083   4.284  13.989 -0.1040  1.4840  0.7815
 8977SOL    HW238568   3.202   4.219  14.052 -0.5637 -2.5769  0.9124
 8978SOL     OW38569   0.673   2.339   3.944  0.5917  0.8006 -0.1338
 8978SOL    HW138570   0.631   2.350   4.029  0.1860  0.3103 -0.2667
 8978SOL    HW238571   0.763   2.367   3.963  0.2049  1.8459  0.1277
 8979SOL     OW38572   0.378   3.024   2.515  0.3773 -0.2917 -0.4158
 8979SOL    HW138573   0.377   3.070   2.599  1.3019  0.4129 -0.8016
 8979SOL    HW238574   0.472   3.017   2.498  0.2299 -1.9916 -0.5727
 8980SOL     OW38575   0.662   1.032   2.912 -0.3248 -0.4006  0.0160
 8980SOL    HW138576   0.598   0.997   2.974  0.7378 -2.5476 -0.0691
 8980SOL    HW238577   0.744   0.992   2.943 -1.1105  0.7192  3.5464
 8981SOL     OW38578   3.349   1.376   2.137 -0.2166 -0.2324  0.1039
 8981SOL    HW138579   3.357   1.394   2.231 -1.3772 -2.5581  0.6654
 8981SOL    HW238580   3.434   1.410   2.109 -0.4976 -1.0640 -1.7635
 8982SOL     OW38581   4.264   2.042   0.338 -0.3293  0.0373  0.3014
 8982SOL    HW138582   4.210   2.105   0.385 -1.0122  0.9194 -1.6623
 8982SOL    HW238583   4.197   1.986   0.298  0.0953 -0.2628  0.0051
 8983SOL     OW38584   3.638   1.487   7.353 -0.8733 -0.0764  0.0597
 8983SOL    HW138585   3.550   1.523   7.348 -1.3855 -1.4064 -0.4577
 8983SOL    HW238586   3.639   1.461   7.445 -1.0972  3.3178  0.9881
 8984SOL     OW38587   3.260   3.047   5.331 -0.1097  0.1586  0.1093
 8984SOL    HW138588   3.165   3.049   5.340 -0.1917  0.8945 -0.8041
 8984SOL    HW238589   3.284   3.110   5.399 -3.1711  0.9286  0.4749
 8985SOL     OW38590   0.480   2.774  10.499 -0.0686 -0.3926  0.0311
 8985SOL    HW138591   0.527   2.731  10.571 -0.1887  0.0484  0.3729
 8985SOL    HW238592   0.389   2.746  10.507 -0.1527  0.4177  1.8619
 8986SOL     OW38593   3.721   4.490  13.168 -0.4153  0.1831 -0.4537
 8986SOL    HW138594   3.743   4.583  13.162  0.5610  0.0605  1.3553
 8986SOL    HW238595   3.733   4.465  13.076  0.9784  1.1804 -0.5324
 8987SOL     OW38596   4.005   0.012   7.896  0.2124 -0.7671  0.5590
 8987SOL    HW138597   4.005   4.732   7.990 -1.2808  0.2939  0.7530
 8987SOL    HW238598   3.914   0.034   7.877  0.7762  0.2932 -0.9957
 8988SOL     OW38599   1.241   0.441   2.876 -0.1977 -0.1741  0.0401
 8988SOL    HW138600   1.328   0.404   2.862 -0.6304 -0.7519 -1.1512
 8988SOL    HW238601   1.221   0.410   2.964  0.6750  1.3427  0.7617
 8989SOL     OW38602   3.374   1.063  12.617  0.1049 -0.3876 -0.4797
 8989SOL    HW138603   3.338   1.114  12.690  0.5153  0.8980 -1.1662
 8989SOL    HW238604   3.454   1.030  12.658  0.2945  0.9970  0.2905
 8990SOL     OW38605   4.107   4.248   7.839  0.3619 -0.4080  0.2086
 8990SOL    HW138606   4.198   4.230   7.815  1.0265  0.9918  1.7282
 8990SOL    HW238607   4.122   4.230   7.932 -3.1531  0.4134  0.9282
 8991SOL     OW38608   1.433   1.148   5.667 -0.3472 -0.2493 -0.1539
 8991SOL    HW138609   1.512   1.151   5.721  0.4057 -0.6093 -1.2430
 8991SOL    HW238610   1.379   1.081   5.708  2.1055 -1.1164  1.6660
 8992SOL     OW38611   1.575   3.886  11.253  0.0606 -0.4105 -0.5167
 8992SOL    HW138612   1.592   3.811  11.311  0.3913 -0.4519 -0.6650
 8992SOL    HW238613   1.539   3.946  11.318 -0.8562 -0.3855 -1.0525
 8993SOL     OW38614   2.357   3.937   7.602  0.1057 -0.0106 -0.2002
 8993SOL    HW138615   2.350   3.992   7.524  0.5500  3.1096  1.9739
 8993SOL    HW238616   2.263   3.928   7.617  0.2998 -2.0204 -0.1835
 8994SOL     OW38617   4.071   0.363   3.597 -0.8907  0.3635 -0.8225
 8994SOL    HW138618   3.982   0.348   3.566 -1.3119  1.1526  0.0072
 8994SOL    HW238619   4.121   0.383   3.518  0.1174  1.5526  0.1117
 8995SOL     OW38620   3.877   4.617   4.597  1.1659 -0.0931  0.4883
 8995SOL    HW138621   3.942   4.548   4.607  0.8600 -0.7905 -2.3481
 8995SOL    HW238622   3.853   4.634   4.688 -0.1954 -2.2085  0.5086
 8996SOL     OW38623   2.387   1.239   6.618 -0.1307 -0.1373 -0.0083
 8996SOL    HW138624   2.457   1.302   6.634  1.5398 -2.3783  1.5357
 8996SOL    HW238625   2.363   1.215   6.707  1.2949  1.6544  0.8455
 8997SOL     OW38626   1.349   4.498  15.752 -0.6281 -0.0851  0.4038
 8997SOL    HW138627   1.416   4.513  15.686 -1.9747 -0.9265 -1.1598
 8997SOL    HW238628   1.331   4.589  15.775 -2.7690 -0.4405  0.1464
 8998SOL     OW38629   1.250   4.643   3.424  0.1186  0.0459 -0.0650
 8998SOL    HW138630   1.255   4.595   3.341 -1.2180 -1.4544  0.7163
 8998SOL    HW238631   1.216   4.570   3.476 -0.9486 -0.3197 -1.2589
 8999SOL     OW38632   4.475   2.992  11.920  0.1683  0.5126 -0.0395
 8999SOL    HW138633   4.484   3.056  11.848  1.3471 -0.5318 -0.8195
 8999SOL    HW238634   4.548   3.022  11.974 -0.7463 -0.3992  1.6769
 9000SOL     OW38635   1.553   2.937  17.634  0.2113  0.1733 -0.1022
 9000SOL    HW138636   1.599   2.865  17.677 -0.4331 -0.0462  0.2344
 9000SOL    HW238637   1.561   2.896  17.548  1.3291 -0.5076  0.3299
 9001SOL     OW38638   1.742   0.845   2.862 -0.3318  0.2854  0.1491
 9001SOL    HW138639   1.706   0.901   2.931 -0.5876  0.5968 -0.2436
 9001SOL    HW238640   1.833   0.874   2.870 -0.1808  0.1525 -1.0947
 9002SOL     OW38641   0.394   0.951   3.798 -0.5327 -0.7399  0.0546
 9002SOL    HW138642   0.326   1.002   3.754 -1.2927 -2.6627 -0.9850
 9002SOL    HW238643   0.343   0.940   3.879 -1.6572  1.6540 -0.3415
 9003SOL     OW38644   0.417   2.848   2.197  0.2272  0.3975  0.3359
 9003SOL    HW138645   0.439   2.755   2.188 -0.4398  0.5379 -2.4962
 9003SOL    HW238646   0.340   2.863   2.143  0.6280  0.9833 -0.0696
 9004SOL     OW38647   0.915   1.779   3.996  0.4902  0.5505  0.0605
 9004SOL    HW138648   0.950   1.742   4.077 -0.2839 -1.1410 -0.3741
 9004SOL    HW238649   0.990   1.821   3.953  1.6356 -0.8190  0.7120
 9005SOL     OW38650   2.904   4.569   3.309  0.5464  0.5794 -0.4975
 9005SOL    HW138651   2.835   4.505   3.292  2.6067 -2.2926  1.9171
 9005SOL    HW238652   2.933   4.595   3.221  0.3523  0.4032 -0.6126
 9006SOL     OW38653   4.405   3.041   8.227  0.0848  0.0713 -0.0355
 9006SOL    HW138654   4.354   2.961   8.219 -0.4891  0.2349  1.9845
 9006SOL    HW238655   4.471   3.006   8.287 -0.6092 -0.6403  0.3077
 9007SOL     OW38656   0.927   0.485   1.124  0.1523  0.0118  0.5173
 9007SOL    HW138657   0.917   0.580   1.128  1.0481  0.1006  0.7792
 9007SOL    HW238658   0.918   0.461   1.217  2.4008 -0.2318  0.6797
 9008SOL     OW38659   3.749   3.213   5.687 -0.8314  0.3057 -0.6016
 9008SOL    HW138660   3.734   3.133   5.738  0.7333  1.6652  1.9465
 9008SOL    HW238661   3.840   3.196   5.664 -0.6692  0.6103 -0.1699
 9009SOL     OW38662   2.309   3.643  10.532  0.4381 -0.1776 -0.3337
 9009SOL    HW138663   2.262   3.719  10.566  0.2140 -1.3796  2.0936
 9009SOL    HW238664   2.242   3.602  10.479 -2.2424 -0.0881  2.9789
 9010SOL     OW38665   1.650   3.643   4.565 -0.1133 -0.3141 -0.7478
 9010SOL    HW138666   1.699   3.568   4.532  1.0607  0.6870 -1.2762
 9010SOL    HW238667   1.672   3.632   4.657 -0.6441  0.2795 -0.5508
 9011SOL     OW38668   1.631   2.526  14.690 -0.5248 -0.3329 -0.1865
 9011SOL    HW138669   1.548   2.519  14.643  0.2616  0.4180 -1.6902
 9011SOL    HW238670   1.604   2.598  14.746 -2.2913 -2.1309  1.2584
 9012SOL     OW38671   0.933   4.120   4.145 -0.0496  0.2211  0.3153
 9012SOL    HW138672   1.002   4.152   4.086  0.2083 -0.8553  0.0237
 9012SOL    HW238673   0.980   4.099   4.226 -1.2040 -2.3649  0.3067
 9013SOL     OW38674   4.038   2.896  11.899  0.6761  0.0280  0.7137
 9013SOL    HW138675   3.993   2.974  11.868 -2.4393 -2.0961 -0.0232
 9013SOL    HW238676   3.985   2.867  11.972  1.6214 -2.4573  0.4120
 9014SOL     OW38677   3.926   3.718   9.346 -0.3074  0.2765  0.0327
 9014SOL    HW138678   3.990   3.727   9.275  1.0686 -0.3978  1.1933
 9014SOL    HW238679   3.890   3.806   9.355 -0.7346  0.0126  0.8581
 9015SOL     OW38680   0.650   0.067   3.102 -0.2179 -0.6790 -0.1591
 9015SOL    HW138681   0.665   0.038   3.012 -0.4452  1.9146 -1.0316
 9015SOL    HW238682   0.655   4.727   3.158 -0.0513 -0.8859 -0.4628
 9016SOL     OW38683   3.727   1.136   5.340  0.4293 -0.0484  0.4005
 9016SOL    HW138684   3.800   1.123   5.401  2.2871 -1.1529 -2.0520
 9016SOL    HW238685   3.770   1.186   5.271  1.5763 -1.0456  0.4029
 9017SOL     OW38686   3.947   1.451  12.056 -0.0809 -0.1556  0.0682
 9017SOL    HW138687   4.040   1.474  12.052 -0.1308 -0.1769 -1.1995
 9017SOL    HW238688   3.938   1.454  11.961  4.1653  0.7001 -0.3147
 9018SOL     OW38689   1.943   1.886  13.343  0.4979  0.1121 -0.6653
 9018SOL    HW138690   1.935   1.936  13.424  0.8822  1.8816 -1.7013
 9018SOL    HW238691   1.880   1.816  13.358  0.4927  0.4256  0.7476
 9019SOL     OW38692   2.027   1.552  12.013  0.1988 -0.0087  0.2605
 9019SOL    HW138693   1.935   1.578  12.022  1.2159  3.0576  1.8279
 9019SOL    HW238694   2.063   1.625  11.963 -0.3112 -2.4385 -3.6670
 9020SOL     OW38695   1.747   1.471   5.734 -0.0959  0.6235 -0.0548
 9020SOL    HW138696   1.729   1.377   5.724 -2.0471  0.6961  2.7846
 9020SOL    HW238697   1.708   1.500   5.651 -1.2982 -0.3891  0.1464
 9021SOL     OW38698   1.307   2.686   6.977  0.2571  0.2263  0.3208
 9021SOL    HW138699   1.329   2.713   7.066 -0.7204  0.5098  0.4787
 9021SOL    HW238700   1.214   2.696   6.954  0.1555 -2.5015 -0.4001
 9022SOL     OW38701   2.476   0.379   5.427 -0.0639 -0.2871 -0.6582
 9022SOL    HW138702   2.489   0.299   5.377  1.6306  1.0687 -2.3605
 9022SOL    HW238703   2.555   0.425   5.401  0.3739 -0.5101  0.3092
 9023SOL     OW38704   3.596   4.038   9.002 -0.1395 -0.1888 -0.3398
 9023SOL    HW138705   3.551   3.958   8.975 -0.6792  0.1945 -0.5664
 9023SOL    HW238706   3.684   4.003   9.014 -0.5389 -0.9225  0.4561
 9024SOL     OW38707   2.234   3.115  14.216 -0.4879 -0.8189  0.4113
 9024SOL    HW138708   2.185   3.181  14.265  1.0996 -2.2214  3.8908
 9024SOL    HW238709   2.272   3.071  14.292  1.1042 -2.5696 -1.4056
 9025SOL     OW38710   4.501   0.708   4.524  0.5217 -0.5606 -0.3751
 9025SOL    HW138711   4.454   0.707   4.440 -0.4451 -2.3348  0.1815
 9025SOL    HW238712   4.448   0.655   4.584  2.6518 -0.9902  1.1247
 9026SOL     OW38713   4.448   1.581   7.358  0.2402 -0.0267  0.6589
 9026SOL    HW138714   4.443   1.633   7.278  3.9011  1.4161  1.3618
 9026SOL    HW238715   4.496   1.500   7.340  0.9366  0.7129 -0.7562
 9027SOL     OW38716   0.733   2.177  11.507 -0.4587 -0.3351 -0.4050
 9027SOL    HW138717   0.675   2.190  11.432  0.1607  1.0664 -0.6521
 9027SOL    HW238718   0.731   2.260  11.554  0.8558  0.2324 -1.3407
 9028SOL     OW38719   4.399   2.633   7.627 -0.0107 -0.1321 -0.3486
 9028SOL    HW138720   4.411   2.554   7.680  1.3428  0.8243  0.8044
 9028SOL    HW238721   4.446   2.694   7.684 -1.2517  0.8986 -0.4257
 9029SOL     OW38722   4.567   4.143   5.559 -0.3396  0.0757 -0.3566
 9029SOL    HW138723   4.479   4.166   5.587 -0.3602 -0.5083  0.0331
 9029SOL    HW238724   4.572   4.048   5.563  0.6564 -0.0422 -3.8322
 9030SOL     OW38725   0.004   3.833   1.878 -0.6218 -0.0678 -0.4571
 9030SOL    HW138726   0.082   3.884   1.900 -0.1949 -0.8903 -0.0728
 9030SOL    HW238727   0.042   3.746   1.888 -3.0456 -0.8709  1.8437
 9031SOL     OW38728   0.266   2.342  11.119  0.0236  0.1067  0.2513
 9031SOL    HW138729   0.219   2.392  11.185 -0.9791 -0.1824 -0.2337
 9031SOL    HW238730   0.197   2.279  11.097 -0.2110 -0.2193  1.9719
 9032SOL     OW38731   3.391   2.655   9.778  0.1018  0.3049 -0.5583
 9032SOL    HW138732   3.377   2.593   9.849  0.4702 -0.8247 -1.4685
 9032SOL    HW238733   3.466   2.614   9.734 -0.2470 -1.0548  0.1110
 9033SOL     OW38734   1.283   3.446   2.954 -0.2860 -0.0904 -0.4350
 9033SOL    HW138735   1.229   3.389   3.009 -0.0030 -0.5114 -0.5964
 9033SOL    HW238736   1.333   3.374   2.917 -0.2918 -1.4601  2.2527
 9034SOL     OW38737   4.390   3.203  13.396  0.2294 -0.0296 -0.1989
 9034SOL    HW138738   4.387   3.260  13.319 -0.2272  1.7753  1.1794
 9034SOL    HW238739   4.335   3.127  13.377  1.4032  0.3214 -5.0972
 9035SOL     OW38740   4.583   0.021   9.393 -0.1401  0.0508 -0.0900
 9035SOL    HW138741   4.619   4.736   9.478 -0.4250 -0.1045 -0.0100
 9035SOL    HW238742   4.490   0.007   9.410 -0.1282  1.5838  1.3341
 9036SOL     OW38743   1.731   2.926   7.595 -0.5959  0.9389 -0.1942
 9036SOL    HW138744   1.663   2.950   7.532 -1.5243  0.0176  0.4606
 9036SOL    HW238745   1.731   2.830   7.598 -2.1110  0.9457 -0.1423
 9037SOL     OW38746   4.737   2.540   6.948 -0.0868 -0.1042 -0.5643
 9037SOL    HW138747   0.050   2.459   6.943  0.1985 -0.1781  3.2939
 9037SOL    HW238748   4.723   2.543   7.043 -2.0061  3.5534 -0.9759
 9038SOL     OW38749   0.327   3.434   7.752  0.5175 -0.3237 -0.0857
 9038SOL    HW138750   0.278   3.516   7.742 -0.5197 -0.9309  0.0707
 9038SOL    HW238751   0.409   3.461   7.710  0.5636  1.5306  1.2059
 9039SOL     OW38752   1.267   2.637  14.324  0.6307  0.3258  0.5597
 9039SOL    HW138753   1.177   2.605  14.329  0.7664  0.0585  1.3299
 9039SOL    HW238754   1.266   2.703  14.254 -1.6735 -1.6013 -1.2174
 9040SOL     OW38755   2.394   4.148   2.943  0.2539  0.1705 -0.1621
 9040SOL    HW138756   2.445   4.080   2.900 -0.2384  0.2591 -0.8696
 9040SOL    HW238757   2.306   4.141   2.905 -1.7184  0.2275  4.3350
 9041SOL     OW38758   2.362   2.503   2.216  0.5530  0.3790  0.1101
 9041SOL    HW138759   2.346   2.595   2.238  1.2555  0.2208  1.3433
 9041SOL    HW238760   2.299   2.495   2.145 -2.6579  0.6014  2.9320
 9042SOL     OW38761   2.719   2.182   3.627  0.3463 -0.6021 -0.0591
 9042SOL    HW138762   2.722   2.095   3.667 -0.0965 -1.2350 -1.4124
 9042SOL    HW238763   2.637   2.164   3.581 -0.3227 -1.4114  1.4313
 9043SOL     OW38764   0.998   1.855   5.932 -0.2982 -0.5109  0.1290
 9043SOL    HW138765   1.072   1.914   5.947 -0.4071  0.2438 -2.3285
 9043SOL    HW238766   0.924   1.914   5.927  1.3390  1.4402 -1.2053
 9044SOL     OW38767   1.287   1.734   8.782 -0.3575 -0.6014 -0.8423
 9044SOL    HW138768   1.368   1.704   8.741  0.6891  1.5169 -0.3037
 9044SOL    HW238769   1.250   1.648   8.801 -0.2104 -0.6793 -0.9138
 9045SOL     OW38770   1.106   3.595   5.798 -0.6260 -0.2083  0.3293
 9045SOL    HW138771   1.109   3.500   5.786 -0.0356 -0.4464  2.4309
 9045SOL    HW238772   1.074   3.609   5.887 -0.0860 -0.2866  0.5349
 9046SOL     OW38773   2.715   1.295  10.415 -0.4232  0.0279 -0.5165
 9046SOL    HW138774   2.742   1.346  10.491  2.0930  1.0910 -2.1275
 9046SOL    HW238775   2.683   1.363  10.355 -3.5184 -1.6620 -0.8191
 9047SOL     OW38776   1.919   2.842   2.947  0.0870  0.0260 -0.1210
 9047SOL    HW138777   1.857   2.904   2.909  1.2850  1.9931  1.1575
 9047SOL    HW238778   1.984   2.850   2.877 -0.5531  0.2769 -0.6855
 9048SOL     OW38779   1.921   3.052   2.535  0.3172 -0.0260 -0.3196
 9048SOL    HW138780   1.979   3.032   2.609 -0.4680 -0.0313  0.2980
 9048SOL    HW238781   1.980   3.047   2.460  0.5122 -0.7995 -0.1152
 9049SOL     OW38782   1.326   3.374   5.912 -0.1790 -0.4268 -0.0131
 9049SOL    HW138783   1.338   3.290   5.956  0.5398 -0.7862 -0.8866
 9049SOL    HW238784   1.242   3.365   5.866  1.4568 -2.7147 -2.5723
 9050SOL     OW38785   1.737   1.112   7.792  0.5045  0.0356 -0.0452
 9050SOL    HW138786   1.686   1.084   7.716 -0.7570  0.2102  0.7318
 9050SOL    HW238787   1.752   1.032   7.842  1.1066  0.5846  0.6685
 9051SOL     OW38788   3.628   0.560  12.677 -0.0101  0.3341 -0.0161
 9051SOL    HW138789   3.692   0.496  12.645  2.1416  2.0505  0.8536
 9051SOL    HW238790   3.551   0.553  12.620 -1.0018 -0.5058  1.4302
 9052SOL     OW38791   2.323   0.276   5.001 -0.0033 -0.3608  0.1101
 9052SOL    HW138792   2.230   0.262   5.014  0.1177  0.2444  1.5773
 9052SOL    HW238793   2.335   0.283   4.906  1.9538  0.2248  0.4028
 9053SOL     OW38794   0.649   0.540   5.118  0.1653  0.1759  0.4340
 9053SOL    HW138795   0.675   0.490   5.195 -0.9336 -0.4827  0.3715
 9053SOL    HW238796   0.687   0.486   5.049 -0.5195 -0.9502  0.9357
 9054SOL     OW38797   2.419   4.140   5.670  0.5127  0.3130  0.2776
 9054SOL    HW138798   2.471   4.217   5.692  3.4481 -0.9355 -2.2827
 9054SOL    HW238799   2.453   4.131   5.581  0.6917 -1.6557  0.5406
 9055SOL     OW38800   0.853   2.430   6.260 -0.7266  0.1291 -0.0672
 9055SOL    HW138801   0.787   2.477   6.310 -0.2559  1.1633 -0.4362
 9055SOL    HW238802   0.808   2.414   6.177  1.2323 -0.7726 -0.9458
 9056SOL     OW38803   2.127   3.136   5.990  0.2077 -0.1537 -0.4204
 9056SOL    HW138804   2.125   3.222   5.950 -1.5144 -1.0090 -2.1732
 9056SOL    HW238805   2.215   3.128   6.026 -0.1225  2.5990  0.9195
 9057SOL     OW38806   4.320   1.799   7.891  0.0963 -0.3315 -0.5445
 9057SOL    HW138807   4.322   1.839   7.804  1.7192 -1.6921 -1.1380
 9057SOL    HW238808   4.414   1.808   7.909  0.3213 -0.5309 -1.5902
 9058SOL     OW38809   0.163   0.667  12.491 -0.3293  0.2063  0.0455
 9058SOL    HW138810   0.154   0.762  12.484 -2.3871 -0.1988 -2.5668
 9058SOL    HW238811   0.072   0.639  12.483 -0.6597  1.3780 -0.3980
 9059SOL     OW38812   1.585   2.492   6.361 -0.0818 -0.1247  0.7835
 9059SOL    HW138813   1.538   2.563   6.319  2.7166  0.3472 -1.5361
 9059SOL    HW238814   1.530   2.420   6.331  1.3849 -0.8979 -0.0610
 9060SOL     OW38815   1.737   1.353   9.822 -0.1734  0.1303 -0.8444
 9060SOL    HW138816   1.802   1.291   9.790  0.0799  0.8806 -1.7825
 9060SOL    HW238817   1.666   1.295   9.851 -0.0389 -0.1264 -1.0342
 9061SOL     OW38818   3.705   3.641  10.906  0.0544  0.3442  0.0408
 9061SOL    HW138819   3.637   3.610  10.847  0.0698 -1.5174  0.9872
 9061SOL    HW238820   3.662   3.616  10.988 -2.0344  2.0897 -0.5343
 9062SOL     OW38821   3.201   0.112  11.950 -0.7797 -0.6053 -0.1434
 9062SOL    HW138822   3.289   0.121  11.914 -1.3304 -1.2283 -1.6679
 9062SOL    HW238823   3.143   0.106  11.874  0.0227 -1.1953 -0.7146
 9063SOL     OW38824   2.687   1.231   4.506 -0.0983  0.3345 -0.2694
 9063SOL    HW138825   2.720   1.278   4.429 -0.2614  0.1113 -0.4756
 9063SOL    HW238826   2.728   1.285   4.574  1.1760 -0.9792  0.0024
 9064SOL     OW38827   1.022   0.113  14.727  0.0458 -0.1485  0.6452
 9064SOL    HW138828   1.046   0.163  14.649  1.9386 -2.5310 -0.2803
 9064SOL    HW238829   0.975   0.181  14.776  0.8163  1.9338 -1.5011
 9065SOL     OW38830   3.548   4.063  17.484  0.7645  0.3918 -0.2875
 9065SOL    HW138831   3.610   4.136  17.477 -0.2833  1.3129 -0.1160
 9065SOL    HW238832   3.487   4.075  17.410 -0.6017 -0.6737  0.6656
 9066SOL     OW38833   0.076   1.394   0.771 -0.3165 -0.0088  0.6787
 9066SOL    HW138834   0.040   1.368   0.856  1.0738 -1.9271  0.6621
 9066SOL    HW238835   0.168   1.402   0.793  0.0815 -1.2246 -0.5925
 9067SOL     OW38836   2.206   0.085   6.625  0.5890 -0.5479 -0.0934
 9067SOL    HW138837   2.161   0.031   6.561  1.0416  0.0075 -0.8721
 9067SOL    HW238838   2.294   0.068   6.592  1.0485  0.9807  0.3691
 9068SOL     OW38839   4.098   1.123   7.619 -0.3159 -0.3951  0.3442
 9068SOL    HW138840   4.137   1.166   7.695 -0.5777  1.9677 -0.8702
 9068SOL    HW238841   4.144   1.038   7.618 -0.4391 -0.4559 -0.9908
 9069SOL     OW38842   2.753   4.454  16.819  0.1543  0.0328  0.1556
 9069SOL    HW138843   2.750   4.491  16.907 -0.0707  0.7514 -0.1592
 9069SOL    HW238844   2.663   4.474  16.793 -0.9980 -0.4890  3.6529
 9070SOL     OW38845   0.245   4.168   8.066  0.4148  0.2140  0.7481
 9070SOL    HW138846   0.303   4.159   8.141 -0.4940  0.1119  1.4417
 9070SOL    HW238847   0.291   4.131   7.991  0.0655  0.7903  0.2563
 9071SOL     OW38848   4.009   1.642   6.956 -0.0641  0.3036  0.2654
 9071SOL    HW138849   4.028   1.549   6.946  1.5643  0.6476  0.2742
 9071SOL    HW238850   3.967   1.651   6.870  0.0941 -1.5806  0.0016
 9072SOL     OW38851   1.024   4.580   1.278 -0.5307 -0.5825 -0.6080
 9072SOL    HW138852   0.980   4.665   1.280 -1.9008 -1.3359  1.8402
 9072SOL    HW238853   0.955   4.527   1.238 -1.4276 -0.8590  1.3111
 9073SOL     OW38854   1.556   4.684  12.120  0.1466  0.1532  0.0566
 9073SOL    HW138855   1.643   4.643  12.120 -0.2627 -0.7324  0.0528
 9073SOL    HW238856   1.567   0.001  12.198 -0.5564 -0.2941  0.4645
 9074SOL     OW38857   4.571   0.479  11.578  0.1205 -0.0305  0.1824
 9074SOL    HW138858   4.605   0.452  11.493  1.7127 -1.3041  1.2234
 9074SOL    HW238859   4.579   0.390  11.612 -1.3569 -0.8360 -1.6150
 9075SOL     OW38860   0.216   4.497  17.340  0.6084 -0.3398  0.3615
 9075SOL    HW138861   0.205   4.416  17.289 -3.2373 -0.7356  1.8177
 9075SOL    HW238862   0.292   4.541  17.303 -0.6330 -0.7717 -2.7707
 9076SOL     OW38863   0.240   1.960   7.850 -0.0469 -0.0583  0.1693
 9076SOL    HW138864   0.237   2.048   7.886 -0.8293  0.3718 -0.9528
 9076SOL    HW238865   0.321   1.921   7.882  0.4877  0.2614 -0.8183
 9077SOL     OW38866   1.517   0.520   9.453 -0.1831  0.4031  0.6767
 9077SOL    HW138867   1.566   0.528   9.371 -0.8258 -1.5847  0.1065
 9077SOL    HW238868   1.586   0.479   9.505 -0.4126  2.7362  2.8150
 9078SOL     OW38869   0.818   1.223   1.747 -0.2452  0.4193 -0.6367
 9078SOL    HW138870   0.890   1.170   1.780 -1.1123 -0.1101  0.3900
 9078SOL    HW238871   0.743   1.165   1.736  1.2017 -1.1788 -2.0971
 9079SOL     OW38872   3.326   2.688   3.365  0.1292 -0.2206  0.3876
 9079SOL    HW138873   3.421   2.682   3.355 -0.0256 -1.5514 -0.3136
 9079SOL    HW238874   3.294   2.608   3.406  0.7544  1.0114  3.3069
 9080SOL     OW38875   1.320   0.639   1.643 -0.3137 -0.3437 -0.2800
 9080SOL    HW138876   1.402   0.685   1.623 -0.0917  0.1442  1.7656
 9080SOL    HW238877   1.348   0.584   1.716 -1.5088 -0.1833  0.2936
 9081SOL     OW38878   4.538   3.590   1.793 -0.1791  0.1211 -0.1192
 9081SOL    HW138879   4.503   3.569   1.880  0.1656  2.6727  0.6343
 9081SOL    HW238880   4.629   3.563   1.804 -0.4563 -0.8221 -0.1543
 9082SOL     OW38881   2.512   0.675   1.922  0.2013 -0.2074 -0.8363
 9082SOL    HW138882   2.456   0.650   1.849  1.4164 -0.0657 -1.8192
 9082SOL    HW238883   2.483   0.764   1.941  1.1140 -0.2691  0.9475
 9083SOL     OW38884   2.651   4.421   0.193 -0.3333  0.0859  0.2017
 9083SOL    HW138885   2.710   4.401   0.265 -0.9572 -1.0082  0.3987
 9083SOL    HW238886   2.563   4.408   0.227 -0.5706 -1.2851 -0.9560
 9084SOL     OW38887   3.025   3.867   6.998  0.4820 -0.5351 -0.2168
 9084SOL    HW138888   3.051   3.792   7.052 -0.4918 -1.0821 -0.5080
 9084SOL    HW238889   3.099   3.873   6.938 -0.3333  0.8042 -1.0900
 9085SOL     OW38890   1.756   2.187   1.667  0.1331  0.8667 -0.5446
 9085SOL    HW138891   1.692   2.152   1.728  0.5316  1.9250  0.4709
 9085SOL    HW238892   1.835   2.137   1.688 -1.5234 -1.3517  0.3739
 9086SOL     OW38893   3.977   0.453  13.463  0.1144 -0.5019  0.3816
 9086SOL    HW138894   3.919   0.509  13.514  2.5995  2.6751 -0.2619
 9086SOL    HW238895   3.981   0.374  13.518 -0.7489  1.1058  2.7536
 9087SOL     OW38896   2.111   1.187   0.134  0.4900 -0.4155 -0.1368
 9087SOL    HW138897   2.104   1.092   0.123  0.9600 -0.2293 -2.1528
 9087SOL    HW238898   2.019   1.201   0.158  0.0700 -2.3996 -0.5119
 9088SOL     OW38899   3.409   1.567  10.968  0.3913  0.1064 -0.3672
 9088SOL    HW138900   3.347   1.505  11.007  0.3605  0.4009  0.0591
 9088SOL    HW238901   3.452   1.508  10.907 -0.0285  0.8402 -1.3820
 9089SOL     OW38902   3.531   3.530  17.667  0.1712 -0.1951  0.3479
 9089SOL    HW138903   3.608   3.580  17.642  1.8404 -2.4393  0.9844
 9089SOL    HW238904   3.513   3.586  17.742  0.3584  1.1202 -0.5986
 9090SOL     OW38905   0.421   2.150   8.636 -0.1606 -0.4432 -0.1424
 9090SOL    HW138906   0.514   2.159   8.657 -0.2590  2.1564 -0.7541
 9090SOL    HW238907   0.370   2.115   8.708 -1.4081 -1.2770 -1.4423
 9091SOL     OW38908   2.405   0.802   5.711  0.4919  0.3084 -0.6564
 9091SOL    HW138909   2.445   0.732   5.660  1.0153  0.0750  0.0696
 9091SOL    HW238910   2.389   0.867   5.643 -0.3334 -1.8977 -2.5711
 9092SOL     OW38911   3.448   1.306   1.508 -0.7682 -0.1135  0.4697
 9092SOL    HW138912   3.497   1.224   1.514  0.2799  0.5087  0.3282
 9092SOL    HW238913   3.432   1.316   1.414  1.5834 -0.6767  0.0231
 9093SOL     OW38914   3.073   0.024   4.486 -0.6783 -0.0927  0.3544
 9093SOL    HW138915   3.060   4.668   4.474 -0.1634 -0.5918  3.5623
 9093SOL    HW238916   3.002   0.057   4.432  0.2784  0.0905 -0.7899
 9094SOL     OW38917   2.654   3.817   2.421  0.1576 -0.0985  0.2305
 9094SOL    HW138918   2.582   3.809   2.484 -1.1255 -1.3766 -1.3976
 9094SOL    HW238919   2.723   3.844   2.481  0.6937 -1.3623  0.1903
 9095SOL     OW38920   4.623   1.367  13.042 -0.1620  0.0102  0.3026
 9095SOL    HW138921   4.603   1.279  13.010 -0.5322 -0.0954  0.8318
 9095SOL    HW238922   4.686   1.353  13.114  0.6611  2.6932  0.1097
 9096SOL     OW38923   2.412   3.126   8.085 -0.7295  0.2073 -0.2239
 9096SOL    HW138924   2.364   3.122   8.001 -0.2688  1.3564 -0.5325
 9096SOL    HW238925   2.490   3.075   8.061 -0.3959  0.5338  0.1856
 9097SOL     OW38926   3.313   4.510   4.594 -0.5717  0.9197  0.1282
 9097SOL    HW138927   3.298   4.490   4.502 -2.1600 -0.3565  0.6752
 9097SOL    HW238928   3.316   4.424   4.637  0.8969 -0.1882 -2.1753
 9098SOL     OW38929   3.966   0.255   7.701 -0.3683 -0.4933 -0.0243
 9098SOL    HW138930   3.925   0.222   7.781 -0.2828  1.1834  0.7027
 9098SOL    HW238931   4.015   0.178   7.670 -0.4419  0.1191 -1.6699
 9099SOL     OW38932   2.676   0.615   6.082  0.2557  0.6917 -0.4092
 9099SOL    HW138933   2.762   0.578   6.104 -0.4317 -1.3155 -1.0277
 9099SOL    HW238934   2.660   0.668   6.160  2.2376  0.2310  0.3318
 9100SOL     OW38935   3.115   2.062   8.115 -0.6635 -0.2961  0.1594
 9100SOL    HW138936   3.088   1.973   8.138 -0.5689 -0.8723 -1.9897
 9100SOL    HW238937   3.024   2.089   8.101 -0.9538 -1.0988  0.4789
 9101SOL     OW38938   1.544   1.796   2.652  0.1684 -0.3947 -0.2419
 9101SOL    HW138939   1.481   1.857   2.692  2.2507  2.0787 -0.7582
 9101SOL    HW238940   1.543   1.730   2.722  1.3435 -0.8052 -0.6175
 9102SOL     OW38941   2.149   0.859   4.723 -0.2283  0.1767 -0.1132
 9102SOL    HW138942   2.179   0.946   4.696 -1.7537  0.7582  0.0709
 9102SOL    HW238943   2.229   0.814   4.749  2.1798  4.8962  0.6275
 9103SOL     OW38944   1.549   2.600   5.252  0.2325 -0.1896  0.3137
 9103SOL    HW138945   1.633   2.645   5.242  0.8466 -1.8086 -2.0577
 9103SOL    HW238946   1.513   2.642   5.330  0.4693  2.1674 -0.8552
 9104SOL     OW38947   2.568   1.886  10.815 -0.0333  0.2765 -0.1597
 9104SOL    HW138948   2.546   1.916  10.903 -0.8462 -2.0365  0.4454
 9104SOL    HW238949   2.537   1.797  10.795  2.0035 -0.5668  0.3607
 9105SOL     OW38950   3.772   2.830   2.688  0.4713 -0.2247  0.5343
 9105SOL    HW138951   3.760   2.833   2.783  0.0397 -2.5104  0.5562
 9105SOL    HW238952   3.868   2.833   2.681  0.3241  1.7882 -0.6620
 9106SOL     OW38953   2.656   2.764   4.986  0.3543 -0.1496 -0.0628
 9106SOL    HW138954   2.729   2.714   5.023  1.8433  1.2676 -1.1055
 9106SOL    HW238955   2.619   2.696   4.930 -1.7533  0.8816  0.0699
 9107SOL     OW38956   4.330   1.305   6.155 -0.0780  0.2834  0.2914
 9107SOL    HW138957   4.421   1.319   6.179  0.3821  1.1798 -1.9419
 9107SOL    HW238958   4.327   1.210   6.141 -1.3127  0.4827 -0.7425
 9108SOL     OW38959   1.898   2.162   7.100 -0.1687 -0.4186 -0.1768
 9108SOL    HW138960   1.880   2.200   7.014 -2.8441 -2.0120 -0.3009
 9108SOL    HW238961   1.959   2.228   7.133  0.0683  0.0068 -1.4698
 9109SOL     OW38962   1.102   1.771   2.444 -0.0017 -0.0320 -0.1391
 9109SOL    HW138963   1.072   1.701   2.386  0.0992  0.1156 -0.3680
 9109SOL    HW238964   1.022   1.820   2.461 -0.6355 -1.0802 -0.1102
 9110SOL     OW38965   4.587   2.298   8.887 -0.2099  0.3019 -0.6193
 9110SOL    HW138966   4.587   2.268   8.796 -1.6038 -2.5441  0.3323
 9110SOL    HW238967   4.539   2.229   8.932  1.4246 -0.5359 -0.1885
 9111SOL     OW38968   4.498   1.196  12.007  0.0833 -0.0915  0.5626
 9111SOL    HW138969   4.517   1.130  12.074  1.0154  1.0016  1.3728
 9111SOL    HW238970   4.498   1.143  11.927  0.6297  1.1178 -0.2426
 9112SOL     OW38971   3.493   1.558  14.140  0.2735 -0.4928  0.6221
 9112SOL    HW138972   3.550   1.628  14.170  0.5471 -0.3936 -0.1234
 9112SOL    HW238973   3.429   1.606  14.088  0.7420 -0.4130  0.1227
 9113SOL     OW38974   4.356   4.157   0.233  0.2733 -0.1823 -0.1488
 9113SOL    HW138975   4.289   4.118   0.289 -0.0454  0.0273 -0.3835
 9113SOL    HW238976   4.309   4.168   0.150  0.9042 -3.4254 -0.9381
 9114SOL     OW38977   3.022   1.926   4.632 -0.9355 -0.1640 -0.0029
 9114SOL    HW138978   3.105   1.966   4.658 -0.7841 -0.4194 -0.0950
 9114SOL    HW238979   3.048   1.869   4.559 -0.5976  0.1416 -0.1171
 9115SOL     OW38980   2.149   1.010   3.788 -0.6288  0.1030 -0.6735
 9115SOL    HW138981   2.065   0.966   3.794  0.0754 -1.2825 -0.8525
 9115SOL    HW238982   2.118   1.100   3.796 -0.2675  0.1074  0.7462
 9116SOL     OW38983   3.247   2.603   0.809 -0.0030 -0.0868 -0.0403
 9116SOL    HW138984   3.213   2.606   0.898  0.5277 -0.5002  0.1720
 9116SOL    HW238985   3.341   2.611   0.825  0.1578 -0.8682 -0.6265
 9117SOL     OW38986   3.684   0.122   7.179 -0.0101 -0.2666  0.7730
 9117SOL    HW138987   3.682   0.027   7.171  1.9354 -0.2282 -0.1530
 9117SOL    HW238988   3.779   0.130   7.186 -0.0833  2.2980 -1.4525
 9118SOL     OW38989   1.541   1.684   0.553 -0.2428 -0.1208 -0.4794
 9118SOL    HW138990   1.531   1.748   0.483 -2.2305  0.2772  0.1506
 9118SOL    HW238991   1.609   1.730   0.602 -2.4736  2.6324  0.0575
 9119SOL     OW38992   2.443   2.883   7.743 -0.0349  0.3919 -0.0615
 9119SOL    HW138993   2.470   2.940   7.671  0.3514 -0.5568 -0.6680
 9119SOL    HW238994   2.351   2.907   7.749 -0.9270 -2.8249 -0.5337
 9120SOL     OW38995   0.519   2.186   8.331 -0.7599  0.2924 -0.0768
 9120SOL    HW138996   0.470   2.159   8.408  0.2911  1.3786  0.9669
 9120SOL    HW238997   0.608   2.165   8.357 -0.5717  0.5518 -0.4987
 9121SOL     OW38998   4.094   2.922  17.643  0.3922  0.0674  0.0846
 9121SOL    HW138999   4.087   2.826  17.649  0.6596 -0.0729 -1.9753
 9121SOL    HW239000   4.181   2.917  17.605 -0.3340  0.0109 -1.5765
 9122SOL     OW39001   2.931   2.794   1.042 -0.1699 -0.3123  0.2164
 9122SOL    HW139002   2.984   2.718   1.064  0.0066 -0.5032 -0.8493
 9122SOL    HW239003   2.984   2.873   1.032  0.1784 -0.2043  2.9767
 9123SOL     OW39004   0.348   1.972  12.202  0.0706 -0.0156  0.2756
 9123SOL    HW139005   0.296   2.023  12.265 -0.4106 -1.5545  1.1115
 9123SOL    HW239006   0.299   1.890  12.199 -1.3364  0.8511 -0.5368
 9124SOL     OW39007   2.784   2.400  11.357  0.0521  0.3191 -0.3254
 9124SOL    HW139008   2.831   2.410  11.439  0.2904  1.4227 -0.5930
 9124SOL    HW239009   2.723   2.330  11.379 -1.0716  1.8157  1.3533
 9125SOL     OW39010   1.240   2.638   5.314 -0.1282  0.3635  0.5264
 9125SOL    HW139011   1.159   2.603   5.279 -0.8767  2.5379  0.0902
 9125SOL    HW239012   1.298   2.562   5.314  0.6694  0.9574  0.3126
 9126SOL     OW39013   4.396   3.835   3.485  0.6265 -0.0545 -0.0026
 9126SOL    HW139014   4.378   3.759   3.431  2.0934 -1.3247  1.2898
 9126SOL    HW239015   4.330   3.895   3.451  1.5701  2.1115  1.9663
 9127SOL     OW39016   3.540   4.070   6.248 -0.1033  0.0606  0.0114
 9127SOL    HW139017   3.623   4.076   6.201 -0.3429  1.8072 -0.1708
 9127SOL    HW239018   3.569   4.102   6.334  0.3160  0.8961 -0.4444
 9128SOL     OW39019   2.683   4.239   6.785 -0.1972  0.3488 -0.1055
 9128SOL    HW139020   2.673   4.334   6.797  5.8133  1.0512 -0.4930
 9128SOL    HW239021   2.697   4.202   6.872  3.6330 -1.4017 -1.4645
 9129SOL     OW39022   2.985   4.644   4.952  0.1721 -0.0909 -0.3845
 9129SOL    HW139023   2.926   4.717   4.931 -0.1228 -0.5152 -1.0359
 9129SOL    HW239024   3.049   4.657   4.882  1.4728  2.3645  1.2706
 9130SOL     OW39025   2.421   0.542   7.481 -0.4207 -0.2054  0.0983
 9130SOL    HW139026   2.378   0.483   7.418  0.3760 -0.3738 -0.2890
 9130SOL    HW239027   2.419   0.622   7.430 -1.0123  0.2575  0.8533
 9131SOL     OW39028   0.754   0.003   4.497  0.8868  0.1063 -0.0310
 9131SOL    HW139029   0.824   0.042   4.444  0.9009 -0.4714 -0.4476
 9131SOL    HW239030   0.791   4.653   4.511 -3.2448 -1.5621  0.3323
 9132SOL     OW39031   3.354   0.014  12.280  0.8293  0.5007  0.0245
 9132SOL    HW139032   3.365   4.658  12.293 -0.5340  0.4383  0.7245
 9132SOL    HW239033   3.440   0.047  12.306  1.6141 -0.0913 -1.8181
 9133SOL     OW39034   2.183   2.548   4.321 -0.7207 -0.5599  0.4695
 9133SOL    HW139035   2.122   2.513   4.386  0.1340 -0.3468  1.3978
 9133SOL    HW239036   2.132   2.560   4.241  0.2263  0.0973 -0.0306
 9134SOL     OW39037   3.066   1.856   5.275  0.0699  0.3513 -0.3174
 9134SOL    HW139038   2.994   1.805   5.238  0.3804 -0.3256  0.0144
 9134SOL    HW239039   3.134   1.789   5.283 -0.1920 -0.0360 -1.2303
 9135SOL     OW39040   2.848   3.042   6.186 -0.1579 -0.3307  0.5252
 9135SOL    HW139041   2.837   2.957   6.144 -1.5040  0.4379 -0.6452
 9135SOL    HW239042   2.794   3.101   6.134 -0.3751 -1.2700 -0.3235
 9136SOL     OW39043   1.074   2.711   6.839 -0.3398 -0.0168  0.2821
 9136SOL    HW139044   1.013   2.761   6.785  0.5131  0.7340 -0.0001
 9136SOL    HW239045   1.018   2.713   6.916 -0.2106 -0.6704  0.3869
 9137SOL     OW39046   4.469   3.544   8.397  0.1284 -0.0149 -0.1300
 9137SOL    HW139047   4.397   3.607   8.399  0.0102 -0.1291 -0.9348
 9137SOL    HW239048   4.426   3.467   8.361 -0.1209  0.4902 -0.9206
 9138SOL     OW39049   2.094   2.232  16.927 -0.0912  0.7187 -0.2458
 9138SOL    HW139050   2.040   2.216  16.850  2.4284  1.1951 -2.1218
 9138SOL    HW239051   2.133   2.145  16.933 -1.0608  0.3346  0.4236
 9139SOL     OW39052   0.017   0.747   5.530 -0.2646 -0.6243 -0.6912
 9139SOL    HW139053   0.052   0.739   5.619 -1.5973 -0.2272 -0.1310
 9139SOL    HW239054   0.065   0.676   5.487 -1.6035 -1.0713 -1.4337
 9140SOL     OW39055   2.748   0.858   6.643  0.0843 -0.3630  0.0408
 9140SOL    HW139056   2.757   0.953   6.642  0.8621 -0.4535 -1.3831
 9140SOL    HW239057   2.771   0.836   6.733  0.7285  0.8827  0.1671
 9141SOL     OW39058   3.547   3.507   8.527  0.2228  0.0363 -0.2282
 9141SOL    HW139059   3.484   3.468   8.468  0.2202 -1.1395  0.5520
 9141SOL    HW239060   3.507   3.494   8.613  2.3230  2.6132  1.1359
 9142SOL     OW39061   3.536   1.547  17.412  0.1147 -0.2454  0.1074
 9142SOL    HW139062   3.478   1.548  17.488 -0.2530  2.1857 -0.2028
 9142SOL    HW239063   3.527   1.637  17.380  1.6957 -0.2181 -0.2247
 9143SOL     OW39064   0.376   0.812   5.710 -0.1804  0.0638  0.1295
 9143SOL    HW139065   0.370   0.907   5.704  2.3167  0.2362  0.2887
 9143SOL    HW239066   0.287   0.781   5.697 -0.5169  1.5807 -1.1457
 9144SOL     OW39067   3.733   4.191   7.871 -0.0296 -0.4292  0.5542
 9144SOL    HW139068   3.778   4.276   7.876  0.2832 -0.5802  0.2382
 9144SOL    HW239069   3.790   4.135   7.924 -0.6050 -1.6722 -0.1507
 9145SOL     OW39070   4.634   2.459   3.980 -0.5067  0.0199  0.2951
 9145SOL    HW139071   4.727   2.450   3.958 -0.5779 -0.4414  0.1898
 9145SOL    HW239072   4.591   2.397   3.921 -1.8143 -0.1545  1.4281
 9146SOL     OW39073   4.710   3.224  17.206  0.2467  0.1770  0.7418
 9146SOL    HW139074   4.733   3.201  17.116  1.9376  2.0737  0.6936
 9146SOL    HW239075   4.649   3.153  17.227  0.4862 -1.4887 -4.0506
 9147SOL     OW39076   1.848   4.334   7.897  0.3925  0.3409 -0.2992
 9147SOL    HW139077   1.938   4.366   7.900  0.3199  0.3412  1.7377
 9147SOL    HW239078   1.822   4.379   7.818 -0.0282 -0.7147 -0.7667
 9148SOL     OW39079   0.207   2.011   4.164 -0.7405 -0.4134 -0.5161
 9148SOL    HW139080   0.268   2.072   4.123 -1.1203 -0.4468 -1.1177
 9148SOL    HW239081   0.130   2.063   4.143 -0.9476 -0.2172  0.7120
 9149SOL     OW39082   1.131   0.038  10.944 -0.4096 -0.6062  0.2152
 9149SOL    HW139083   1.090   0.059  11.027 -1.5122 -0.6656 -0.3096
 9149SOL    HW239084   1.153   0.124  10.907 -0.4747 -0.4716  0.4929
 9150SOL     OW39085   0.996   0.217  16.922 -0.3823  0.1839  0.5992
 9150SOL    HW139086   1.006   0.129  16.959 -0.0325 -0.3891 -0.8338
 9150SOL    HW239087   0.969   0.265  17.000 -0.8542 -1.0874  1.2087
 9151SOL     OW39088   4.605   4.205  13.212  0.0133  0.4881 -0.6727
 9151SOL    HW139089   4.629   4.252  13.292 -0.0980 -0.9082  0.1729
 9151SOL    HW239090   4.512   4.182  13.219  0.6307 -1.5141  0.9880
 9152SOL     OW39091   2.919   2.865   2.428 -0.1725  0.2553 -1.0891
 9152SOL    HW139092   2.986   2.872   2.360 -0.7538  0.8051 -1.6052
 9152SOL    HW239093   2.851   2.923   2.392 -1.2998 -0.6777 -0.4719
 9153SOL     OW39094   2.605   0.623   8.738  0.3968  0.3469 -0.3269
 9153SOL    HW139095   2.624   0.613   8.645 -0.9770 -2.2474 -0.3235
 9153SOL    HW239096   2.582   0.716   8.738 -1.4605 -0.1058 -2.6023
 9154SOL     OW39097   1.503   1.665   0.239  0.2631  0.2482 -0.0212
 9154SOL    HW139098   1.488   1.671   0.145 -1.3856  1.7874  0.3163
 9154SOL    HW239099   1.597   1.647   0.241 -0.2107 -1.9548  1.7962
 9155SOL     OW39100   4.583   1.465   2.710  0.1064  0.2820 -0.0199
 9155SOL    HW139101   4.506   1.497   2.662  1.0325  0.9048 -1.0667
 9155SOL    HW239102   4.609   1.533   2.771  2.7526  0.7245 -1.6794
 9156SOL     OW39103   1.321   2.511   2.076 -1.0321 -0.0295 -0.7259
 9156SOL    HW139104   1.257   2.576   2.103  0.6597  1.2079  0.2809
 9156SOL    HW239105   1.312   2.526   1.982 -1.4254  1.6931 -0.4090
 9157SOL     OW39106   2.355   3.909  17.399 -0.1548  0.0620 -0.4038
 9157SOL    HW139107   2.340   4.003  17.390 -1.8823 -0.2623 -0.9648
 9157SOL    HW239108   2.388   3.907  17.309 -0.6143 -0.2421 -0.5660
 9158SOL     OW39109   3.558   1.316   3.259  0.1888  0.3162 -0.1631
 9158SOL    HW139110   3.652   1.299   3.246  0.4846  1.8867 -0.0691
 9158SOL    HW239111   3.532   1.235   3.304  0.7336 -0.4169 -1.1593
 9159SOL     OW39112   0.328   2.522  16.357  0.0004 -0.0203  0.4186
 9159SOL    HW139113   0.238   2.548  16.376 -0.7605 -1.2437 -1.4261
 9159SOL    HW239114   0.337   2.544  16.264  0.2570 -2.2729 -0.1027
 9160SOL     OW39115   4.529   3.225   2.108  0.1097 -0.1780  0.2238
 9160SOL    HW139116   4.567   3.146   2.146 -2.2634 -0.4602  1.9854
 9160SOL    HW239117   4.574   3.247   2.027 -0.8785 -0.0322 -0.2879
 9161SOL     OW39118   2.560   3.353   1.816 -0.1861 -0.6667 -0.6778
 9161SOL    HW139119   2.501   3.293   1.863 -1.0955  0.8771  0.2090
 9161SOL    HW239120   2.601   3.299   1.749 -0.8697 -3.2245  0.9664
 9162SOL     OW39121   4.733   1.764   5.418 -0.0738 -0.3688  0.0592
 9162SOL    HW139122   0.084   1.799   5.404 -0.9962  2.9470  2.3702
 9162SOL    HW239123   4.680   1.844   5.415  0.5122 -0.1318 -3.1582
 9163SOL     OW39124   2.216   1.341   0.501  0.6335 -0.3928 -0.5091
 9163SOL    HW139125   2.304   1.376   0.509  0.4927  0.0596 -0.9412
 9163SOL    HW239126   2.196   1.374   0.413 -0.8603  2.4324  0.9023
 9164SOL     OW39127   4.606   2.436   2.554  0.1372  0.6921  0.7637
 9164SOL    HW139128   4.671   2.443   2.624  2.4435 -1.0781 -1.1799
 9164SOL    HW239129   4.532   2.397   2.601 -0.2262 -1.5611 -1.6921
 9165SOL     OW39130   3.463   4.307   9.958  0.0290  0.1318 -0.2094
 9165SOL    HW139131   3.523   4.279  10.027  1.7021 -0.3554 -1.8822
 9165SOL    HW239132   3.521   4.331   9.886  0.5782  1.4706  0.6930
 9166SOL     OW39133   0.161   2.321  10.827  0.2723  0.2676  0.1378
 9166SOL    HW139134   0.191   2.233  10.801  0.6000  0.9438 -1.7874
 9166SOL    HW239135   0.132   2.301  10.916  0.3030 -1.2079 -0.1782
 9167SOL     OW39136   2.181   1.316   8.989  0.2350 -0.0335 -0.2250
 9167SOL    HW139137   2.179   1.335   8.895 -0.0430 -0.7768 -0.3698
 9167SOL    HW239138   2.226   1.396   9.017 -0.0830 -0.2087  0.7992
 9168SOL     OW39139   0.450   0.410  17.583  0.3763  0.3374 -0.3731
 9168SOL    HW139140   0.463   0.376  17.494  0.8439  2.3677 -1.0824
 9168SOL    HW239141   0.379   0.471  17.566  1.9374  1.8885 -1.3646
 9169SOL     OW39142   0.153   1.733   8.003  0.0232 -0.0466 -0.1432
 9169SOL    HW139143   0.178   1.813   7.957 -4.3068 -0.5261 -3.2701
 9169SOL    HW239144   0.070   1.759   8.044  0.4469 -0.3813  0.9209
 9170SOL     OW39145   1.499   2.776  14.804  0.0479  0.2538 -0.9567
 9170SOL    HW139146   1.520   2.858  14.850  2.5685 -0.7390 -0.3981
 9170SOL    HW239147   1.488   2.804  14.713  0.6763  1.0229 -0.7987
 9171SOL     OW39148   0.842   3.070   3.148 -0.3498 -0.4343  0.2334
 9171SOL    HW139149   0.801   3.087   3.233 -0.0284  0.8584  0.1429
 9171SOL    HW239150   0.895   3.150   3.143  1.2909 -1.3941  2.3073
 9172SOL     OW39151   0.578   1.037   6.330 -0.3840 -0.6283  0.1478
 9172SOL    HW139152   0.552   0.968   6.270  1.1021 -0.8679 -0.2111
 9172SOL    HW239153   0.660   1.067   6.290 -2.0617  0.5244 -2.3923
 9173SOL     OW39154   1.555   2.304   0.099  0.3368 -0.0017  0.6200
 9173SOL    HW139155   1.599   2.225   0.067  1.3033  0.1605  1.5597
 9173SOL    HW239156   1.467   2.268   0.109 -0.4102  1.5848 -0.3998
 9174SOL     OW39157   3.379   1.422   2.415  0.3194  0.1419 -0.1299
 9174SOL    HW139158   3.315   1.452   2.479  1.9856  0.9453  1.1693
 9174SOL    HW239159   3.454   1.472   2.446  0.1659  0.5519 -0.4229
 9175SOL     OW39160   1.146   0.914  15.762  0.5252  0.3527  0.4227
 9175SOL    HW139161   1.086   0.843  15.782  0.8831  0.6409  2.5483
 9175SOL    HW239162   1.198   0.866  15.698 -0.1632  0.8841 -0.5351
 9176SOL     OW39163   3.846   2.638  11.907  0.3339  0.1467  0.2879
 9176SOL    HW139164   3.866   2.692  11.984 -0.1515  1.4010 -0.4763
 9176SOL    HW239165   3.927   2.651  11.858  0.4049 -2.8331 -0.3943
 9177SOL     OW39166   1.718   0.675   1.204  0.4228 -0.1666  0.1337
 9177SOL    HW139167   1.666   0.623   1.265 -0.6530 -1.2358 -1.6970
 9177SOL    HW239168   1.807   0.640   1.206  0.3635 -0.2451  1.7459
 9178SOL     OW39169   0.499   2.045   3.781 -0.2702 -0.1343 -0.2143
 9178SOL    HW139170   0.591   2.069   3.773 -0.7010  1.0324 -1.7865
 9178SOL    HW239171   0.487   1.995   3.700  1.0384  0.0398 -0.5123
 9179SOL     OW39172   4.140   3.777   0.556 -0.0933 -0.3633  0.3798
 9179SOL    HW139173   4.061   3.803   0.603 -0.8838  0.0963 -1.1829
 9179SOL    HW239174   4.215   3.789   0.614  0.0849 -0.1654  0.1126
 9180SOL     OW39175   0.068   0.572  11.915 -0.5045 -0.6425  0.4611
 9180SOL    HW139176   0.007   0.544  11.982 -1.0142 -3.5716 -1.2177
 9180SOL    HW239177   0.046   0.527  11.833 -0.3053  1.2167 -0.6132
 9181SOL     OW39178   0.470   1.347   4.624 -0.5419  0.0113 -0.4439
 9181SOL    HW139179   0.399   1.384   4.677 -0.4522 -2.3549  1.3325
 9181SOL    HW239180   0.427   1.295   4.557 -0.1973 -1.1293  0.2289
 9182SOL     OW39181   1.427   2.709   6.365  0.0971 -0.0494  0.3857
 9182SOL    HW139182   1.348   2.656   6.351 -1.6477  2.1725  1.6523
 9182SOL    HW239183   1.427   2.722   6.460 -0.4984  0.4911  0.3130
 9183SOL     OW39184   3.001   3.446   2.955 -1.0079 -0.1622  0.5337
 9183SOL    HW139185   3.043   3.491   2.882  0.6282 -2.4893  0.0294
 9183SOL    HW239186   3.041   3.359   2.949  1.5155  1.0198  0.3808
 9184SOL     OW39187   0.537   0.126   6.508  0.0733 -0.5094  0.3919
 9184SOL    HW139188   0.461   0.148   6.563 -0.4225 -0.5480 -0.2769
 9184SOL    HW239189   0.572   0.213   6.490 -0.1436 -0.6123 -0.5399
 9185SOL     OW39190   3.852   1.468   6.449  0.0336  0.1152 -0.1598
 9185SOL    HW139191   3.843   1.487   6.355  2.6415 -0.8726 -0.6083
 9185SOL    HW239192   3.760   1.465   6.476  0.4822  0.3491  1.3948
 9186SOL     OW39193   1.658   3.008   8.205 -0.8758 -0.6322  0.6254
 9186SOL    HW139194   1.676   3.066   8.131  1.5561 -0.7052  1.1468
 9186SOL    HW239195   1.608   2.942   8.157  0.5381 -0.3947 -1.1860
 9187SOL     OW39196   1.897   0.978   5.783  0.4277 -0.0772 -0.0135
 9187SOL    HW139197   1.915   0.886   5.800  1.9159  0.4714  1.4385
 9187SOL    HW239198   1.955   1.028   5.842 -1.2623  0.3141  1.3314
 9188SOL     OW39199   4.503   2.478   3.543  0.2079  0.1264  0.8453
 9188SOL    HW139200   4.441   2.481   3.615  1.0175 -2.9166  1.6557
 9188SOL    HW239201   4.572   2.535   3.578 -1.0014  2.1446 -0.0735
 9189SOL     OW39202   2.425   3.107   7.322 -0.3259  0.9549 -0.2716
 9189SOL    HW139203   2.425   3.151   7.236  3.3014  0.3061 -0.5849
 9189SOL    HW239204   2.464   3.179   7.371  0.8116  0.0589  0.1341
 9190SOL     OW39205   0.550   0.163  16.556  0.0630  0.3384  0.2394
 9190SOL    HW139206   0.465   0.170  16.513  0.6446  1.2936 -0.7404
 9190SOL    HW239207   0.543   0.220  16.633 -0.1051 -1.7973  1.8113
 9191SOL     OW39208   0.777   1.317   7.521  0.8359 -0.6053  0.1954
 9191SOL    HW139209   0.856   1.290   7.567  1.0004 -2.6289 -1.2732
 9191SOL    HW239210   0.702   1.290   7.574  0.4695 -0.3678 -0.2030
 9192SOL     OW39211   1.068   3.969   2.463 -0.5970  0.4323  0.0961
 9192SOL    HW139212   1.077   4.008   2.377 -1.3471  1.5490  0.5297
 9192SOL    HW239213   1.137   4.020   2.504 -1.4539  1.6952 -0.0354
 9193SOL     OW39214   4.453   1.923   5.582  0.5626 -0.0308 -0.3275
 9193SOL    HW139215   4.391   1.963   5.521 -1.1939 -0.9587  0.8744
 9193SOL    HW239216   4.525   1.980   5.553  0.6768  0.1395  0.3042
 9194SOL     OW39217   0.659   2.929   4.495  1.0132 -0.1042  0.7426
 9194SOL    HW139218   0.629   2.908   4.584  0.0658 -1.2038  0.1735
 9194SOL    HW239219   0.737   2.875   4.509  0.3026 -1.4880 -0.6494
 9195SOL     OW39220   2.601   1.040  16.914  0.0951  0.4379 -0.5446
 9195SOL    HW139221   2.573   1.129  16.894  1.1493  1.2710  1.7078
 9195SOL    HW239222   2.692   1.048  16.943 -0.3133 -4.1468  2.0406
 9196SOL     OW39223   4.223   3.858   5.377 -0.5158  0.2027  0.2640
 9196SOL    HW139224   4.189   3.887   5.462 -1.6022 -1.5840  0.4391
 9196SOL    HW239225   4.206   3.941   5.332  1.0313  0.8120  0.7877
 9197SOL     OW39226   0.109   2.671   5.650 -0.0512  1.0065 -0.6549
 9197SOL    HW139227   0.115   2.711   5.737  2.0062  3.4417 -1.9353
 9197SOL    HW239228   0.026   2.625   5.661  1.5769 -1.7402  0.1945
 9198SOL     OW39229   1.236   1.477   2.186  0.0284 -0.0198  0.0305
 9198SOL    HW139230   1.235   1.421   2.263 -3.1028 -1.8679 -1.3464
 9198SOL    HW239231   1.330   1.487   2.171  0.0836 -0.3195  0.1884
 9199SOL     OW39232   2.859   1.156  15.940 -0.0551  0.9387 -0.6497
 9199SOL    HW139233   2.766   1.174  15.951 -0.5276 -1.8508 -0.2310
 9199SOL    HW239234   2.860   1.063  15.963 -0.0378  0.8421 -1.0496
 9200SOL     OW39235   0.168   2.958   2.359 -0.2075 -0.0679 -0.0083
 9200SOL    HW139236   0.243   2.967   2.418  0.4924  2.2727 -1.2408
 9200SOL    HW239237   0.198   2.924   2.275 -0.2862  0.9165 -0.4397
 9201SOL     OW39238   2.461   0.357   6.246  0.6187  0.6605  0.0316
 9201SOL    HW139239   2.513   0.361   6.166 -1.9808  0.4263 -1.6362
 9201SOL    HW239240   2.467   0.449   6.274  0.7110  0.6073  0.1882
 9202SOL     OW39241   3.367   0.601   0.669 -0.0080 -0.3003 -0.7462
 9202SOL    HW139242   3.352   0.668   0.602  0.0219 -1.3335 -1.8038
 9202SOL    HW239243   3.279   0.568   0.684 -0.3395  1.8020  1.7546
 9203SOL     OW39244   3.133   3.096  17.207  0.0427 -1.1485  0.1120
 9203SOL    HW139245   3.042   3.124  17.203  1.1647  2.4673 -0.8410
 9203SOL    HW239246   3.177   3.169  17.251 -0.3984 -1.2510  0.7194
 9204SOL     OW39247   2.240   1.230   5.261  0.2706 -0.3495  0.2937
 9204SOL    HW139248   2.261   1.323   5.254 -1.2642  0.1109  1.6743
 9204SOL    HW239249   2.316   1.195   5.307  1.1675  0.9367 -0.1931
 9205SOL     OW39250   4.022   4.304   6.427  0.0024  0.7487 -0.4303
 9205SOL    HW139251   3.938   4.262   6.407 -0.1148  0.7701  0.0237
 9205SOL    HW239252   4.084   4.254   6.374 -0.3015 -1.6945  1.5317
 9206SOL     OW39253   1.412   0.055   2.916 -0.8651 -0.4374  0.9854
 9206SOL    HW139254   1.427   0.141   2.876  2.5245 -1.9323 -0.9675
 9206SOL    HW239255   1.473   0.059   2.989 -0.0272  1.0354  0.2253
 9207SOL     OW39256   1.585   1.895   6.333  0.0759  0.4790  0.2528
 9207SOL    HW139257   1.584   1.945   6.414 -0.4376  1.8295 -0.6008
 9207SOL    HW239258   1.626   1.812   6.360  0.5861  0.3956 -0.8109
 9208SOL     OW39259   2.045   3.517   4.797 -0.2027  0.1448 -0.1419
 9208SOL    HW139260   2.041   3.579   4.870  0.1643 -0.1911  0.1653
 9208SOL    HW239261   2.140   3.505   4.795 -0.5060 -2.3977  0.2699
 9209SOL     OW39262   0.740   2.963   4.026 -0.2761 -0.1288  0.5573
 9209SOL    HW139263   0.666   2.999   3.976  1.4631  2.3706 -0.2180
 9209SOL    HW239264   0.772   2.887   3.977  1.6634  1.4322 -0.6007
 9210SOL     OW39265   3.151   0.072   1.019  0.3564 -0.0519  0.4679
 9210SOL    HW139266   3.210   0.133   0.974 -2.3656  0.5105 -2.3079
 9210SOL    HW239267   3.165   0.092   1.112  0.6166  0.2869  0.3557
 9211SOL     OW39268   0.444   3.409   4.642  0.4868 -0.2019  0.2635
 9211SOL    HW139269   0.400   3.396   4.726  3.0379  0.2311  1.6763
 9211SOL    HW239270   0.436   3.321   4.606  0.3170  0.5199 -1.4515
 9212SOL     OW39271   2.474   0.549   6.959 -0.4949 -0.3746 -0.3522
 9212SOL    HW139272   2.475   0.473   7.017 -0.1333 -0.1116 -0.0126
 9212SOL    HW239273   2.568   0.566   6.972 -0.1994 -0.7204 -2.1025
 9213SOL     OW39274   3.984   0.633   3.536  0.3235 -0.1932 -0.6309
 9213SOL    HW139275   3.982   0.630   3.440 -1.0968  2.2136 -0.6947
 9213SOL    HW239276   4.076   0.650   3.558  0.2732  0.0836 -0.6336
 9214SOL     OW39277   4.706   3.587   2.157  0.0544  0.1796 -0.0486
 9214SOL    HW139278   4.684   3.672   2.195  0.6958 -0.1401  1.0046
 9214SOL    HW239279   4.625   3.565   2.110  0.8124 -2.1155 -0.2841
 9215SOL     OW39280   1.812   2.713  14.550  0.2561 -0.3030 -0.0549
 9215SOL    HW139281   1.767   2.632  14.574 -1.7451  1.6703  2.7808
 9215SOL    HW239282   1.780   2.726  14.461 -0.4346 -0.4021  0.1806
 9216SOL     OW39283   3.748   2.644  12.668  0.2427 -0.3738 -0.6586
 9216SOL    HW139284   3.665   2.667  12.712 -0.1881  0.3710 -1.8628
 9216SOL    HW239285   3.802   2.628  12.745 -2.0619 -2.5763  0.4927
 9217SOL     OW39286   1.686   4.095  16.511 -0.0570 -0.0200 -0.4865
 9217SOL    HW139287   1.751   4.164  16.524  0.4522 -0.4430 -0.8068
 9217SOL    HW239288   1.710   4.063  16.424 -2.6880 -0.2498 -1.1418
 9218SOL     OW39289   2.057   4.049  10.475  0.2823  0.6238  0.1849
 9218SOL    HW139290   2.071   4.092  10.560  2.8638  1.7449 -0.7961
 9218SOL    HW239291   2.074   4.120  10.413  0.3693  0.7560  0.3607
 9219SOL     OW39292   0.634   0.097   9.278 -0.1688 -0.3427  0.0726
 9219SOL    HW139293   0.577   0.025   9.305 -0.0986  0.1111  1.4130
 9219SOL    HW239294   0.718   0.074   9.317  0.5309 -0.0302 -1.2376
 9220SOL     OW39295   0.748   1.588  16.227 -0.3043 -0.0310  0.4743
 9220SOL    HW139296   0.680   1.530  16.263 -1.5795 -0.0392 -1.9650
 9220SOL    HW239297   0.716   1.631  16.148 -1.0493 -0.3080  0.6225
 9221SOL     OW39298   2.846   1.677   1.381  0.2474  0.0543  0.3658
 9221SOL    HW139299   2.927   1.650   1.338 -0.3565 -0.6339 -0.3063
 9221SOL    HW239300   2.874   1.677   1.473 -1.4669 -1.7877  0.8695
 9222SOL     OW39301   3.001   1.163   2.109  0.3246 -0.4564 -0.0391
 9222SOL    HW139302   2.926   1.148   2.166  1.8878 -3.3158  1.2784
 9222SOL    HW239303   3.033   1.249   2.138 -0.5462  0.1145 -0.7848
 9223SOL     OW39304   3.248   1.357  16.975  0.2783 -0.1013 -0.3763
 9223SOL    HW139305   3.249   1.381  16.882 -3.3006 -1.0846 -0.6545
 9223SOL    HW239306   3.311   1.422  17.007  0.9727 -0.7114 -0.5021
 9224SOL     OW39307   0.582   2.011   0.358 -0.3508 -0.0945  0.1015
 9224SOL    HW139308   0.621   1.998   0.444 -1.3106 -1.0197  0.3814
 9224SOL    HW239309   0.550   2.101   0.366  1.2315  0.4280  0.6671
 9225SOL     OW39310   0.902   2.984   8.146 -0.1760 -0.1405 -0.0984
 9225SOL    HW139311   0.946   2.921   8.089  1.0270  0.9042 -0.3315
 9225SOL    HW239312   0.945   3.065   8.116 -0.3133  0.1714  0.5380
 9226SOL     OW39313   4.017   0.703   8.354  0.1151  0.0282  0.4736
 9226SOL    HW139314   4.059   0.788   8.365  0.8094 -0.1333 -0.9309
 9226SOL    HW239315   3.928   0.727   8.328 -0.1813 -1.1391  0.4077
 9227SOL     OW39316   1.442   3.149   2.159 -0.2153  0.7206 -0.0097
 9227SOL    HW139317   1.429   3.076   2.098 -0.6537 -1.0262  2.1997
 9227SOL    HW239318   1.532   3.138   2.191 -0.1415 -1.1785 -0.8568
 9228SOL     OW39319   0.119   3.968   7.332 -0.1716 -0.3987  0.5326
 9228SOL    HW139320   0.028   3.986   7.357 -0.6999 -0.1946 -1.5126
 9228SOL    HW239321   0.110   3.976   7.237  1.1751  2.5393  0.6716
 9229SOL     OW39322   4.378   4.316   3.213  0.3902  0.2599 -0.0753
 9229SOL    HW139323   4.455   4.351   3.259 -2.2599  2.8805  2.3632
 9229SOL    HW239324   4.308   4.346   3.272  1.7870  3.2139  0.0685
 9230SOL     OW39325   0.937   2.041   2.843 -0.0098 -0.3865 -0.3102
 9230SOL    HW139326   0.911   1.952   2.819  1.5482 -1.3525  1.5894
 9230SOL    HW239327   1.024   2.024   2.880 -0.1743 -2.6491 -0.9630
 9231SOL     OW39328   3.062   0.772   4.856  0.6133 -0.4761 -0.2496
 9231SOL    HW139329   3.127   0.783   4.786  1.3871 -2.5873  0.1352
 9231SOL    HW239330   3.067   0.680   4.885 -2.1654 -0.2619  0.9335
 9232SOL     OW39331   1.253   2.620   2.753  0.3710  0.2898 -0.3086
 9232SOL    HW139332   1.331   2.643   2.702  1.4176 -0.5322  0.9509
 9232SOL    HW239333   1.189   2.647   2.687 -1.4259  1.4197  1.9015
 9233SOL     OW39334   4.383   2.398   4.288 -0.5079  0.3240  0.1122
 9233SOL    HW139335   4.347   2.451   4.360 -1.2952  1.6361 -1.2485
 9233SOL    HW239336   4.413   2.467   4.229  0.2718 -0.3562 -0.2933
 9234SOL     OW39337   1.745   0.868   8.543 -0.1223 -0.1173  0.0419
 9234SOL    HW139338   1.771   0.864   8.451 -1.2119 -1.1552 -0.2246
 9234SOL    HW239339   1.790   0.945   8.577  1.8874 -0.3978 -2.0268
 9235SOL     OW39340   3.188   3.300   3.955  0.0613  0.1765  0.0352
 9235SOL    HW139341   3.216   3.381   3.997 -0.1748 -0.7047  1.9011
 9235SOL    HW239342   3.248   3.288   3.882 -1.1969 -0.3510 -0.9156
 9236SOL     OW39343   4.635   3.455   6.930  0.0990 -0.2766  0.1568
 9236SOL    HW139344   4.661   3.547   6.939  2.7364 -0.7150 -2.7176
 9236SOL    HW239345   4.610   3.456   6.837 -0.5108  0.3258  0.3284
 9237SOL     OW39346   4.535   1.226  16.043  0.0339 -0.5032  0.3769
 9237SOL    HW139347   4.469   1.247  15.976  1.5313 -0.8485 -1.1890
 9237SOL    HW239348   4.498   1.281  16.112 -1.4772 -0.1637 -0.6771
 9238SOL     OW39349   2.906   2.023   9.947  0.3039  0.3029  0.2293
 9238SOL    HW139350   2.907   2.047   9.854  0.1776  0.1405  0.1850
 9238SOL    HW239351   2.938   1.935   9.927 -0.3883 -0.2065  1.3586
 9239SOL     OW39352   1.643   2.793   3.985 -0.4061  0.3995  0.2681
 9239SOL    HW139353   1.684   2.870   4.025  1.2688 -0.0393 -0.6146
 9239SOL    HW239354   1.675   2.797   3.895  1.5269  1.5342  0.9878
 9240SOL     OW39355   4.657   1.836  12.857 -0.0591 -0.6409 -0.0164
 9240SOL    HW139356   4.658   1.790  12.941  0.3739  0.6976  0.7211
 9240SOL    HW239357   4.581   1.891  12.877  0.6882  0.4458 -0.1196
 9241SOL     OW39358   2.448   2.735  17.337  0.7326 -0.4881  0.3034
 9241SOL    HW139359   2.479   2.785  17.261  1.4620 -0.6187  0.5149
 9241SOL    HW239360   2.478   2.646  17.318 -1.0046 -0.6097 -1.8761
 9242SOL     OW39361   0.982   3.035   5.216  0.1835  0.5626 -0.0786
 9242SOL    HW139362   1.016   3.071   5.134  1.2451  0.2824  0.2367
 9242SOL    HW239363   0.973   2.944   5.187  1.6504  0.7607 -1.1829
 9243SOL     OW39364   4.422   4.265   0.967 -0.5960 -0.1892  0.0785
 9243SOL    HW139365   4.437   4.299   0.879  1.2007 -0.6744  0.1868
 9243SOL    HW239366   4.472   4.183   0.959 -1.1751 -0.4507 -0.8605
 9244SOL     OW39367   2.052   0.599  15.678 -0.2688  0.1872  0.8759
 9244SOL    HW139368   2.098   0.519  15.651 -1.9915 -0.0700 -1.2829
 9244SOL    HW239369   2.117   0.668  15.692  0.5453 -0.0807 -1.4662
 9245SOL     OW39370   0.222   2.694  10.563 -0.0492 -0.3519  0.6444
 9245SOL    HW139371   0.255   2.605  10.572 -1.6578 -1.0511 -0.2286
 9245SOL    HW239372   0.200   2.706  10.656  0.6179 -0.2833  0.7877
 9246SOL     OW39373   1.884   4.192   9.600 -0.4338  0.0714 -0.4894
 9246SOL    HW139374   1.815   4.161   9.542 -0.0393 -0.7502 -0.5248
 9246SOL    HW239375   1.865   4.142   9.680 -1.5400 -2.0523 -2.0577
 9247SOL     OW39376   0.817   0.827  17.201  0.2858 -0.1927 -0.3632
 9247SOL    HW139377   0.870   0.802  17.126  0.6928 -0.3673 -0.0198
 9247SOL    HW239378   0.871   0.791  17.271 -1.6924 -0.2621  1.1261
 9248SOL     OW39379   3.526   3.222   2.865  0.2303 -0.5515 -0.2620
 9248SOL    HW139380   3.620   3.226   2.847  0.1777  1.2664 -0.0795
 9248SOL    HW239381   3.506   3.130   2.884 -1.2669 -0.3306 -0.7921
 9249SOL     OW39382   2.340   3.573   8.016 -0.3965 -0.1659  0.4613
 9249SOL    HW139383   2.258   3.524   8.023  0.2717 -1.4031 -0.3083
 9249SOL    HW239384   2.315   3.634   7.947 -1.2563 -0.8959  0.1361
 9250SOL     OW39385   2.231   1.387   2.170  0.0080 -0.2225  0.2090
 9250SOL    HW139386   2.168   1.348   2.229 -1.6331 -0.6030 -1.8136
 9250SOL    HW239387   2.265   1.461   2.221 -0.6919 -0.1644  0.5935
 9251SOL     OW39388   2.630   1.351   7.508 -0.3439  0.0544 -0.0276
 9251SOL    HW139389   2.673   1.361   7.423  0.9224 -0.9155  0.5136
 9251SOL    HW239390   2.603   1.443   7.515  2.3983  0.6570  2.7607
 9252SOL     OW39391   0.839   4.643   6.600 -0.0809  0.0109  0.3433
 9252SOL    HW139392   0.864   4.734   6.610 -1.8261  0.4384  0.7349
 9252SOL    HW239393   0.773   4.646   6.669  1.2288 -1.5747  1.6592
 9253SOL     OW39394   4.358   1.407   4.204  0.2663 -0.0462  0.3870
 9253SOL    HW139395   4.345   1.420   4.298  2.3795 -0.2593  0.7058
 9253SOL    HW239396   4.270   1.426   4.173  0.8469  0.9215 -0.6940
 9254SOL     OW39397   0.028   4.362  11.161 -0.5180  0.0001  0.1980
 9254SOL    HW139398   4.708   4.373  11.237  0.2492 -1.1267  0.9478
 9254SOL    HW239399   4.730   4.436  11.113 -0.9081  0.4220  1.1355
 9255SOL     OW39400   0.447   2.721   8.484 -0.1176 -0.4297  0.3324
 9255SOL    HW139401   0.461   2.635   8.524  0.9994  0.5075  1.9237
 9255SOL    HW239402   0.521   2.772   8.517  0.2296 -2.1849  2.2770
 9256SOL     OW39403   1.672   3.054  12.095 -0.1255 -0.1580 -0.1589
 9256SOL    HW139404   1.729   3.056  12.018  2.9016 -0.8901  2.0332
 9256SOL    HW239405   1.592   3.035  12.045 -1.1474  0.5003  1.2244
 9257SOL     OW39406   1.569   4.531   6.003  1.3377  0.1524  0.0467
 9257SOL    HW139407   1.661   4.539   5.978  2.0479 -0.8434  2.4045
 9257SOL    HW239408   1.554   4.613   6.050 -2.1980 -1.8221  2.2917
 9258SOL     OW39409   2.712   4.516   2.870 -0.2935 -0.2552 -0.2296
 9258SOL    HW139410   2.727   4.581   2.939 -0.4264  0.4922 -0.8986
 9258SOL    HW239411   2.779   4.550   2.810 -1.5387 -0.6730 -1.8477
 9259SOL     OW39412   0.627   4.530   8.330  0.2028 -0.0467  0.0014
 9259SOL    HW139413   0.607   4.583   8.408  2.1813  0.9541 -0.1621
 9259SOL    HW239414   0.573   4.571   8.263 -0.0441 -1.8387 -0.8621
 9260SOL     OW39415   4.224   4.147   3.719  0.1853 -0.1598 -0.4749
 9260SOL    HW139416   4.189   4.143   3.630  1.0102 -1.6673 -0.7369
 9260SOL    HW239417   4.146   4.172   3.769 -1.2130 -0.5239 -2.4842
 9261SOL     OW39418   3.074   1.271  11.003 -0.3551  0.0359 -0.1289
 9261SOL    HW139419   3.026   1.252  10.922 -0.9728 -2.1698  0.7498
 9261SOL    HW239420   3.008   1.329  11.042 -0.7621 -0.6051  0.1352
 9262SOL     OW39421   1.244   1.048   6.841  0.0737 -0.4759  0.5947
 9262SOL    HW139422   1.191   0.996   6.780 -0.7970  0.0220  0.9303
 9262SOL    HW239423   1.232   1.132   6.797  2.2409 -1.3467 -1.6845
 9263SOL     OW39424   4.509   2.419   4.730  0.0040 -0.3648 -0.3076
 9263SOL    HW139425   4.418   2.396   4.711 -0.1031  1.2114 -1.6305
 9263SOL    HW239426   4.528   2.363   4.806 -2.1845  1.1847  1.3581
 9264SOL     OW39427   0.341   3.288   6.545 -0.6094 -0.0732 -0.1865
 9264SOL    HW139428   0.303   3.311   6.461  1.2417 -2.0744 -1.5567
 9264SOL    HW239429   0.281   3.219   6.574  0.1582 -0.0439  1.5123
 9265SOL     OW39430   1.495   3.987   7.647  0.7499 -0.0303  0.2039
 9265SOL    HW139431   1.478   3.931   7.722  0.8520 -1.5843 -0.9207
 9265SOL    HW239432   1.449   3.939   7.578  0.7994 -0.6967  0.6440
 9266SOL     OW39433   1.694   4.077   9.000 -0.3862 -0.1717 -0.0789
 9266SOL    HW139434   1.782   4.041   9.014 -0.4017 -1.0338 -2.2549
 9266SOL    HW239435   1.699   4.094   8.906 -2.4553  1.3704  0.0985
 9267SOL     OW39436   0.781   3.239   2.077 -0.1187  0.0909  0.3989
 9267SOL    HW139437   0.733   3.277   2.151 -1.5226 -0.0755 -0.4211
 9267SOL    HW239438   0.752   3.147   2.076 -2.0596  0.6842  2.5606
 9268SOL     OW39439   2.688   4.447   8.177  0.5153 -0.3006 -0.1886
 9268SOL    HW139440   2.769   4.493   8.199  1.8730 -3.4125  1.4051
 9268SOL    HW239441   2.667   4.424   8.268 -0.7999  1.6294 -0.0046
 9269SOL     OW39442   2.297   0.856   9.187 -0.2553  0.6814  0.1810
 9269SOL    HW139443   2.308   0.785   9.251  0.2100 -0.6959 -1.4139
 9269SOL    HW239444   2.388   0.881   9.172 -1.0295  2.4946 -1.3797
 9270SOL     OW39445   2.562   3.274   7.811  0.4489 -0.7224 -0.0720
 9270SOL    HW139446   2.601   3.187   7.800  1.9717  0.1901 -1.9192
 9270SOL    HW239447   2.610   3.332   7.752 -0.1031  0.7765  0.9525
 9271SOL     OW39448   1.982   3.315   3.623  0.0125 -0.6827  0.4501
 9271SOL    HW139449   1.986   3.391   3.681 -0.8756  0.3758 -0.8835
 9271SOL    HW239450   1.957   3.251   3.689  0.1006 -0.5804  0.5833
 9272SOL     OW39451   0.055   0.976   4.489  0.0760 -0.6379 -0.5467
 9272SOL    HW139452   0.085   1.016   4.570 -1.9977 -0.0135 -0.0767
 9272SOL    HW239453   0.065   0.883   4.508  0.0318  0.0842  2.9377
 9273SOL     OW39454   3.282   0.097   5.950  0.7830  0.5782 -0.0839
 9273SOL    HW139455   3.228   0.176   5.953  2.1194  1.4731  0.5306
 9273SOL    HW239456   3.365   0.143   5.934  0.4722  0.3581 -2.2834
 9274SOL     OW39457   0.585   2.756   3.528  0.2753 -0.3048  0.8431
 9274SOL    HW139458   0.619   2.675   3.490 -1.2166  0.1835 -1.5373
 9274SOL    HW239459   0.650   2.820   3.499 -0.1768 -1.2169 -2.1857
 9275SOL     OW39460   4.002   0.483   0.372  0.2979  0.3677  0.6093
 9275SOL    HW139461   4.059   0.473   0.296 -0.3562  1.3401 -0.0156
 9275SOL    HW239462   3.988   0.578   0.372  0.1317  0.3413  0.2460
 9276SOL     OW39463   2.029   3.957   2.455 -0.4852  0.0127  0.5415
 9276SOL    HW139464   1.979   4.018   2.509  0.6431  0.6540  0.8522
 9276SOL    HW239465   1.977   3.959   2.375 -1.3489 -0.1476  1.1043
 9277SOL     OW39466   3.434   1.162   7.087 -0.2277 -0.0540 -0.2165
 9277SOL    HW139467   3.391   1.134   7.168 -0.2886  3.0296  0.8100
 9277SOL    HW239468   3.421   1.257   7.086 -0.5555 -0.1090 -0.7397
 9278SOL     OW39469   1.660   3.538  16.376  0.1524 -0.5754 -0.6088
 9278SOL    HW139470   1.718   3.575  16.443 -3.0842  2.1057  0.7249
 9278SOL    HW239471   1.623   3.473  16.435  0.4310 -2.0875 -2.1307
 9279SOL     OW39472   0.315   0.205   2.261 -0.1968  0.7463 -0.9196
 9279SOL    HW139473   0.370   0.186   2.186  0.0012 -0.8314 -0.3637
 9279SOL    HW239474   0.244   0.265   2.236  0.2676  1.5226 -0.3703
 9280SOL     OW39475   3.751   4.145   5.760 -0.1589 -0.1734 -0.3461
 9280SOL    HW139476   3.771   4.083   5.690  0.7244  0.2419 -0.4530
 9280SOL    HW239477   3.734   4.084   5.832  3.6696 -0.4691  0.3037
 9281SOL     OW39478   0.743   0.631   3.673 -0.2413  0.0832  0.4581
 9281SOL    HW139479   0.669   0.592   3.626 -2.2396  0.7045  3.0217
 9281SOL    HW239480   0.701   0.668   3.751  0.2989  4.6847 -1.4393
 9282SOL     OW39481   3.001   0.519  16.207 -0.1678 -0.0034  0.3412
 9282SOL    HW139482   3.090   0.541  16.237 -0.1924  1.3086 -0.6029
 9282SOL    HW239483   3.004   0.425  16.186 -1.6328  0.3335 -1.2691
 9283SOL     OW39484   3.702   1.109   6.556 -0.1593 -0.2772  0.1981
 9283SOL    HW139485   3.619   1.119   6.602  0.4501  1.2697  0.9742
 9283SOL    HW239486   3.712   1.015   6.573  0.5586 -0.0370  1.1326
 9284SOL     OW39487   0.739   2.483  12.750 -0.2394 -0.1883  0.2112
 9284SOL    HW139488   0.796   2.408  12.767 -2.3807 -1.8241  0.0164
 9284SOL    HW239489   0.779   2.555  12.800  0.0021 -0.4525  0.3979
 9285SOL     OW39490   0.427   2.896   6.059 -0.7044  0.1221  0.1364
 9285SOL    HW139491   0.442   2.970   6.117 -1.6584  0.6646 -0.3032
 9285SOL    HW239492   0.477   2.824   6.096  1.5890  1.1633 -0.9700
 9286SOL     OW39493   4.130   2.506   5.012 -0.0987 -0.4226 -0.7901
 9286SOL    HW139494   4.078   2.558   5.074 -1.0284 -0.0359 -1.8981
 9286SOL    HW239495   4.109   2.555   4.933 -2.1456  1.4743  0.9145
 9287SOL     OW39496   0.959   1.127   9.381 -0.0949 -0.2139 -0.3232
 9287SOL    HW139497   1.035   1.071   9.397  0.9268  1.3558  0.3884
 9287SOL    HW239498   0.921   1.106   9.467  2.2224  0.2144  0.8143
 9288SOL     OW39499   4.304   0.731   3.340  0.0457 -0.7208  0.3268
 9288SOL    HW139500   4.316   0.732   3.435 -1.2832  1.0648  0.4698
 9288SOL    HW239501   4.216   0.760   3.316  0.4050  0.5760  0.5694
 9289SOL     OW39502   2.468   1.555   6.213  1.1826 -0.2195 -0.2094
 9289SOL    HW139503   2.541   1.523   6.161  0.9105 -1.1923  0.0034
 9289SOL    HW239504   2.484   1.649   6.206 -0.4011  0.1748  1.3762
 9290SOL     OW39505   3.419   0.562   8.674  0.3059 -0.0249 -0.1367
 9290SOL    HW139506   3.447   0.517   8.753 -0.8763  0.7079  0.7120
 9290SOL    HW239507   3.393   0.489   8.618 -1.8670  0.2885  0.4334
 9291SOL     OW39508   4.668   1.416   6.740  0.4268 -0.4820  0.4945
 9291SOL    HW139509   4.731   1.481   6.769 -0.3196  0.0454  0.9526
 9291SOL    HW239510   4.588   1.469   6.732  0.2748 -0.6144  1.0966
 9292SOL     OW39511   0.390   4.113   8.296  0.1549  0.7609 -0.2846
 9292SOL    HW139512   0.467   4.112   8.240  1.0545 -2.8211  1.0355
 9292SOL    HW239513   0.421   4.179   8.359 -1.1091 -0.9701  2.1247
 9293SOL     OW39514   1.792   0.783   1.548  0.3487  0.2267  0.0707
 9293SOL    HW139515   1.836   0.821   1.625 -1.9107  0.2949  1.3164
 9293SOL    HW239516   1.801   0.690   1.570 -2.0038  0.3083  1.3500
 9294SOL     OW39517   0.439   2.071  10.862 -0.2323 -0.2281 -0.7637
 9294SOL    HW139518   0.345   2.069  10.880  0.4180  1.7294  2.8376
 9294SOL    HW239519   0.471   2.005  10.924  1.2895  0.0966 -1.2038
 9295SOL     OW39520   3.924   3.371   8.705 -0.0753  0.5520 -0.0261
 9295SOL    HW139521   3.954   3.336   8.789 -0.0864 -0.7002 -0.5581
 9295SOL    HW239522   3.968   3.456   8.707  1.7385 -0.3693 -0.5179
 9296SOL     OW39523   3.272   3.233   3.699 -0.0819 -0.0801  0.1739
 9296SOL    HW139524   3.322   3.166   3.651  2.4199  2.8699 -1.3545
 9296SOL    HW239525   3.190   3.187   3.717 -0.2711  1.1282  2.4311
 9297SOL     OW39526   4.730   0.100   8.969  0.1925 -0.2615 -0.4355
 9297SOL    HW139527   0.014   0.020   8.922 -0.0519 -0.8820  0.5107
 9297SOL    HW239528   0.073   0.115   9.019 -0.3220  1.6073 -0.1552
 9298SOL     OW39529   2.057   4.315   8.190 -0.0689  0.1115  0.7419
 9298SOL    HW139530   2.046   4.410   8.198 -2.8451 -0.2389  1.4546
 9298SOL    HW239531   2.151   4.304   8.203  0.1313  1.1837  0.1545
 9299SOL     OW39532   1.763   1.602   0.230  0.3301  0.2630  0.6111
 9299SOL    HW139533   1.796   1.676   0.179  0.4348  0.6778  1.2859
 9299SOL    HW239534   1.822   1.615   0.304  0.6613  0.2189  0.3526
 9300SOL     OW39535   1.781   0.795   3.575  0.0553  0.4125  0.1322
 9300SOL    HW139536   1.748   0.794   3.665 -0.5995 -1.5705 -0.1211
 9300SOL    HW239537   1.776   0.702   3.553 -1.9262  0.2470  1.2518
 9301SOL     OW39538   3.701   1.101  11.117  0.2007 -0.2458  0.3365
 9301SOL    HW139539   3.665   1.023  11.160 -2.1391  2.7646  3.7702
 9301SOL    HW239540   3.789   1.064  11.109 -0.1364 -0.7160 -1.3439
 9302SOL     OW39541   0.433   3.595   3.343 -0.1062  0.8013  0.2102
 9302SOL    HW139542   0.414   3.535   3.415  1.8598 -0.3635 -0.2352
 9302SOL    HW239543   0.345   3.601   3.306  0.2565  0.5459 -0.7078
 9303SOL     OW39544   1.803   0.340   0.659  0.2265  0.2188  0.0699
 9303SOL    HW139545   1.780   0.389   0.580 -2.1502 -0.4155  0.3756
 9303SOL    HW239546   1.863   0.279   0.615  1.5413  1.6522 -0.1350
 9304SOL     OW39547   3.480   0.119   3.049 -0.0167  1.0884 -0.4081
 9304SOL    HW139548   3.483   0.194   2.990 -0.7343  0.5197 -1.1699
 9304SOL    HW239549   3.566   0.084   3.026 -0.6768 -0.9416  0.2267
 9305SOL     OW39550   3.331   1.843  12.870  0.1159 -0.3510 -0.0524
 9305SOL    HW139551   3.264   1.865  12.934 -0.0473 -1.2870  0.1049
 9305SOL    HW239552   3.382   1.924  12.879 -2.7793  1.4009  0.2962
 9306SOL     OW39553   0.086   0.220   2.446 -0.7148 -0.0158  0.8242
 9306SOL    HW139554   0.056   0.177   2.366  1.4348  0.3834 -0.1958
 9306SOL    HW239555   0.005   0.268   2.464 -1.0737 -1.4889  3.1629
 9307SOL     OW39556   3.446   3.297  15.324  0.2031 -0.4441 -0.2739
 9307SOL    HW139557   3.366   3.322  15.369  1.5350  1.0093  1.2902
 9307SOL    HW239558   3.466   3.361  15.256  0.0258 -1.5058 -1.3321
 9308SOL     OW39559   4.404   0.363  12.372  0.8479  0.3191 -0.0544
 9308SOL    HW139560   4.429   0.429  12.308  0.7528  0.6282  0.2249
 9308SOL    HW239561   4.490   0.323  12.383  0.3669 -1.0401 -1.2413
 9309SOL     OW39562   3.209   3.516   6.661 -0.1648  0.3752  0.0075
 9309SOL    HW139563   3.123   3.491   6.695 -0.2378  2.6201  1.4960
 9309SOL    HW239564   3.193   3.609   6.645 -0.5322  0.5829  1.5225
 9310SOL     OW39565   1.972   3.039   6.178 -0.0110  0.1552  0.2584
 9310SOL    HW139566   2.050   3.028   6.233 -0.6786 -0.0511  1.1699
 9310SOL    HW239567   2.008   3.087   6.103  2.1690 -3.7593 -1.1761
 9311SOL     OW39568   2.625   2.170  17.679 -0.2559  0.4428  0.3761
 9311SOL    HW139569   2.686   2.137  17.745 -1.5481  0.0577  1.3743
 9311SOL    HW239570   2.660   2.259  17.677  0.8405 -0.0083 -1.0630
 9312SOL     OW39571   2.879   0.346   8.127  0.3610  0.3949  0.0703
 9312SOL    HW139572   2.807   0.330   8.066 -1.0563  0.9107  1.5984
 9312SOL    HW239573   2.912   0.258   8.143 -1.1659 -0.3658 -0.9884
 9313SOL     OW39574   1.303   0.713  15.571 -0.2677  0.2617 -0.1054
 9313SOL    HW139575   1.256   0.642  15.526  2.7806 -3.2573  2.2471
 9313SOL    HW239576   1.391   0.688  15.542 -0.1900 -0.7178  0.9925
 9314SOL     OW39577   4.168   1.764   2.675 -0.2386  0.2727 -0.8562
 9314SOL    HW139578   4.114   1.790   2.600  1.4421  0.7923 -1.8883
 9314SOL    HW239579   4.104   1.759   2.746 -0.0342 -0.2998 -0.7184
 9315SOL     OW39580   0.200   1.974  17.217 -0.0004  0.1283 -0.5285
 9315SOL    HW139581   0.204   2.022  17.299  0.7565 -1.2395  0.2341
 9315SOL    HW239582   0.158   1.898  17.258 -1.7520  1.5349  0.2725
 9316SOL     OW39583   2.630   3.975   5.463  0.6080 -0.1722 -0.0077
 9316SOL    HW139584   2.618   3.975   5.368  0.9667 -2.6238 -0.0468
 9316SOL    HW239585   2.683   4.054   5.478 -1.3972  1.1081  0.3915
 9317SOL     OW39586   0.175   0.370  11.100 -0.5721 -0.4195 -0.2611
 9317SOL    HW139587   0.192   0.321  11.019  0.4721  0.7097 -0.7242
 9317SOL    HW239588   0.220   0.304  11.153  2.1906  1.1898 -0.6171
 9318SOL     OW39589   4.073   3.520  16.560 -0.6763  0.5725  0.2272
 9318SOL    HW139590   4.133   3.508  16.634 -0.5446  0.5649  0.1196
 9318SOL    HW239591   4.068   3.434  16.518  2.7020  2.2656 -3.6493
 9319SOL     OW39592   4.590   1.852  12.451 -0.0063 -0.2850  0.5456
 9319SOL    HW139593   4.517   1.914  12.452 -2.9864 -3.7561 -1.5288
 9319SOL    HW239594   4.547   1.770  12.477 -1.2488  0.1933 -0.0073
 9320SOL     OW39595   4.398   2.594   8.934 -0.3117  1.0442 -0.2754
 9320SOL    HW139596   4.425   2.599   8.842  0.3618  1.0648 -0.0723
 9320SOL    HW239597   4.343   2.672   8.931 -0.4611  0.8690 -2.0233
 9321SOL     OW39598   3.042   4.357  15.819  1.3580  0.2344  0.0193
 9321SOL    HW139599   3.131   4.372  15.787  1.3943  1.2652  0.5959
 9321SOL    HW239600   2.988   4.390  15.748  2.9390  0.6011 -1.0134
 9322SOL     OW39601   0.632   4.191   7.190 -0.0423  0.3079 -0.0973
 9322SOL    HW139602   0.718   4.228   7.172  0.0540 -0.0169 -0.3100
 9322SOL    HW239603   0.617   4.215   7.282  2.0897 -0.7422  0.5285
 9323SOL     OW39604   0.084   1.229  15.990  0.3807  0.2991 -0.0724
 9323SOL    HW139605   0.069   1.323  15.982 -0.4330  0.1187 -0.6581
 9323SOL    HW239606   4.736   1.203  16.025 -0.0003  1.4804 -0.1361
 9324SOL     OW39607   2.388   4.339   2.514 -0.1951 -0.2377 -0.0917
 9324SOL    HW139608   2.458   4.399   2.541  0.3655 -0.8871 -0.1157
 9324SOL    HW239609   2.423   4.278   2.449 -0.4110 -0.2212 -0.2241
 9325SOL     OW39610   1.442   1.402  13.937 -0.3616  0.0473  0.0159
 9325SOL    HW139611   1.511   1.468  13.933 -1.0079  0.7263 -0.0062
 9325SOL    HW239612   1.389   1.442  13.869  1.5059 -0.2624 -1.6236
 9326SOL     OW39613   3.454   1.392   7.895  0.3153 -0.5323  0.2315
 9326SOL    HW139614   3.444   1.325   7.962  0.5147  0.5205  1.3193
 9326SOL    HW239615   3.547   1.381   7.877  0.3168 -0.4652  0.1977
 9327SOL     OW39616   0.981   4.099   5.849  0.5606  0.4899  0.1716
 9327SOL    HW139617   1.025   4.014   5.855 -0.1972  0.2686  2.6911
 9327SOL    HW239618   0.943   4.095   5.937  1.0343 -0.7936  0.3235
 9328SOL     OW39619   0.825   1.452  16.467  0.5811 -0.4285  0.3806
 9328SOL    HW139620   0.905   1.484  16.509 -1.0654  1.0175  2.4295
 9328SOL    HW239621   0.820   1.360  16.494  0.6544 -1.3880 -2.9090
 9329SOL     OW39622   3.314   3.345   8.659  0.6704 -0.0360 -0.2663
 9329SOL    HW139623   3.284   3.421   8.709  1.3567  0.5989 -0.8021
 9329SOL    HW239624   3.265   3.361   8.578 -1.2730  0.1553  0.9342
 9330SOL     OW39625   2.075   2.427   8.339 -0.1663  0.4153  0.7628
 9330SOL    HW139626   2.010   2.493   8.361 -1.4785 -1.0666  1.2885
 9330SOL    HW239627   2.077   2.434   8.244 -3.3138 -0.1432  0.6727
 9331SOL     OW39628   2.852   3.996  13.509  0.2929  0.1272 -0.2262
 9331SOL    HW139629   2.812   3.966  13.591  1.2976  0.2963  0.3143
 9331SOL    HW239630   2.808   4.079  13.489  2.5809  1.9342  2.1510
 9332SOL     OW39631   2.808   1.654  11.512  0.2312  0.0084 -0.4438
 9332SOL    HW139632   2.751   1.665  11.588  0.4194  1.5914 -0.5253
 9332SOL    HW239633   2.884   1.702  11.543  0.8976 -0.4435 -1.3705
 9333SOL     OW39634   2.963   3.466  17.328 -0.6963  0.0533 -0.5118
 9333SOL    HW139635   2.927   3.541  17.375  1.5788  1.3830 -0.8885
 9333SOL    HW239636   2.953   3.402  17.398 -1.7915  0.6750 -0.0998
 9334SOL     OW39637   1.040   3.636   6.477  0.0737 -0.2282 -0.4127
 9334SOL    HW139638   1.103   3.596   6.537  1.0463  2.4942  0.3912
 9334SOL    HW239639   1.063   3.591   6.397  2.0266  0.7931 -0.4188
 9335SOL     OW39640   2.951   2.978   7.695  0.5098 -0.6741 -0.3728
 9335SOL    HW139641   2.971   2.907   7.757  0.3676 -0.4457 -0.0650
 9335SOL    HW239642   2.970   2.930   7.615  1.4900  0.6223 -0.9059
 9336SOL     OW39643   2.307   3.527   3.388 -0.4323  0.3098 -0.2068
 9336SOL    HW139644   2.386   3.493   3.432 -0.6026 -0.7212 -0.7081
 9336SOL    HW239645   2.341   3.616   3.378  1.5726 -0.3684  0.4269
 9337SOL     OW39646   2.751   1.928   7.899  0.9983 -0.5515 -0.1519
 9337SOL    HW139647   2.677   1.892   7.948  0.8206 -1.1927 -0.8875
 9337SOL    HW239648   2.755   1.865   7.827  2.7904  0.2700 -0.7816
 9338SOL     OW39649   2.770   1.402   0.736  0.5766 -0.1872 -0.2204
 9338SOL    HW139650   2.757   1.475   0.675 -2.6821 -1.4557 -1.0523
 9338SOL    HW239651   2.856   1.423   0.773  0.0678  2.0710 -0.3353
 9339SOL     OW39652   0.642   4.330   6.074  0.1951  0.2129  0.5905
 9339SOL    HW139653   0.694   4.354   6.152  1.9453 -0.9617 -0.2058
 9339SOL    HW239654   0.553   4.352   6.100  0.7275  0.9501  1.8227
 9340SOL     OW39655   4.072   2.686   4.816 -0.1647 -0.5615  0.5440
 9340SOL    HW139656   4.102   2.776   4.831  0.2549 -0.9732  2.1512
 9340SOL    HW239657   4.023   2.696   4.735 -0.0390  1.2740  0.7063
 9341SOL     OW39658   3.597   0.630   2.322  0.3775 -0.2162 -0.0423
 9341SOL    HW139659   3.639   0.547   2.303  0.8204 -0.4659  2.0291
 9341SOL    HW239660   3.524   0.606   2.380 -0.2917  0.3971 -0.6175
 9342SOL     OW39661   0.131   3.343   3.151  0.5265  0.3163 -0.4558
 9342SOL    HW139662   0.109   3.278   3.217 -1.1618  1.1491 -0.2132
 9342SOL    HW239663   0.225   3.325   3.142  0.6897  1.2923 -0.7411
 9343SOL     OW39664   2.215   0.030   7.331 -0.8353 -0.0314  0.3153
 9343SOL    HW139665   2.222   0.120   7.362  2.7596  0.7137 -2.6484
 9343SOL    HW239666   2.151   0.043   7.262 -1.2184 -0.2955  0.6230
 9344SOL     OW39667   1.547   1.149  15.964 -0.5319  0.5169 -0.7240
 9344SOL    HW139668   1.604   1.186  15.896 -1.1537  3.6512  0.4789
 9344SOL    HW239669   1.510   1.076  15.913  0.2506  0.1782 -0.8223
 9345SOL     OW39670   1.226   3.958   2.899  0.5518  0.0839  0.0040
 9345SOL    HW139671   1.234   3.876   2.948 -0.9543  1.2990  2.2220
 9345SOL    HW239672   1.136   3.981   2.921  0.1534 -0.8542 -0.6106
 9346SOL     OW39673   0.251   1.511   8.628 -0.2255  0.2049  0.0246
 9346SOL    HW139674   0.287   1.577   8.569  1.1916 -0.5345  0.0522
 9346SOL    HW239675   0.225   1.442   8.567 -0.0296  1.1090 -1.0875
 9347SOL     OW39676   3.457   2.522  17.252 -0.2130  0.5812  0.7832
 9347SOL    HW139677   3.547   2.489  17.255 -0.9003 -1.5150 -0.9740
 9347SOL    HW239678   3.419   2.434  17.259 -1.3501  1.0914  0.9417
 9348SOL     OW39679   2.931   3.246  15.409 -0.3237  0.5908 -0.1321
 9348SOL    HW139680   2.852   3.300  15.400  0.3318  1.5641 -0.0254
 9348SOL    HW239681   2.986   3.271  15.335  1.2498  0.1037  0.8825
 9349SOL     OW39682   4.434   0.011  13.024 -0.0305  0.1689 -0.0297
 9349SOL    HW139683   4.477   0.089  13.059  0.2844  0.0760 -0.2074
 9349SOL    HW239684   4.361   0.001  13.085 -1.0172  1.0034 -1.0756
 9350SOL     OW39685   3.989   0.189  16.631  0.8215  0.2071  0.3953
 9350SOL    HW139686   4.070   0.139  16.626  1.7784  1.6662  0.9680
 9350SOL    HW239687   3.944   0.146  16.704  1.3548 -1.0507 -0.0235
 9351SOL     OW39688   2.903   4.469   8.365 -0.2061 -0.2332 -0.3833
 9351SOL    HW139689   2.978   4.528   8.359 -0.7087  0.4284 -0.1106
 9351SOL    HW239690   2.893   4.460   8.459 -1.9652 -1.7449 -0.7228
 9352SOL     OW39691   0.710   1.894   1.789 -0.3890 -0.6027 -0.3848
 9352SOL    HW139692   0.739   1.821   1.734  0.1120 -0.2535 -0.5872
 9352SOL    HW239693   0.736   1.967   1.733 -0.5057 -0.2558  0.0142
 9353SOL     OW39694   3.453   1.486   4.132  0.2261 -0.3056 -0.3538
 9353SOL    HW139695   3.359   1.504   4.120 -0.0108 -0.2029  1.5751
 9353SOL    HW239696   3.451   1.390   4.132 -0.3879 -0.2997 -5.1582
 9354SOL     OW39697   0.487   0.134   1.111  0.0494 -0.2426  0.2884
 9354SOL    HW139698   0.582   0.147   1.112 -0.1420  1.2107 -2.9350
 9354SOL    HW239699   0.470   0.060   1.170 -0.5366  0.2642  0.7560
 9355SOL     OW39700   4.298   0.216   7.029 -0.0037 -0.1338 -0.0090
 9355SOL    HW139701   4.275   0.124   7.024 -1.3640  0.2355 -0.5345
 9355SOL    HW239702   4.238   0.256   7.092 -0.9209 -1.5856  0.0408
 9356SOL     OW39703   3.581   2.668   6.192 -0.0657  0.2735 -0.5915
 9356SOL    HW139704   3.537   2.585   6.211  0.0684  0.5532  0.9808
 9356SOL    HW239705   3.528   2.731   6.242  1.2884  1.3996 -0.5816
 9357SOL     OW39706   1.980   3.591   7.334  0.0573  0.2292  0.3562
 9357SOL    HW139707   1.988   3.683   7.308 -2.3984  0.2604 -0.3006
 9357SOL    HW239708   2.063   3.570   7.376 -1.3772  0.1137  3.1733
 9358SOL     OW39709   4.539   2.469  17.135 -0.3064 -0.4544 -0.3784
 9358SOL    HW139710   4.631   2.459  17.160 -0.0947 -0.2534 -1.0631
 9358SOL    HW239711   4.507   2.380  17.145  0.6408 -0.5233  2.0225
 9359SOL     OW39712   1.315   2.343   5.356 -0.4442  0.3431  0.7094
 9359SOL    HW139713   1.410   2.334   5.348 -0.2916  1.2166  1.6940
 9359SOL    HW239714   1.291   2.324   5.265 -1.1531 -1.7602  1.3417
 9360SOL     OW39715   0.842   0.295  17.606 -0.5019 -0.1346  0.3488
 9360SOL    HW139716   0.847   0.304  17.702 -1.5976 -1.3927  0.5040
 9360SOL    HW239717   0.837   0.200  17.597  2.1899 -0.0595 -1.7772
 9361SOL     OW39718   2.858   3.968   2.242  0.1107 -0.2896 -0.2344
 9361SOL    HW139719   2.834   3.886   2.197  2.3682 -0.0666 -1.8112
 9361SOL    HW239720   2.909   3.938   2.317  1.5448 -0.9837 -1.4871
 9362SOL     OW39721   1.198   1.286   6.713  0.5296 -0.1732  0.2804
 9362SOL    HW139722   1.107   1.308   6.693  0.6022  0.9845  1.2297
 9362SOL    HW239723   1.245   1.322   6.638 -0.8839  0.4434 -0.3029
 9363SOL     OW39724   3.384   2.962   2.591 -0.3356  0.0237 -0.2877
 9363SOL    HW139725   3.397   2.948   2.685  1.4763 -2.7502 -0.9794
 9363SOL    HW239726   3.474   2.982   2.564  0.0669 -0.1395  0.9378
 9364SOL     OW39727   0.641   1.977   6.703 -0.0620  0.1879 -0.3422
 9364SOL    HW139728   0.709   2.029   6.660  2.1467 -2.7297 -0.3789
 9364SOL    HW239729   0.639   2.019   6.789  0.9668 -0.1373 -0.1632
 9365SOL     OW39730   0.438   3.355   7.355  0.0243 -0.2060 -0.6452
 9365SOL    HW139731   0.427   3.445   7.324 -2.9691 -0.7647 -1.2710
 9365SOL    HW239732   0.532   3.349   7.340 -0.0667 -2.8737 -0.0237
 9366SOL     OW39733   1.454   4.239   0.807 -0.1067  0.3237 -0.4079
 9366SOL    HW139734   1.550   4.242   0.801 -0.0913 -2.2708 -1.1011
 9366SOL    HW239735   1.439   4.210   0.717 -1.5466 -1.5372  0.4558
 9367SOL     OW39736   4.713   3.102   2.246 -0.2544 -0.4798  0.0782
 9367SOL    HW139737   0.005   3.187   2.278 -1.3409 -0.1450  0.2020
 9367SOL    HW239738   0.041   3.039   2.275 -0.7181 -1.2581 -0.5887
 9368SOL     OW39739   3.345   2.379   9.530  0.1775  0.2836  0.2465
 9368SOL    HW139740   3.418   2.415   9.581  1.4302 -0.0104 -1.3479
 9368SOL    HW239741   3.339   2.440   9.457 -0.6474 -0.2854 -0.1677
 9369SOL     OW39742   3.672   1.037   8.677  0.1120 -0.3734  0.1624
 9369SOL    HW139743   3.733   1.072   8.742 -0.7039 -0.1028  0.7762
 9369SOL    HW239744   3.604   1.104   8.667  1.9330  1.4532 -0.0290
 9370SOL     OW39745   1.948   3.883   4.279 -0.1113  0.0861  0.4102
 9370SOL    HW139746   1.911   3.923   4.358 -1.2857  1.1166 -0.6590
 9370SOL    HW239747   1.915   3.942   4.211 -0.0218  1.1840  1.3074
 9371SOL     OW39748   1.350   2.369  15.418 -0.4330  0.0562 -0.1040
 9371SOL    HW139749   1.440   2.340  15.405 -0.1555  1.3024 -0.9979
 9371SOL    HW239750   1.364   2.461  15.393  2.0784  0.0018  1.1268
 9372SOL     OW39751   3.288   3.158   6.434 -0.0198  0.5750 -0.3073
 9372SOL    HW139752   3.276   3.166   6.529 -1.1748  1.3359 -0.5191
 9372SOL    HW239753   3.280   3.063   6.437  0.7370  0.5138 -0.2774
 9373SOL     OW39754   4.628   2.335   6.345 -0.3251 -0.3349  0.6026
 9373SOL    HW139755   4.534   2.328   6.330 -0.4610  0.0712  1.2542
 9373SOL    HW239756   4.657   2.282   6.271  2.4771  0.7287  0.9378
 9374SOL     OW39757   1.294   3.855   3.813 -0.2915  0.0926  0.0769
 9374SOL    HW139758   1.336   3.935   3.845 -1.7072  0.2465  1.5269
 9374SOL    HW239759   1.374   3.808   3.786 -0.0848  1.2899 -1.4100
 9375SOL     OW39760   3.691   4.106  14.490 -0.3974 -0.2041  0.5564
 9375SOL    HW139761   3.644   4.054  14.424 -3.2821  1.3147  1.4378
 9375SOL    HW239762   3.780   4.103  14.455 -0.6357  1.4485 -0.1811
 9376SOL     OW39763   1.939   3.864   5.415  0.4099  0.7589  0.0544
 9376SOL    HW139764   1.847   3.846   5.395  0.4745  0.8477 -0.3314
 9376SOL    HW239765   1.973   3.895   5.331  0.5189  0.9671  0.1752
 9377SOL     OW39766   1.060   4.695   6.253  0.1722  0.2891  0.0923
 9377SOL    HW139767   1.052   0.039   6.302 -0.9582  0.9864 -1.2778
 9377SOL    HW239768   1.078   4.630   6.321 -0.4656 -0.4330 -0.4316
 9378SOL     OW39769   0.831   0.188   8.633 -0.0900  0.2245 -0.2444
 9378SOL    HW139770   0.921   0.180   8.603 -0.2724  1.6001 -1.1835
 9378SOL    HW239771   0.843   0.172   8.727 -0.5185 -1.5652 -0.5097
 9379SOL     OW39772   1.971   2.338   0.143  0.1112  0.1671  0.4071
 9379SOL    HW139773   2.066   2.339   0.154  0.4332 -2.1687 -1.9681
 9379SOL    HW239774   1.958   2.346   0.049 -1.9887  1.8218  0.8387
 9380SOL     OW39775   0.428   3.331   5.374 -0.1507  0.3133 -0.0638
 9380SOL    HW139776   0.368   3.365   5.440  1.2633  0.5511  1.1092
 9380SOL    HW239777   0.419   3.240   5.403  2.6736  0.8736  2.6238
 9381SOL     OW39778   4.178   1.813   6.613  0.4140 -0.5327  0.0519
 9381SOL    HW139779   4.189   1.828   6.707 -1.3074 -0.5660  0.2575
 9381SOL    HW239780   4.169   1.718   6.614 -0.2070 -0.4936 -1.2588
 9382SOL     OW39781   4.249   3.155   3.506  0.2560  0.7524 -0.5507
 9382SOL    HW139782   4.274   3.248   3.507 -2.8807  1.5935 -0.4789
 9382SOL    HW239783   4.283   3.129   3.592 -1.1161  0.8558  0.0251
 9383SOL     OW39784   1.465   2.007   2.480  0.6396  0.2668  0.2282
 9383SOL    HW139785   1.492   2.077   2.539  0.1653 -2.4358  3.6852
 9383SOL    HW239786   1.450   1.933   2.539 -2.9631  0.7093 -0.0863
 9384SOL     OW39787   0.503   3.048   5.483  0.1153  0.0147 -0.0897
 9384SOL    HW139788   0.548   3.062   5.400  0.0043  1.9194  0.1665
 9384SOL    HW239789   0.570   2.994   5.524 -0.8682 -0.5285  0.7905
 9385SOL     OW39790   3.534   4.006   8.492  0.5996 -0.0014 -0.4062
 9385SOL    HW139791   3.562   3.942   8.558 -0.4612 -0.6863 -0.6167
 9385SOL    HW239792   3.494   4.066   8.555  0.0862  1.1279 -1.8268
 9386SOL     OW39793   0.018   2.182  12.456 -0.1487 -0.0002 -0.0121
 9386SOL    HW139794   0.108   2.213  12.460 -0.1317  0.1326 -1.4756
 9386SOL    HW239795   0.027   2.098  12.411  1.8467 -0.4740  1.3061
 9387SOL     OW39796   1.590   3.701  12.162  0.2913 -0.3573  0.8587
 9387SOL    HW139797   1.646   3.626  12.143  1.7614  1.1619 -0.7358
 9387SOL    HW239798   1.574   3.677  12.253  0.2590 -0.4836  0.8204
 9388SOL     OW39799   1.564   1.113  16.398  0.4969 -0.2518 -0.1299
 9388SOL    HW139800   1.603   1.113  16.485  2.5879 -1.4385 -1.0500
 9388SOL    HW239801   1.546   1.021  16.377  1.9379 -0.1859 -1.6899
 9389SOL     OW39802   4.345   0.753   6.633  0.2048 -0.3590 -0.0753
 9389SOL    HW139803   4.356   0.831   6.687 -0.0382 -0.5233  0.2115
 9389SOL    HW239804   4.428   0.709   6.653  0.2783 -1.0326 -1.8412
 9390SOL     OW39805   4.281   4.526   9.191  0.2834  0.6734 -0.2142
 9390SOL    HW139806   4.371   4.551   9.173  0.4358 -0.3551 -0.8611
 9390SOL    HW239807   4.231   4.582   9.131  0.2299  0.4739 -0.3595
 9391SOL     OW39808   3.264   4.459   9.503 -0.2403  0.1154  0.3440
 9391SOL    HW139809   3.278   4.419   9.417  0.8559  2.5091 -0.6144
 9391SOL    HW239810   3.328   4.405   9.548 -0.5601 -0.1287  0.5035
 9392SOL     OW39811   1.329   3.564  17.065  0.5143  0.0318  0.4979
 9392SOL    HW139812   1.270   3.632  17.032 -1.3787 -0.3674  3.1406
 9392SOL    HW239813   1.298   3.497  17.004  0.0893  1.3893 -0.7914
 9393SOL     OW39814   2.629   1.671  17.168 -0.3191 -1.0553  0.1467
 9393SOL    HW139815   2.560   1.608  17.189 -0.3260 -1.1108 -0.0348
 9393SOL    HW239816   2.676   1.618  17.104 -0.0399 -0.9743  0.2873
 9394SOL     OW39817   3.391   3.946   4.185 -0.3758 -0.1724  0.1742
 9394SOL    HW139818   3.384   3.956   4.090 -1.2933  1.5455  0.4329
 9394SOL    HW239819   3.487   3.947   4.184 -0.3744  2.0745  3.0595
 9395SOL     OW39820   1.128   2.084   3.061  0.5834 -0.1289  0.0086
 9395SOL    HW139821   1.159   1.999   3.093  0.8961  0.0250  0.1157
 9395SOL    HW239822   1.040   2.079   3.099  1.6359  0.8860  2.5674
 9396SOL     OW39823   3.583   3.269   9.435  0.0690 -0.1165  0.4048
 9396SOL    HW139824   3.631   3.350   9.419 -1.1216  0.2521 -1.2375
 9396SOL    HW239825   3.658   3.212   9.454  0.0536 -0.5103 -0.7135
 9397SOL     OW39826   0.428   4.531   6.071 -0.4794  0.4542 -0.6005
 9397SOL    HW139827   0.354   4.506   6.017 -0.8272  1.2522 -0.4921
 9397SOL    HW239828   0.392   4.506   6.156  0.0711  1.9617  0.0802
 9398SOL     OW39829   4.355   2.956  17.572  0.4605  0.1803  0.4885
 9398SOL    HW139830   4.431   2.979  17.627 -0.0779  0.7330  0.9964
 9398SOL    HW239831   4.351   3.032  17.514 -2.6555 -1.0307 -0.8527
 9399SOL     OW39832   3.585   2.200   6.387 -0.5687 -0.8685  0.4666
 9399SOL    HW139833   3.592   2.132   6.321 -0.6140  1.6788 -2.1769
 9399SOL    HW239834   3.551   2.270   6.331 -1.6540 -3.0922 -1.6461
 9400SOL     OW39835   1.408   1.917   0.316 -0.0038 -0.1750  0.5436
 9400SOL    HW139836   1.486   1.968   0.335  0.8345 -1.5460  0.7801
 9400SOL    HW239837   1.436   1.830   0.290  2.8970 -0.2642  3.9531
 9401SOL     OW39838   3.459   0.010  11.085 -0.0143 -0.1774 -0.2843
 9401SOL    HW139839   3.381   4.708  11.045  0.4485 -1.1371 -0.2467
 9401SOL    HW239840   3.423   0.098  11.094  2.8252  0.6313  3.0572
 9402SOL     OW39841   2.959   1.964   1.767  0.5296  0.0062 -0.0344
 9402SOL    HW139842   2.964   1.912   1.848 -0.7364 -0.8646 -0.5033
 9402SOL    HW239843   2.971   2.052   1.803 -2.2416  1.2167 -2.0845
 9403SOL     OW39844   3.864   2.994   2.114  0.6082  0.5074  0.7602
 9403SOL    HW139845   3.798   3.031   2.055  0.8802  2.1053  1.4362
 9403SOL    HW239846   3.859   2.899   2.114  0.6082  0.4957 -0.9016
 9404SOL     OW39847   3.298   1.895  17.236 -0.2110  0.6555  0.0729
 9404SOL    HW139848   3.228   1.946  17.276 -0.5997  0.9902 -1.0400
 9404SOL    HW239849   3.238   1.825  17.211  1.6160 -0.5989 -0.8177
 9405SOL     OW39850   3.967   2.529   1.052 -0.0463  0.0543  0.4419
 9405SOL    HW139851   3.876   2.557   1.053 -0.2308 -0.5118 -1.1154
 9405SOL    HW239852   3.965   2.463   1.122 -1.9710  1.4372  1.6754
 9406SOL     OW39853   1.240   3.492   4.132 -0.3611  0.1918 -0.1821
 9406SOL    HW139854   1.275   3.460   4.048 -0.3954  0.1317 -0.1738
 9406SOL    HW239855   1.244   3.587   4.120  3.5434  0.0300  0.0551
 9407SOL     OW39856   3.272   2.518  12.368 -0.2395  0.2567 -0.5683
 9407SOL    HW139857   3.258   2.424  12.378 -1.4614  0.5072  0.2191
 9407SOL    HW239858   3.218   2.545  12.294 -1.7290 -1.7957 -0.2184
 9408SOL     OW39859   3.339   3.744   5.438  0.7041 -0.1638 -0.0349
 9408SOL    HW139860   3.285   3.811   5.395  0.8589 -0.3796 -0.5723
 9408SOL    HW239861   3.422   3.750   5.390 -0.7557 -0.5430 -2.6161
 9409SOL     OW39862   4.282   0.161  15.005 -0.8536  0.3587  0.2690
 9409SOL    HW139863   4.283   0.253  14.980  0.9066  0.6127  1.2582
 9409SOL    HW239864   4.370   0.146  15.039 -0.0400  0.1995 -1.8934
 9410SOL     OW39865   3.502   1.891   3.106  0.5054  0.2648 -0.3881
 9410SOL    HW139866   3.474   1.899   3.015  1.1013  0.3396 -0.5577
 9410SOL    HW239867   3.416   1.875   3.146  1.0731  3.0308  1.9405
 9411SOL     OW39868   3.016   1.314  15.061  0.0973 -0.0601 -0.6267
 9411SOL    HW139869   3.026   1.403  15.025  0.3125 -0.2773 -1.1005
 9411SOL    HW239870   2.923   1.303  15.043 -0.4767 -3.3444  4.5481
 9412SOL     OW39871   0.453   4.345   1.145 -0.3768  0.0130  0.2869
 9412SOL    HW139872   0.390   4.366   1.076  0.0598 -0.6760 -0.3249
 9412SOL    HW239873   0.479   4.257   1.117 -3.4276 -0.9683  0.5605
 9413SOL     OW39874   3.569   4.557   4.039 -0.1210  0.1014 -0.5330
 9413SOL    HW139875   3.526   4.481   4.079 -0.2234  0.9228  0.9287
 9413SOL    HW239876   3.661   4.549   4.061 -0.5824  2.5255  2.2802
 9414SOL     OW39877   2.433   3.130   6.440  0.7897  0.0175 -0.1768
 9414SOL    HW139878   2.455   3.212   6.397  0.4611  1.2616  2.0476
 9414SOL    HW239879   2.478   3.131   6.525 -2.0726 -2.5260  1.3682
 9415SOL     OW39880   0.230   3.806   9.580 -0.0935  0.0390  0.1834
 9415SOL    HW139881   0.165   3.761   9.526  1.1531  0.4038 -1.6168
 9415SOL    HW239882   0.307   3.817   9.523  1.1722  0.0816  1.8998
 9416SOL     OW39883   1.579   1.876   3.629  0.4802 -0.1646  0.5780
 9416SOL    HW139884   1.670   1.878   3.601  0.4874  0.3021  0.6446
 9416SOL    HW239885   1.541   1.949   3.579  1.4021  1.2497  1.9473
 9417SOL     OW39886   1.540   2.188  14.811 -0.4065 -0.0754 -0.4014
 9417SOL    HW139887   1.471   2.132  14.847 -1.4261  1.0509 -0.6358
 9417SOL    HW239888   1.619   2.164  14.860  1.0141  2.0279 -1.6785
 9418SOL     OW39889   2.424   1.365   0.932  0.3706  0.0555 -0.8428
 9418SOL    HW139890   2.514   1.339   0.912  1.7615  1.8922  3.0169
 9418SOL    HW239891   2.399   1.281   0.969  1.6662 -0.7412 -1.7732
 9419SOL     OW39892   0.278   2.500   1.322  0.3776 -0.5102  0.0856
 9419SOL    HW139893   0.245   2.412   1.343 -0.3578 -0.6059 -1.3937
 9419SOL    HW239894   0.226   2.543   1.389  0.5337 -1.1007  0.5852
 9420SOL     OW39895   3.288   4.630  16.358  0.1716  0.2876 -0.2480
 9420SOL    HW139896   3.334   4.692  16.415  1.9584 -2.2702  1.1376
 9420SOL    HW239897   3.216   4.604  16.416  0.1842 -0.3929 -0.5334
 9421SOL     OW39898   0.891   0.421   5.420  0.4674  0.0375  0.5193
 9421SOL    HW139899   0.977   0.395   5.386  0.7655  1.7631 -0.0193
 9421SOL    HW239900   0.902   0.511   5.392 -2.2207  0.3015  0.3893
 9422SOL     OW39901   3.518   2.395   6.219 -0.1054 -0.1018 -0.1300
 9422SOL    HW139902   3.584   2.382   6.151  0.4912 -0.0808  0.4519
 9422SOL    HW239903   3.434   2.403   6.173 -0.3614  0.7875  0.4792
 9423SOL     OW39904   1.801   0.890   2.586 -0.0430  0.4297 -0.3707
 9423SOL    HW139905   1.841   0.804   2.572 -2.9614 -0.7943 -1.2893
 9423SOL    HW239906   1.773   0.862   2.673 -1.2951  0.6004 -0.7244
 9424SOL     OW39907   3.588   3.254   8.197 -0.4721 -0.7599  0.7799
 9424SOL    HW139908   3.555   3.331   8.244 -1.1247 -0.5125 -0.0884
 9424SOL    HW239909   3.538   3.186   8.241 -0.6614 -1.5886 -0.7149
 9425SOL     OW39910   1.021   4.004   8.464  0.0921 -0.4975 -0.3912
 9425SOL    HW139911   0.927   4.012   8.446  0.0461  0.2901  0.1893
 9425SOL    HW239912   1.031   3.917   8.502 -0.7507 -1.1183 -1.5967
 9426SOL     OW39913   0.966   4.288   7.625  0.3478  0.1483 -0.3529
 9426SOL    HW139914   1.029   4.349   7.586 -0.4262 -0.1064 -1.9815
 9426SOL    HW239915   0.929   4.248   7.546  1.3718 -4.0620  1.2936
 9427SOL     OW39916   3.464   2.081  17.088 -0.5259  0.1548  0.1321
 9427SOL    HW139917   3.387   2.025  17.104 -1.2888  2.0286  2.9234
 9427SOL    HW239918   3.439   2.120  17.004 -0.7393  0.3521  0.2865
 9428SOL     OW39919   4.644   3.414   4.058  0.1295 -0.2582 -0.1217
 9428SOL    HW139920   4.680   3.390   3.973  0.4976 -0.2428  0.0291
 9428SOL    HW239921   4.689   3.496   4.078  2.0074 -1.2904 -0.0426
 9429SOL     OW39922   4.502   0.139   2.835  0.6050 -0.0954 -0.0097
 9429SOL    HW139923   4.484   0.197   2.910 -0.8952 -0.9233  0.2698
 9429SOL    HW239924   4.563   0.078   2.875  1.5134  0.2045 -0.9575
 9430SOL     OW39925   2.660   0.591   8.479  0.5913  0.0918  0.8772
 9430SOL    HW139926   2.583   0.581   8.424  0.0613 -1.9121  1.9444
 9430SOL    HW239927   2.733   0.603   8.418 -0.2347 -0.0747 -0.1408
 9431SOL     OW39928   4.735   0.249   4.508  0.3423 -0.6134 -0.1147
 9431SOL    HW139929   4.716   0.170   4.459  2.4329 -1.0282 -0.2655
 9431SOL    HW239930   4.656   0.263   4.560  1.8056  1.2332  1.6311
 9432SOL     OW39931   0.793   3.660   5.578  0.0800  0.6717  0.2405
 9432SOL    HW139932   0.880   3.642   5.544  0.0126  1.2641 -0.2613
 9432SOL    HW239933   0.763   3.571   5.593  2.1225  0.1361  1.0907
 9433SOL     OW39934   3.784   2.969  13.471 -0.3428  0.0674  0.1978
 9433SOL    HW139935   3.697   3.000  13.449  0.9370  2.5002 -1.3996
 9433SOL    HW239936   3.841   3.042  13.448  0.3038  0.0436  1.7065
 9434SOL     OW39937   2.600   4.053   7.219 -0.3225 -0.0455  0.1844
 9434SOL    HW139938   2.582   3.988   7.152  0.9498 -1.1830  0.9495
 9434SOL    HW239939   2.684   4.024   7.253 -0.1332 -1.9567 -1.9765
 9435SOL     OW39940   2.796   3.609   8.470  0.6130 -0.2947 -0.8280
 9435SOL    HW139941   2.814   3.692   8.425 -2.7718  0.6430 -0.4308
 9435SOL    HW239942   2.704   3.632   8.481  1.0255  0.8949  0.1329
 9436SOL     OW39943   3.417   0.430  13.131 -0.6775  0.5188 -0.4868
 9436SOL    HW139944   3.487   0.401  13.073 -1.1230 -0.5925 -0.4672
 9436SOL    HW239945   3.338   0.410  13.081  0.0439 -0.0850 -1.3744
 9437SOL     OW39946   3.676   4.320   3.754 -0.0863 -0.3681 -0.4706
 9437SOL    HW139947   3.679   4.343   3.847  1.3299  1.1115 -0.8831
 9437SOL    HW239948   3.674   4.224   3.750  1.1747 -0.6159  5.1099
 9438SOL     OW39949   4.591   4.004  17.385  0.0463 -0.5713 -0.7949
 9438SOL    HW139950   4.545   4.004  17.469 -2.0772 -1.5529 -1.9849
 9438SOL    HW239951   4.574   3.912  17.370 -0.6029 -0.2939 -1.7076
 9439SOL     OW39952   4.023   3.037   8.954  0.1562 -0.1149  0.1816
 9439SOL    HW139953   3.997   2.999   9.037 -1.6416 -0.9822 -0.7844
 9439SOL    HW239954   3.942   3.047   8.904 -0.1149 -1.2313  0.4125
 9440SOL     OW39955   1.268   0.427   7.689 -0.2549 -0.2375 -0.3374
 9440SOL    HW139956   1.228   0.498   7.640 -0.4102  0.4541  0.7947
 9440SOL    HW239957   1.213   0.419   7.768 -0.4713 -0.5827 -0.5207
 9441SOL     OW39958   3.184   0.104   6.222 -0.2374  0.8280  1.0658
 9441SOL    HW139959   3.157   0.013   6.237 -0.8007  0.1676 -3.8407
 9441SOL    HW239960   3.222   0.095   6.134  1.5033 -0.4761  1.9475
 9442SOL     OW39961   3.260   0.488  16.336  0.3595  0.0410  0.0209
 9442SOL    HW139962   3.331   0.552  16.346  0.4762 -0.4578  2.5867
 9442SOL    HW239963   3.317   0.415  16.312 -0.3879 -0.4707 -0.1651
 9443SOL     OW39964   4.147   1.107   3.624  0.6580  0.7645 -0.0176
 9443SOL    HW139965   4.201   1.121   3.546  1.8088  0.3837  0.7006
 9443SOL    HW239966   4.063   1.071   3.597  0.6973  0.1001  0.7436
 9444SOL     OW39967   1.115   2.117   0.345  0.3849 -0.4202 -0.0451
 9444SOL    HW139968   1.042   2.111   0.284  1.4371  0.8521 -1.4177
 9444SOL    HW239969   1.177   2.053   0.311  1.5476 -0.0151  1.2967
 9445SOL     OW39970   4.710   0.760   3.373 -0.8913  0.6494 -0.5467
 9445SOL    HW139971   0.061   0.798   3.377 -0.4095 -0.7517  1.5617
 9445SOL    HW239972   4.680   0.783   3.285 -2.2833 -0.1963 -0.2955
 9446SOL     OW39973   0.505   4.721  13.938 -0.2866  0.4918  0.4018
 9446SOL    HW139974   0.588   0.027  13.922  1.5145 -2.0356  2.7304
 9446SOL    HW239975   0.523   4.660  14.010 -0.0314  0.7277  0.5336
 9447SOL     OW39976   3.852   1.605   1.241  0.5247 -0.3188  0.0524
 9447SOL    HW139977   3.796   1.543   1.287  1.1798  1.2252  2.9535
 9447SOL    HW239978   3.939   1.567   1.252  1.4979  1.5065 -1.2683
 9448SOL     OW39979   3.373   1.284  17.739 -0.2644 -0.4151  0.1590
 9448SOL    HW139980   3.344   1.199  17.708  0.0079 -1.1501  1.9576
 9448SOL    HW239981   3.461   1.268   0.024 -0.4215 -0.8941  0.3409
 9449SOL     OW39982   1.682   0.184   4.244  0.7864 -0.0463  0.2284
 9449SOL    HW139983   1.624   0.184   4.321 -0.5584  2.1117 -0.8093
 9449SOL    HW239984   1.767   0.186   4.288  0.1523  0.8670  1.4245
 9450SOL     OW39985   4.662   3.661   4.997 -0.3168 -0.3312 -0.0025
 9450SOL    HW139986   0.011   3.635   5.028 -1.8639 -0.3483  4.3382
 9450SOL    HW239987   4.681   3.749   4.964  0.5180 -0.7916 -0.7345
 9451SOL     OW39988   3.643   0.155   7.604  0.0540 -0.2926  0.2291
 9451SOL    HW139989   3.630   0.208   7.525 -0.6711  1.1275  1.3096
 9451SOL    HW239990   3.577   0.086   7.604 -1.1660  0.8723  0.9614
 9452SOL     OW39991   3.376   1.911   8.420 -0.3873 -0.0700 -0.2532
 9452SOL    HW139992   3.367   2.007   8.417  0.5390  0.0872  1.9946
 9452SOL    HW239993   3.422   1.900   8.337 -3.3773 -0.1145 -1.9107
 9453SOL     OW39994   4.422   0.027  13.884  0.1182  0.3994 -0.3887
 9453SOL    HW139995   4.459   0.008  13.970 -2.4363 -0.4395  0.5077
 9453SOL    HW239996   4.444   0.120  13.877 -0.5714  0.5543 -0.5063
 9454SOL     OW39997   0.322   2.701  16.828 -0.3183 -0.0682  0.0175
 9454SOL    HW139998   0.273   2.638  16.776 -2.7854  1.7314  0.2030
 9454SOL    HW239999   0.412   2.666  16.826 -0.8970 -1.4321 -1.8198
 9455SOL     OW40000   0.484   3.643  10.601  0.3607  1.2667  0.5267
 9455SOL    HW140001   0.444   3.556  10.595 -0.1024  1.3854  1.7750
 9455SOL    HW240002   0.502   3.664  10.509 -2.6930 -1.4918 -0.6681
 9456SOL     OW40003   4.188   3.438   6.608 -0.1746  0.9619  0.2458
 9456SOL    HW140004   4.228   3.352   6.618  1.0301  1.7340  2.0158
 9456SOL    HW240005   4.195   3.447   6.513 -2.9120 -0.2211 -0.0597
 9457SOL     OW40006   0.296   0.916   9.170 -0.2700  0.0503 -0.0185
 9457SOL    HW140007   0.367   0.981   9.163 -1.9992  1.7729 -1.6640
 9457SOL    HW240008   0.331   0.834   9.205  0.6754 -0.0243 -1.1274
 9458SOL     OW40009   0.120   1.526   3.107 -0.0781  0.0448 -0.0138
 9458SOL    HW140010   0.161   1.451   3.064  0.0460  0.5884 -0.8356
 9458SOL    HW240011   0.133   1.600   3.048 -0.0356 -0.1211 -0.2109
 9459SOL     OW40012   1.296   0.908  16.027  0.6904 -0.3670  0.2515
 9459SOL    HW140013   1.284   0.928  15.934 -2.4924  1.5030  1.0394
 9459SOL    HW240014   1.341   0.984  16.066 -0.5560  0.5844 -0.1525
 9460SOL     OW40015   1.317   2.591  17.498 -0.2440  0.2199  0.3632
 9460SOL    HW140016   1.329   2.600  17.403  1.6473  0.4915  0.6389
 9460SOL    HW240017   1.402   2.561  17.529 -0.2805  0.0332  0.2852
 9461SOL     OW40018   0.955   0.616  13.972  0.1058  0.4202 -0.2999
 9461SOL    HW140019   0.884   0.677  13.992 -1.7945 -0.8361 -3.0419
 9461SOL    HW240020   0.927   0.534  14.014  0.9908 -0.0337 -0.5898
 9462SOL     OW40021   3.020   2.104   8.433 -0.2337 -0.2403 -0.0334
 9462SOL    HW140022   3.045   2.062   8.515  3.0823  0.9137 -0.4558
 9462SOL    HW240023   2.932   2.138   8.450  0.6722  1.2504  1.7312
 9463SOL     OW40024   0.258   1.027   6.570  0.3699  0.3519  0.7054
 9463SOL    HW140025   0.170   1.003   6.599 -0.2501 -0.7932 -2.1225
 9463SOL    HW240026   0.304   0.943   6.565 -1.6340 -0.7112  0.0674
 9464SOL     OW40027   2.618   2.716  17.050  0.0889 -0.0595  0.6488
 9464SOL    HW140028   2.649   2.700  16.961 -0.0950  0.6551  0.4535
 9464SOL    HW240029   2.523   2.715  17.041 -0.0785  3.0871  2.2201
 9465SOL     OW40030   4.475   0.766   5.001 -0.1323  0.1605 -0.1177
 9465SOL    HW140031   4.526   0.761   4.920 -0.2727  0.4062 -0.2206
 9465SOL    HW240032   4.553   0.744   5.051 -0.7229 -0.0070  0.7362
 9466SOL     OW40033   4.588   2.850  12.178 -0.0186 -0.0216  0.3596
 9466SOL    HW140034   4.611   2.778  12.119 -1.1633  0.0416 -0.1814
 9466SOL    HW240035   4.555   2.806  12.256  1.0211  0.1473  0.8909
 9467SOL     OW40036   4.367   1.855   0.723  0.0262  0.2991 -0.5136
 9467SOL    HW140037   4.296   1.791   0.726  1.3516 -1.1167  0.3218
 9467SOL    HW240038   4.334   1.893   0.804  0.5354 -0.7480  0.1931
 9468SOL     OW40039   3.704   2.602   5.924  0.6579 -0.5716 -0.1213
 9468SOL    HW140040   3.678   2.518   5.963 -0.4478  1.5199  3.6345
 9468SOL    HW240041   3.684   2.647   6.005  0.5661  0.6778 -0.8450
 9469SOL     OW40042   4.474   2.716   5.037  0.6571  0.6132  0.6451
 9469SOL    HW140043   4.554   2.747   5.078  0.8786  0.6060  0.2143
 9469SOL    HW240044   4.424   2.671   5.106  0.9299 -0.4670  0.1316
 9470SOL     OW40045   0.818   3.482   8.593  0.3206 -0.2496  0.0292
 9470SOL    HW140046   0.869   3.562   8.604  0.3148 -0.0785 -1.1571
 9470SOL    HW240047   0.748   3.519   8.540 -1.6797 -1.9469  1.4779
 9471SOL     OW40048   3.784   4.040   9.843  0.3543 -0.7878 -0.7061
 9471SOL    HW140049   3.765   4.069   9.932 -0.9690  0.1426 -1.3038
 9471SOL    HW240050   3.795   3.946   9.857  0.0846 -0.6208  0.6476
 9472SOL     OW40051   3.768   3.987   9.441  0.4983  0.2459  0.0895
 9472SOL    HW140052   3.676   3.995   9.466  1.4148  1.8185  2.9785
 9472SOL    HW240053   3.773   4.067   9.388  0.5192  0.5638  0.5703
 9473SOL     OW40054   4.340   0.952   6.827  0.3564  0.5047 -0.4740
 9473SOL    HW140055   4.284   0.946   6.904  0.5447  1.3514 -0.2641
 9473SOL    HW240056   4.425   0.933   6.867 -0.1934 -0.5263  0.2034
 9474SOL     OW40057   1.172   4.318   1.883  0.2877 -0.0491  0.3567
 9474SOL    HW140058   1.259   4.349   1.859  0.6741 -0.6083  1.0230
 9474SOL    HW240059   1.111   4.364   1.826 -0.9005 -3.7749 -1.4336
 9475SOL     OW40060   2.146   0.653   7.980  0.2988 -0.2263  0.4071
 9475SOL    HW140061   2.210   0.650   7.908 -2.7799  0.2108 -2.3219
 9475SOL    HW240062   2.187   0.718   8.037  0.5392  1.6222 -1.8403
 9476SOL     OW40063   3.754   3.042  12.615 -0.2394  0.0082  0.0352
 9476SOL    HW140064   3.790   2.970  12.562  2.9240  0.6482  1.2913
 9476SOL    HW240065   3.699   3.007  12.685 -0.3060 -2.4809 -1.2429
 9477SOL     OW40066   2.050   4.445   5.094  0.4105  0.0303  0.5256
 9477SOL    HW140067   1.971   4.465   5.145  0.1595  0.0512  0.1299
 9477SOL    HW240068   2.081   4.532   5.070  3.5851 -1.0139  0.8517
 9478SOL     OW40069   4.364   4.693   7.562 -0.3618  0.2559 -0.2643
 9478SOL    HW140070   4.391   0.021   7.497  1.8380 -0.8682 -0.4769
 9478SOL    HW240071   4.440   4.678   7.617 -1.5244 -0.8601  1.0267
 9479SOL     OW40072   1.746   2.855   6.147  0.7402 -0.5627 -0.4104
 9479SOL    HW140073   1.826   2.907   6.154  1.1894 -1.0989 -1.6019
 9479SOL    HW240074   1.786   2.772   6.175  2.7743 -0.0751 -1.8724
 9480SOL     OW40075   1.586   3.875   1.430  0.3143 -0.3015  0.0161
 9480SOL    HW140076   1.648   3.946   1.451  1.7715 -1.1043 -1.5792
 9480SOL    HW240077   1.606   3.805   1.492 -0.6949 -0.5061  0.1110
 9481SOL     OW40078   2.622   1.268  11.087  0.0520  0.1478  0.2682
 9481SOL    HW140079   2.628   1.363  11.097 -2.8217  0.6143 -2.3200
 9481SOL    HW240080   2.678   1.262  11.009 -1.0677 -0.7566 -0.4662
 9482SOL     OW40081   0.749   1.931  14.532  0.1146 -0.5034  0.3929
 9482SOL    HW140082   0.813   1.865  14.507  0.7618  0.2777  0.0043
 9482SOL    HW240083   0.801   1.999  14.575 -1.7315 -1.0384  3.5464
 9483SOL     OW40084   3.204   4.387  17.667 -0.0840 -0.3181 -0.0437
 9483SOL    HW140085   3.158   4.315  17.625 -2.4625  0.0721  1.9044
 9483SOL    HW240086   3.253   4.408  17.587 -0.3002 -2.8577 -0.8412
 9484SOL     OW40087   2.702   3.450   7.658 -0.5082 -0.1045 -0.5476
 9484SOL    HW140088   2.761   3.417   7.590  1.2668  0.5311  0.7117
 9484SOL    HW240089   2.729   3.541   7.668  0.2809 -0.3411 -0.5154
 9485SOL     OW40090   3.596   1.131   7.630  0.5544 -0.1337  0.1539
 9485SOL    HW140091   3.577   1.225   7.620  0.1306 -0.5595 -2.9583
 9485SOL    HW240092   3.650   1.135   7.709 -2.3722 -0.6797  2.2094
 9486SOL     OW40093   0.222   0.859   7.188 -0.2204 -0.1593  0.5331
 9486SOL    HW140094   0.150   0.854   7.250  0.7737 -2.2614  1.5299
 9486SOL    HW240095   0.243   0.952   7.197  0.1764 -0.0819 -1.2228
 9487SOL     OW40096   3.432   4.495   7.307 -0.2923  0.9678  0.0491
 9487SOL    HW140097   3.360   4.445   7.346  0.6115  0.2981  0.8584
 9487SOL    HW240098   3.414   4.509   7.214 -0.5292  2.3311  0.2990
 9488SOL     OW40099   2.978   0.594   5.711 -0.4318  0.1633  0.2128
 9488SOL    HW140100   2.912   0.622   5.775  0.8285  0.1009  1.5302
 9488SOL    HW240101   2.954   0.668   5.655  1.7285  0.7652  0.0805
 9489SOL     OW40102   2.623   0.156   2.211  0.3505 -0.7970 -0.1897
 9489SOL    HW140103   2.593   0.066   2.201  0.6634 -0.9586  0.3615
 9489SOL    HW240104   2.687   0.163   2.282 -0.2145 -1.6530  0.4126
 9490SOL     OW40105   0.130   3.081   4.388 -0.0075  0.4924 -0.2720
 9490SOL    HW140106   0.216   3.068   4.348  0.2475 -1.9824  1.0982
 9490SOL    HW240107   0.147   3.058   4.479 -1.2786  0.3102 -0.0811
 9491SOL     OW40108   4.197   3.835   8.233  0.7466  0.2162 -0.6522
 9491SOL    HW140109   4.243   3.894   8.172 -0.8280  2.0578 -0.0684
 9491SOL    HW240110   4.120   3.889   8.253  0.3844 -0.9609  1.0623
 9492SOL     OW40111   3.012   1.633  11.179  0.0836 -0.5562  0.2457
 9492SOL    HW140112   3.089   1.688  11.167 -0.4204 -0.2163 -1.3958
 9492SOL    HW240113   2.991   1.657  11.270  0.4696 -2.6770  0.8862
 9493SOL     OW40114   0.763   3.534   4.359 -0.1538  0.2542  0.5543
 9493SOL    HW140115   0.838   3.475   4.360 -0.5948 -0.3067  0.0855
 9493SOL    HW240116   0.760   3.572   4.447 -0.8321 -0.2292  0.7402
 9494SOL     OW40117   3.674   2.482  15.271  0.4960 -0.1214  0.3433
 9494SOL    HW140118   3.690   2.505  15.179 -0.1395 -2.0623 -0.2621
 9494SOL    HW240119   3.710   2.563  15.306 -0.0410  0.1525  0.2590
 9495SOL     OW40120   2.317   2.008   8.192 -0.1408 -0.3937 -0.5077
 9495SOL    HW140121   2.316   2.102   8.212 -1.0255 -0.4383 -0.3230
 9495SOL    HW240122   2.241   2.002   8.134 -0.0665 -0.0061 -0.6451
 9496SOL     OW40123   1.778   1.853   8.151  0.4554  0.0409  0.0374
 9496SOL    HW140124   1.717   1.902   8.096  1.1471 -0.6510 -1.3690
 9496SOL    HW240125   1.835   1.850   8.073  1.2657 -1.0194  0.6649
 9497SOL     OW40126   3.193   1.308  14.506 -0.1646  0.0128  0.0617
 9497SOL    HW140127   3.147   1.269  14.432 -2.1482 -1.5728  2.1255
 9497SOL    HW240128   3.207   1.395  14.469  0.8850 -0.3136 -0.3030
 9498SOL     OW40129   1.697   2.576  12.694  0.2536 -0.2614  0.4374
 9498SOL    HW140130   1.654   2.544  12.614 -0.9675 -2.5886  2.0078
 9498SOL    HW240131   1.719   2.497  12.744  0.6946 -0.8519 -0.6824
 9499SOL     OW40132   4.737   1.270   6.504 -0.0474 -0.3487  0.0213
 9499SOL    HW140133   0.087   1.309   6.497 -0.0912  0.0019  1.3845
 9499SOL    HW240134   4.710   1.299   6.591 -0.1842 -2.5093  0.7040
 9500SOL     OW40135   4.215   3.709   7.992 -0.4030 -0.1495 -0.3364
 9500SOL    HW140136   4.202   3.749   8.079 -0.8878 -0.2986 -0.3432
 9500SOL    HW240137   4.310   3.697   8.000 -0.3839  1.2599  1.7600
 9501SOL     OW40138   2.770   3.255  15.949 -0.4858  0.4008  0.2720
 9501SOL    HW140139   2.843   3.277  16.007  0.1282  0.0265 -0.3621
 9501SOL    HW240140   2.816   3.224  15.871 -0.1688  0.4018  0.4569
 9502SOL     OW40141   0.743   4.182   5.599 -0.1456 -0.0541  0.1921
 9502SOL    HW140142   0.765   4.106   5.653 -1.0760 -0.0442  0.5847
 9502SOL    HW240143   0.738   4.249   5.667  3.5639 -0.6624  1.0437
 9503SOL     OW40144   3.777   4.427   6.756 -0.4872  0.1068  0.1104
 9503SOL    HW140145   3.738   4.501   6.710  0.1507  0.5521  0.3015
 9503SOL    HW240146   3.815   4.475   6.829 -0.3334  0.2507 -0.0643
 9504SOL     OW40147   2.825   2.954  15.860  0.1830 -0.1109 -0.1867
 9504SOL    HW140148   2.763   2.890  15.895 -0.4231  1.4666  1.6177
 9504SOL    HW240149   2.765   3.016  15.818 -0.9416 -0.8280  0.3772
 9505SOL     OW40150   3.637   2.748   4.742 -0.4556 -0.7361  0.0112
 9505SOL    HW140151   3.612   2.840   4.733  1.7036 -0.0684  0.8209
 9505SOL    HW240152   3.723   2.733   4.703  0.1284 -3.0060  2.1725
 9506SOL     OW40153   3.821   0.412   4.244  0.7996  0.0629  0.4207
 9506SOL    HW140154   3.891   0.379   4.301  0.3778 -2.3470 -0.4683
 9506SOL    HW240155   3.877   0.444   4.174  0.1377 -1.7263 -0.9248
 9507SOL     OW40156   3.100   1.042   4.028 -0.4841 -0.1524  0.2708
 9507SOL    HW140157   3.130   1.000   3.947  2.2046  0.2935  1.0417
 9507SOL    HW240158   3.070   1.127   3.998 -0.0079  0.6714  2.1532
 9508SOL     OW40159   0.635   4.617   6.433 -0.2475  0.0009 -0.3594
 9508SOL    HW140160   0.596   4.704   6.431 -0.1105  0.0708  0.1925
 9508SOL    HW240161   0.703   4.619   6.500 -0.7979  0.8751  0.1736
 9509SOL     OW40162   4.680   1.400  15.715  0.4923  0.6041 -0.1914
 9509SOL    HW140163   0.012   1.434  15.772  0.3312  0.4102  0.1193
 9509SOL    HW240164   4.600   1.402  15.767  0.4017 -2.6662 -0.1882
 9510SOL     OW40165   1.976   0.819   4.338 -0.6263 -0.1672 -0.1347
 9510SOL    HW140166   1.970   0.895   4.396 -1.6523 -2.2875  2.4809
 9510SOL    HW240167   2.007   0.863   4.258 -2.7446 -0.3753 -1.0578
 9511SOL     OW40168   3.964   2.301   1.211  0.3460 -0.4812 -0.0424
 9511SOL    HW140169   3.877   2.306   1.250  0.2388 -1.8895 -0.0757
 9511SOL    HW240170   3.972   2.205   1.211 -0.2289 -0.5277  0.8343
 9512SOL     OW40171   4.597   2.013   7.256  0.0683  0.0913  0.3116
 9512SOL    HW140172   4.609   1.924   7.223  1.7316  0.8143 -1.0617
 9512SOL    HW240173   4.629   1.999   7.345  0.2577 -0.3894  0.1662
 9513SOL     OW40174   2.421   0.129   8.931  0.1433  0.1396  0.3324
 9513SOL    HW140175   2.475   0.101   8.857  0.1884 -0.8556  0.7472
 9513SOL    HW240176   2.447   0.219   8.951 -1.4641  0.1414  2.2889
 9514SOL     OW40177   0.917   3.178   8.525 -0.2306 -0.1279 -0.5870
 9514SOL    HW140178   0.901   3.224   8.443 -0.3962  3.3383  1.3591
 9514SOL    HW240179   0.868   3.229   8.590  0.7831 -1.3373  1.1317
 9515SOL     OW40180   1.714   2.465   4.238 -0.7341 -0.6841 -0.2141
 9515SOL    HW140181   1.671   2.428   4.160 -0.5700 -4.0861  1.3002
 9515SOL    HW240182   1.740   2.546   4.196  0.3631 -1.6342 -1.3810
 9516SOL     OW40183   4.371   3.833  12.762 -0.2165  0.1808 -0.7327
 9516SOL    HW140184   4.350   3.749  12.722  1.7077 -0.9235  0.5465
 9516SOL    HW240185   4.450   3.864  12.719 -1.1275  3.7987  0.2269
 9517SOL     OW40186   0.877   0.796  12.282  0.3636 -0.2983 -0.4028
 9517SOL    HW140187   0.947   0.821  12.343  1.0352  0.7048 -1.5988
 9517SOL    HW240188   0.803   0.826  12.334  0.6490 -0.9690  0.4049
 9518SOL     OW40189   0.636   2.233   8.974 -0.4186 -0.4850  0.3400
 9518SOL    HW140190   0.686   2.282   8.910  0.7550 -0.2902  1.3903
 9518SOL    HW240191   0.687   2.245   9.054  0.3048  0.7470 -0.3191
 9519SOL     OW40192   4.667   4.478   5.381  0.1149  0.2031 -0.0202
 9519SOL    HW140193   4.695   4.432   5.459 -2.4547  0.4949  1.0799
 9519SOL    HW240194   4.620   4.557   5.410  2.4122  0.8871  1.8067
 9520SOL     OW40195   4.640   0.093   0.368 -0.3561 -0.2878  0.0848
 9520SOL    HW140196   4.658   0.043   0.288 -2.5618  0.1114 -0.6610
 9520SOL    HW240197   4.547   0.117   0.371  0.3185  2.4907 -0.8497
 9521SOL     OW40198   0.493   3.688   2.944  0.0186  0.2888 -0.3666
 9521SOL    HW140199   0.429   3.756   2.923 -0.1726  0.1833 -0.1206
 9521SOL    HW240200   0.536   3.678   2.858  1.2895  0.9112  0.2004
 9522SOL     OW40201   1.752   4.679   3.914  0.3778 -0.0449  0.2538
 9522SOL    HW140202   1.780   4.613   3.852 -0.0023  1.3991 -1.4505
 9522SOL    HW240203   1.708   4.623   3.978  1.6474 -0.3654  0.8498
 9523SOL     OW40204   2.605   1.379   9.140  0.2177  0.0493  0.2429
 9523SOL    HW140205   2.565   1.403   9.056 -1.1103 -2.3230  0.2080
 9523SOL    HW240206   2.698   1.373   9.115  1.3418  1.0607  4.1627
 9524SOL     OW40207   3.077   1.033  12.149  0.3654 -0.3471 -0.2647
 9524SOL    HW140208   3.169   1.044  12.176  0.0128  3.4659 -0.6976
 9524SOL    HW240209   3.085   1.067  12.060 -0.0127  0.3129 -0.0409
 9525SOL     OW40210   2.454   0.159   7.569 -0.3449 -0.3104 -0.1711
 9525SOL    HW140211   2.550   0.149   7.562 -0.6985 -1.6149 -3.4065
 9525SOL    HW240212   2.448   0.248   7.534  0.5342  0.1801  0.9439
 9526SOL     OW40213   0.934   2.734   6.494  0.9367  0.7079  0.1490
 9526SOL    HW140214   0.930   2.657   6.551  0.3802 -0.8452 -1.9882
 9526SOL    HW240215   0.872   2.797   6.530 -2.2647 -2.7490  0.7598
 9527SOL     OW40216   4.677   2.535   8.793 -0.2729  0.1497 -0.7269
 9527SOL    HW140217   4.628   2.460   8.825  0.3876 -0.3488 -0.8961
 9527SOL    HW240218   0.024   2.492   8.783  0.0667  0.4023  1.1458
 9528SOL     OW40219   2.664   4.714   8.481 -0.4378  0.2173  0.3293
 9528SOL    HW140220   2.655   4.681   8.570  1.3058 -1.8390 -0.2467
 9528SOL    HW240221   2.573   4.722   8.451 -1.1047 -1.3747  1.9730
 9529SOL     OW40222   4.373   3.125   7.592 -0.0632  0.0678  0.5262
 9529SOL    HW140223   4.338   3.214   7.582 -1.8990 -0.6110  0.9231
 9529SOL    HW240224   4.324   3.076   7.527 -0.0658 -0.2542  0.7728
 9530SOL     OW40225   1.838   1.913  17.053 -0.0483 -0.1115  0.3746
 9530SOL    HW140226   1.920   1.865  17.051 -0.8731 -1.4979 -0.5074
 9530SOL    HW240227   1.774   1.852  17.090  0.3849 -0.6475  0.2439
 9531SOL     OW40228   0.659   4.326   5.323 -0.1166  0.1012  0.2180
 9531SOL    HW140229   0.742   4.299   5.285 -0.2879 -0.4345  0.2215
 9531SOL    HW240230   0.671   4.301   5.414 -2.2306  0.2176  0.5248
 9532SOL     OW40231   2.251   2.374   0.163 -0.4753  0.1773 -0.2645
 9532SOL    HW140232   2.339   2.339   0.178 -0.4957 -1.1182 -3.2334
 9532SOL    HW240233   2.263   2.464   0.193  1.5472 -0.0180 -0.4716
 9533SOL     OW40234   3.221   3.838   6.778  0.4675  0.4849  0.6279
 9533SOL    HW140235   3.310   3.807   6.790  1.0747  2.4560  1.1251
 9533SOL    HW240236   3.232   3.886   6.696 -0.1696  0.5405  0.5696
 9534SOL     OW40237   0.090   0.105   5.582  0.0277 -0.3793  0.2094
 9534SOL    HW140238   0.064   0.021   5.619 -0.3269 -0.8997 -1.2057
 9534SOL    HW240239   0.038   0.165   5.635  1.2800 -1.5977  2.8042
 9535SOL     OW40240   0.182   2.156   3.147  0.1869 -0.2793 -0.4179
 9535SOL    HW140241   0.223   2.085   3.097  0.0269 -0.9388  0.3912
 9535SOL    HW240242   0.096   2.119   3.168 -0.4312 -0.2837 -2.9182
 9536SOL     OW40243   3.301   0.916  15.394  0.1448  0.1288  0.2065
 9536SOL    HW140244   3.272   0.954  15.312  0.9989 -1.9902 -1.0680
 9536SOL    HW240245   3.235   0.950  15.455 -0.2145  1.4608 -0.9336
 9537SOL     OW40246   0.819   2.819   2.227  0.6647  0.1349  0.3514
 9537SOL    HW140247   0.833   2.725   2.224  1.6733  0.2918  0.2906
 9537SOL    HW240248   0.906   2.844   2.196 -0.0203 -0.3091 -1.9549
 9538SOL     OW40249   2.927   1.403   1.568 -0.6288  0.0148  0.3373
 9538SOL    HW140250   3.021   1.386   1.569 -0.2665  2.0540 -0.0203
 9538SOL    HW240251   2.934   1.498   1.578 -0.6200  0.4849 -4.1540
 9539SOL     OW40252   4.455   1.801   8.835 -0.7489 -0.2796 -0.6838
 9539SOL    HW140253   4.385   1.737   8.840 -0.5544 -0.5535 -1.5330
 9539SOL    HW240254   4.472   1.837   8.923 -0.7628  1.7808 -1.5105
 9540SOL     OW40255   0.212   2.336   3.878  0.1760  0.4412 -0.0760
 9540SOL    HW140256   0.282   2.285   3.918  0.2366  1.7818  1.5327
 9540SOL    HW240257   0.217   2.308   3.787 -2.0773  2.7035 -0.9059
 9541SOL     OW40258   3.828   3.032   4.809 -0.1939  0.5202 -0.2803
 9541SOL    HW140259   3.791   3.088   4.741  1.8080 -0.2497 -2.0091
 9541SOL    HW240260   3.917   3.006   4.783 -0.1317 -1.1054  1.5938
 9542SOL     OW40261   4.425   2.162   2.745 -0.9481 -0.0492  0.0960
 9542SOL    HW140262   4.432   2.173   2.650 -1.3004  0.4402  0.1257
 9542SOL    HW240263   4.463   2.247   2.769 -2.6043  1.5692 -2.9974
 9543SOL     OW40264   1.169   1.484  11.126  0.3913 -0.1083  0.1832
 9543SOL    HW140265   1.093   1.509  11.073  1.3366 -0.2510 -1.2525
 9543SOL    HW240266   1.201   1.427  11.056  0.8570 -0.0717  0.3657
 9544SOL     OW40267   3.106   4.691   7.819 -0.5806 -0.1460  0.1129
 9544SOL    HW140268   3.069   4.609   7.852  0.7653 -0.1845  1.5197
 9544SOL    HW240269   3.178   4.651   7.770  0.0189 -0.7600  1.5049
 9545SOL     OW40270   1.963   1.602   7.867  0.2129  0.1903  0.4998
 9545SOL    HW140271   1.912   1.522   7.871  1.9257 -0.8538  1.6036
 9545SOL    HW240272   2.027   1.581   7.799  0.9405 -0.0293  1.2544
 9546SOL     OW40273   2.675   1.664   9.266 -0.6218 -0.1415  0.6795
 9546SOL    HW140274   2.610   1.683   9.199  1.3159 -0.3543 -1.2522
 9546SOL    HW240275   2.636   1.587   9.306  1.3229 -1.0787  0.7796
 9547SOL     OW40276   1.862   3.597   7.921 -0.0252 -0.1277 -0.2821
 9547SOL    HW140277   1.845   3.679   7.874  0.4316 -0.1879 -0.5461
 9547SOL    HW240278   1.949   3.573   7.891 -0.0849  0.5804 -1.0103
 9548SOL     OW40279   2.968   1.597   4.578  0.1773  0.2201  0.3394
 9548SOL    HW140280   3.057   1.566   4.597  0.3806  1.4099  1.3343
 9548SOL    HW240281   2.912   1.532   4.620 -0.7378  0.0317 -1.1670
 9549SOL     OW40282   2.160   0.325   3.033  0.3971  0.0828 -0.0642
 9549SOL    HW140283   2.251   0.352   3.025  1.3531 -2.5740  1.6959
 9549SOL    HW240284   2.184   0.236   3.060  0.4889  1.2963  3.8516
 9550SOL     OW40285   1.093   1.470  14.738  0.2573 -0.0611 -0.3400
 9550SOL    HW140286   1.032   1.540  14.763 -1.7899 -1.6291 -0.9168
 9550SOL    HW240287   1.032   1.412  14.691 -0.9569 -0.9171  2.3236
 9551SOL     OW40288   0.921   3.578   3.104  0.1449 -0.6454 -0.6667
 9551SOL    HW140289   0.922   3.645   3.035 -0.5215 -1.0049 -1.0212
 9551SOL    HW240290   0.828   3.559   3.107  0.8734 -3.7457  1.5582
 9552SOL     OW40291   3.764   3.861   3.504  0.4463 -0.1719  0.5391
 9552SOL    HW140292   3.688   3.852   3.446  1.7963 -1.7006 -0.9591
 9552SOL    HW240293   3.795   3.951   3.490 -0.1848  0.0554  0.5612
 9553SOL     OW40294   1.956   2.349  17.620 -0.5049 -0.4644 -0.0916
 9553SOL    HW140295   1.976   2.267  17.575 -0.5411  0.4954 -1.8233
 9553SOL    HW240296   2.011   2.409  17.570 -1.7427 -1.5905 -2.7930
 9554SOL     OW40297   1.508   4.516   4.735 -0.2596  0.0216 -0.1545
 9554SOL    HW140298   1.430   4.495   4.683 -0.0881 -1.5709  0.2156
 9554SOL    HW240299   1.516   4.427   4.771 -0.9806 -0.5691 -1.4421
 9555SOL     OW40300   1.309   4.715   5.625  0.1327 -0.2118  0.5558
 9555SOL    HW140301   1.346   0.055   5.668  0.8660  0.3517 -1.1123
 9555SOL    HW240302   1.247   0.016   5.563  0.3452  1.2630  1.2652
 9556SOL     OW40303   1.310   1.658   5.397  0.3453  0.1795 -0.0626
 9556SOL    HW140304   1.326   1.750   5.416 -0.1802  0.3763 -0.5450
 9556SOL    HW240305   1.399   1.637   5.369  0.0933 -2.4257  1.0682
 9557SOL     OW40306   3.173   1.908  12.047 -0.2279  0.1314 -0.3233
 9557SOL    HW140307   3.222   1.984  12.078  0.7473 -0.4288 -0.4867
 9557SOL    HW240308   3.147   1.866  12.128  1.6524  1.4803  0.9616
 9558SOL     OW40309   0.593   0.024   4.761 -0.7274 -0.3009  0.0035
 9558SOL    HW140310   0.523   0.014   4.696  0.1484 -0.9243 -0.8404
 9558SOL    HW240311   0.667   0.046   4.704 -1.9249 -0.6746 -1.7009
 9559SOL     OW40312   3.488   0.701   0.088  0.2952 -0.1534 -0.0401
 9559SOL    HW140313   3.503   0.717  17.743 -1.7721  0.4291 -0.2755
 9559SOL    HW240314   3.489   0.605   0.092  2.0954 -0.1340 -0.0563
 9560SOL     OW40315   0.892   4.097   1.954  0.4328 -0.7102 -0.1319
 9560SOL    HW140316   0.967   4.070   1.901 -0.5321 -0.0161 -1.8481
 9560SOL    HW240317   0.855   4.157   1.889  1.0306 -0.1279  0.0685
 9561SOL     OW40318   3.104   2.819   5.570 -0.0320 -0.4674 -0.0068
 9561SOL    HW140319   3.198   2.807   5.561 -0.0054  0.4980 -1.0401
 9561SOL    HW240320   3.078   2.784   5.485 -0.5624  2.4140 -1.0573
 9562SOL     OW40321   0.077   4.223   4.149  0.3005 -0.5435 -0.1047
 9562SOL    HW140322   0.119   4.151   4.196  1.2383 -0.4817 -0.8463
 9562SOL    HW240323   0.129   4.224   4.069 -1.7945 -0.3493 -1.4754
 9563SOL     OW40324   1.444   1.192   9.070 -0.3265  0.0765 -0.2847
 9563SOL    HW140325   1.442   1.249   8.994 -1.3065 -3.4440 -2.9332
 9563SOL    HW240326   1.353   1.169   9.088  0.1946 -0.4651  1.6934
 9564SOL     OW40327   2.405   3.587   1.764 -0.1981 -0.0434  0.5587
 9564SOL    HW140328   2.362   3.575   1.679  1.2429  0.2486 -0.2123
 9564SOL    HW240329   2.454   3.506   1.775  0.1594 -0.3042 -2.9604
 9565SOL     OW40330   4.175   3.973   3.181 -0.5617 -0.1152 -0.1016
 9565SOL    HW140331   4.108   3.906   3.194  0.0182 -0.3901  1.4236
 9565SOL    HW240332   4.200   3.986   3.272  0.8566  0.1717 -0.5420
 9566SOL     OW40333   1.807   0.790   8.264  0.4987  0.7347 -0.2271
 9566SOL    HW140334   1.865   0.719   8.236 -1.0088 -0.4287 -0.4467
 9566SOL    HW240335   1.742   0.796   8.194  0.8199  1.7294 -0.4306
 9567SOL     OW40336   0.397   1.969  11.576 -0.0852 -0.5105  0.1142
 9567SOL    HW140337   0.477   1.990  11.624  0.7842 -2.2608 -0.5927
 9567SOL    HW240338   0.380   1.884  11.615  3.0062 -1.2761 -0.1947
 9568SOL     OW40339   3.986   1.880   2.499 -0.5043  0.2419 -0.1952
 9568SOL    HW140340   3.986   1.972   2.526 -1.0178 -0.1371  1.1081
 9568SOL    HW240341   3.893   1.861   2.514 -0.3286 -2.1026 -1.9951
 9569SOL     OW40342   1.302   0.095   9.454  0.8869 -0.0874  0.3599
 9569SOL    HW140343   1.340   0.109   9.367 -1.1212  0.2801 -0.4656
 9569SOL    HW240344   1.320   0.002   9.463 -1.5817 -0.3907  2.1330
   4.73744   4.73744  17.74803
