Membrane in water
40344
    1TMC1    C1    1   1.976   3.334  11.019  0.3176 -0.5627  0.3068
    1TMC1    C2    2   1.889   3.431  10.994 -0.3264 -0.2824  0.6050
    1TMC1    C3    3   1.931   3.561  10.970  0.7868 -0.3573  0.3777
    1TMC1    C4    4   2.106   3.368  11.045  0.2830  1.0297 -0.2107
    1TMC1    C5    5   2.146   3.490  11.023 -0.0061  0.7603 -0.9096
    1TMC1    C6    6   2.063   3.590  10.974 -0.4567 -0.4721 -0.5567
    1TMC1     C    7   1.917   3.208  11.074 -0.1404  0.3087 -0.0519
    1TMC1     O    8   1.793   3.205  11.066  0.3310 -0.1395  0.2759
    1TMC1     H    9   1.789   3.410  10.957 -0.3880  0.4029  0.3709
    1TMC1    H1   10   2.175   3.291  11.080  0.8838 -0.0804 -3.7552
    1TMC1    H2   11   2.092   3.693  10.952  2.7621 -1.1377  0.5442
    1TMC1    C7   12   2.279   3.496  10.970  0.5562 -0.7740 -0.0659
    1TMC1    C8   13   1.847   3.657  10.899 -0.5009  0.4654  0.0559
    1TMC1    O1   14   2.313   3.402  10.900 -0.1119 -0.0723  0.1000
    1TMC1    O2   15   1.781   3.629  10.800 -0.4513 -0.4867 -0.2873
    1TMC1    O3   16   2.325   3.626  10.957  0.2882  0.0341  0.4297
    1TMC1    H3   17   2.291   3.679  11.032 -0.1895 -0.9137  0.8939
    1TMC1    O5   18   1.869   3.781  10.937 -0.1346  0.3943  0.1638
    1TMC1    H5   19   1.910   3.783  11.026  1.5253 -0.6553 -0.5696
    2MPD2     C   20   1.900   2.725  11.231 -0.2168  0.1469 -0.5850
    2MPD2    C1   21   1.816   2.839  11.257 -0.2112  0.2212 -0.3790
    2MPD2    C2   22   1.850   2.958  11.193 -0.2629 -0.2610  0.0569
    2MPD2    C3   23   1.964   2.977  11.125  0.0460 -0.1200  0.2858
    2MPD2    C4   24   2.045   2.866  11.112  0.3367  0.2889 -0.4437
    2MPD2    C5   25   2.010   2.745  11.161  0.6526  0.6930 -0.5423
    2MPD2     H   26   1.780   3.039  11.211 -0.0698  0.4009 -2.1816
    2MPD2    H1   27   2.137   2.864  11.054  0.0498 -0.2758 -0.8788
    2MPD2    H2   28   1.881   2.630  11.280 -1.8069  1.1524  0.7850
    2MPD2    H3   29   2.070   2.659  11.134  0.4255  0.2849  0.2314
    2MPD2     N   30   2.009   3.107  11.084 -0.7053 -0.0154  0.4536
    2MPD2    H5   31   2.100   3.120  11.041 -0.8603 -1.3950 -0.3009
    2MPD2    N1   32   1.696   2.839  11.331  0.1678  0.0160 -0.1153
    2MPD2    H7   33   1.639   2.923  11.332  1.0087  0.5809  1.0771
    3TMC1    C1   34   1.092   3.617  10.101  0.0860 -0.4898 -0.0341
    3TMC1    C2   35   1.186   3.541  10.046 -0.4127 -0.1808 -0.3007
    3TMC1    C3   36   1.231   3.571   9.922 -0.7279  0.1161 -0.3365
    3TMC1    C4   37   1.029   3.713  10.025 -0.6239 -0.0827  0.2675
    3TMC1    C5   38   1.068   3.735   9.896  0.4569  0.0238  0.2513
    3TMC1    C6   39   1.175   3.666   9.844  0.0609 -0.1263 -0.5167
    3TMC1     C   40   1.059   3.591  10.242 -0.6139  0.2707 -0.3390
    3TMC1     O   41   1.099   3.489  10.296 -0.3872 -0.3775  0.0484
    3TMC1     H   42   1.238   3.472  10.111  0.5993  1.2674  0.4180
    3TMC1    H1   43   0.956   3.780  10.069 -0.1414  0.0131  0.9395
    3TMC1    H2   44   1.208   3.682   9.742 -0.4418  0.5581 -0.5715
    3TMC1    C7   45   1.050   3.866   9.831  0.7623 -0.3003  0.9977
    3TMC1    C8   46   1.362   3.533   9.881 -0.0899  0.4364  0.5680
    3TMC1    O1   47   0.941   3.904   9.784  0.0223  0.6063  0.0656
    3TMC1    O2   48   1.429   3.604   9.803 -0.1783 -0.0876 -0.2731
    3TMC1    O3   49   1.162   3.917   9.801 -0.0838  0.5351  0.0758
    3TMC1    H3   50   1.228   3.888   9.868  0.4682  1.7178  0.0495
    3TMC1    O5   51   1.414   3.446   9.968 -0.1280 -0.4308  0.4768
    3TMC1    H5   52   1.351   3.402  10.028 -2.5326  0.7173 -1.2284
    4MPD2     C   53   0.797   3.737  10.658 -0.1457 -0.3063  0.0027
    4MPD2    C1   54   0.816   3.844  10.574 -0.2595 -0.7420 -0.0937
    4MPD2    C2   55   0.870   3.827  10.451 -0.1046  0.7351 -0.1927
    4MPD2    C3   56   0.929   3.707  10.416  0.2534  0.6084  0.0917
    4MPD2    C4   57   0.922   3.599  10.499 -0.1941  0.1913  0.2600
    4MPD2    C5   58   0.851   3.621  10.620 -0.0473 -0.1617 -0.4328
    4MPD2     H   59   0.873   3.918  10.392  2.2649  0.2417 -0.8021
    4MPD2    H1   60   0.962   3.499  10.484 -0.4435  0.3903 -1.6821
    4MPD2    H2   61   0.744   3.730  10.753 -0.0529 -0.8041  0.0147
    4MPD2    H3   62   0.818   3.537  10.680  0.5381 -1.0637 -1.3719
    4MPD2     N   63   0.994   3.697  10.297 -0.0611  1.3545 -0.0958
    4MPD2    H5   64   0.983   3.783  10.245  3.1295  0.9075 -1.5323
    4MPD2    N1   65   0.776   3.971  10.603 -0.2756 -0.1171  0.1723
    4MPD2    H7   66   0.792   4.045  10.535 -0.9036 -0.7704 -0.6821
    5TCq1    O1   67   1.454   1.699  12.213 -0.3095  0.7007 -0.4283
    5TCq1    C1   68   1.465   1.610  12.109 -0.3583  0.1793 -0.2844
    5TCq1    O2   69   1.523   1.632  12.000  0.0114 -0.5221 -0.3349
    5TCq1    C2   70   1.332   1.545  12.094 -0.2562  0.2979 -0.1472
    5TCq1    C3   71   1.235   1.548  12.191  0.1420 -0.2959  0.7885
    5TCq1    C4   72   1.117   1.488  12.169 -0.1859 -0.2485 -0.0334
    5TCq1    C5   73   1.086   1.411  12.060 -0.6153 -0.4675 -0.5261
    5TCq1    C6   74   1.187   1.414  11.965 -0.0403 -0.4002  0.1024
    5TCq1    C7   75   1.306   1.477  11.978  0.1230 -0.3399 -0.0528
    5TCq1    C8   76   1.174   1.321  11.851  1.3071 -0.4621  0.3950
    5TCq1    O4   77   1.281   1.289  11.802  0.4743 -0.1792  0.2914
    5TCq1    C9   78   1.017   1.509  12.269 -0.6430 -0.5731  0.6119
    5TCq1    O5   79   0.900   1.530  12.231  0.6229 -0.1012  0.3137
    5TCq1    O6   80   1.059   1.518  12.387  0.0537  0.3378  0.2682
    5TCq1    H1   81   1.435   1.657  12.299 -0.1674  2.3247  0.3863
    5TCq1    H2   82   1.243   1.615  12.276 -2.4579 -1.5980  2.0585
    5TCq1    H3   83   0.997   1.352  12.050 -0.6475 -0.5241  0.1095
    5TCq1    H4   84   1.385   1.479  11.904  1.7772 -0.2562  1.7043
    6MPD2     C   85   0.881   1.113  11.758 -0.2190 -0.1054  0.1812
    6MPD2    C1   86   1.013   1.153  11.751 -0.1069 -0.0652  0.7205
    6MPD2    C2   87   1.099   1.093  11.661  0.0426 -0.0739  0.2719
    6MPD2    C3   88   1.048   0.999  11.569  0.3134 -0.1232  0.6431
    6MPD2    C4   89   0.918   0.956  11.578  1.2296 -0.2152  0.8833
    6MPD2    C5   90   0.841   1.010  11.677  0.3253 -0.3195 -0.3344
    6MPD2     H   91   1.202   1.127  11.656 -0.1577  0.5686  0.5510
    6MPD2    H1   92   0.887   0.871  11.519 -2.3804 -0.1757  2.6935
    6MPD2    H2   93   0.810   1.161  11.824  0.3860 -2.3767  2.4684
    6MPD2    H3   94   0.735   0.990  11.680  0.3439 -0.6186 -1.8812
    6MPD2     N   95   1.122   0.937  11.468  0.0356 -0.1623  0.1210
    6MPD2    H5   96   1.080   0.853  11.429  0.7597 -0.2959 -0.3640
    6MPD2    N1   97   1.049   1.258  11.840 -0.2029  0.1910  0.1835
    6MPD2    H7   98   0.969   1.296  11.890 -0.7633 -1.4428  0.5439
    7TCq1    O1   99   4.057   1.008  14.293 -0.0992 -0.6275  0.1642
    7TCq1    C1  100   4.006   0.929  14.201 -0.1390  0.1953 -0.3373
    7TCq1    O2  101   3.898   0.865  14.216 -0.3413 -0.0114  0.4824
    7TCq1    C2  102   4.125   0.882  14.128  0.4071  0.1274  0.6864
    7TCq1    C3  103   4.208   0.971  14.073  0.2353  0.3557  0.2855
    7TCq1    C4  104   4.310   0.924  13.997 -0.3917  0.3402 -0.0668
    7TCq1    C5  105   4.323   0.790  13.975  0.0188 -0.4215  0.2182
    7TCq1    C6  106   4.241   0.701  14.033 -0.8424  0.5504  0.2902
    7TCq1    C7  107   4.131   0.749  14.110 -0.2886 -0.1150  0.0451
    7TCq1    C8  108   4.217   0.575  13.970  0.1598  0.5519  0.1987
    7TCq1    O4  109   4.101   0.550  13.964  0.6744 -0.0592 -0.1423
    7TCq1    C9  110   4.398   1.009  13.921  0.3428 -0.0783  0.1362
    7TCq1    O5  111   4.515   0.968  13.902  0.0147 -0.3427 -0.0187
    7TCq1    O6  112   4.364   1.128  13.902  0.2125  0.0071  0.7876
    7TCq1    H1  113   4.150   1.031  14.275  0.3473 -0.6683  2.4269
    7TCq1    H2  114   4.202   1.079  14.085  1.6468  0.6591 -1.7096
    7TCq1    H3  115   4.388   0.756  13.896  1.3922  3.4445 -0.3304
    7TCq1    H4  116   4.046   0.690  14.143 -0.0087  1.6264  3.8934
    8MPD2     C  117   4.352   0.216  13.647  0.4612 -0.3443  0.0000
    8MPD2    C1  118   4.233   0.235  13.705 -0.0141 -0.4251  0.2402
    8MPD2    C2  119   4.225   0.336  13.796  0.6236  0.1498  0.6457
    8MPD2    C3  120   4.331   0.418  13.827 -0.0721  0.5851 -0.1423
    8MPD2    C4  121   4.453   0.384  13.771 -0.7346 -0.2670  0.0950
    8MPD2    C5  122   4.462   0.291  13.677  0.5160  0.1431  0.3508
    8MPD2     H  123   4.132   0.352  13.849  0.5308 -0.2528  0.6057
    8MPD2    H1  124   4.534   0.451  13.800 -0.0885 -1.2843  0.6325
    8MPD2    H2  125   4.366   0.136  13.575 -0.5004 -1.6228  1.2447
    8MPD2    H3  126   4.559   0.271  13.633  1.1348  0.3559  1.6532
    8MPD2     N  127   4.326   0.524  13.913  0.3151 -0.0435  0.3547
    8MPD2    H5  128   4.418   0.554  13.942  0.3731  1.0404 -0.9206
    8MPD2    N1  129   4.117   0.153  13.691  0.3099 -1.3266  0.5555
    8MPD2    H7  130   4.031   0.193  13.727  1.3620  3.9838 -2.8596
    9TMC1    C1  131   1.900   4.124  10.644 -0.0600 -0.2510  0.8453
    9TMC1    C2  132   1.951   4.217  10.730 -0.1282 -0.1672  0.2562
    9TMC1    C3  133   2.086   4.226  10.727  0.4226 -0.6794 -0.0497
    9TMC1    C4  134   1.973   4.063  10.547 -0.3165  0.2521  0.7518
    9TMC1    C5  135   2.098   4.111  10.521 -0.3513  0.6245 -0.3158
    9TMC1    C6  136   2.160   4.187  10.617  0.2963  0.0516  0.6742
    9TMC1     C  137   1.767   4.078  10.662 -0.3165  0.7343  0.2938
    9TMC1     O  138   1.706   4.035  10.562 -0.0768 -0.3179 -0.6265
    9TMC1     H  139   1.891   4.277  10.798  0.0086 -1.1383  1.2245
    9TMC1    H1  140   1.932   3.992  10.476 -0.1700 -0.5697  1.4857
    9TMC1    H2  141   2.263   4.216  10.599  0.4280 -0.8496 -0.0229
    9TMC1    C7  142   2.171   4.042  10.417  0.3397  0.4977  0.2090
    9TMC1    C8  143   2.139   4.335  10.809  0.1991  0.1037  0.1086
    9TMC1    O1  144   2.108   3.961  10.346  0.3365 -0.0888 -0.2849
    9TMC1    O2  145   2.245   4.377  10.767 -0.3513 -0.0740 -0.3199
    9TMC1    O3  146   2.265   4.121  10.365 -0.1285 -0.3111 -0.1030
    9TMC1    H3  147   2.284   4.200  10.420  1.3191 -1.5656  1.1455
    9TMC1    O5  148   2.107   4.298  10.932  0.0013  0.0697  0.0523
    9TMC1    H5  149   2.028   4.241  10.935 -0.7231  1.0188 -0.7564
   10MPD2     C  150   1.484   4.073  10.755 -0.0938 -0.3275  0.0994
   10MPD2    C1  151   1.594   4.069  10.839  0.6603  0.3430 -0.1500
   10MPD2    C2  152   1.572   4.038  10.973  0.7897  0.3374 -0.5693
   10MPD2    C3  153   1.447   4.025  11.028  0.6516  0.4054  0.4971
   10MPD2    C4  154   1.335   4.030  10.944  0.0503 -0.0945 -0.3464
   10MPD2    C5  155   1.353   4.044  10.805  0.1114 -1.0284  0.4239
   10MPD2     H  156   1.657   4.028  11.040  0.7137 -0.5616 -0.6105
   10MPD2    H1  157   1.236   4.013  10.985 -0.2177 -3.0014 -2.2244
   10MPD2    H2  158   1.482   4.090  10.648 -2.1248  0.9359  0.3425
   10MPD2    H3  159   1.271   4.039  10.735  0.9127  2.8113 -0.7886
   10MPD2     N  160   1.428   4.002  11.168  0.0969 -0.0816 -0.4428
   10MPD2    H5  161   1.335   3.970  11.194  0.3112 -0.1542  0.2397
   10MPD2    N1  162   1.729   4.092  10.795  0.8118 -0.2114  0.2072
   10MPD2    H7  163   1.796   4.117  10.867  3.0441  0.5908 -2.1582
   11TCq1    O1  164   2.269   4.056  13.952 -0.0717  0.0522  0.4424
   11TCq1    C1  165   2.172   4.035  13.863  1.0496 -0.0923 -0.4852
   11TCq1    O2  166   2.164   3.936  13.790  0.4494 -0.4022  0.6530
   11TCq1    C2  167   2.060   4.078  13.942 -0.5307 -0.3945 -0.3463
   11TCq1    C3  168   2.080   4.199  14.004  0.3876 -0.0287 -0.3381
   11TCq1    C4  169   2.021   4.218  14.121  0.6947  0.1087 -0.0701
   11TCq1    C5  170   1.956   4.118  14.185 -0.3978 -0.1161  0.1876
   11TCq1    C6  171   1.936   3.999  14.120 -0.1004 -0.4101  0.5808
   11TCq1    C7  172   1.997   3.974  14.005 -0.7030  0.0855  0.1313
   11TCq1    C8  173   1.868   3.887  14.188 -0.0959 -0.4069  0.0058
   11TCq1    O4  174   1.843   3.897  14.308 -0.7279 -0.3099  0.5970
   11TCq1    C9  175   2.023   4.348  14.179 -0.4492  0.2059 -0.4415
   11TCq1    O5  176   1.915   4.377  14.248 -0.0994 -0.1788  0.0567
   11TCq1    O6  177   2.120   4.422  14.153 -0.7117  0.2926 -0.0428
   11TCq1    H1  178   2.241   4.111  14.028 -1.0347 -1.1367  0.9597
   11TCq1    H2  179   2.126   4.280  13.948  0.8063  0.3466  0.5470
   11TCq1    H3  180   1.913   4.144  14.281 -0.5618 -0.7312  0.2803
   11TCq1    H4  181   1.977   3.886  13.946 -0.5151 -0.3040  0.6454
   12MPD2     C  182   1.734   3.627  14.274  0.3503  0.1782  0.2809
   12MPD2    C1  183   1.781   3.649  14.150 -0.0961 -0.1518  0.3555
   12MPD2    C2  184   1.775   3.549  14.052  0.1585 -0.0007 -0.1888
   12MPD2    C3  185   1.736   3.422  14.084  0.3504 -1.4685 -0.0742
   12MPD2    C4  186   1.705   3.398  14.213  1.1166  0.5196 -0.2011
   12MPD2    C5  187   1.703   3.502  14.308 -0.1526  0.6661  0.0763
   12MPD2     H  188   1.807   3.564  13.949  0.1996  0.1598 -0.1525
   12MPD2    H1  189   1.667   3.304  14.251  0.7925  0.3547 -0.9441
   12MPD2    H2  190   1.735   3.707  14.347  0.3527 -0.5365  1.0593
   12MPD2    H3  191   1.676   3.481  14.411 -0.6353 -1.9286 -0.5654
   12MPD2     N  192   1.743   3.310  13.994 -0.1640  0.3408 -0.0081
   12MPD2    H5  193   1.720   3.215  14.023  1.8763  0.6464  2.6921
   12MPD2    N1  194   1.834   3.779  14.113 -0.0726 -0.1235  0.3592
   12MPD2    H7  195   1.869   3.784  14.018 -1.0857 -2.0870 -0.1209
   13TCq1    O1  196   1.733   3.195  11.463 -0.1237  0.1134  0.4704
   13TCq1    C1  197   1.833   3.270  11.412 -0.0864  0.6311 -0.7068
   13TCq1    O2  198   1.946   3.228  11.382 -0.0311 -0.4404  0.5455
   13TCq1    C2  199   1.784   3.396  11.363  0.6208 -0.7301  0.7696
   13TCq1    C3  200   1.875   3.498  11.351  0.2206 -0.1953 -0.1100
   13TCq1    C4  201   1.832   3.616  11.299 -0.1597  0.6044  0.0129
   13TCq1    C5  202   1.697   3.639  11.267 -0.7261  0.1614  0.4717
   13TCq1    C6  203   1.605   3.538  11.278  0.2831  0.3623  0.4903
   13TCq1    C7  204   1.652   3.414  11.334  0.1999  0.0753 -0.3556
   13TCq1    C8  205   1.460   3.564  11.273  0.5271  0.3733  0.3880
   13TCq1    O4  206   1.421   3.679  11.272  0.3669 -0.1540 -0.1735
   13TCq1    C9  207   1.930   3.721  11.280  0.2289  0.5424 -0.4148
   13TCq1    O5  208   2.032   3.712  11.355  0.3395  0.0486 -0.4824
   13TCq1    O6  209   1.921   3.798  11.179  0.1427 -0.5200 -0.0316
   13TCq1    H1  210   1.673   3.256  11.511  0.1469  1.0965 -0.4351
   13TCq1    H2  211   1.979   3.479  11.375  0.3827  0.7405 -0.0541
   13TCq1    H3  212   1.661   3.737  11.237  1.1611  0.4386 -0.9281
   13TCq1    H4  213   1.578   3.335  11.343 -1.4264  1.5573 -0.7525
   14MPD2     C  214   1.192   3.312  11.216 -0.5327  0.2213  0.1927
   14MPD2    C1  215   1.250   3.431  11.247 -0.4134  0.9046  0.6511
   14MPD2    C2  216   1.161   3.533  11.284  0.3242  0.0962  0.8894
   14MPD2    C3  217   1.028   3.511  11.305 -0.2282  0.0761 -0.1880
   14MPD2    C4  218   0.974   3.391  11.275 -0.1781  0.2564 -0.4048
   14MPD2    C5  219   1.060   3.297  11.225  0.2707 -0.0859  0.3727
   14MPD2     H  220   1.196   3.628  11.321 -0.0172  0.6411 -0.1679
   14MPD2    H1  221   0.868   3.369  11.270 -0.2198  0.5654 -0.9363
   14MPD2    H2  222   1.248   3.220  11.202 -1.9135 -0.4529 -0.8046
   14MPD2    H3  223   1.021   3.196  11.218 -0.5853  0.2984 -0.4420
   14MPD2     N  224   0.956   3.610  11.367  0.4868  0.0419 -0.1069
   14MPD2    H5  225   1.007   3.692  11.400  1.7553 -1.1650  0.9442
   14MPD2    N1  226   1.391   3.448  11.248 -0.0974 -0.3118 -0.5616
   14MPD2    H7  227   1.446   3.365  11.230  0.2855  0.0715 -1.1343
   15TCq1    O1  228   2.701   3.489   1.802 -0.4799  0.5091 -0.1744
   15TCq1    C1  229   2.640   3.398   1.727 -0.1763  0.0231  0.1722
   15TCq1    O2  230   2.564   3.430   1.642 -0.3548 -0.1543  0.2476
   15TCq1    C2  231   2.693   3.264   1.733  0.3211  0.6923  0.1087
   15TCq1    C3  232   2.748   3.216   1.847  0.2482 -0.9151 -0.0149
   15TCq1    C4  233   2.801   3.089   1.845 -0.2449  0.2188  0.0755
   15TCq1    C5  234   2.799   3.016   1.731 -0.0240  0.0276 -1.0546
   15TCq1    C6  235   2.723   3.053   1.624 -0.8945  0.1578  0.0063
   15TCq1    C7  236   2.682   3.181   1.620  0.1168 -0.4620 -0.2148
   15TCq1    C8  237   2.724   2.967   1.507 -0.8920 -0.0320  0.2624
   15TCq1    O4  238   2.818   2.891   1.498 -0.5201 -0.5411 -0.8952
   15TCq1    C9  239   2.857   3.031   1.962  0.4263  0.1949 -0.3609
   15TCq1    O5  240   2.896   2.912   1.957 -0.0009  0.8285  0.0852
   15TCq1    O6  241   2.866   3.109   2.057  0.0222  0.6885 -0.5259
   15TCq1    H1  242   2.774   3.465   1.863  1.0351 -0.8376 -2.5099
   15TCq1    H2  243   2.752   3.270   1.941  1.0451 -0.0420 -0.5474
   15TCq1    H3  244   2.836   2.915   1.731  1.2453  0.5131  2.4734
   15TCq1    H4  245   2.639   3.214   1.526  1.3792  1.6560 -0.0457
   16MPD2     C  246   2.537   3.015   1.200 -0.2267 -0.4883  0.8057
   16MPD2    C1  247   2.623   2.951   1.285 -0.6578 -0.5968  0.5572
   16MPD2    C2  248   2.682   2.835   1.251  0.3249  0.1729 -0.5477
   16MPD2    C3  249   2.680   2.795   1.120  0.6522  0.2502 -0.2939
   16MPD2    C4  250   2.582   2.843   1.036  1.2631 -0.7399 -0.3972
   16MPD2    C5  251   2.513   2.956   1.077 -0.4351 -0.5848  0.1654
   16MPD2     H  252   2.742   2.778   1.321 -0.4476 -1.6658 -1.3899
   16MPD2    H1  253   2.566   2.808   0.934  1.2384 -0.1100 -0.6132
   16MPD2    H2  254   2.492   3.107   1.235 -2.0847 -0.4748 -1.6053
   16MPD2    H3  255   2.449   3.005   1.005  0.6865  1.1341  0.3345
   16MPD2     N  256   2.762   2.685   1.078  0.5640  0.8685 -0.2937
   16MPD2    H5  257   2.815   2.636   1.150 -0.6350  1.3867  0.9440
   16MPD2    N1  258   2.634   3.009   1.409 -0.0003  0.1077 -0.1094
   16MPD2    H7  259   2.563   3.077   1.436 -0.0943 -1.2407  3.0085
   17TMC1    C1  260   0.863   2.916  11.137  0.4059  0.0297  0.2734
   17TMC1    C2  261   0.925   2.899  11.256  0.0512  0.1331 -0.4781
   17TMC1    C3  262   0.863   2.940  11.373 -0.1025 -0.0230  0.7330
   17TMC1    C4  263   0.747   2.989  11.127 -0.6001 -0.6563 -0.4590
   17TMC1    C5  264   0.701   3.043  11.243  0.8688  0.3887 -0.8328
   17TMC1    C6  265   0.758   3.026  11.365  0.3442  0.2769  0.3323
   17TMC1     C  266   0.935   2.876  11.018  0.5234 -0.2492  0.1504
   17TMC1     O  267   0.876   2.845  10.918  0.4119 -0.0533 -0.2190
   17TMC1     H  268   1.018   2.842  11.258 -0.0032  0.1248  1.4565
   17TMC1    H1  269   0.707   3.009  11.028 -0.3499  0.1658 -0.3974
   17TMC1    H2  270   0.714   3.072  11.452 -3.8007 -0.6994 -1.2262
   17TMC1    C7  271   0.575   3.117  11.237  0.7687  0.6750  0.6148
   17TMC1    C8  272   0.939   2.933  11.497 -0.0675 -0.0906 -0.1617
   17TMC1    O1  273   0.539   3.188  11.329  0.5623  0.1114 -0.4473
   17TMC1    O2  274   1.061   2.910  11.503 -0.5203  0.0860  0.2653
   17TMC1    O3  275   0.486   3.056  11.152 -0.1592 -0.7433 -0.4282
   17TMC1    H3  276   0.524   3.007  11.077 -2.5253 -3.8325  0.4074
   17TMC1    O5  277   0.866   2.986  11.598  0.4803  0.1495 -0.1320
   17TMC1    H5  278   0.771   2.966  11.582  0.5590 -1.9711  2.0695
   18MPD2     C  279   1.112   2.722  10.848 -0.1828 -0.9756  0.4244
   18MPD2    C1  280   1.156   2.825  10.931  0.0045  0.0519 -0.3220
   18MPD2    C2  281   1.285   2.869  10.912  0.2732 -0.1201  0.2646
   18MPD2    C3  282   1.368   2.807  10.821  0.7117 -0.1726 -0.0987
   18MPD2    C4  283   1.327   2.711  10.733 -0.2358 -0.3858 -0.6350
   18MPD2    C5  284   1.195   2.668  10.747 -0.0425  0.1754 -0.3440
   18MPD2     H  285   1.329   2.944  10.977  0.6910 -1.9949  2.1700
   18MPD2    H1  286   1.389   2.670  10.654 -0.7036 -1.4790 -0.4336
   18MPD2    H2  287   1.011   2.683  10.849 -0.9512  0.9863 -0.3839
   18MPD2    H3  288   1.161   2.586  10.685  0.9409  0.1041 -0.7908
   18MPD2     N  289   1.509   2.848  10.802  0.7211  0.2450  0.0301
   18MPD2    H5  290   1.568   2.800  10.734  1.1848 -2.7877  2.5497
   18MPD2    N1  291   1.070   2.882  11.030  0.2882 -0.5931  0.1786
   18MPD2    H7  292   1.113   2.935  11.105 -0.9404  0.0522  0.4242
   19TMC2    C1  293   3.206   3.841  13.843  0.3513 -0.0794 -0.5083
   19TMC2    C2  294   3.154   3.935  13.764 -0.0982  0.3365 -0.2239
   19TMC2    C3  295   3.031   3.911  13.721  0.1392 -0.0851 -0.3563
   19TMC2    C4  296   3.133   3.730  13.885 -0.2428 -0.2003 -0.2478
   19TMC2    C5  297   3.012   3.715  13.838  0.6327 -0.2943 -0.3262
   19TMC2    C6  298   2.955   3.801  13.754 -1.2768 -0.2059  0.4404
   19TMC2     C  299   3.339   3.858  13.905  0.2271  0.8822 -0.3430
   19TMC2     O  300   3.423   3.886  13.823 -0.0825  0.3758 -0.7961
   19TMC2     H  301   3.213   4.024  13.746  1.7545 -0.2796  2.7670
   19TMC2    H1  302   3.188   3.659  13.945  1.8300  0.8061 -0.9230
   19TMC2    H2  303   2.852   3.795  13.721 -1.0742 -2.8037  0.2783
   19TMC2    C7  304   2.934   3.596  13.888  0.3076  0.8368  0.6256
   19TMC2    C8  305   2.967   4.000  13.625 -0.1044  0.0733  0.9625
   19TMC2    O1  306   2.980   3.527  13.977 -0.3016  0.0546 -0.2617
   19TMC2    O2  307   2.846   4.002  13.616  0.1483  0.4153 -0.2708
   19TMC2    O5  308   3.048   4.015  13.526  0.3265  0.3103 -0.5700
   19TMC2    H5  309   3.132   3.965  13.534 -0.6936 -1.7337 -2.2197
   20MPD2     C  310   3.561   3.950  14.080  0.1015 -0.2365 -0.4862
   20MPD2    C1  311   3.447   3.883  14.124 -0.2424 -0.3013 -0.4066
   20MPD2    C2  312   3.436   3.838  14.256  0.9819 -0.6827  0.5063
   20MPD2    C3  313   3.541   3.857  14.348 -0.2060 -0.5066 -0.1424
   20MPD2    C4  314   3.651   3.930  14.308  0.7019 -0.3274  0.3551
   20MPD2    C5  315   3.654   3.968  14.179 -0.1567  0.0372  0.0691
   20MPD2     H  316   3.350   3.773  14.274  0.7345 -0.5677 -0.2890
   20MPD2    H1  317   3.733   3.958  14.373 -1.3585  2.0232  1.9625
   20MPD2    H2  318   3.573   3.972  13.975 -1.1720 -0.2445 -0.6377
   20MPD2    H3  319   3.738   4.031  14.152 -1.0697  0.2202 -2.4232
   20MPD2     N  320   3.544   3.802  14.475 -0.4936 -0.1916 -0.1078
   20MPD2    H5  321   3.633   3.811  14.524 -0.4512 -0.7143 -0.0832
   20MPD2    N1  322   3.344   3.845  14.041 -0.0324 -0.6402  0.5445
   20MPD2    H7  323   3.260   3.816  14.090  1.1647 -3.5819  0.8291
   21TMC2    C1  324   0.523   4.054  14.893 -0.5897  0.3827  0.6264
   21TMC2    C2  325   0.652   4.022  14.921 -0.7451 -0.2429  0.4750
   21TMC2    C3  326   0.709   4.075  15.035 -0.3577 -0.4641  0.4344
   21TMC2    C4  327   0.456   4.137  14.973 -0.0569 -0.2265 -0.1039
   21TMC2    C5  328   0.515   4.194  15.085 -0.4361 -0.1027 -0.2007
   21TMC2    C6  329   0.642   4.164  15.116 -0.2360  0.0731  0.2052
   21TMC2     C  330   0.493   4.052  14.750 -0.2657  0.1404  0.3522
   21TMC2     O  331   0.579   3.995  14.685  0.0028 -0.3573  0.0156
   21TMC2     H  332   0.712   3.968  14.849 -1.6891 -1.4939  0.6340
   21TMC2    H1  333   0.350   4.155  14.959  0.0161  0.8577  0.7665
   21TMC2    H2  334   0.679   4.181  15.216  0.5767 -0.7117  0.0371
   21TMC2    C7  335   0.500   4.336  15.107  0.9795 -0.5130 -1.1002
   21TMC2    C8  336   0.847   4.111  15.021  1.3408  0.1415  0.5466
   21TMC2    O1  337   0.550   4.386  15.207 -0.3188  0.1822 -0.1979
   21TMC2    O2  338   0.898   4.144  14.913 -0.0781  0.0084 -0.5909
   21TMC2    O5  339   0.911   4.066  15.132 -0.2134 -0.0746 -0.3181
   21TMC2    H5  340   0.849   4.022  15.194 -1.4757  0.5940 -1.0956
   22MPD2     C  341   0.289   4.230  14.308  0.1797  0.0868 -0.3384
   22MPD2    C1  342   0.419   4.197  14.341 -0.3414 -0.1246  0.3035
   22MPD2    C2  343   0.450   4.146  14.466 -0.5244  0.4053  0.5620
   22MPD2    C3  344   0.350   4.143  14.566 -0.1198 -0.0744  0.1665
   22MPD2    C4  345   0.223   4.163  14.525 -0.5514 -0.1691  0.4200
   22MPD2    C5  346   0.190   4.210  14.403 -0.5582 -0.9636 -0.0528
   22MPD2     H  347   0.552   4.124  14.495  0.2613  1.4898 -1.4295
   22MPD2    H1  348   0.142   4.155  14.597 -0.5059  0.7275  0.5697
   22MPD2    H2  349   0.257   4.271  14.213  0.7459  1.3487  0.0168
   22MPD2    H3  350   0.088   4.241  14.383 -0.3828  0.2087  0.8997
   22MPD2     N  351   0.377   4.114  14.703 -0.1714 -0.4773  0.4964
   22MPD2    H5  352   0.305   4.146  14.767 -1.7053 -2.0391 -0.4635
   22MPD2    N1  353   0.529   4.220  14.254  0.0823  0.3813 -0.0910
   22MPD2    H7  354   0.619   4.221  14.302  0.0210 -0.4144  0.0408
   23TMC2    C1  355   2.278   1.069  14.954 -0.0662 -0.6791  0.7575
   23TMC2    C2  356   2.415   1.097  14.950  0.6313  0.2886  0.2125
   23TMC2    C3  357   2.476   1.095  14.828 -0.7754  0.2748 -0.3629
   23TMC2    C4  358   2.206   1.021  14.851  0.0408  0.0689 -0.0706
   23TMC2    C5  359   2.268   1.039  14.728 -0.6461 -0.0633 -0.0424
   23TMC2    C6  360   2.400   1.078  14.716  0.3979 -0.6822  0.3375
   23TMC2     C  361   2.221   1.066  15.091  0.2887  0.4077 -0.9894
   23TMC2     O  362   2.300   1.082  15.181 -0.5448 -0.4115 -0.5357
   23TMC2     H  363   2.484   1.128  15.028  0.7575  2.1977 -0.6515
   23TMC2    H1  364   2.103   0.992  14.863  0.1663 -1.1254 -1.9940
   23TMC2    H2  365   2.450   1.064  14.622  2.7511  0.0988  1.4747
   23TMC2    C7  366   2.201   0.984  14.612 -0.3676 -0.0357  0.5570
   23TMC2    C8  367   2.617   1.121  14.827  0.3986 -0.7265 -0.6176
   23TMC2    O1  368   2.276   0.944  14.522  0.0844 -0.2034  0.1230
   23TMC2    O2  369   2.684   1.066  14.915  0.3287 -0.0072  0.2583
   23TMC2    O5  370   2.613   1.256  14.806  0.1857 -0.2803 -0.1759
   23TMC2    H5  371   2.550   1.282  14.736 -0.5951 -3.0222 -0.4943
   24MPD2     C  372   1.849   1.020  15.426 -0.7090 -0.4094 -0.0698
   24MPD2    C1  373   1.985   0.988  15.436 -0.4848  0.3339 -0.4999
   24MPD2    C2  374   2.062   1.009  15.323 -0.6299 -0.1289  0.2297
   24MPD2    C3  375   2.007   1.044  15.206 -0.4261 -0.7861  0.6038
   24MPD2    C4  376   1.873   1.082  15.200  0.4329  0.0075  0.0439
   24MPD2    C5  377   1.799   1.084  15.318 -0.0216 -0.1675 -0.0311
   24MPD2     H  378   2.165   0.979  15.337 -0.6270 -0.1856  0.0799
   24MPD2    H1  379   1.838   1.119  15.105  1.7125  1.4098  0.1243
   24MPD2    H2  380   1.779   1.016  15.509 -1.1745 -0.1336 -0.4542
   24MPD2    H3  381   1.699   1.126  15.320 -0.5011 -1.3366  0.1755
   24MPD2     N  382   2.085   1.054  15.087 -0.7926 -0.6693  0.2512
   24MPD2    H5  383   2.039   1.081  15.001 -0.5179 -2.1935 -0.3634
   24MPD2    N1  384   2.040   0.918  15.548 -0.1543 -0.4496  0.3915
   24MPD2    H7  385   2.140   0.900  15.551 -0.0878 -0.4789 -1.9548
   25TMC2    C1  386   1.340   2.045  11.523  0.1242  0.3026 -0.7550
   25TMC2    C2  387   1.464   2.105  11.530  0.0341  0.4631 -0.3248
   25TMC2    C3  388   1.482   2.207  11.624  0.4712  0.2880  0.3071
   25TMC2    C4  389   1.240   2.068  11.611  0.0957 -0.1337 -0.1420
   25TMC2    C5  390   1.259   2.172  11.697 -0.0068 -0.5246  0.0584
   25TMC2    C6  391   1.378   2.243  11.707  0.1777 -0.1498  0.2264
   25TMC2     C  392   1.330   1.942  11.420 -0.4591 -0.6210 -0.1494
   25TMC2     O  393   1.429   1.903  11.360  0.2779  0.3807  0.3533
   25TMC2     H  394   1.548   2.085  11.464  1.8094  0.0598  2.0665
   25TMC2    H1  395   1.141   2.024  11.617  0.8106 -1.6679  0.2987
   25TMC2    H2  396   1.393   2.314  11.787  1.8528 -0.3286  0.0624
   25TMC2    C7  397   1.136   2.222  11.745  0.6674 -0.4655 -0.0525
   25TMC2    C8  398   1.602   2.279  11.622  0.7517  0.4180 -0.6683
   25TMC2    O1  399   1.074   2.142  11.816  0.4092 -0.6577  0.6024
   25TMC2    O2  400   1.657   2.293  11.514  0.4150 -0.1417 -0.3540
   25TMC2    O5  401   1.666   2.230  11.721  0.3477  0.1964  0.1984
   25TMC2    H5  402   1.620   2.187  11.796  1.6036 -1.4039  0.0679
   26MPD2     C  403   1.038   1.570  11.210  0.2804 -0.9924 -0.7902
   26MPD2    C1  404   0.955   1.670  11.234  0.0174 -0.3690  0.0398
   26MPD2    C2  405   1.008   1.778  11.294 -0.1726 -0.3671  0.4070
   26MPD2    C3  406   1.145   1.796  11.323  0.0644 -0.2608  0.3882
   26MPD2    C4  407   1.224   1.692  11.290  0.2405 -0.1750 -0.3095
   26MPD2    C5  408   1.175   1.583  11.228  0.4211  0.0391 -1.5750
   26MPD2     H  409   0.944   1.863  11.316 -0.4646 -0.1545 -1.2611
   26MPD2    H1  410   1.332   1.705  11.298  0.4306 -2.4214  0.7242
   26MPD2    H2  411   1.012   1.485  11.148  1.4789 -2.8293  1.2240
   26MPD2    H3  412   1.247   1.510  11.193  0.8167 -1.2344  1.9786
   26MPD2     N  413   1.194   1.910  11.390  0.9667 -0.5036  0.6780
   26MPD2    H5  414   1.122   1.974  11.422  0.6640 -0.1453 -0.7050
   26MPD2    N1  415   0.821   1.665  11.204  0.1067 -0.7025  0.5797
   26MPD2    H7  416   0.787   1.573  11.179 -2.1089  0.4788 -0.7208
   27TMC2    C1  417   4.509   0.192  11.947  0.7453 -0.2604 -0.0774
   27TMC2    C2  418   4.578   0.191  11.834  0.0990  0.1394 -0.6512
   27TMC2    C3  419   4.698   0.243  11.820 -0.2653 -0.6371 -0.0593
   27TMC2    C4  420   4.569   0.240  12.062  0.2784 -0.4060 -0.1907
   27TMC2    C5  421   4.698   0.285  12.059  0.0604 -0.1801 -0.2561
   27TMC2    C6  422   0.029   0.284  11.933 -0.0080 -0.5185  0.3774
   27TMC2     C  423   4.365   0.171  11.944 -0.1668  0.3757 -0.2588
   27TMC2     O  424   4.317   0.174  11.833  0.0350  0.1567 -0.4453
   27TMC2     H  425   4.533   0.140  11.749 -1.3074 -0.5261  0.5053
   27TMC2    H1  426   4.512   0.253  12.153  1.2826  1.5876  0.1555
   27TMC2    H2  427   0.127   0.323  11.909 -0.7498  0.9579 -0.2417
   27TMC2    C7  428   0.014   0.346  12.186 -0.2418  0.1008 -0.0924
   27TMC2    C8  429   0.035   0.232  11.695  0.6963  0.5718  0.4628
   27TMC2    O1  430   4.670   0.360  12.279  0.2863 -0.3873 -0.1017
   27TMC2    O2  431   0.155   0.208  11.690  0.3037  0.4251  0.3037
   27TMC2    O5  432   4.686   0.256  11.597 -0.3491  0.5715 -0.7016
   27TMC2    H5  433   4.602   0.299  11.624 -0.1350  1.1451 -0.9515
   28MPD2     C  434   3.913   0.070  12.155  0.2326  0.1990 -0.2388
   28MPD2    C1  435   4.005   0.070  12.257  0.5823 -0.4232  1.0486
   28MPD2    C2  436   4.140   0.100  12.224  0.2296 -0.0365  0.4859
   28MPD2    C3  437   4.174   0.118  12.093  0.3608 -0.1461  0.4806
   28MPD2    C4  438   4.078   0.134  11.998 -0.1842 -0.0181 -0.2873
   28MPD2    C5  439   3.950   0.114  12.029 -0.3412  0.1837  0.1804
   28MPD2     H  440   4.209   0.098  12.308  2.0652  3.2105 -0.9451
   28MPD2    H1  441   4.104   0.172  11.900  0.0578  0.1380 -0.1623
   28MPD2    H2  442   3.805   0.057  12.159  0.2570  0.2147  0.5172
   28MPD2    H3  443   3.879   0.111  11.947 -1.0927  1.1228  0.8133
   28MPD2     N  444   4.312   0.140  12.068  0.1861  0.0210  0.0865
   28MPD2    H5  445   4.377   0.137  12.145  1.2109 -0.4873 -0.7975
   28MPD2    N1  446   3.968   0.039  12.396  0.1979  0.3176  0.1321
   28MPD2    H7  447   4.027   0.049  12.477  1.0209 -0.4919 -0.3686
   29TMC2    C1  448   3.984   2.640  14.721  0.5540 -0.1651 -0.3379
   29TMC2    C2  449   4.016   2.650  14.857 -0.8055 -0.0954 -0.4919
   29TMC2    C3  450   4.076   2.772  14.893 -0.1774 -0.6903  0.5374
   29TMC2    C4  451   4.003   2.743  14.635  0.7635 -0.1541 -0.2593
   29TMC2    C5  452   4.073   2.854  14.682  0.8090  0.3825 -0.0943
   29TMC2    C6  453   4.101   2.880  14.814  0.4764 -0.1577  0.6118
   29TMC2     C  454   3.916   2.520  14.678  0.0785  0.0730  0.7236
   29TMC2     O  455   3.931   2.419  14.748 -0.0438 -0.5695  0.5437
   29TMC2     H  456   4.001   2.558  14.913  0.8406 -0.5262 -0.7484
   29TMC2    H1  457   3.987   2.734  14.528 -0.9545 -1.2033  0.0813
   29TMC2    H2  458   4.133   2.977  14.850  0.5970  0.5683 -1.4310
   29TMC2    C7  459   4.100   2.967  14.588 -0.3170 -0.7331  0.3475
   29TMC2    C8  460   4.128   2.778  15.030  0.6011 -0.0796 -0.3406
   29TMC2    O1  461   4.038   2.958  14.483  0.1496  0.1390  0.4920
   29TMC2    O2  462   4.147   2.674  15.092  0.3166  0.0126  0.0416
   29TMC2    O5  463   4.057   2.873  15.091  0.0761  0.3734 -0.7600
   29TMC2    H5  464   4.013   2.935  15.029 -0.7696 -1.1809 -1.7054
   30MPD2     C  465   3.661   2.256  14.339  0.0358 -0.2071  0.0204
   30MPD2    C1  466   3.747   2.207  14.441  0.1388 -0.2448  0.3458
   30MPD2    C2  467   3.817   2.302  14.510  0.1290 -1.1050  0.1083
   30MPD2    C3  468   3.796   2.441  14.484  0.2677  0.0344 -0.1813
   30MPD2    C4  469   3.711   2.482  14.387 -0.3079  0.1348  0.0500
   30MPD2    C5  470   3.646   2.388  14.316  0.0119 -0.7727  0.0700
   30MPD2     H  471   3.889   2.275  14.586 -0.0434 -3.0506 -0.4220
   30MPD2    H1  472   3.702   2.589  14.368  3.8572  0.5621  0.4732
   30MPD2    H2  473   3.610   2.195  14.266  3.0371 -0.8469 -1.5171
   30MPD2    H3  474   3.586   2.423  14.233  2.0237  2.4197 -0.0233
   30MPD2     N  475   3.843   2.543  14.560 -0.4578  0.2036 -0.2287
   30MPD2    H5  476   3.838   2.635  14.518 -0.0503  0.1643 -0.3643
   30MPD2    N1  477   3.779   2.063  14.450  0.0537  0.1847  0.3084
   30MPD2    H7  478   3.853   2.030  14.511 -0.6325  1.0935  1.6294
   31TMC2    C1  479   1.561   1.577  15.672  0.5520 -0.1349 -0.0011
   31TMC2    C2  480   1.456   1.661  15.675  0.2142  0.5967  0.1049
   31TMC2    C3  481   1.409   1.694  15.795  0.0516 -0.4129  0.8315
   31TMC2    C4  482   1.614   1.521  15.792  0.5136  0.3155  0.3139
   31TMC2    C5  483   1.559   1.564  15.907  0.1481  1.2507 -0.4120
   31TMC2    C6  484   1.458   1.654  15.917 -0.2541  0.3387  0.3534
   31TMC2     C  485   1.630   1.581  15.548  0.1446  0.3186  0.0321
   31TMC2     O  486   1.593   1.669  15.472  0.1721 -0.3198 -0.2382
   31TMC2     H  487   1.409   1.700  15.585  2.6435 -1.3306 -1.9963
   31TMC2    H1  488   1.691   1.445  15.792 -0.6160 -0.8520  0.2454
   31TMC2    H2  489   1.396   1.676  16.003  1.3680 -3.0580  2.3954
   31TMC2    C7  490   1.617   1.500  16.025  0.0325  0.9278  1.1293
   31TMC2    C8  491   1.281   1.769  15.805  0.1351 -0.2856 -0.0854
   31TMC2    O1  492   1.650   1.385  16.021  0.1279  0.0833  0.4180
   31TMC2    O2  493   1.207   1.763  15.905 -0.2411 -1.0800 -0.1363
   31TMC2    O5  494   1.272   1.853  15.706 -0.5127 -0.2058 -0.3308
   31TMC2    H5  495   1.355   1.865  15.653  0.4756 -3.1671  0.5928
   32MPD2     C  496   1.999   1.402  15.247  0.1169 -0.4728  0.5939
   32MPD2    C1  497   1.906   1.498  15.229 -0.0446  0.1843  0.6553
   32MPD2    C2  498   1.819   1.539  15.324  0.0888  0.4620  0.0440
   32MPD2    C3  499   1.823   1.475  15.445  0.7162 -0.4865  0.7399
   32MPD2    C4  500   1.923   1.385  15.469  0.0902 -0.5792 -0.5929
   32MPD2    C5  501   2.006   1.347  15.369  0.4864  0.2461  0.3413
   32MPD2     H  502   1.740   1.611  15.305 -0.7529 -1.1431 -2.7168
   32MPD2    H1  503   1.932   1.340  15.568 -2.8515 -2.6119 -1.2471
   32MPD2    H2  504   2.074   1.372  15.174  0.6838  2.2868  0.0582
   32MPD2    H3  505   2.080   1.269  15.383 -0.0170 -0.2821  0.0578
   32MPD2     N  506   1.726   1.490  15.541  0.4554  0.4579 -0.1769
   32MPD2    H5  507   1.738   1.428  15.621  2.2482 -2.1546 -2.4469
   32MPD2    N1  508   1.908   1.554  15.093  0.5737  0.0966  0.2372
   32MPD2    H7  509   1.968   1.513  15.022  0.2309  1.3121 -0.7469
   33TMC2    C1  510   1.733   3.775  10.249 -0.3505  0.4973 -0.7051
   33TMC2    C2  511   1.601   3.768  10.221 -0.4577  0.2767 -0.0043
   33TMC2    C3  512   1.544   3.859  10.138  0.1183 -0.9357  0.3369
   33TMC2    C4  513   1.805   3.884  10.202 -0.2630 -0.4150  0.1624
   33TMC2    C5  514   1.739   3.981  10.127 -0.3825  0.5232  0.0722
   33TMC2    C6  515   1.606   3.972  10.099 -0.7728 -1.1338  0.1263
   33TMC2     C  516   1.802   3.674  10.321 -0.6812 -0.8102 -0.0853
   33TMC2     O  517   1.724   3.589  10.364  0.3424 -0.0028 -0.1244
   33TMC2     H  518   1.547   3.676  10.241 -1.2364  0.6100 -0.5295
   33TMC2    H1  519   1.912   3.894  10.211 -0.2870 -2.1188  2.6239
   33TMC2    H2  520   1.544   4.043  10.045  2.0149  1.8580  0.8797
   33TMC2    C7  521   1.815   4.103  10.091 -0.5730 -0.4395 -0.6792
   33TMC2    C8  522   1.401   3.846  10.118 -0.2855 -0.5732 -0.0390
   33TMC2    O1  523   1.931   4.102  10.127  0.4632  0.1992  0.1175
   33TMC2    O2  524   1.346   3.890  10.019 -0.1793 -0.0736 -0.5425
   33TMC2    O5  525   1.351   3.825  10.243  0.1638 -0.2419  0.0137
   33TMC2    H5  526   1.422   3.833  10.310 -1.1923 -0.8154  1.4844
   34MPD2     C  527   2.181   3.471  10.608 -0.7815 -0.6735 -0.3081
   34MPD2    C1  528   2.055   3.427  10.593 -0.3327  0.8259  0.5579
   34MPD2    C2  529   1.967   3.510  10.522  0.0473  0.0372 -0.0203
   34MPD2    C3  530   2.014   3.613  10.441 -0.3710  0.8144 -0.4542
   34MPD2    C4  531   2.148   3.647  10.455 -0.2512 -0.0184  1.1444
   34MPD2    C5  532   2.230   3.575  10.534  0.7736 -0.1573 -0.3542
   34MPD2     H  533   1.862   3.485  10.520 -0.3100  1.4213  1.3924
   34MPD2    H1  534   2.199   3.730  10.407 -0.9930  0.1018  0.5587
   34MPD2    H2  535   2.253   3.428  10.676 -0.7454 -0.1663 -0.0279
   34MPD2    H3  536   2.331   3.611  10.552  0.1610  1.2163  0.3625
   34MPD2     N  537   1.932   3.700  10.359  0.5000 -0.4334  0.1593
   34MPD2    H5  538   1.991   3.777  10.329 -0.2391  0.1351  0.1712
   34MPD2    N1  539   2.009   3.310  10.660 -1.0735  0.1712 -0.7354
   34MPD2    H7  540   2.082   3.243  10.683 -2.4117 -0.8656  0.4884
   35TMC2    C1  541   3.716   0.272  11.087  0.1941  0.3630  0.7883
   35TMC2    C2  542   3.696   0.391  11.035 -0.3167 -0.0249  0.1652
   35TMC2    C3  543   3.568   0.428  11.017 -1.0446  0.1335 -0.1399
   35TMC2    C4  544   3.608   0.186  11.108  0.2127  0.2220 -0.5791
   35TMC2    C5  545   3.484   0.226  11.067 -0.5332 -0.5161 -0.9323
   35TMC2    C6  546   3.455   0.350  11.013 -0.3139  0.2309 -0.3135
   35TMC2     C  547   3.830   0.255  11.175  0.1056 -0.3867  0.1278
   35TMC2     O  548   3.927   0.328  11.162 -0.6981 -0.0480 -0.2650
   35TMC2     H  549   3.772   0.469  11.036 -0.1964 -0.1348 -0.3503
   35TMC2    H1  550   3.616   0.082  11.137  0.8596  0.6384  0.7122
   35TMC2    H2  551   3.356   0.392  11.027 -0.2419  0.4122 -0.3525
   35TMC2    C7  552   3.377   0.133  11.104  0.3785  0.1921 -0.8003
   35TMC2    C8  553   3.547   0.556  10.956  0.4897  0.4364  0.1089
   35TMC2    O1  554   3.405   0.051  11.191 -0.2823 -0.0196 -0.0909
   35TMC2    O2  555   3.625   0.645  10.968  0.3013 -0.2656  0.0667
   35TMC2    O5  556   3.471   0.523  10.851  0.5403 -0.0695 -0.0516
   35TMC2    H5  557   3.440   0.430  10.851  1.4001 -0.3603 -0.3311
   36MPD2     C  558   4.023   4.698  11.560 -0.4053  0.7404 -0.1716
   36MPD2    C1  559   3.882   4.696  11.562 -0.6882 -0.6072 -0.0097
   36MPD2    C2  560   3.815   0.038  11.474  0.5638 -0.3561  1.3975
   36MPD2    C3  561   3.881   0.110  11.371 -0.2880  0.0107 -0.2031
   36MPD2    C4  562   4.014   0.128  11.380 -0.4144  0.4637 -0.9983
   36MPD2    C5  563   4.084   0.053  11.473  0.3838  0.4498  0.3976
   36MPD2     H  564   3.706   0.040  11.471  0.6479  1.6421 -0.4954
   36MPD2    H1  565   4.066   0.200  11.318 -0.5429  0.9205 -0.5834
   36MPD2    H2  566   4.087   4.661  11.639 -1.6460 -0.6919  0.1483
   36MPD2    H3  567   4.190   0.070  11.488  0.7098 -0.7890 -0.5513
   36MPD2     N  568   3.791   0.165  11.275  0.3448 -0.5766  0.3552
   36MPD2    H5  569   3.694   0.136  11.277 -0.8925  3.4523 -1.4564
   36MPD2    N1  570   3.801   4.626  11.654  0.0065  0.2644  0.3043
   36MPD2    H7  571   3.704   4.655  11.648  0.1500  0.4631 -1.1027
   37TMC2    C1  572   0.539   0.317  11.839  0.7866 -0.0692 -0.3662
   37TMC2    C2  573   0.455   0.306  11.733  0.1999 -0.4811 -0.3199
   37TMC2    C3  574   0.510   0.294  11.608 -0.3553 -0.6001 -0.3419
   37TMC2    C4  575   0.670   0.305  11.818  0.1208 -0.3633  0.9367
   37TMC2    C5  576   0.730   0.286  11.694 -0.0053 -0.2244  0.0409
   37TMC2    C6  577   0.645   0.277  11.587 -0.3334 -0.1313  0.6293
   37TMC2     C  578   0.478   0.286  11.967  0.0845  0.0582 -0.0078
   37TMC2     O  579   0.359   0.317  11.974 -0.4432 -0.3380  0.1979
   37TMC2     H  580   0.349   0.305  11.756  0.0741 -0.3131 -0.8948
   37TMC2    H1  581   0.737   0.316  11.903  1.7305 -2.4346 -0.0835
   37TMC2    H2  582   0.671   0.292  11.482  0.3165  1.0879  0.9616
   37TMC2    C7  583   0.869   0.248  11.691  0.1305 -0.1072 -0.5705
   37TMC2    C8  584   0.428   0.331  11.498 -0.5707  0.1319  0.0789
   37TMC2    O1  585   0.932   0.251  11.795 -0.0358 -0.0756  0.0982
   37TMC2    O2  586   0.472   0.386  11.398 -0.0274 -0.3437 -0.5754
   37TMC2    O5  587   0.315   0.258  11.489  0.1334 -0.4063 -0.2099
   37TMC2    H5  588   0.282   0.232  11.578  0.0228 -2.7104 -0.9405
   38MPD2     C  589   0.478   0.080  12.429 -0.2596  0.7707 -0.2304
   38MPD2    C1  590   0.604   0.053  12.381 -0.0996  0.1599 -0.4373
   38MPD2    C2  591   0.630   0.099  12.253 -0.0073 -0.1833  0.5105
   38MPD2    C3  592   0.531   0.151  12.169 -0.9055 -0.4094  0.0744
   38MPD2    C4  593   0.404   0.140  12.205  0.6005  1.1492 -0.4396
   38MPD2    C5  594   0.380   0.122  12.338 -0.1624  0.9531  0.4561
   38MPD2     H  595   0.733   0.100  12.218  0.2837 -1.7090  1.3183
   38MPD2    H1  596   0.314   0.151  12.146 -0.8881  1.9511  1.9531
   38MPD2    H2  597   0.443   0.065  12.530 -0.0571  1.6677 -0.0275
   38MPD2    H3  598   0.274   0.120  12.361 -0.3515  2.9248 -0.2801
   38MPD2     N  599   0.562   0.209  12.044  0.0794 -0.3027  0.1249
   38MPD2    H5  600   0.647   0.170  12.005 -1.8623 -0.2742 -4.1149
   38MPD2    N1  601   0.703   4.729  12.466  0.2169 -0.0249  0.7969
   38MPD2    H7  602   0.794   4.721  12.422  1.1491  1.6341  2.4291
   39TMC2    C1  603   3.540   2.152   1.591 -0.2361  0.6767 -0.2980
   39TMC2    C2  604   3.512   2.160   1.725  0.2279 -0.5149  0.4453
   39TMC2    C3  605   3.612   2.117   1.815  0.7667  0.1039  0.5942
   39TMC2    C4  606   3.671   2.129   1.547 -0.0077  1.3410  0.3880
   39TMC2    C5  607   3.765   2.100   1.645  0.6606 -0.3636  0.5842
   39TMC2    C6  608   3.741   2.091   1.775 -0.4531  0.2439 -0.0211
   39TMC2     C  609   3.427   2.119   1.505  0.4017 -0.2510 -0.2298
   39TMC2     O  610   3.314   2.143   1.538 -0.5845  0.7192  0.0006
   39TMC2     H  611   3.412   2.176   1.764  0.7523  0.7231  1.2776
   39TMC2    H1  612   3.703   2.133   1.443 -1.3074  1.4051 -0.0087
   39TMC2    H2  613   3.807   2.049   1.851 -2.0143 -1.9273  0.1329
   39TMC2    C7  614   3.901   2.066   1.601 -0.2229  0.0692  0.7667
   39TMC2    C8  615   3.571   2.051   1.941 -0.1210 -0.0218 -0.1983
   39TMC2    O1  616   3.965   1.990   1.672 -0.1263  0.4546 -0.2536
   39TMC2    O2  617   3.470   1.987   1.963  0.4651  0.4642 -0.4286
   39TMC2    O5  618   3.647   2.111   2.036  0.0926 -0.1957 -0.4202
   39TMC2    H5  619   3.713   2.172   1.997  1.0439 -0.8687  0.1158
   40MPD2     C  620   3.454   1.940   1.187 -0.1377 -0.7147 -0.1201
   40MPD2    C1  621   3.391   2.008   1.287 -0.8373 -0.6999 -0.3998
   40MPD2    C2  622   3.262   2.052   1.257 -0.6864 -1.2022  0.8131
   40MPD2    C3  623   3.194   2.026   1.141  0.1893 -0.1702  0.4084
   40MPD2    C4  624   3.263   1.960   1.039 -0.8882 -0.3986  0.3584
   40MPD2    C5  625   3.391   1.917   1.067 -0.1729  0.0917  0.0692
   40MPD2     H  626   3.203   2.099   1.335 -0.5155  0.1402  0.1358
   40MPD2    H1  627   3.215   1.944   0.943 -0.1573  0.5427 -0.1573
   40MPD2    H2  628   3.560   1.916   1.194  0.3156  1.3022 -0.0085
   40MPD2    H3  629   3.438   1.871   0.981 -0.2222  0.2056 -0.0175
   40MPD2     N  630   3.059   2.071   1.108  0.2494  1.0047 -0.1045
   40MPD2    H5  631   3.021   2.022   1.027 -2.2783 -0.0343  1.7160
   40MPD2    N1  632   3.470   2.042   1.400 -0.2121 -0.6735 -0.4329
   40MPD2    H7  633   3.570   2.030   1.391  0.1768  0.4254  2.7391
   41TMC2    C1  634   3.379   0.451  13.303 -0.2642 -0.0388  0.5020
   41TMC2    C2  635   3.306   0.570  13.316  1.1227  0.0453 -0.3913
   41TMC2    C3  636   3.357   0.678  13.256 -0.4077  0.1959  0.6055
   41TMC2    C4  637   3.487   0.439  13.224 -0.2226 -0.2008  0.6699
   41TMC2    C5  638   3.533   0.551  13.167 -0.4107  0.7437 -0.0915
   41TMC2    C6  639   3.466   0.670  13.178  0.1985 -0.9184 -0.3733
   41TMC2     C  640   3.317   0.340  13.369 -0.2337  0.1089  0.2922
   41TMC2     O  641   3.302   0.240  13.297 -0.6588 -0.1740  0.7488
   41TMC2     H  642   3.213   0.578  13.371  0.9614  2.6731 -1.0451
   41TMC2    H1  643   3.549   0.350  13.226 -0.6754 -0.5751 -2.0293
   41TMC2    H2  644   3.509   0.752  13.123  0.4383 -0.9370 -0.2164
   41TMC2    C7  645   3.665   0.557  13.127  0.3534  0.4561 -0.4662
   41TMC2    C8  646   3.290   0.805  13.250  0.1911  0.0867 -0.0123
   41TMC2    O1  647   3.741   0.631  13.190  0.1583 -0.6263  0.1397
   41TMC2    O2  648   3.310   0.881  13.155 -0.2242 -0.1399 -0.0465
   41TMC2    O5  649   3.196   0.831  13.350  0.6621 -0.4988 -0.1944
   41TMC2    H5  650   3.196   0.763  13.421  2.3846  0.2544  0.5093
   42MPD2     C  651   3.082   0.217  13.513 -0.2297 -0.1596 -0.3814
   42MPD2    C1  652   3.165   0.314  13.561 -0.0231  0.2246 -0.3362
   42MPD2    C2  653   3.136   0.373  13.683 -0.1382  0.2597  0.0489
   42MPD2    C3  654   3.032   0.332  13.760 -0.1601  0.5625  0.7897
   42MPD2    C4  655   2.955   0.224  13.714  0.1536 -0.4327 -0.0154
   42MPD2    C5  656   2.976   0.170  13.587  0.8495 -0.6577 -0.0018
   42MPD2     H  657   3.212   0.444  13.712 -1.3177  1.2386  0.7376
   42MPD2    H1  658   2.878   0.174  13.771 -0.4405 -0.0507 -0.4850
   42MPD2    H2  659   3.093   0.176  13.413  1.9708  0.1561 -0.2636
   42MPD2    H3  660   2.913   0.087  13.556 -0.2061  0.7078 -1.5244
   42MPD2     N  661   2.998   0.384  13.896  0.3887  0.4438  0.5854
   42MPD2    H5  662   2.929   0.336  13.953 -1.2963  0.7663 -1.1815
   42MPD2    N1  663   3.276   0.373  13.493 -0.4370  0.0277  0.2498
   42MPD2    H7  664   3.320   0.454  13.536  0.1421 -0.4656  0.5785
   43TMC2    C1  665   4.234   3.801   0.575 -0.1141  0.1846  0.7671
   43TMC2    C2  666   4.232   3.882   0.467 -0.2770  0.0419 -0.4560
   43TMC2    C3  667   4.333   3.970   0.453 -0.4890 -0.5925  0.1917
   43TMC2    C4  668   4.342   3.803   0.663  0.0708  0.1853 -0.6411
   43TMC2    C5  669   4.445   3.886   0.642 -0.0815  0.0053  0.5225
   43TMC2    C6  670   4.437   3.979   0.544 -0.1035 -0.5136 -0.2320
   43TMC2     C  671   4.160   3.680   0.566 -0.2919 -0.2320 -0.2151
   43TMC2     O  672   4.143   3.638   0.452  0.5407 -0.1440  0.1540
   43TMC2     H  673   4.154   3.873   0.392 -0.3612  0.1498 -0.3823
   43TMC2    H1  674   4.359   3.705   0.706  1.9733 -0.0280 -1.8852
   43TMC2    H2  675   4.512   4.057   0.538  0.1845 -0.7917 -0.2238
   43TMC2    C7  676   4.550   3.909   0.743 -0.3681  0.0069  0.2800
   43TMC2    C8  677   4.314   4.069   0.346 -0.5021  0.2909  0.0198
   43TMC2    O1  678   4.636   3.990   0.708  0.1604 -0.2759 -0.4797
   43TMC2    O2  679   4.376   4.074   0.241  0.2567  0.2244  0.2525
   43TMC2    O5  680   4.182   4.115   0.363  0.8051  0.6159 -0.5979
   43TMC2    H5  681   4.167   4.102   0.459 -0.7242 -0.5442 -0.9858
   44MPD2     C  682   3.910   3.261   0.711 -0.8279  0.5726  0.4688
   44MPD2    C1  683   3.963   3.291   0.585  0.3891 -0.8171  0.8989
   44MPD2    C2  684   4.026   3.417   0.577 -0.1547  0.3767 -0.3907
   44MPD2    C3  685   4.035   3.509   0.676  0.1209 -0.6262  0.5162
   44MPD2    C4  686   3.990   3.472   0.795  0.9986 -0.0902  0.4099
   44MPD2    C5  687   3.922   3.353   0.814  0.1875 -0.1828  0.7375
   44MPD2     H  688   4.074   3.424   0.480  0.7605  1.7720  0.1662
   44MPD2    H1  689   4.014   3.534   0.880 -0.8255  0.3497  0.6082
   44MPD2    H2  690   3.875   3.162   0.739 -0.1299  0.1137 -0.2771
   44MPD2    H3  691   3.879   3.338   0.912 -1.8877 -2.7117 -0.5633
   44MPD2     N  692   4.122   3.624   0.678 -0.0186  0.2570 -0.5756
   44MPD2    H5  693   4.151   3.661   0.768  0.3758 -2.1743  0.2883
   44MPD2    N1  694   3.967   3.208   0.472 -0.6305 -0.7399 -0.4056
   44MPD2    H7  695   4.004   3.247   0.386  0.7740 -0.9295  0.1120
   45TMC2    C1  696   0.254   0.068   9.819  0.4797  0.3590 -0.5888
   45TMC2    C2  697   0.329   4.702   9.878  0.3515 -0.4527 -0.1666
   45TMC2    C3  698   0.426   0.001   9.964 -0.5704 -0.7747 -0.0263
   45TMC2    C4  699   0.288   0.200   9.838  0.1598 -0.3602 -0.2349
   45TMC2    C5  700   0.407   0.230   9.913  0.3962  0.4876  0.2343
   45TMC2    C6  701   0.473   0.128   9.983  0.9109  1.4035  0.3756
   45TMC2     C  702   0.146   0.034   9.732 -0.0389  0.9185 -0.4572
   45TMC2     O  703   0.092   4.658   9.741  0.7299  0.0326 -0.3657
   45TMC2     H  704   0.287   4.603   9.863  0.0857 -0.3713  0.0350
   45TMC2    H1  705   0.229   0.279   9.792 -0.3730 -0.9701 -0.6086
   45TMC2    H2  706   0.570   0.146  10.028  1.1147  2.0485 -0.3240
   45TMC2    C7  707   0.445   0.367   9.945 -0.9949  0.2352 -0.4915
   45TMC2    C8  708   0.513   4.630   9.999  0.5607  0.3339 -0.3023
   45TMC2    O1  709   0.520   0.383  10.040  0.4529 -0.4318 -0.5249
   45TMC2    O2  710   0.516   4.520   9.943 -0.6101 -0.3511 -0.2123
   45TMC2    O5  711   0.569   4.671  10.115 -0.2008 -0.3177  0.2144
   45TMC2    H5  712   0.540   0.022  10.152  0.2732 -0.5790  1.2100
   46MPD2     C  713   4.685   0.021   9.508  0.2132  0.0141  0.5928
   46MPD2    C1  714   0.021   0.135   9.542  0.3778 -0.5611  0.0542
   46MPD2    C2  715   4.731   0.251   9.468  0.0613 -0.2892 -0.6161
   46MPD2    C3  716   4.628   0.254   9.375 -0.3212 -0.2931  0.3255
   46MPD2    C4  717   4.548   0.143   9.354  0.2387  0.3558 -1.0731
   46MPD2    C5  718   4.579   0.028   9.421 -0.3658 -0.0945 -0.5600
   46MPD2     H  719   0.056   0.341   9.477  3.9243 -2.7608 -1.8404
   46MPD2    H1  720   4.464   0.144   9.287 -0.7743  3.5288  0.2292
   46MPD2    H2  721   4.704   4.662   9.557 -0.2558 -0.2107  0.3352
   46MPD2    H3  722   4.522   4.672   9.408 -1.3682  0.5306 -0.4684
   46MPD2     N  723   4.598   0.383   9.328  0.0347  0.3496  0.1305
   46MPD2    H5  724   4.649   0.462   9.365  0.8656 -0.1988  0.1489
   46MPD2    N1  725   0.115   0.135   9.647  0.2869 -0.0171  0.2593
   46MPD2    H7  726   0.165   0.223   9.656 -0.7056  0.8441 -2.6821
   47TMC2    C1  727   2.373   1.182   8.706 -0.0762  0.2732  0.0174
   47TMC2    C2  728   2.343   1.172   8.568  0.4624  0.3492 -0.4423
   47TMC2    C3  729   2.212   1.176   8.532 -0.2885  0.0346 -1.2933
   47TMC2    C4  730   2.275   1.170   8.807 -0.6913  0.5277 -0.4162
   47TMC2    C5  731   2.147   1.178   8.762 -0.5567  0.0305 -0.2730
   47TMC2    C6  732   2.115   1.182   8.627  0.0074  0.6056  0.5481
   47TMC2     C  733   2.504   1.220   8.748  0.3386  0.4369 -0.0437
   47TMC2     O  734   2.563   1.293   8.670  0.6655 -0.6410 -0.6249
   47TMC2     H  735   2.419   1.162   8.491  0.3107  1.1876 -0.6925
   47TMC2    H1  736   2.297   1.184   8.912 -1.6576  1.0846 -0.2805
   47TMC2    H2  737   2.010   1.183   8.601  0.5475 -0.0375 -1.5894
   47TMC2    C7  738   2.037   1.145   8.856 -0.9087 -0.7604 -0.3860
   47TMC2    C8  739   2.183   1.199   8.390  0.3697 -0.4433  0.0108
   47TMC2    O1  740   1.946   1.077   8.809  0.1612 -0.1895 -0.1801
   47TMC2    O2  741   2.283   1.224   8.318 -0.5948 -0.4297  0.5020
   47TMC2    O5  742   2.082   1.114   8.361 -0.2358  0.5834  0.2170
   47TMC2    H5  743   2.026   1.086   8.437 -1.0572  0.3534 -0.4719
   48MPD2     C  744   2.764   1.262   8.897 -1.1205 -0.3442  0.5764
   48MPD2    C1  745   2.677   1.156   8.915 -0.4595  0.6611 -0.6455
   48MPD2    C2  746   2.703   1.087   9.030 -0.1099 -0.0443  0.2034
   48MPD2    C3  747   2.817   1.103   9.108 -0.3619 -0.5041  0.0524
   48MPD2    C4  748   2.918   1.189   9.065  0.1633 -0.0228  0.3126
   48MPD2    C5  749   2.877   1.279   8.966 -0.6697  0.2325  0.4956
   48MPD2     H  750   2.625   1.018   9.061  0.1403  0.5972  2.2307
   48MPD2    H1  751   3.011   1.195   9.120 -0.1768 -3.3632  1.2865
   48MPD2    H2  752   2.743   1.342   8.827 -0.0792 -0.6883 -0.1196
   48MPD2    H3  753   2.945   1.356   8.929 -0.2579 -0.2259  0.3003
   48MPD2     N  754   2.837   1.018   9.218 -0.7046 -0.2193 -0.2754
   48MPD2    H5  755   2.763   0.952   9.237 -1.7422  1.5830  1.9211
   48MPD2    N1  756   2.548   1.148   8.855  0.6310 -0.5658  0.0449
   48MPD2    H7  757   2.487   1.071   8.880  1.4584 -1.7833 -1.7123
   49TMC2    C1  758   1.012   2.846  10.548  0.7919  0.4091 -0.6001
   49TMC2    C2  759   1.083   2.806  10.445 -0.1098 -0.3085 -0.8659
   49TMC2    C3  760   1.027   2.706  10.367 -0.5127  0.5651 -0.2555
   49TMC2    C4  761   0.891   2.794  10.580 -0.3020  0.8189 -0.2429
   49TMC2    C5  762   0.840   2.697  10.503  0.8017 -0.0141  0.0744
   49TMC2    C6  763   0.902   2.646  10.394  0.4208 -0.4975 -0.1467
   49TMC2     C  764   1.065   2.962  10.618 -1.0197  0.1011 -0.2376
   49TMC2     O  765   1.157   3.024  10.570 -0.2915  0.1118 -0.1473
   49TMC2     H  766   1.182   2.842  10.418 -0.3911  2.4582  1.8183
   49TMC2    H1  767   0.844   2.834  10.669  2.3044  3.0267  0.1301
   49TMC2    H2  768   0.858   2.568  10.332 -2.9520 -0.3142  2.0442
   49TMC2    C7  769   0.704   2.675  10.526  0.0900 -0.0701  0.1815
   49TMC2    C8  770   1.111   2.652  10.267  0.2638 -0.8900 -0.1526
   49TMC2    O1  771   0.661   2.679  10.642  0.6115 -0.1239  0.0677
   49TMC2    O2  772   1.178   2.727  10.198  0.1073  0.2901  0.2877
   49TMC2    O5  773   1.060   2.527  10.238  0.1606  0.3519 -0.1163
   49TMC2    H5  774   1.040   2.475  10.319 -0.7048 -2.1802 -1.9505
   50MPD2     C  775   1.089   3.240  10.753  0.0410  0.4239 -0.4748
   50MPD2    C1  776   0.985   3.147  10.778  0.8149 -0.1477  0.5901
   50MPD2    C2  777   0.874   3.191  10.845  0.0429 -0.0689 -0.0778
   50MPD2    C3  778   0.866   3.319  10.904  0.3419 -0.0293 -0.2413
   50MPD2    C4  779   0.976   3.404  10.873  0.4571  0.2462  0.3035
   50MPD2    C5  780   1.079   3.369  10.796  0.6293  0.7758 -0.0247
   50MPD2     H  781   0.792   3.122  10.860  0.8551 -1.5200 -2.2436
   50MPD2    H1  782   0.991   3.495  10.929 -1.6391 -0.5155  2.1170
   50MPD2    H2  783   1.173   3.208  10.691  1.0055  1.4891  0.2874
   50MPD2    H3  784   1.152   3.444  10.768  1.0022  0.5067  0.2140
   50MPD2     N  785   0.761   3.376  10.969  0.2382  0.1295  0.0014
   50MPD2    H5  786   0.785   3.462  11.018 -0.5325 -0.0722  0.7285
   50MPD2    N1  787   0.986   3.010  10.724  0.6268 -0.0690 -0.8377
   50MPD2    H7  788   0.905   2.959  10.759 -2.4834  4.6742 -1.1020
   51TMC2    C1  789   0.156   2.571   1.111  0.1056  0.4550 -0.3910
   51TMC2    C2  790   0.032   2.587   1.062 -0.1864  0.0305  0.0168
   51TMC2    C3  791   4.726   2.703   1.002  0.2618  0.1685 -0.1701
   51TMC2    C4  792   0.252   2.673   1.097 -0.4166 -0.4589  0.6753
   51TMC2    C5  793   0.213   2.791   1.049  0.0065  0.0754  0.4897
   51TMC2    C6  794   0.083   2.804   1.003  0.1773  0.3429 -0.1541
   51TMC2     C  795   0.189   2.446   1.175  0.0608  0.3066  0.2087
   51TMC2     O  796   0.309   2.423   1.188 -0.6039  0.1404  0.6015
   51TMC2     H  797   4.694   2.507   1.050 -1.5685  1.0132  1.9602
   51TMC2    H1  798   0.353   2.650   1.131 -0.6913  0.5494  2.2075
   51TMC2    H2  799   0.047   2.902   0.974  1.1446  0.6913 -0.1985
   51TMC2    C7  800   0.305   2.901   1.048 -0.4523 -0.3588 -0.9016
   51TMC2    C8  801   4.585   2.748   1.004  0.1568  0.3833 -0.1548
   51TMC2    O1  802   0.399   2.877   1.127 -0.3731 -0.3010 -0.0633
   51TMC2    O2  803   4.493   2.704   1.073  0.5338 -0.0722  0.0526
   51TMC2    O5  804   4.575   2.809   0.885 -0.1671 -0.7640  0.0099
   51TMC2    H5  805   4.657   2.800   0.832  0.6852  0.0823  1.1797
   52MPD2     C  806   0.049   2.012   1.403  0.2973  0.1643  0.7430
   52MPD2    C1  807   0.171   2.055   1.362 -0.5100 -0.5328  0.7519
   52MPD2    C2  808   0.179   2.174   1.292  0.1365 -0.7260 -0.3630
   52MPD2    C3  809   0.071   2.264   1.293 -0.0434  0.6622  0.4006
   52MPD2    C4  810   4.687   2.217   1.341  0.6514  0.5835 -0.1079
   52MPD2    C5  811   4.676   2.093   1.393 -0.1984  0.4344  0.0300
   52MPD2     H  812   0.273   2.206   1.250 -0.4430  1.5112  0.0565
   52MPD2    H1  813   4.596   2.276   1.350 -1.0584 -2.2268  1.3007
   52MPD2    H2  814   0.032   1.907   1.424  1.4446  0.1726  1.7232
   52MPD2    H3  815   4.577   2.053   1.415  0.1554 -0.8710 -0.7785
   52MPD2     N  816   0.074   2.385   1.221 -0.5441  0.2455  0.2958
   52MPD2    H5  817   4.722   2.435   1.217 -1.4862 -1.3727  0.6835
   52MPD2    N1  818   0.288   1.980   1.372 -0.9212  0.1774 -0.4662
   52MPD2    H7  819   0.373   2.010   1.325 -0.5157  0.9699  0.7619
   53TMC2    C1  820   1.601   0.151  11.732 -0.7171 -0.4446  0.4303
   53TMC2    C2  821   1.707   0.065  11.706 -0.1119 -0.4301  0.0989
   53TMC2    C3  822   1.820   0.071  11.786 -0.0333 -0.4260 -0.7030
   53TMC2    C4  823   1.604   0.236  11.835 -0.4964  0.5251 -0.9510
   53TMC2    C5  824   1.718   0.239  11.911 -0.5219 -0.3669 -0.2636
   53TMC2    C6  825   1.829   0.162  11.887 -0.1881  0.0456 -0.0202
   53TMC2     C  826   1.515   0.187  11.620 -0.5494  0.0576  0.5015
   53TMC2     O  827   1.572   0.169  11.514  0.6280 -0.2903 -0.4534
   53TMC2     H  828   1.701   0.010  11.613 -0.4061  0.2643 -0.2933
   53TMC2    H1  829   1.527   0.309  11.856  0.5820  1.2048  0.6507
   53TMC2    H2  830   1.916   0.161  11.952 -0.9457  0.4012  0.9881
   53TMC2    C7  831   1.717   0.316  12.030  0.1730  0.1244 -0.3039
   53TMC2    C8  832   1.923   4.708  11.764  0.1345  0.6067  0.2001
   53TMC2    O1  833   1.613   0.384  12.045  0.4013  0.1284  0.1269
   53TMC2    O2  834   2.000   4.671  11.848  0.2676 -0.3011 -0.0147
   53TMC2    O5  835   1.929   4.677  11.628 -0.0696  0.3990 -0.0308
   53TMC2    H5  836   1.867   4.727  11.570 -2.1459  0.1482  1.9636
   54MPD2     C  837   1.307   0.271  11.437 -0.3727  0.1993  0.0245
   54MPD2    C1  838   1.286   0.253  11.571 -0.0651 -0.9307 -0.6322
   54MPD2    C2  839   1.157   0.241  11.617  0.1963  0.0654  0.1804
   54MPD2    C3  840   1.054   0.249  11.524  0.5005 -0.2302  0.1990
   54MPD2    C4  841   1.076   0.262  11.388  0.4330 -0.3062  0.1442
   54MPD2    C5  842   1.209   0.255  11.345  0.3043  0.2300 -0.0443
   54MPD2     H  843   1.133   0.227  11.722 -1.1202 -0.6692 -0.2254
   54MPD2    H1  844   0.997   0.263  11.314 -0.5364  1.2840  1.1948
   54MPD2    H2  845   1.410   0.288  11.406 -0.4344  0.9175  0.2025
   54MPD2    H3  846   1.239   0.247  11.241  1.5218 -0.6531  0.3815
   54MPD2     N  847   0.915   0.246  11.565  0.5231 -0.3072 -0.1124
   54MPD2    H5  848   0.851   0.263  11.488  1.8963  3.1276 -0.4892
   54MPD2    N1  849   1.391   0.231  11.661 -0.8438 -0.1423 -0.2049
   54MPD2    H7  850   1.355   0.216  11.755  3.1804  0.2962  1.3823
   55TMC2    C1  851   1.769   3.707  17.735  0.4351 -0.7307  0.2823
   55TMC2    C2  852   1.732   3.724  17.606 -0.1150 -0.3264  0.6980
   55TMC2    C3  853   1.653   3.624  17.547  0.2045  0.3984  0.5130
   55TMC2    C4  854   1.720   3.600   0.071 -0.0985  0.4663 -0.3751
   55TMC2    C5  855   1.654   3.499   0.005 -0.2481 -0.3211  0.6454
   55TMC2    C6  856   1.616   3.508  17.614  0.2192 -0.9942 -0.3610
   55TMC2     C  857   1.853   3.795   0.061  0.2520  0.3302 -0.1073
   55TMC2     O  858   1.879   3.774   0.182  0.1360  0.6968 -0.3486
   55TMC2     H  859   1.747   3.820  17.559 -0.3175 -0.1001  1.0969
   55TMC2    H1  860   1.760   3.590   0.171 -1.6756 -1.5486  0.0582
   55TMC2    H2  861   1.560   3.427  17.569 -0.1093  0.2128 -2.1188
   55TMC2    C7  862   1.638   3.372   0.068 -0.3478  0.1977 -0.1126
   55TMC2    C8  863   1.683   3.598  17.408 -0.3069 -0.4682 -0.2275
   55TMC2    O1  864   1.609   3.280  17.731  0.0419  0.3157  0.4000
   55TMC2    O2  865   1.766   3.666  17.347 -0.4225  0.8515  0.9633
   55TMC2    O5  866   1.576   3.529  17.352  0.5390 -0.2504 -0.0524
   55TMC2    H5  867   1.503   3.507  17.414  1.0158  2.9264  1.6792
   56MPD2     C  868   2.092   4.035  17.648 -0.2348 -0.4604  0.4679
   56MPD2    C1  869   2.029   3.967   0.013  0.3419 -0.1631 -0.4431
   56MPD2    C2  870   2.051   4.009   0.144  0.6971 -0.3634 -0.0975
   56MPD2    C3  871   2.120   4.128   0.171 -0.2822 -0.6516  0.1926
   56MPD2    C4  872   2.169   4.199   0.067 -0.4083 -0.2943  0.0600
   56MPD2    C5  873   2.156   4.148  17.683 -0.2241  0.2931  0.3908
   56MPD2     H  874   1.995   3.967   0.227  0.5144 -0.4404 -0.2597
   56MPD2    H1  875   2.206   4.301   0.068  0.8373 -0.7481  0.6229
   56MPD2    H2  876   2.083   4.004  17.545 -2.7815  1.1036  0.2255
   56MPD2    H3  877   2.195   4.213  17.605 -0.2473 -1.7543 -1.3506
   56MPD2     N  878   2.127   4.164   0.311 -0.1250  0.2078  0.6694
   56MPD2    H5  879   2.078   4.095   0.367  1.6447 -2.3060 -0.8592
   56MPD2    N1  880   1.933   3.867  17.713  0.7107 -0.2859 -0.5203
   56MPD2    H7  881   1.932   3.844  17.614 -1.5707 -0.7112 -0.3875
   57TMC2    C1  882   0.866   3.490  12.904  0.0073 -0.0168  0.3598
   57TMC2    C2  883   0.825   3.364  12.925  0.0699  0.3993 -1.0018
   57TMC2    C3  884   0.919   3.269  12.879  0.3954 -0.0016  0.6211
   57TMC2    C4  885   0.999   3.522  12.870  0.2025  0.1517 -1.0140
   57TMC2    C5  886   1.086   3.425  12.839 -0.3371 -0.3536 -0.2597
   57TMC2    C6  887   1.048   3.294  12.834 -0.5064 -0.2527 -0.8873
   57TMC2     C  888   0.792   3.598  12.950 -0.5954  0.1564 -0.4524
   57TMC2     O  889   0.855   3.691  13.000  0.2085 -0.0483  0.1916
   57TMC2     H  890   0.728   3.329  12.961  1.2083 -0.3592  1.3021
   57TMC2    H1  891   1.022   3.625  12.847 -0.5568  0.2499 -1.3460
   57TMC2    H2  892   1.106   3.211  12.794 -0.4950 -0.8260  0.2885
   57TMC2    C7  893   1.219   3.464  12.790 -0.1991  0.7519  0.4334
   57TMC2    C8  894   0.874   3.135  12.893 -0.7142 -0.3540  0.0044
   57TMC2    O1  895   1.224   3.585  12.763 -0.4059 -0.1056  0.1436
   57TMC2    O2  896   0.816   3.098  12.995  0.0364 -0.5183  0.1449
   57TMC2    O5  897   0.892   3.068  12.779 -0.9161 -0.1723  0.2787
   57TMC2    H5  898   0.910   3.119  12.697 -1.3187 -1.0373 -0.3462
   58MPD2     C  899   0.364   3.774  13.160  0.0994 -0.6552 -0.3430
   58MPD2    C1  900   0.496   3.778  13.205 -0.7258  1.2784 -0.2457
   58MPD2    C2  901   0.591   3.725  13.116 -0.4590  0.6570 -0.7249
   58MPD2    C3  902   0.559   3.660  13.001 -0.1225  0.1270 -0.0646
   58MPD2    C4  903   0.426   3.651  12.968 -0.0862  0.4097  0.0989
   58MPD2    C5  904   0.331   3.708  13.047  0.5179  0.6187  0.0843
   58MPD2     H  905   0.694   3.731  13.150 -1.2174  0.7844  1.5502
   58MPD2    H1  906   0.391   3.585  12.889  2.9023  0.1966 -1.0246
   58MPD2    H2  907   0.280   3.826  13.205  1.0446  1.5906 -1.1758
   58MPD2    H3  908   0.225   3.699  13.030  0.5000 -0.3372  0.7302
   58MPD2     N  909   0.658   3.582  12.936 -0.1736 -0.4244  0.3410
   58MPD2    H5  910   0.620   3.506  12.879  1.4071 -0.3966 -0.7690
   58MPD2    N1  911   0.538   3.851  13.322  0.0415 -0.4989 -0.8970
   58MPD2    H7  912   0.639   3.856  13.334 -0.1663  1.3918  0.0553
   59TMC2    C1  913   3.987   4.118  12.884  0.8359 -0.1998  1.0635
   59TMC2    C2  914   4.060   4.012  12.929  0.1643 -0.2221 -0.9717
   59TMC2    C3  915   4.011   3.894  12.904  0.0801  0.1375  0.2567
   59TMC2    C4  916   3.875   4.106  12.803 -0.8853  0.7551  0.0414
   59TMC2    C5  917   3.832   3.983  12.768 -0.2805  0.0247  0.6633
   59TMC2    C6  918   3.897   3.876  12.825 -0.2352 -0.0164 -0.0127
   59TMC2     C  919   4.033   4.258  12.901  0.2394 -0.6190  0.0511
   59TMC2     O  920   3.982   4.341  12.824 -0.2375  0.3125  0.2763
   59TMC2     H  921   4.151   4.019  12.988 -1.7903  1.0851  1.8540
   59TMC2    H1  922   3.814   4.194  12.780 -0.7021  0.4890 -1.5048
   59TMC2    H2  923   3.856   3.783  12.786 -0.5812 -0.7537  2.1385
   59TMC2    C7  924   3.717   3.956  12.679 -0.7020  0.6201  0.9126
   59TMC2    C8  925   4.114   3.792  12.906 -0.0490 -0.5337  0.2498
   59TMC2    O1  926   3.646   3.860  12.711 -0.1977  0.6246 -0.2357
   59TMC2    O2  927   4.223   3.806  12.853 -0.7149 -0.1239  0.2054
   59TMC2    O5  928   4.056   3.671  12.904 -0.1246 -0.2110 -0.0296
   59TMC2    H5  929   3.967   3.676  12.943 -0.1437 -1.0817  0.0347
   60MPD2     C  930   4.049   4.493  13.067  0.1442  0.0917  0.0321
   60MPD2    C1  931   4.140   4.391  13.083  0.2517 -0.1751 -0.5575
   60MPD2    C2  932   4.248   4.400  13.171 -0.1017 -0.0799 -0.0014
   60MPD2    C3  933   4.265   4.516  13.247  0.2839 -0.3980  0.3131
   60MPD2    C4  934   4.171   4.619  13.232  0.1238 -0.4924  0.2440
   60MPD2    C5  935   4.066   4.600  13.144  0.4222 -0.5852  1.1178
   60MPD2     H  936   4.311   4.312  13.167  2.6259  1.9028 -0.4662
   60MPD2    H1  937   4.153   4.700  13.302  0.4239 -0.5711  0.4134
   60MPD2    H2  938   3.969   4.494  12.995 -0.1056 -1.0297  0.2923
   60MPD2    H3  939   3.995   4.680  13.132  1.2651  0.2181  1.5054
   60MPD2     N  940   4.370   4.528  13.342 -0.1694  0.5494 -0.2555
   60MPD2    H5  941   4.374   4.621  13.383 -1.2240  0.5727 -0.2098
   60MPD2    N1  942   4.130   4.275  12.999 -0.3810  0.0503 -0.1603
   60MPD2    H7  943   4.175   4.192  13.035 -0.0700  0.8795  1.3901
   61TMC2    C1  944   2.782   1.057  16.006 -0.2321  0.0869 -0.6345
   61TMC2    C2  945   2.754   1.078  16.139  0.2793  0.4315 -0.2045
   61TMC2    C3  946   2.734   1.211  16.169  0.4269 -0.1485 -0.3496
   61TMC2    C4  947   2.788   1.158  15.917  0.0612  0.5602  0.2843
   61TMC2    C5  948   2.753   1.286  15.951  0.1506 -0.0405  0.6623
   61TMC2    C6  949   2.720   1.314  16.080  0.5331 -0.2204 -0.7288
   61TMC2     C  950   2.801   0.916  15.969 -0.6385 -0.2085 -0.0504
   61TMC2     O  951   2.753   0.842  16.057  0.4149  0.3162 -0.2239
   61TMC2     H  952   2.753   0.998  16.213 -3.0852 -0.3093 -1.0349
   61TMC2    H1  953   2.812   1.137  15.814  0.3872 -2.1266  0.9241
   61TMC2    H2  954   2.685   1.409  16.119 -0.7419 -1.1097  0.3114
   61TMC2    C7  955   2.738   1.383  15.843 -0.7839  0.3781  0.0460
   61TMC2    C8  956   2.697   1.238  16.304 -0.7155 -0.0914  0.4472
   61TMC2    O1  957   2.801   1.358  15.739  0.1408 -0.0097 -0.4765
   61TMC2    O2  958   2.622   1.329  16.332  0.6426 -0.2887  0.5108
   61TMC2    O5  959   2.805   1.195  16.376 -0.0525  0.3992  0.6120
   61TMC2    H5  960   2.867   1.139  16.324 -0.8864 -3.6393  3.9015
   62MPD2     C  961   2.839   0.648  15.852 -0.6512  0.0101  0.2323
   62MPD2    C1  962   2.904   0.764  15.808  0.1601  0.0013  1.1077
   62MPD2    C2  963   3.000   0.749  15.713  0.1142 -0.0376  0.2169
   62MPD2    C3  964   3.029   0.625  15.652 -0.4813  0.5415 -0.0202
   62MPD2    C4  965   2.954   0.521  15.684 -0.4480  0.1055 -0.5118
   62MPD2    C5  966   2.865   0.526  15.785 -0.2116 -0.4439 -0.5224
   62MPD2     H  967   3.038   0.839  15.665  0.3470  1.0326  2.4015
   62MPD2    H1  968   2.960   0.427  15.630  0.3852 -1.0051  1.5033
   62MPD2    H2  969   2.764   0.657  15.929 -1.3890 -0.6279 -0.4143
   62MPD2    H3  970   2.806   0.440  15.816  1.3914 -1.4022 -0.1396
   62MPD2     N  971   3.116   0.602  15.546 -0.6845  0.4106 -0.2952
   62MPD2    H5  972   3.121   0.506  15.514 -2.3798  1.1674 -2.8114
   62MPD2    N1  973   2.873   0.895  15.861 -0.0238  0.7088  0.1401
   62MPD2    H7  974   2.926   0.971  15.817 -0.0186  1.5097  1.5391
   63TMC2    C1  975   2.310   1.066  10.600  0.2974  0.3948 -0.4201
   63TMC2    C2  976   2.286   1.198  10.636  0.0650 -0.3587 -0.2666
   63TMC2    C3  977   2.317   1.296  10.545  0.5319 -0.1331 -0.1575
   63TMC2    C4  978   2.367   1.041  10.479 -0.0408  0.5695  0.0268
   63TMC2    C5  979   2.398   1.142  10.391  0.3109 -0.0070 -0.1660
   63TMC2    C6  980   2.374   1.274  10.420  0.2010  0.1897 -0.2066
   63TMC2     C  981   2.226   0.964  10.662  0.8453 -0.3931  0.3312
   63TMC2     O  982   2.129   1.014  10.714 -0.0929 -0.0583  0.2456
   63TMC2     H  983   2.242   1.219  10.733  2.8706 -0.5803  1.0551
   63TMC2    H1  984   2.352   0.944  10.433  0.8347 -0.0859  1.1556
   63TMC2    H2  985   2.410   1.354  10.355 -1.3038  0.2511 -0.9728
   63TMC2    C7  986   2.423   1.103  10.257  0.5913 -0.6917  0.9761
   63TMC2    C8  987   2.305   1.427  10.600  0.3856  0.1461  0.0804
   63TMC2    O1  988   2.381   0.994  10.217 -0.1359  0.4073 -0.4068
   63TMC2    O2  989   2.341   1.452  10.714  0.7084  0.1266  0.7425
   63TMC2    O5  990   2.281   1.520  10.505 -0.1465 -0.1648 -0.8336
   63TMC2    H5  991   2.245   1.481  10.422  0.0197  1.7327 -1.7967
   64MPD2     C  992   2.119   0.496  10.840 -0.7564 -0.0959 -0.0807
   64MPD2    C1  993   2.222   0.477  10.754 -0.0216  0.2267  0.3196
   64MPD2    C2  994   2.270   0.590  10.693  0.6474 -0.0146  0.3941
   64MPD2    C3  995   2.214   0.719  10.707 -0.0369 -0.0242  0.4513
   64MPD2    C4  996   2.101   0.731  10.791  0.0041  0.3412 -0.5380
   64MPD2    C5  997   2.068   0.620  10.856  0.0212  0.4680 -0.2056
   64MPD2     H  998   2.349   0.580  10.620  1.0533 -0.8407  0.9524
   64MPD2    H1  999   2.056   0.825  10.821  1.5770  1.2235 -0.9186
   64MPD2    H2 1000   2.076   0.432  10.917  1.3399  0.1642  1.3016
   64MPD2    H3 1001   1.989   0.628  10.929  0.7541 -1.9748  0.8503
   64MPD2     N 1002   2.266   0.831  10.640  0.6280 -0.3089 -0.0752
   64MPD2    H5 1003   2.356   0.813  10.594 -0.9887 -0.0307 -3.3540
   64MPD2    N1 1004   2.273   0.347  10.717 -0.3813  0.2638  0.2692
   64MPD2    H7 1005   2.348   0.346  10.648 -0.6118  0.3696  0.0199
   65TMC2    C1 1006   3.437   0.482  15.756  0.3039 -0.4118 -0.1645
   65TMC2    C2 1007   3.528   0.400  15.699  0.2060  0.1724 -0.8813
   65TMC2    C3 1008   3.620   0.456  15.615  0.6483 -0.4658 -0.0910
   65TMC2    C4 1009   3.442   0.615  15.737 -0.1534  0.0367 -0.0466
   65TMC2    C5 1010   3.534   0.670  15.652  0.1547 -0.8354  0.5433
   65TMC2    C6 1011   3.618   0.588  15.586  0.4828  1.0338  0.1852
   65TMC2     C 1012   3.336   0.429  15.855  0.5288  0.1264 -0.5823
   65TMC2     O 1013   3.285   0.513  15.930  0.4801  0.1197  0.4653
   65TMC2     H 1014   3.527   0.294  15.724 -0.8003  0.3484 -0.2043
   65TMC2    H1 1015   3.362   0.677  15.776  0.7399  0.4167  1.1955
   65TMC2    H2 1016   3.691   0.627  15.515  1.4259 -1.5060 -0.2506
   65TMC2    C7 1017   3.561   0.816  15.641  0.1497 -0.5471 -0.5434
   65TMC2    C8 1018   3.710   0.367  15.548  0.2829  1.0350  0.6008
   65TMC2    O1 1019   3.626   0.854  15.546  0.0865  0.1672 -0.4879
   65TMC2    O2 1020   3.669   0.251  15.531  0.2586 -0.2392 -0.3955
   65TMC2    O5 1021   3.840   0.412  15.553 -0.2259 -0.3773  0.1750
   65TMC2    H5 1022   3.850   0.498  15.600 -1.6368  0.0459 -0.2929
   66MPD2     C 1023   3.106   0.292  15.979  0.2264  0.8159  0.1805
   66MPD2    C1 1024   3.204   0.217  15.916  0.1957  0.4984 -0.3911
   66MPD2    C2 1025   3.203   0.080  15.928 -0.4516  0.1785 -0.8352
   66MPD2    C3 1026   3.114   0.008  16.005  0.1255  0.7496  0.1282
   66MPD2    C4 1027   3.010   0.082  16.053  0.1323 -0.3155  0.5779
   66MPD2    C5 1028   3.006   0.219  16.037  0.1052 -0.0466 -0.6813
   66MPD2     H 1029   3.292   0.034  15.887 -0.8467 -1.1802 -0.1697
   66MPD2    H1 1030   2.924   0.030  16.093 -1.1199  0.5194 -1.0393
   66MPD2    H2 1031   3.091   0.398  15.961  1.6837  1.2084  1.3137
   66MPD2    H3 1032   2.918   0.272  16.072 -0.4110 -1.1275 -0.3329
   66MPD2     N 1033   3.110   4.601  16.013  0.0087 -1.1024  0.3338
   66MPD2    H5 1034   3.033   4.562  16.066 -0.1496 -1.9558 -0.5419
   66MPD2    N1 1035   3.307   0.288  15.842  0.0823 -0.1261  0.3346
   66MPD2    H7 1036   3.373   0.233  15.788 -0.5004 -0.1510 -0.3597
   67TMC2    C1 1037   4.079   4.667  14.660 -0.7284  0.0314 -0.0142
   67TMC2    C2 1038   3.991   0.036  14.696  0.0252  0.5280 -0.3297
   67TMC2    C3 1039   4.039   0.133  14.783  0.3469 -0.5565  0.3186
   67TMC2    C4 1040   4.207   4.655  14.711 -0.2870  0.0358 -0.1506
   67TMC2    C5 1041   4.231   0.009  14.817 -0.1974 -0.1619  0.1982
   67TMC2    C6 1042   4.164   0.126  14.842 -0.3935  0.0754 -0.0055
   67TMC2     C 1043   4.055   4.593  14.535 -0.1049  0.0619 -0.1065
   67TMC2     O 1044   4.155   4.558  14.475 -0.3566 -0.2142 -0.2077
   67TMC2     H 1045   3.900   0.050  14.638 -0.2643  1.8258  0.4507
   67TMC2    H1 1046   4.276   4.573  14.697 -0.3182  0.2509 -1.6200
   67TMC2    H2 1047   4.197   0.214  14.896 -0.6080  0.5438 -0.6361
   67TMC2    C7 1048   4.342   4.715  14.911  0.1639  0.4482  0.3173
   67TMC2    C8 1049   4.001   0.266  14.762  0.0090 -0.2018 -0.4121
   67TMC2    O1 1050   4.431   4.637  14.888  0.0364  0.3075 -0.2688
   67TMC2    O2 1051   3.880   0.284  14.747  0.0696  0.3395  0.3758
   67TMC2    O5 1052   4.093   0.282  14.667 -0.9324 -0.7845  0.8314
   67TMC2    H5 1053   4.181   0.242  14.686  0.1595  0.7580 -1.0491
   68MPD2     C 1054   3.971   4.496  14.267  0.5092 -0.5473  0.2976
   68MPD2    C1 1055   3.892   4.503  14.381 -0.1185 -0.8227  0.3131
   68MPD2    C2 1056   3.767   4.437  14.385 -0.5034 -0.5726  0.0114
   68MPD2    C3 1057   3.730   4.357  14.279 -0.4050 -0.7304  1.0369
   68MPD2    C4 1058   3.814   4.341  14.173  0.0200  0.1729 -0.3086
   68MPD2    C5 1059   3.931   4.410  14.162 -0.2535 -0.1840  0.5613
   68MPD2     H 1060   3.705   4.447  14.474  0.0938 -0.2141  0.3887
   68MPD2    H1 1061   3.796   4.279  14.085 -0.5036 -1.5205  0.9994
   68MPD2    H2 1062   4.063   4.553  14.254  0.2614 -0.1663  0.2068
   68MPD2    H3 1063   3.997   4.405  14.076  0.1053  0.3087  0.8115
   68MPD2     N 1064   3.599   4.300  14.274  0.1120  0.2636  0.7199
   68MPD2    H5 1065   3.563   4.270  14.184  1.8919 -0.6041  0.2931
   68MPD2    N1 1066   3.928   4.569  14.502 -0.1609  0.5042 -0.2785
   68MPD2    H7 1067   3.850   4.589  14.564  1.2398  0.5749  1.4933
   69TMC2    C1 1068   1.439   1.141  13.038 -0.2371  0.0510 -0.1037
   69TMC2    C2 1069   1.340   1.230  13.053 -0.0550  0.1552  0.8526
   69TMC2    C3 1070   1.324   1.329  12.959  0.1425 -0.1183  0.4089
   69TMC2    C4 1071   1.514   1.135  12.920  0.2866  0.0450 -0.3136
   69TMC2    C5 1072   1.491   1.232  12.825 -0.0761 -0.5103  0.0146
   69TMC2    C6 1073   1.410   1.330  12.854 -0.0017 -0.2998 -0.4620
   69TMC2     C 1074   1.439   1.029  13.126  0.4111 -0.8837  0.2923
   69TMC2     O 1075   1.335   0.988  13.177  0.2695  0.0499 -0.4822
   69TMC2     H 1076   1.288   1.226  13.149 -2.7769 -0.0206 -0.6369
   69TMC2    H1 1077   1.576   1.049  12.899  1.5516  0.8373  0.1317
   69TMC2    H2 1078   1.423   1.413  12.785 -0.5614 -0.1264 -0.3594
   69TMC2    C7 1079   1.542   1.214  12.694 -0.2733  0.1800 -0.6175
   69TMC2    C8 1080   1.249   1.453  12.974 -0.2600  0.0985 -0.0346
   69TMC2    O1 1081   1.644   1.147  12.687  0.3898 -0.1339  0.0188
   69TMC2    O2 1082   1.213   1.517  12.874 -0.0902  0.2185  0.0729
   69TMC2    O5 1083   1.244   1.494  13.100  0.0335  0.2337 -0.2072
   69TMC2    H5 1084   1.293   1.436  13.162 -2.1080 -1.0622  0.2771
   70MPD2     C 1085   1.752   0.859  13.219  0.0513  0.7383 -0.1722
   70MPD2    C1 1086   1.616   0.868  13.194  0.5565  0.3183  0.3426
   70MPD2    C2 1087   1.531   0.762  13.225 -0.1379 -0.5755  0.0445
   70MPD2    C3 1088   1.584   0.646  13.282 -0.2524 -0.3144 -0.4642
   70MPD2    C4 1089   1.722   0.639  13.295 -0.5112  0.2198 -0.0804
   70MPD2    C5 1090   1.798   0.747  13.274  0.6131  0.0333 -0.0922
   70MPD2     H 1091   1.425   0.765  13.205  0.0070 -0.0600 -0.6628
   70MPD2    H1 1092   1.770   0.559  13.351  1.6968  0.2594 -1.8937
   70MPD2    H2 1093   1.822   0.938  13.198 -0.0062  1.0871  0.9276
   70MPD2    H3 1094   1.901   0.733  13.308  0.5068 -0.6114 -0.0237
   70MPD2     N 1095   1.512   0.527  13.316  0.0247  0.0370  0.5732
   70MPD2    H5 1096   1.571   0.445  13.330 -0.7854 -0.7088 -0.3725
   70MPD2    N1 1097   1.571   0.993  13.142 -0.9375  0.4638  0.4455
   70MPD2    H7 1098   1.641   1.057  13.105 -0.8014  0.1474  0.1506
   71TMC2    C1 1099   3.710   1.671   1.158  0.7697 -0.0296  0.6197
   71TMC2    C2 1100   3.834   1.723   1.143 -0.1714 -0.2596 -0.3971
   71TMC2    C3 1101   3.905   1.752   1.258  0.4292  0.2769 -0.1152
   71TMC2    C4 1102   3.646   1.665   1.274 -0.1338 -0.3126 -0.0879
   71TMC2    C5 1103   3.717   1.691   1.385  0.3471 -0.8146  0.1972
   71TMC2    C6 1104   3.845   1.734   1.379  0.6810  0.1081 -0.9661
   71TMC2     C 1105   3.633   1.628   1.048 -0.0165 -0.1841 -0.0723
   71TMC2     O 1106   3.515   1.611   1.057  0.1147 -0.2309  0.0891
   71TMC2     H 1107   3.871   1.767   1.051 -1.1926  0.1695 -0.6068
   71TMC2    H1 1108   3.539   1.647   1.275  0.1009 -1.5415  2.5954
   71TMC2    H2 1109   3.902   1.760   1.468 -1.0497  0.3972  0.0538
   71TMC2    C7 1110   3.639   1.728   1.498  0.6173  0.5228 -0.0537
   71TMC2    C8 1111   4.050   1.757   1.234  0.0661  0.2568 -0.3152
   71TMC2    O1 1112   3.698   1.794   1.582 -0.2743  0.1566 -0.3022
   71TMC2    O2 1113   4.099   1.754   1.125  0.4240 -0.6965 -0.4141
   71TMC2    O5 1114   4.114   1.701   1.342 -0.1717 -0.0664 -0.2645
   71TMC2    H5 1115   4.072   1.659   1.421  1.0074 -0.4716  0.1513
   72MPD2     C 1116   3.660   1.402   0.590  0.4938  0.8407  0.3082
   72MPD2    C1 1117   3.549   1.477   0.642  0.3563 -0.0071  0.1117
   72MPD2    C2 1118   3.569   1.535   0.766 -0.0115  0.3445  1.2166
   72MPD2    C3 1119   3.688   1.513   0.839 -0.1088  0.4116 -0.1909
   72MPD2    C4 1120   3.797   1.441   0.786  0.5246  0.3726 -0.0311
   72MPD2    C5 1121   3.774   1.379   0.667  0.0104 -0.3484 -0.0887
   72MPD2     H 1122   3.488   1.597   0.805 -2.1363  0.2374 -3.0348
   72MPD2    H1 1123   3.888   1.414   0.839 -0.1670  0.0050  0.9783
   72MPD2    H2 1124   3.653   1.353   0.494 -1.5597  1.4735  0.1250
   72MPD2    H3 1125   3.849   1.309   0.633  0.9741  0.7276 -0.1907
   72MPD2     N 1126   3.724   1.575   0.959 -0.7647 -0.0107 -0.1515
   72MPD2    H5 1127   3.822   1.558   0.982 -0.8036 -0.1833 -0.1180
   72MPD2    N1 1128   3.427   1.499   0.572 -0.1329  0.1644  0.1495
   72MPD2    H7 1129   3.357   1.561   0.613 -0.0917  0.2027  0.1620
   73TMC2    C1 1130   3.493   2.772  14.441  0.2434  0.0321 -0.6679
   73TMC2    C2 1131   3.438   2.711  14.548  0.2205  0.0636 -0.9001
   73TMC2    C3 1132   3.478   2.739  14.676 -0.4800 -0.1015  0.0387
   73TMC2    C4 1133   3.599   2.853  14.472  0.2854 -0.1314  0.1717
   73TMC2    C5 1134   3.655   2.864  14.598  0.3602 -0.7365  0.7916
   73TMC2    C6 1135   3.599   2.808  14.702 -0.1973 -0.2745 -0.7819
   73TMC2     C 1136   3.406   2.853  14.357  0.1240 -0.4019  0.0440
   73TMC2     O 1137   3.412   2.971  14.389 -0.0992  0.0650  0.2488
   73TMC2     H 1138   3.351   2.653  14.519 -0.2944  0.3581  0.0485
   73TMC2    H1 1139   3.650   2.900  14.388  0.1038 -0.3854 -0.0810
   73TMC2    H2 1140   3.640   2.825  14.801  1.4797 -1.4027 -1.2740
   73TMC2    C7 1141   3.703   2.997  14.632 -0.5333 -0.5971  1.1880
   73TMC2    C8 1142   3.418   2.671  14.788  0.2450  0.1414  0.6919
   73TMC2    O1 1143   3.777   3.013  14.733  0.1584 -0.0737 -0.6629
   73TMC2    O2 1144   3.480   2.672  14.890 -0.5154  0.1297 -0.3998
   73TMC2    O5 1145   3.317   2.590  14.759 -0.3233 -0.3112  0.1994
   73TMC2    H5 1146   3.274   2.622  14.677 -2.2674  2.0400  2.1299
   74MPD2     C 1147   3.138   2.970  13.940 -0.4163  0.4329 -0.3681
   74MPD2    C1 1148   3.212   3.051  14.023  0.5559  0.7780 -0.4663
   74MPD2    C2 1149   3.282   2.995  14.132 -0.0243 -0.1041  0.1258
   74MPD2    C3 1150   3.263   2.862  14.168 -0.3644 -0.4360  0.7238
   74MPD2    C4 1151   3.182   2.786  14.092 -0.2727 -0.1706 -0.3557
   74MPD2    C5 1152   3.121   2.836  13.978  0.2871  0.4038 -0.7017
   74MPD2     H 1153   3.344   3.059  14.194 -0.5033  0.8850 -0.4352
   74MPD2    H1 1154   3.169   2.682  14.119 -0.0092  0.3150  1.6602
   74MPD2    H2 1155   3.098   3.018  13.852  2.6839  2.0921 -0.8897
   74MPD2    H3 1156   3.054   2.783  13.911 -1.4954  1.6123  0.1194
   74MPD2     N 1157   3.331   2.790  14.265  0.2221  0.2770  0.5192
   74MPD2    H5 1158   3.334   2.688  14.269  0.2934  0.1635 -2.2916
   74MPD2    N1 1159   3.212   3.190  13.993 -0.4571 -0.3434 -0.0143
   74MPD2    H7 1160   3.159   3.230  13.916 -0.7731  0.7090  0.7506
   75TMC2    C1 1161   3.388   4.238  14.329  0.3540  0.4777  0.1222
   75TMC2    C2 1162   3.324   4.152  14.414 -0.5313  0.4469 -0.2512
   75TMC2    C3 1163   3.235   4.069  14.352 -1.0670 -0.8449  0.3475
   75TMC2    C4 1164   3.359   4.249  14.192 -0.1233  0.5540  0.6577
   75TMC2    C5 1165   3.266   4.160  14.139 -0.5004 -0.6669 -0.2148
   75TMC2    C6 1166   3.196   4.076  14.224  0.6775  0.0842  0.3496
   75TMC2     C 1167   3.510   4.292  14.380 -0.2645  0.0292  0.3824
   75TMC2     O 1168   3.512   4.306  14.499 -0.4214  0.7436 -0.2240
   75TMC2     H 1169   3.350   4.139  14.518  1.5543  2.5027 -0.5197
   75TMC2    H1 1170   3.413   4.323  14.134  0.3850 -1.4063 -1.4140
   75TMC2    H2 1171   3.132   4.009  14.168 -0.2829  0.1746  1.3396
   75TMC2    C7 1172   3.200   4.215  14.019 -0.9721  0.2977 -0.0726
   75TMC2    C8 1173   3.139   3.983  14.432  0.4783  0.3226 -0.8622
   75TMC2    O1 1174   3.116   4.149  13.959 -0.1925 -0.1023 -0.1518
   75TMC2    O2 1175   3.172   3.928  14.536 -0.9654 -0.1102  0.6114
   75TMC2    O5 1176   3.013   4.031  14.405 -0.0458  0.3243 -0.0251
   75TMC2    H5 1177   3.026   4.102  14.338 -0.6246  2.8907  2.5964
   76TMC2    C1 1178   2.685   0.162  12.046  0.6336 -0.2682 -0.1991
   76TMC2    C2 1179   2.591   0.103  11.968 -0.1628  0.2811  1.1606
   76TMC2    C3 1180   2.634   0.030  11.857  1.1031 -1.1263  0.0040
   76TMC2    C4 1181   2.818   0.143  12.017 -0.3066 -0.0422  0.4124
   76TMC2    C5 1182   2.855   0.070  11.909 -0.1465  0.3096  0.2881
   76TMC2    C6 1183   2.767   0.012  11.824 -0.4638  0.1891 -0.2970
   76TMC2     C 1184   2.651   0.233  12.170  0.4882 -0.0898  0.2701
   76TMC2     O 1185   2.726   0.219  12.261  0.1402  0.2969 -0.0732
   76TMC2     H 1186   2.486   0.109  11.993 -0.6230  0.5550 -0.8094
   76TMC2    H1 1187   2.893   0.183  12.083 -0.1625 -1.1914  0.9493
   76TMC2    H2 1188   2.798   4.683  11.743  0.5002  1.8402 -1.2428
   76TMC2    C7 1189   2.959   4.720  11.955 -1.4048  0.4922  0.0887
   76TMC2    C8 1190   2.532   4.716  11.766 -0.0267  0.4994 -0.3762
   76TMC2    O1 1191   2.937   4.601  11.954  0.0680 -0.3898  0.0475
   76TMC2    O2 1192   2.561   4.652  11.672 -0.0401 -0.5167  0.1470
   76TMC2    O5 1193   2.453   0.090  11.760  0.1043 -0.0497 -0.2890
   76TMC2    H5 1194   2.452   0.159  11.829 -1.1639  0.6945 -1.0371
   77MPD2     C 1195   2.356   0.563  12.434 -0.1123 -0.2768  0.0394
   77MPD2    C1 1196   2.306   0.544  12.312  0.2085 -0.1098  0.5717
   77MPD2    C2 1197   2.360   0.454  12.222  0.1499 -0.1981 -0.6232
   77MPD2    C3 1198   2.479   0.394  12.250 -0.1285  0.3061 -0.3694
   77MPD2    C4 1199   2.538   0.430  12.370  0.4353  0.4044  0.0354
   77MPD2    C5 1200   2.474   0.509  12.467  0.0271  0.1941  0.0148
   77MPD2     H 1201   2.313   0.434  12.126  0.5256 -1.0209 -0.6330
   77MPD2    H1 1202   2.633   0.381  12.392  0.8670  0.6620 -1.2381
   77MPD2    H2 1203   2.319   0.637  12.505  0.2444  1.3037 -1.4020
   77MPD2    H3 1204   2.519   0.530  12.564  1.4464 -0.5215 -0.4828
   77MPD2     N 1205   2.533   0.306  12.149 -0.3501  0.0158  0.8829
   77MPD2    H5 1206   2.488   0.298  12.059 -0.9464  1.0158  1.0935
   77MPD2    N1 1207   2.190   0.604  12.261 -0.3485 -0.1365  0.0831
   77MPD2    H7 1208   2.162   0.591  12.165  0.7005 -1.9459  0.0239
   78TMC2    C1 1209   3.162   1.490   1.057  0.2214  0.6521 -0.0606
   78TMC2    C2 1210   3.173   1.434   0.932 -0.3396 -0.0324 -0.3123
   78TMC2    C3 1211   3.289   1.359   0.911 -0.1821  0.8240 -0.0400
   78TMC2    C4 1212   3.242   1.453   1.168 -0.7797 -0.6267  0.5092
   78TMC2    C5 1213   3.341   1.366   1.140  0.0310 -0.0446  0.2592
   78TMC2    C6 1214   3.373   1.326   1.009  0.0705 -0.0613 -0.5005
   78TMC2     C 1215   3.060   1.596   1.073 -0.2090  0.4802 -0.3221
   78TMC2     O 1216   2.959   1.567   1.010 -0.2362  0.2404 -0.8417
   78TMC2     H 1217   3.105   1.450   0.850  0.1083 -0.1676 -0.7145
   78TMC2    H1 1218   3.227   1.495   1.267  0.4836 -0.6770  0.7123
   78TMC2    H2 1219   3.446   1.247   1.001  0.7520  0.7196 -1.8817
   78TMC2    C7 1220   3.431   1.339   1.248  0.5047  0.7594 -0.3693
   78TMC2    C8 1221   3.286   1.282   0.792 -0.6880  0.5349 -1.2564
   78TMC2    O1 1222   3.390   1.363   1.362 -0.0678  0.5887  0.1054
   78TMC2    O2 1223   3.188   1.272   0.715  0.5468  0.4063 -0.4440
   78TMC2    O5 1224   3.400   1.206   0.785 -0.1931  0.1737  0.4163
   78TMC2    H5 1225   3.475   1.226   0.845 -0.7025 -1.0236  1.4503
   79MPD1     C 1226   2.793   1.925   1.350  0.6484 -0.1537  0.0491
   79MPD1    C1 1227   2.755   1.862   1.233  0.2759 -0.5828 -0.8421
   79MPD1    C2 1228   2.861   1.800   1.170 -0.1579  0.1370 -0.4393
   79MPD1    C3 1229   2.987   1.770   1.233  0.4700  0.1446  0.1432
   79MPD1    C4 1230   3.019   1.829   1.353 -0.3015 -0.0271  0.4447
   79MPD1    C5 1231   2.918   1.905   1.404  0.4785  0.1650 -0.0624
   79MPD1     H 1232   2.845   1.747   1.077 -0.3295 -1.9325  0.7549
   79MPD1    H1 1233   3.111   1.820   1.409  0.0151 -0.5661 -0.1756
   79MPD1    H2 1234   2.728   1.985   1.413  0.3629  0.9521 -1.3029
   79MPD1    H3 1235   2.932   1.960   1.496 -1.4327 -0.3920  0.5611
   79MPD1     N 1236   3.086   1.684   1.175  0.0213  0.4256  0.2382
   79MPD1    H5 1237   3.170   1.677   1.232  1.6688  0.4175 -2.1799
   79MPD1    N1 1238   2.629   1.874   1.176 -1.0264  0.3743 -0.1884
   79MPD1    H6 1239   2.554   1.902   1.238 -0.8251 -1.3324  0.8293
   79MPD1    H7 1240   2.600   1.807   1.104  0.0887 -0.2257 -0.0747
   80TMC2    C1 1241   1.703   4.506  12.061 -0.4422  0.4245 -0.0819
   80TMC2    C2 1242   1.831   4.480  12.021 -0.2908  0.0440  0.1559
   80TMC2    C3 1243   1.857   4.396  11.915 -0.3135 -0.1137 -0.1837
   80TMC2    C4 1244   1.593   4.441  12.004 -0.3892 -0.3326 -0.0350
   80TMC2    C5 1245   1.627   4.348  11.905  0.1005  0.0975  0.1425
   80TMC2    C6 1246   1.757   4.319  11.863 -0.0267  0.1537  0.3008
   80TMC2     C 1247   1.680   4.598  12.167  0.1223 -1.0969  0.3554
   80TMC2     O 1248   1.765   4.683  12.195  0.2714 -0.3230  0.0471
   80TMC2     H 1249   1.921   4.531  12.052  0.6051 -1.1381 -0.5072
   80TMC2    H1 1250   1.489   4.468  12.019 -0.6538 -2.8622  2.5402
   80TMC2    H2 1251   1.774   4.241  11.790 -1.1618 -0.6403  0.8745
   80TMC2    C7 1252   1.523   4.277  11.844 -0.1922 -0.2692  0.7320
   80TMC2    C8 1253   1.994   4.356  11.888  0.0016 -0.5315  0.4546
   80TMC2    O1 1254   1.443   4.330  11.765 -0.4032  0.8692 -0.0940
   80TMC2    O2 1255   2.027   4.282  11.798 -0.0489 -0.0260 -0.5378
   80TMC2    O5 1256   2.050   4.353  12.009 -0.3555  0.1997 -0.0642
   80TMC2    H5 1257   1.986   4.378  12.078 -1.2377  2.0227 -1.5548
   81MPD2     C 1258   1.544   0.037  12.375  0.2325 -0.4430  0.7879
   81MPD2    C1 1259   1.486   4.654  12.326 -0.5075  0.6310  0.0829
   81MPD2    C2 1260   1.366   4.611  12.376 -0.9815  0.4954 -0.1349
   81MPD2    C3 1261   1.306   4.679  12.476  0.5060 -0.5398  0.2035
   81MPD2    C4 1262   1.361   0.062  12.517  0.0885 -0.2298 -0.1365
   81MPD2    C5 1263   1.478   0.113  12.461 -0.3155 -0.0309  0.4242
   81MPD2     H 1264   1.333   4.515  12.338 -0.1512  0.5857 -1.0938
   81MPD2    H1 1265   1.322   0.128  12.594  0.7704  0.2528 -0.2076
   81MPD2    H2 1266   1.636   0.079  12.336  0.8382 -3.7493 -1.2497
   81MPD2    H3 1267   1.507   0.213  12.493  0.1809 -0.3260  0.8806
   81MPD2     N 1268   1.183   4.642  12.533  0.5443 -0.0423  0.0699
   81MPD2    H5 1269   1.152   4.698  12.611  1.1277 -1.7104  1.5221
   81MPD2    N1 1270   1.553   4.575  12.227  0.1090 -0.6288 -0.3171
   81MPD2    H7 1271   1.512   4.485  12.202  1.5546 -0.9002 -1.7206
   82TMC2    C1 1272   4.583   4.023  11.407 -0.1872  1.1277 -0.0808
   82TMC2    C2 1273   4.713   4.075  11.387  0.1504 -0.8869 -0.2793
   82TMC2    C3 1274   0.068   4.074  11.490  0.2665  0.2986 -0.1096
   82TMC2    C4 1275   4.541   3.974  11.530 -0.1361 -0.4327 -0.4885
   82TMC2    C5 1276   4.633   3.968  11.631  0.3284 -0.1048 -0.0064
   82TMC2    C6 1277   0.029   4.019  11.614  0.3039 -0.0116  0.3611
   82TMC2     C 1278   4.490   4.008  11.298 -0.3419 -0.8498 -0.1964
   82TMC2     O 1279   4.386   3.950  11.320  0.3453  0.1885 -0.0029
   82TMC2     H 1280   0.003   4.105  11.286  0.1346  0.3845  0.0856
   82TMC2    H1 1281   4.441   3.937  11.546 -0.6172 -0.0494 -2.6346
   82TMC2    H2 1282   0.098   3.989  11.692 -1.6420 -1.5133  1.5150
   82TMC2    C7 1283   4.589   3.912  11.755  0.1860 -0.5744  0.7034
   82TMC2    C8 1284   0.206   4.118  11.486  0.6091  0.3233 -0.2088
   82TMC2    O1 1285   4.482   3.855  11.754 -0.0256 -0.2751 -0.1690
   82TMC2    O2 1286   0.276   4.099  11.584 -0.2370 -0.5498 -0.1986
   82TMC2    O5 1287   0.250   4.114  11.351 -0.0355  0.1095 -0.4101
   82TMC2    H5 1288   0.188   4.114  11.275 -3.8361 -0.5687  2.7400
   83MPD2     C 1289   4.391   3.914  10.809  0.5222 -0.2440  0.1097
   83MPD2    C1 1290   4.300   3.937  10.911 -0.8209 -0.4459  0.6460
   83MPD2    C2 1291   4.345   3.972  11.035  0.4738  0.2363 -0.1705
   83MPD2    C3 1292   4.478   4.001  11.049  0.1787 -0.0702 -0.2636
   83MPD2    C4 1293   4.566   3.987  10.947  0.2148 -0.0060 -0.3514
   83MPD2    C5 1294   4.524   3.947  10.828 -0.3877 -0.3666  0.7667
   83MPD2     H 1295   4.279   3.978  11.121 -1.3299 -2.0673 -1.3921
   83MPD2    H1 1296   4.672   4.011  10.955  0.5108 -2.0478  1.8491
   83MPD2    H2 1297   4.359   3.874  10.713  1.7129 -2.0254  0.4577
   83MPD2    H3 1298   4.596   3.945  10.748 -0.0191  1.7785  1.0442
   83MPD2     N 1299   4.540   4.030  11.172 -0.0176  0.4636 -0.4876
   83MPD2    H5 1300   4.640   4.044  11.165  0.4024 -2.0414  0.4064
   83MPD2    N1 1301   4.171   3.895  10.881  0.2367  0.7241  0.5342
   83MPD2    H7 1302   4.159   3.864  10.785  0.5506  0.6981  0.5053
   84TMC2    C1 1303   0.450   3.564  11.178  0.0107  1.3028 -0.3590
   84TMC2    C2 1304   0.327   3.530  11.156  0.1641  0.1013  0.2347
   84TMC2    C3 1305   0.302   3.426  11.081  0.5606  0.1480 -0.2231
   84TMC2    C4 1306   0.557   3.504  11.126  0.2896 -0.4892  0.2649
   84TMC2    C5 1307   0.537   3.405  11.037 -0.2742  0.3203 -0.6020
   84TMC2    C6 1308   0.409   3.359  11.017 -0.2563  0.1725  0.5254
   84TMC2     C 1309   0.462   3.691  11.244 -0.2966  0.7149 -0.0632
   84TMC2     O 1310   0.395   3.713  11.344 -0.1437 -0.1701 -0.5108
   84TMC2     H 1311   0.249   3.582  11.210  0.8162  1.5220 -0.1747
   84TMC2    H1 1312   0.654   3.527  11.169  0.2583  1.9551 -1.0373
   84TMC2    H2 1313   0.379   3.291  10.938 -1.1315  1.8017 -0.5268
   84TMC2    C7 1314   0.642   3.319  10.981 -0.3878  0.2400  0.1446
   84TMC2    C8 1315   0.174   3.403  11.033  0.3350  1.0375 -0.6002
   84TMC2    O1 1316   0.613   3.204  10.952 -0.3086 -0.2476  0.6500
   84TMC2    O2 1317   0.152   3.372  10.915  0.6073  0.2307  0.3763
   84TMC2    O5 1318   0.088   3.386  11.133  0.4993 -0.2629 -0.1748
   84TMC2    H5 1319   0.130   3.396  11.221 -1.7777  0.4416  0.8083
   85TMC2    C1 1320   1.384   2.177  16.175 -0.2147 -1.0679  0.1428
   85TMC2    C2 1321   1.267   2.243  16.142 -0.3652  0.9266  0.2386
   85TMC2    C3 1322   1.285   2.366  16.072  0.0581  0.3138  1.0269
   85TMC2    C4 1323   1.508   2.232  16.144 -0.2892  0.5523  0.3349
   85TMC2    C5 1324   1.512   2.342  16.063 -0.0906 -0.2284  0.1487
   85TMC2    C6 1325   1.401   2.405  16.018  0.2577  0.3241 -0.1436
   85TMC2     C 1326   1.390   2.051  16.243 -0.3077 -0.3694 -0.4414
   85TMC2     O 1327   1.493   2.016  16.299  0.1075 -0.2619  0.4775
   85TMC2     H 1328   1.168   2.199  16.142 -0.9174  2.1520  0.3098
   85TMC2    H1 1329   1.601   2.188  16.179 -0.3664 -0.0267 -0.1936
   85TMC2    H2 1330   1.399   2.479  15.938  0.0800 -0.8138 -1.1846
   85TMC2    C7 1331   1.632   2.360  15.991  0.0675 -0.1328 -1.2989
   85TMC2    C8 1332   1.178   2.459  16.067  0.0549 -0.1014  0.3326
   85TMC2    O1 1333   1.698   2.256  15.978  0.1952 -0.3073 -0.6490
   85TMC2    O2 1334   1.177   2.554  15.994  0.0655  0.5904 -0.4424
   85TMC2    O5 1335   1.068   2.397  16.109 -0.2798  0.4780  0.5496
   85TMC2    H5 1336   1.070   2.345  16.192  1.8372  0.2685  0.3649
   86MPD2     C 1337   1.154   1.646  16.440  0.4765  0.1642  0.1695
   86MPD2    C1 1338   1.092   1.672  16.321 -0.4730  0.5068 -0.8490
   86MPD2    C2 1339   1.130   1.782  16.246 -0.1032  0.4514 -0.0895
   86MPD2    C3 1340   1.239   1.862  16.297  0.0718 -0.3277 -0.3285
   86MPD2    C4 1341   1.306   1.814  16.407 -0.9046 -0.0064  0.2082
   86MPD2    C5 1342   1.264   1.710  16.486  0.5276  0.7410 -0.1414
   86MPD2     H 1343   1.073   1.807  16.158  2.5395 -0.7730 -2.1543
   86MPD2    H1 1344   1.387   1.872  16.451  1.4628 -2.2624 -1.1941
   86MPD2    H2 1345   1.127   1.567  16.509 -1.5481 -0.6808 -1.5881
   86MPD2    H3 1346   1.312   1.677  16.578 -3.4324  0.2006  1.7455
   86MPD2     N 1347   1.271   1.976  16.227  0.1795  0.4061  0.2834
   86MPD2    H5 1348   1.210   2.000  16.150 -3.5657  0.2672  3.2437
   86MPD2    N1 1349   0.984   1.597  16.280  0.3189 -0.2254 -0.0657
   86MPD2    H7 1350   0.944   1.624  16.190 -1.3758  0.7562  0.9950
   87TMC2    C1 1351   4.456   0.093   1.147  0.3065 -0.4108  0.0879
   87TMC2    C2 1352   4.549   0.025   1.212  0.2303  0.0634 -0.6500
   87TMC2    C3 1353   4.632   0.095   1.298 -0.1237  0.3222 -0.5205
   87TMC2    C4 1354   4.435   0.226   1.172 -0.5653 -0.2778  0.0139
   87TMC2    C5 1355   4.524   0.290   1.254 -0.8671  0.1803 -0.3679
   87TMC2    C6 1356   4.624   0.225   1.327  0.6727  0.2551  0.0039
   87TMC2     C 1357   4.352   0.020   1.075  0.2388 -0.2645  0.1965
   87TMC2     O 1358   4.297   0.075   0.977 -0.1475 -0.9677  0.5981
   87TMC2     H 1359   4.572   4.658   1.186  1.1838  0.0208  0.3609
   87TMC2    H1 1360   4.359   0.283   1.120 -2.2922 -0.4289  2.3958
   87TMC2    H2 1361   4.695   0.279   1.388  1.5269  0.0640 -0.8228
   87TMC2    C7 1362   4.501   0.431   1.287 -0.6647  0.2722 -0.7454
   87TMC2    C8 1363   4.715   0.020   1.383 -0.5119  0.3014  0.1167
   87TMC2    O1 1364   4.459   0.499   1.196  0.1430 -0.4212  0.7333
   87TMC2    O2 1365   0.082   0.061   1.427  0.1552  0.2554  0.0281
   87TMC2    O5 1366   4.661   4.629   1.400  0.4037 -0.4630  0.7082
   87TMC2    H5 1367   4.566   4.616   1.378  0.3182  0.2402  0.6663
   88MPD2     C 1368   4.463   0.561   1.622  0.5647  0.7357  0.1792
   88MPD2    C1 1369   4.476   0.574   1.493  0.1966 -0.5618  0.0410
   88MPD2    C2 1370   4.420   0.684   1.428  0.0902  1.0558 -0.2492
   88MPD2    C3 1371   4.352   0.778   1.498 -0.0263  0.5355  0.0901
   88MPD2    C4 1372   4.343   0.769   1.634 -0.5929 -0.1223 -0.9977
   88MPD2    C5 1373   4.401   0.662   1.695 -0.6307  0.5030  0.8453
   88MPD2     H 1374   4.435   0.702   1.322 -1.3035 -0.9352 -0.7800
   88MPD2    H1 1375   4.284   0.844   1.684 -1.8525 -1.3948 -0.5840
   88MPD2    H2 1376   4.497   0.477   1.681  2.2677  0.4284 -1.2123
   88MPD2    H3 1377   4.397   0.650   1.802  0.4818 -1.0726  0.7073
   88MPD2     N 1378   4.305   0.893   1.445 -0.6979 -0.6075  0.4370
   88MPD2    H5 1379   4.239   0.947   1.501 -0.8362 -1.1944  0.8444
   88MPD2    N1 1380   4.526   0.461   1.424  0.3598  0.3096 -0.4857
   88MPD2    H7 1381   4.546   0.383   1.487  2.2896  1.4018  0.2526
   89TMC2    C1 1382   4.260   2.445   0.949  0.3355 -0.5060  0.0966
   89TMC2    C2 1383   4.133   2.493   0.919 -0.0269  0.7408 -0.1501
   89TMC2    C3 1384   4.121   2.572   0.809 -0.0871 -0.0483  0.1382
   89TMC2    C4 1385   4.365   2.465   0.864  0.4629 -0.5470 -0.1533
   89TMC2    C5 1386   4.356   2.547   0.756  0.6557  0.1101  0.0831
   89TMC2    C6 1387   4.230   2.598   0.724  0.4636  1.3244  0.2589
   89TMC2     C 1388   4.288   2.365   1.069  0.2422 -1.1722 -0.5786
   89TMC2     O 1389   4.407   2.330   1.082 -0.0131  0.1566 -0.6008
   89TMC2     H 1390   4.052   2.477   0.989 -0.1606 -1.5074 -0.8335
   89TMC2    H1 1391   4.466   2.448   0.898  0.9789 -0.6823 -1.7307
   89TMC2    H2 1392   4.204   2.646   0.630  2.7797  1.6069 -0.2425
   89TMC2    C7 1393   4.469   2.573   0.669  0.2198 -0.0176 -0.1114
   89TMC2    C8 1394   3.991   2.617   0.769  0.2610 -0.0030 -0.5037
   89TMC2    O1 1395   4.570   2.510   0.692 -0.4822  0.2769 -0.4198
   89TMC2    O2 1396   3.889   2.559   0.809 -0.0921 -0.1378 -0.2892
   89TMC2    O5 1397   4.000   2.750   0.753 -0.2321  0.1447 -0.1386
   89TMC2    H5 1398   4.091   2.772   0.725  0.0479  0.0944  0.7201
   90MPD2     C 1399   4.163   2.063   1.456  0.3124 -0.5880  0.4423
   90MPD2    C1 1400   4.062   2.147   1.431 -0.2650  0.3920  0.0728
   90MPD2    C2 1401   4.072   2.233   1.329  0.6094  0.4313 -0.2257
   90MPD2    C3 1402   4.185   2.242   1.254 -0.5483  0.7022 -0.3602
   90MPD2    C4 1403   4.295   2.165   1.292 -0.9589  0.0431  0.0235
   90MPD2    C5 1404   4.280   2.069   1.392 -0.1913 -0.1767  0.4191
   90MPD2     H 1405   3.985   2.294   1.305  0.6870  0.1099 -1.3101
   90MPD2    H1 1406   4.391   2.163   1.243 -0.7199  1.5393  0.4219
   90MPD2    H2 1407   4.157   1.988   1.533 -0.5468 -0.5030  0.4580
   90MPD2    H3 1408   4.358   1.999   1.420  0.0348 -0.1351 -0.0931
   90MPD2     N 1409   4.183   2.345   1.155  0.3816  0.4645  0.8237
   90MPD2    H5 1410   4.099   2.402   1.157  0.1531  0.1751 -0.3329
   90MPD2    N1 1411   3.936   2.150   1.498  0.4764  0.7379  0.2575
   90MPD2    H7 1412   3.872   2.225   1.473  0.7381  1.3681  1.4939
   91TMC2    C1 1413   1.125   2.646  16.369  0.1711 -0.3339 -0.1356
   91TMC2    C2 1414   1.150   2.738  16.268  0.5889  0.3507  0.1004
   91TMC2    C3 1415   1.048   2.774  16.181 -0.7198 -0.2762  0.0779
   91TMC2    C4 1416   1.011   2.584  16.382  0.2855 -0.3723  0.1060
   91TMC2    C5 1417   0.915   2.624  16.306 -0.0163 -0.6930  0.0801
   91TMC2    C6 1418   0.920   2.726  16.206 -0.0521 -0.2573  0.1116
   91TMC2     C 1419   1.242   2.578  16.430 -0.2677  0.4722  0.1882
   91TMC2     O 1420   1.221   2.477  16.496 -0.4898 -0.4078  0.0681
   91TMC2     H 1421   1.238   2.801  16.268  1.7956 -1.3324  1.9330
   91TMC2    H1 1422   0.995   2.524  16.471 -2.6160 -0.7604 -0.7010
   91TMC2    H2 1423   0.838   2.768  16.149  0.2978  0.5776  0.2282
   91TMC2    C7 1424   0.780   2.579  16.348  0.5328 -0.1923  0.6093
   91TMC2    C8 1425   1.076   2.864  16.073 -0.0863 -0.3624 -0.5111
   91TMC2    O1 1426   0.759   2.584  16.472  0.5803  0.5993  0.3719
   91TMC2    O2 1427   1.159   2.952  16.090  0.1607 -0.3247  0.2126
   91TMC2    O5 1428   1.016   2.826  15.953 -0.4856  0.1403  0.6410
   91TMC2    H5 1429   0.976   2.737  15.945 -2.7277  1.2363 -0.2310
   92MPD2     C 1430   1.517   2.446  16.422 -0.2094  0.5071  0.0815
   92MPD2    C1 1431   1.490   2.574  16.387  0.0839  1.2161  0.0555
   92MPD2    C2 1432   1.592   2.654  16.345 -1.1897  0.6540 -0.0255
   92MPD2    C3 1433   1.721   2.620  16.370  0.0244  0.0364 -0.9351
   92MPD2    C4 1434   1.745   2.492  16.406 -0.5475 -1.0957 -0.4157
   92MPD2    C5 1435   1.642   2.405  16.421  0.3426 -0.3385 -0.0030
   92MPD2     H 1436   1.573   2.757  16.314  1.8326  1.7489  1.6861
   92MPD2    H1 1437   1.847   2.456  16.412  0.3701  1.3028 -1.5073
   92MPD2    H2 1438   1.446   2.365  16.432  0.8505 -0.3519  0.5335
   92MPD2    H3 1439   1.668   2.301  16.437  1.2551 -0.4256 -2.0354
   92MPD2     N 1440   1.829   2.717  16.352  0.1796  0.4822  0.3528
   92MPD2    H5 1441   1.809   2.813  16.324  2.8805  1.1286  0.6335
   92MPD2    N1 1442   1.358   2.625  16.374 -0.2751  0.1306  0.0463
   92MPD2    H7 1443   1.348   2.714  16.325  0.1082  0.5907  0.8135
   93TMC2    C1 1444   2.688   2.484  13.285 -0.4360 -0.5588 -0.0892
   93TMC2    C2 1445   2.645   2.497  13.413 -0.0774  0.4945  0.4609
   93TMC2    C3 1446   2.730   2.560  13.505  0.3510  0.3329  0.0639
   93TMC2    C4 1447   2.810   2.533  13.245 -0.1311  0.5467 -0.0512
   93TMC2    C5 1448   2.883   2.609  13.332 -0.8368  0.3912 -0.9111
   93TMC2    C6 1449   2.844   2.619  13.460 -0.8029 -0.8756 -0.5410
   93TMC2     C 1450   2.628   2.414  13.184 -0.0698 -0.1266 -0.5078
   93TMC2     O 1451   2.664   2.429  13.067  0.1471 -0.5328  0.3099
   93TMC2     H 1452   2.554   2.453  13.453  0.0115 -1.3435 -1.2951
   93TMC2    H1 1453   2.840   2.538  13.141 -0.5525 -0.3019 -0.2163
   93TMC2    H2 1454   2.901   2.679  13.530 -0.7617 -0.4610 -0.9358
   93TMC2    C7 1455   3.023   2.628  13.309  0.6448 -0.3076  0.0028
   93TMC2    C8 1456   2.710   2.557  13.650  0.8805  0.7622 -0.1165
   93TMC2    O1 1457   3.081   2.527  13.280  0.1505 -0.0458 -0.3172
   93TMC2    O2 1458   2.749   2.646  13.726 -0.2744  0.1684 -0.4887
   93TMC2    O5 1459   2.728   2.428  13.686  0.2864 -0.2014 -0.1946
   93TMC2    H5 1460   2.694   2.370  13.615  0.9270 -4.0162  2.5985
   94MPD2     C 1461   2.471   2.216  13.036  0.3192  0.3017 -0.2701
   94MPD2    C1 1462   2.481   2.222  13.171 -0.8477  0.1367  0.2352
   94MPD2    C2 1463   2.404   2.139  13.257  0.1091  1.1115 -0.9200
   94MPD2    C3 1464   2.316   2.048  13.209 -0.5270 -0.2634 -0.6667
   94MPD2    C4 1465   2.303   2.034  13.074  0.7136  0.4815  0.1756
   94MPD2    C5 1466   2.379   2.121  12.992 -0.2442 -0.4494 -0.0904
   94MPD2     H 1467   2.403   2.163  13.363 -0.1824  0.8676 -0.8687
   94MPD2    H1 1468   2.228   1.976  13.021 -0.2153  0.5922  1.3666
   94MPD2    H2 1469   2.518   2.282  12.964  2.6146 -2.2835 -1.1404
   94MPD2    H3 1470   2.361   2.107  12.886  0.3232  0.3579 -0.2893
   94MPD2     N 1471   2.216   1.981  13.288 -0.8926 -0.2889  0.5114
   94MPD2    H5 1472   2.141   1.932  13.240  1.4540 -4.2535  0.9586
   94MPD2    N1 1473   2.558   2.314  13.241  0.2349  0.3006  0.8492
   94MPD2    H7 1474   2.568   2.299  13.340  0.7982  0.0150  0.7489
   95TMC2    C1 1475   2.377   4.116  16.537 -0.2766  0.2042 -0.4543
   95TMC2    C2 1476   2.353   4.059  16.663 -0.3525  0.3678  0.1731
   95TMC2    C3 1477   2.229   4.077  16.721 -0.2006 -0.3257 -0.0075
   95TMC2    C4 1478   2.284   4.182  16.459  0.5601 -0.1034 -0.0999
   95TMC2    C5 1479   2.163   4.193  16.524  0.4943 -0.5356 -0.4087
   95TMC2    C6 1480   2.131   4.145  16.645  0.1964 -0.2720 -0.0315
   95TMC2     C 1481   2.515   4.110  16.480  0.4258 -0.5253 -0.9296
   95TMC2     O 1482   2.539   4.199  16.399 -0.1611  0.5089  0.2779
   95TMC2     H 1483   2.437   4.032  16.725  0.0133  1.8833  0.3429
   95TMC2    H1 1484   2.311   4.214  16.359  0.5407  1.1125  0.2863
   95TMC2    H2 1485   2.031   4.160  16.684  1.0562  0.3286  1.9236
   95TMC2    C7 1486   2.062   4.280  16.469  0.4111 -0.3336 -0.6265
   95TMC2    C8 1487   2.199   4.067  16.859  0.4537 -0.2068 -0.1808
   95TMC2    O1 1488   1.973   4.328  16.544  0.0395  0.0019 -0.0021
   95TMC2    O2 1489   2.102   4.132  16.897  0.1241  0.2526 -0.0732
   95TMC2    O5 1490   2.290   3.991  16.926  0.3021  0.5696 -0.3833
   95TMC2    H5 1491   2.357   3.935  16.884  0.0930 -1.4189  1.9247
   96MPD2     C 1492   2.980   3.905  16.440 -0.0196  0.3439 -0.3070
   96MPD2    C1 1493   2.917   4.003  16.367  0.1114  0.5051  0.3330
   96MPD2    C2 1494   2.787   4.033  16.385 -0.1825 -0.7220  0.4244
   96MPD2    C3 1495   2.713   3.956  16.479 -0.1830 -0.0864 -0.9057
   96MPD2    C4 1496   2.773   3.846  16.547  0.0199 -0.0772  0.3590
   96MPD2    C5 1497   2.908   3.825  16.523 -0.1576  0.2816  0.4105
   96MPD2     H 1498   2.737   4.102  16.319  0.7526 -0.9368 -0.5169
   96MPD2    H1 1499   2.723   3.797  16.629  1.1584  0.1750  1.1991
   96MPD2    H2 1500   3.083   3.875  16.427  0.2810  1.0242  0.5301
   96MPD2    H3 1501   2.962   3.746  16.574  1.1974  1.2353  0.4396
   96MPD2     N 1502   2.587   4.002  16.523  0.1326  0.0471 -0.2613
   96MPD2    H5 1503   2.539   3.940  16.588 -0.8012 -0.0596 -1.0477
   96MPD2    N1 1504   2.998   4.072  16.272 -0.6004  0.0699 -0.2564
   96MPD2    H7 1505   3.091   4.035  16.258  0.1188  1.1627  1.7171
   97TMC2    C1 1506   0.316   3.135   0.545 -0.1321  0.0096 -0.1332
   97TMC2    C2 1507   0.195   3.152   0.475  0.4201  0.4926  0.6032
   97TMC2    C3 1508   0.166   3.285   0.435 -0.6511 -0.0580 -0.1524
   97TMC2    C4 1509   0.395   3.243   0.579 -0.0165  0.6466  0.0314
   97TMC2    C5 1510   0.364   3.370   0.533  0.1377 -0.4949  0.4335
   97TMC2    C6 1511   0.247   3.394   0.471  0.3177 -0.1688 -0.0507
   97TMC2     C 1512   0.344   2.999   0.586  0.4964  0.0045 -0.3022
   97TMC2     O 1513   0.254   2.918   0.574  0.5925  0.1008  0.5627
   97TMC2     H 1514   0.127   3.068   0.464  0.1664  0.8680 -0.7049
   97TMC2    H1 1515   0.477   3.235   0.649 -0.2634 -0.0012  0.2509
   97TMC2    H2 1516   0.223   3.495   0.438 -1.4700  0.1783  2.3227
   97TMC2    C7 1517   0.472   3.468   0.523 -0.3805 -0.0435  0.2563
   97TMC2    C8 1518   0.027   3.308   0.390 -0.7868  0.8668  0.7496
   97TMC2    O1 1519   0.561   3.463   0.606  0.3861  0.2833  0.0813
   97TMC2    O2 1520   4.670   3.248   0.437 -0.0667 -0.2844  0.2777
   97TMC2    O5 1521   0.021   3.437   0.352 -0.1762 -0.1834  0.3874
   97TMC2    H5 1522   0.111   3.457   0.317 -0.2484  0.0710  0.3461
   98MPD2     C 1523   0.667   2.662   0.799  0.6961 -0.3215 -0.4095
   98MPD2    C1 1524   0.534   2.654   0.773  0.3291 -0.5371 -0.9854
   98MPD2    C2 1525   0.466   2.755   0.705  0.4716 -0.4213 -0.2428
   98MPD2    C3 1526   0.536   2.869   0.673  0.3781 -0.5296  0.6163
   98MPD2    C4 1527   0.666   2.873   0.702  0.7588  0.2965  0.6933
   98MPD2    C5 1528   0.739   2.767   0.755 -0.5381  0.0294 -0.4570
   98MPD2     H 1529   0.362   2.739   0.676  0.2100  1.7986 -0.5589
   98MPD2    H1 1530   0.725   2.961   0.681  1.2452  0.2742  1.9821
   98MPD2    H2 1531   0.714   2.571   0.836 -1.1371 -1.5657 -1.1180
   98MPD2    H3 1532   0.847   2.766   0.759 -0.5099 -0.3403 -1.2774
   98MPD2     N 1533   0.474   2.983   0.614 -0.1579 -0.3146 -0.0279
   98MPD2    H5 1534   0.541   3.056   0.594 -0.1676 -0.0767  0.7916
   98MPD2    N1 1535   0.482   2.525   0.807 -0.2969  0.2332 -0.4864
   98MPD2    H7 1536   0.538   2.462   0.863  0.2720  0.9649 -0.2366
   99TMC2    C1 1537   4.575   3.895   1.570 -0.1207 -0.4050  0.3987
   99TMC2    C2 1538   4.635   3.903   1.699  0.2572 -0.7516  1.0422
   99TMC2    C3 1539   4.576   3.977   1.794  0.2703  0.6742 -0.3790
   99TMC2    C4 1540   4.456   3.965   1.547  0.0051 -0.0290  0.0721
   99TMC2    C5 1541   4.394   4.026   1.657 -0.1807  1.1999  0.1120
   99TMC2    C6 1542   4.454   4.036   1.773 -0.2675  0.3076 -0.0767
   99TMC2     C 1543   4.668   3.865   1.463 -0.0530  0.0368  0.0959
   99TMC2     O 1544   0.048   3.849   1.495  0.5764 -0.2052 -0.2727
   99TMC2     H 1545   4.732   3.862   1.727  0.9536 -0.3671 -0.8614
   99TMC2    H1 1546   4.415   3.977   1.447  1.3657 -2.4639 -0.7828
   99TMC2    H2 1547   4.397   4.088   1.849  0.0798  0.4955  0.0559
   99TMC2    C7 1548   4.285   4.117   1.628  0.5358  0.0898  0.9579
   99TMC2    C8 1549   4.619   3.953   1.933  0.0269  0.0064  0.7744
   99TMC2    O1 1550   4.287   4.222   1.691  0.1268  1.0645  0.0219
   99TMC2    O2 1551   4.729   3.970   1.982 -0.3957 -0.0429  0.7961
   99TMC2    O5 1552   4.545   3.845   1.967 -0.0995  0.6957  0.1713
   99TMC2    H5 1553   4.477   3.832   1.897  0.6490 -0.1032 -0.4029
  100MPD2     C 1554   0.046   3.925   1.197 -0.2514 -0.2064 -0.7630
  100MPD2    C1 1555   4.656   3.884   1.216  0.0052 -0.0658 -0.4955
  100MPD2    C2 1556   4.570   3.872   1.107 -0.7770 -0.1217  0.7958
  100MPD2    C3 1557   4.615   3.904   0.982 -0.0782 -0.3498 -0.3818
  100MPD2    C4 1558   0.011   3.947   0.964  0.6570 -0.4063 -0.0192
  100MPD2    C5 1559   0.092   3.961   1.076 -0.0781  0.0866  0.8416
  100MPD2     H 1560   4.468   3.841   1.125 -0.0952 -2.4840  0.5557
  100MPD2    H1 1561   0.046   3.970   0.864 -0.3151  0.9329 -0.0443
  100MPD2    H2 1562   0.109   3.949   1.282 -1.4632  0.1385  0.0338
  100MPD2    H3 1563   0.190   4.005   1.062 -0.1268  0.1515  0.7094
  100MPD2     N 1564   4.525   3.873   0.872 -0.5221 -0.0112 -0.6755
  100MPD2    H5 1565   4.448   3.813   0.899  2.3261 -2.7457  1.3432
  100MPD2    N1 1566   4.601   3.867   1.344  0.6707 -0.1344 -0.3386
  100MPD2    H7 1567   4.502   3.848   1.349  0.7339 -0.0720  1.1385
  101TMC2    C1 1568   0.592   0.426  13.314 -0.0523  0.2794  0.3079
  101TMC2    C2 1569   0.507   0.531  13.311  0.0622 -0.7413 -0.1771
  101TMC2    C3 1570   0.531   0.641  13.224  0.0790  0.0062  0.0152
  101TMC2    C4 1571   0.710   0.429  13.248 -0.1850  0.1613 -0.5570
  101TMC2    C5 1572   0.734   0.537  13.161  0.7622 -0.7284 -0.5916
  101TMC2    C6 1573   0.645   0.643  13.145  0.5528  0.0914  0.2431
  101TMC2     C 1574   0.529   0.302  13.336 -0.3158 -0.0541 -0.0888
  101TMC2     O 1575   0.446   0.301  13.426  0.6695  0.2759  0.4645
  101TMC2     H 1576   0.419   0.535  13.373  0.8099  0.5760  0.7902
  101TMC2    H1 1577   0.781   0.347  13.247  0.8351  1.0190  2.4661
  101TMC2    H2 1578   0.666   0.724  13.077 -0.9379 -0.3848 -0.7837
  101TMC2    C7 1579   0.857   0.553  13.093 -0.0119 -0.1323 -0.1486
  101TMC2    C8 1580   0.416   0.707  13.167 -0.1415 -0.5339  0.0212
  101TMC2    O1 1581   0.873   0.659  13.034 -0.0714 -0.1284 -0.4618
  101TMC2    O2 1582   0.302   0.663  13.159 -0.4335 -0.7346  0.8439
  101TMC2    O5 1583   0.463   0.832  13.150  0.0435 -0.7560 -0.5582
  101TMC2    H5 1584   0.541   0.848  13.207 -0.2132 -0.3810 -0.3172
  102MPD2     C 1585   0.549   4.730  13.135 -1.0533 -0.0313  0.4487
  102MPD2    C1 1586   0.511   0.076  13.236 -0.7409 -0.3991 -0.0609
  102MPD2    C2 1587   0.421   0.025  13.333 -0.0154 -0.5837  0.4533
  102MPD2    C3 1588   0.370   4.628  13.318 -0.3342  0.8700  0.1350
  102MPD2    C4 1589   0.418   4.546  13.222 -0.3700  0.1811  0.1877
  102MPD2    C5 1590   0.505   4.600  13.127 -0.2770  0.3429 -0.1329
  102MPD2     H 1591   0.378   0.095  13.403 -1.9218 -0.1569 -1.1647
  102MPD2    H1 1592   0.386   4.444  13.207  0.0860  0.1459 -0.5351
  102MPD2    H2 1593   0.620   0.026  13.059 -1.2430 -0.5993  0.0351
  102MPD2    H3 1594   0.533   4.534  13.045 -0.6462  0.1143 -0.0721
  102MPD2     N 1595   0.270   4.592  13.412  0.0493 -0.1816 -0.3273
  102MPD2    H5 1596   0.244   4.667  13.476  0.6479 -1.5172  1.4656
  102MPD2    N1 1597   0.557   0.213  13.237  0.6296 -1.4106 -0.7655
  102MPD2    H7 1598   0.611   0.247  13.158 -0.2085 -1.6974 -1.4579
  103TMC2    C1 1599   3.670   0.301  12.184 -0.1122  0.3875 -0.0538
  103TMC2    C2 1600   3.732   0.407  12.121  0.4600 -0.6759 -0.1743
  103TMC2    C3 1601   3.810   0.494  12.187 -0.5790  0.3249  0.0523
  103TMC2    C4 1602   3.675   0.289  12.320  0.6545  0.6529 -0.1996
  103TMC2    C5 1603   3.755   0.377  12.384 -0.0125 -0.2814  0.0039
  103TMC2    C6 1604   3.820   0.480  12.328 -0.4116 -0.3217  0.0266
  103TMC2     C 1605   3.556   0.239  12.115  0.0498 -0.3467  0.5447
  103TMC2     O 1606   3.512   0.301  12.021  0.0143  0.3050 -0.0453
  103TMC2     H 1607   3.727   0.417  12.013  0.3510  1.5469  0.0317
  103TMC2    H1 1608   3.619   0.215  12.376  1.1455 -1.4294 -2.4460
  103TMC2    H2 1609   3.862   0.565  12.380 -0.5206  0.2974 -0.8810
  103TMC2    C7 1610   3.754   0.380  12.525  0.2195 -0.2481 -0.0667
  103TMC2    C8 1611   3.919   0.570  12.114 -0.3114 -0.3422  0.1868
  103TMC2    O1 1612   3.669   0.310  12.583 -0.0697  0.5848  0.1956
  103TMC2    O2 1613   3.941   0.552  11.994  0.3635  0.1457  0.1190
  103TMC2    O5 1614   3.936   0.687  12.174 -0.5156 -0.2778 -0.0670
  103TMC2    H5 1615   3.887   0.695  12.258  0.9789 -0.9096  0.8783
  104MPD2     C 1616   3.426   4.634  12.178  0.0714 -0.3773  0.1462
  104MPD2    C1 1617   3.426   0.028  12.130 -0.2430  0.0381  0.2556
  104MPD2    C2 1618   3.313   0.076  12.057 -0.4395 -0.4713 -0.0559
  104MPD2    C3 1619   3.194   4.731  12.041 -0.3199  0.5910  0.0071
  104MPD2    C4 1620   3.207   4.603  12.089  0.0599  0.2233  0.3465
  104MPD2    C5 1621   3.327   4.551  12.142 -0.2390  0.0797 -0.0382
  104MPD2     H 1622   3.322   0.176  12.017  1.4162  0.7550  3.3667
  104MPD2    H1 1623   3.116   4.547  12.073 -0.1733  1.0788 -1.2641
  104MPD2    H2 1624   3.507   4.586  12.232 -0.2726 -1.3296 -0.1727
  104MPD2    H3 1625   3.329   4.447  12.174 -1.3002 -0.3540 -1.3988
  104MPD2     N 1626   3.078   0.052  11.982  0.2985 -0.0699 -0.2615
  104MPD2    H5 1627   3.089   0.153  11.974 -1.3726  0.0860 -0.5190
  104MPD2    N1 1628   3.542   0.111  12.165  0.1461  0.1686  0.4933
  104MPD2    H7 1629   3.614   0.076  12.227  0.1735  0.0029  0.3668
  105TMC2    C1 1630   3.891   4.304   0.399 -1.1926 -0.0660  0.0682
  105TMC2    C2 1631   3.890   4.434   0.339 -0.2737  0.1541 -0.8231
  105TMC2    C3 1632   3.913   4.537   0.423  0.1193  0.0557 -0.9477
  105TMC2    C4 1633   3.915   4.276   0.528  0.2545  0.6386  0.2127
  105TMC2    C5 1634   3.924   4.387   0.607 -1.6584 -0.1243 -0.2814
  105TMC2    C6 1635   3.924   4.519   0.562  0.2130 -0.0304  0.5845
  105TMC2     C 1636   3.875   4.188   0.308 -0.2509  0.6802 -0.2764
  105TMC2     O 1637   3.859   4.079   0.362 -0.0389 -0.0924 -0.3257
  105TMC2     H 1638   3.853   4.449   0.238 -1.7278 -1.8335 -0.5835
  105TMC2    H1 1639   3.905   4.177   0.571  0.1452 -0.2033 -1.7718
  105TMC2    H2 1640   3.911   4.610   0.620 -1.4920  0.0516  0.0909
  105TMC2    C7 1641   3.933   4.367   0.750  0.1706 -0.1099  0.2015
  105TMC2    C8 1642   3.888   4.672   0.374  0.4521 -0.3292 -0.0185
  105TMC2    O1 1643   3.865   4.276   0.791 -0.0134  0.0381 -0.4486
  105TMC2    O2 1644   3.829   0.020   0.443  0.5607 -0.5728  0.5684
  105TMC2    O5 1645   3.896   4.676   0.236  0.6255 -0.0054  0.0693
  105TMC2    H5 1646   3.966   4.614   0.206  2.0031  0.9794  1.2567
  106MPD2     C 1647   3.957   3.971  17.580 -0.3080  0.3870 -1.0179
  106MPD2    C1 1648   3.937   4.110  17.574 -0.3028  0.0651 -0.5325
  106MPD2    C2 1649   3.913   4.183  17.686  0.3067 -0.0247  0.6315
  106MPD2    C3 1650   3.903   4.129   0.069  0.4669  0.7006 -0.1919
  106MPD2    C4 1651   3.917   3.990   0.084 -0.1727 -0.0339 -0.1779
  106MPD2    C5 1652   3.945   3.919  17.709  0.0855 -0.4100 -0.1167
  106MPD2     H 1653   3.890   4.289  17.679 -0.3212 -0.2635 -0.8484
  106MPD2    H1 1654   3.914   3.935   0.177  1.5207 -0.2105 -0.2316
  106MPD2    H2 1655   3.963   3.900  17.498 -1.2286 -1.3556  0.4295
  106MPD2    H3 1656   3.951   3.811  17.718  2.9733 -0.3821 -1.5957
  106MPD2     N 1657   3.878   4.222   0.174 -0.4030  0.6054 -1.0396
  106MPD2    H5 1658   3.862   4.319   0.153  0.0895  0.5197 -1.8278
  106MPD2    N1 1659   3.949   4.180  17.454  0.6754  0.3599  0.2282
  106MPD2    H7 1660   3.926   4.279  17.455  1.9915  0.6616 -0.4910
  107TMC2    C1 1661   0.501   4.251  11.817 -0.7464 -0.1426 -0.4673
  107TMC2    C2 1662   0.624   4.269  11.878 -0.3163 -0.5258 -0.0799
  107TMC2    C3 1663   0.726   4.321  11.803  0.2857  0.1128 -0.0593
  107TMC2    C4 1664   0.485   4.287  11.687 -0.0997  0.1111 -0.7237
  107TMC2    C5 1665   0.598   4.329  11.619  0.2887  0.5154  0.0649
  107TMC2    C6 1666   0.722   4.349  11.672 -0.3921  0.4701 -0.3425
  107TMC2     C 1667   0.392   4.239  11.906  0.1252 -0.1416 -0.2791
  107TMC2     O 1668   0.420   4.224  12.021  0.3073  0.0975 -0.8660
  107TMC2     H 1669   0.637   4.247  11.984 -1.4546  0.6027  0.3055
  107TMC2    H1 1670   0.395   4.292  11.626  0.2138  0.9865 -1.1110
  107TMC2    H2 1671   0.806   4.373  11.608  0.5087  1.1618  1.0984
  107TMC2    C7 1672   0.606   4.307  11.481 -0.1305  0.2431  0.9616
  107TMC2    C8 1673   0.843   4.359  11.881 -0.0017  0.2651 -0.5947
  107TMC2    O1 1674   0.664   4.385  11.410 -0.0844 -0.3169  0.1973
  107TMC2    O2 1675   0.836   4.419  11.981  0.2867 -0.3113 -0.4756
  107TMC2    O5 1676   0.954   4.347  11.811  0.0247 -0.0373 -0.1933
  107TMC2    H5 1677   0.959   4.279  11.740 -2.7526 -0.3828 -0.0779
  108MPD2     C 1678   0.038   4.280  11.814  0.0178 -0.2818  0.0011
  108MPD2    C1 1679   0.142   4.249  11.895 -0.0659 -0.4946  0.2060
  108MPD2    C2 1680   0.114   4.240  12.034  0.0531 -0.2860  0.0212
  108MPD2    C3 1681   4.717   4.242  12.074  0.2852 -0.0482 -0.3120
  108MPD2    C4 1682   4.615   4.258  11.988  0.0569  0.2713 -0.7090
  108MPD2    C5 1683   4.651   4.286  11.862 -0.0190  0.8437  0.3581
  108MPD2     H 1684   0.192   4.235  12.108  1.0218  3.3798 -0.7399
  108MPD2    H1 1685   4.513   4.245  12.025  0.4568  0.3688  0.4354
  108MPD2    H2 1686   0.054   4.294  11.708  5.2036  2.1664  1.1184
  108MPD2    H3 1687   4.578   4.286  11.782  0.2165 -0.2320  0.1450
  108MPD2     N 1688   4.673   4.232  12.210  0.5713  0.4789 -0.2780
  108MPD2    H5 1689   4.574   4.242  12.232  0.4539 -0.5236 -0.3427
  108MPD2    N1 1690   0.272   4.241  11.840 -0.1734 -0.2678  0.2275
  108MPD2    H7 1691   0.276   4.249  11.739  0.3491  1.9675  0.4336
  109TMC2    C1 1692   4.630   2.007   0.300  0.1455 -0.4089 -0.4761
  109TMC2    C2 1693   4.652   2.120   0.222  0.3738 -0.0296 -0.2480
  109TMC2    C3 1694   0.031   2.187   0.255  0.0366  0.4150 -0.3224
  109TMC2    C4 1695   4.715   1.960   0.397 -0.5975  0.0894 -0.0886
  109TMC2    C5 1696   0.096   2.034   0.426  0.4958 -0.4995  0.0711
  109TMC2    C6 1697   0.119   2.147   0.350 -0.1131  1.0177  0.8110
  109TMC2     C 1698   4.490   1.958   0.292  0.4540  0.1621  0.3495
  109TMC2     O 1699   4.419   1.992   0.197  0.4819  0.2762  0.0982
  109TMC2     H 1700   4.592   2.157   0.139 -2.1435  0.9453  1.9869
  109TMC2    H1 1701   4.695   1.867   0.449  0.5634  0.1986  0.5429
  109TMC2    H2 1702   0.217   2.193   0.352 -0.7883  2.4494  1.3902
  109TMC2    C7 1703   0.188   2.008   0.536 -0.1890 -0.1577  0.2122
  109TMC2    C8 1704   0.078   2.299   0.175  0.3958  0.0986  0.0527
  109TMC2    O1 1705   0.290   2.072   0.537 -0.0096 -0.4991 -0.2752
  109TMC2    O2 1706   0.039   2.318   0.062  0.1832 -0.3495 -0.3074
  109TMC2    O5 1707   0.088   2.407   0.258  0.4138 -0.3762 -0.2472
  109TMC2    H5 1708   0.100   2.384   0.353 -3.5254  0.3877  0.4343
  110MPD2     C 1709   4.116   1.719   0.573 -0.7455  0.0613  0.0948
  110MPD2    C1 1710   4.240   1.711   0.635 -0.2150  0.4350 -0.6012
  110MPD2    C2 1711   4.348   1.780   0.585  0.1421 -0.7474 -0.2290
  110MPD2    C3 1712   4.344   1.843   0.465  0.4327 -1.1901  0.0145
  110MPD2    C4 1713   4.230   1.839   0.392  0.1757  0.3246  0.0592
  110MPD2    C5 1714   4.120   1.771   0.444  0.1541  0.7661  0.3460
  110MPD2     H 1715   4.447   1.762   0.625  0.2570 -0.7706 -0.5255
  110MPD2    H1 1716   4.222   1.882   0.293  1.6981  0.8594  0.1727
  110MPD2    H2 1717   4.020   1.679   0.604 -0.3192 -0.8498  0.2252
  110MPD2    H3 1718   4.025   1.767   0.391 -0.2280 -0.8859  1.1423
  110MPD2     N 1719   4.463   1.896   0.414 -0.3186  0.4920  0.2234
  110MPD2    H5 1720   4.530   1.917   0.487  0.4667 -0.3561 -0.2469
  110MPD2    N1 1721   4.255   1.634   0.749 -0.2328 -0.6984 -0.2416
  110MPD2    H7 1722   4.168   1.637   0.802 -0.5257  1.4911 -0.8616
  111TMC2    C1 1723   0.757   0.649  11.724  0.2717 -0.1867  0.6690
  111TMC2    C2 1724   0.845   0.613  11.618  0.1284  0.3315 -0.0506
  111TMC2    C3 1725   0.980   0.613  11.636 -0.8205 -0.1955  0.9752
  111TMC2    C4 1726   0.807   0.703  11.840  0.8104 -0.3423 -0.0732
  111TMC2    C5 1727   0.944   0.705  11.843  0.1422 -0.6826 -0.3691
  111TMC2    C6 1728   1.030   0.660  11.753  0.2621 -0.7785 -0.2256
  111TMC2     C 1729   0.623   0.660  11.684  0.3719  0.0944  0.3140
  111TMC2     O 1730   0.608   0.674  11.562 -0.6582 -0.9751  0.1645
  111TMC2     H 1731   0.810   0.578  11.521 -1.1888 -2.1547  1.3137
  111TMC2    H1 1732   0.737   0.729  11.919  2.0007 -2.1274  1.5718
  111TMC2    H2 1733   1.134   0.681  11.775  0.3265  0.9222 -2.2052
  111TMC2    C7 1734   1.005   0.763  11.961 -0.4401 -0.0480 -0.0203
  111TMC2    C8 1735   1.057   0.601  11.522  0.2045 -0.5389  0.1244
  111TMC2    O1 1736   1.123   0.742  11.988 -0.0904 -0.6493 -0.1265
  111TMC2    O2 1737   1.014   0.634  11.410  0.0110  0.0988  0.2597
  111TMC2    O5 1738   1.188   0.585  11.549 -0.1243 -0.1487 -0.0911
  111TMC2    H5 1739   1.217   0.570  11.642 -1.9003  0.8031  0.6266
  112MPD2     C 1740   0.127   0.582  11.727 -0.0326 -0.6630  0.1866
  112MPD2    C1 1741   0.197   0.616  11.619 -0.5961 -0.2137  0.2435
  112MPD2    C2 1742   0.330   0.629  11.638 -0.6054  0.6092  0.2748
  112MPD2    C3 1743   0.392   0.618  11.762 -0.4399 -0.4615  0.3902
  112MPD2    C4 1744   0.317   0.592  11.871 -0.5725 -0.8405 -0.0578
  112MPD2    C5 1745   0.179   0.570  11.853  0.2836  0.2708 -0.0157
  112MPD2     H 1746   0.395   0.651  11.554 -1.2488  0.9428 -0.1326
  112MPD2    H1 1747   0.364   0.579  11.968  1.0502 -2.1194 -1.0077
  112MPD2    H2 1748   0.019   0.570  11.721 -0.1810  0.8301 -0.0921
  112MPD2    H3 1749   0.118   0.564  11.943  0.6895  0.5127  0.2729
  112MPD2     N 1750   0.532   0.635  11.780  0.6961  0.3782 -0.1914
  112MPD2    H5 1751   0.550   0.618  11.878  1.1214  2.4770  0.0864
  112MPD2    N1 1752   0.151   0.626  11.485  0.6097  0.6900 -0.3929
  112MPD2    H7 1753   0.223   0.659  11.422  0.7037 -0.7842 -1.0664
  113TMC2    C1 1754   2.619   3.614   0.619  0.3482  0.6274 -0.2920
  113TMC2    C2 1755   2.591   3.741   0.583  0.0526  0.2563 -0.0314
  113TMC2    C3 1756   2.484   3.773   0.505  0.6431 -0.0423  0.2203
  113TMC2    C4 1757   2.524   3.519   0.590 -0.0021 -0.1161  0.3849
  113TMC2    C5 1758   2.420   3.551   0.507  0.4107  0.6611 -0.4691
  113TMC2    C6 1759   2.396   3.680   0.461 -0.6235 -0.1682 -0.3422
  113TMC2     C 1760   2.747   3.597   0.683  1.0421  0.4138  0.5870
  113TMC2     O 1761   2.801   3.692   0.736  0.1863 -0.6114  0.1072
  113TMC2     H 1762   2.664   3.816   0.610  0.1229  0.0532  0.3416
  113TMC2    H1 1763   2.544   3.414   0.608  0.0840 -0.1635  0.0105
  113TMC2    H2 1764   2.303   3.695   0.407 -1.6288  3.2477  2.3053
  113TMC2    C7 1765   2.323   3.449   0.487  0.6470 -0.6392 -0.1428
  113TMC2    C8 1766   2.430   3.906   0.511 -0.1223 -0.5862  0.1157
  113TMC2    O1 1767   2.246   3.482   0.395 -0.0052  0.1664 -0.0887
  113TMC2    O2 1768   2.393   3.956   0.620  0.8329 -0.5494  0.4035
  113TMC2    O5 1769   2.363   3.941   0.397 -0.3751  0.7070 -0.1973
  113TMC2    H5 1770   2.398   3.899   0.315  0.4976 -0.5715  0.8157
  114MPD2     C 1771   3.182   3.339   0.718 -0.4449  0.0075  0.5351
  114MPD2    C1 1772   3.162   3.476   0.714  0.7957 -0.2352 -0.1192
  114MPD2    C2 1773   3.035   3.519   0.689  0.8895  0.2287 -0.0200
  114MPD2    C3 1774   2.928   3.430   0.680 -0.3142 -0.3031  0.4859
  114MPD2    C4 1775   2.952   3.294   0.686 -0.1611 -0.1511  0.0116
  114MPD2    C5 1776   3.082   3.250   0.698  0.1312  0.0440 -0.2107
  114MPD2     H 1777   3.019   3.626   0.682 -1.3566 -0.2126 -1.5478
  114MPD2    H1 1778   2.869   3.226   0.671  0.4452 -0.4072 -2.2063
  114MPD2    H2 1779   3.280   3.294   0.726 -0.2479  0.2101 -0.8443
  114MPD2    H3 1780   3.094   3.144   0.717 -1.8131  0.1756  1.6533
  114MPD2     N 1781   2.794   3.471   0.658  0.5776 -0.2445  0.6897
  114MPD2    H5 1782   2.722   3.405   0.629 -0.5193 -0.0761  3.0223
  114MPD2    N1 1783   3.262   3.576   0.730  0.6587  0.8477  0.6101
  114MPD2    H7 1784   3.231   3.673   0.727  0.0832  0.7486  3.0475
  115TMC2    C1 1785   3.489   1.678  17.654  0.4502  0.1250 -0.2320
  115TMC2    C2 1786   3.580   1.623  17.571 -0.3319 -0.7037 -0.2920
  115TMC2    C3 1787   3.625   1.690  17.466 -0.1970 -0.1417 -0.2371
  115TMC2    C4 1788   3.435   1.803  17.622  0.1426 -0.2643  0.1866
  115TMC2    C5 1789   3.471   1.865  17.516  0.0035 -0.4228  0.3640
  115TMC2    C6 1790   3.571   1.814  17.439  0.1892 -0.4178  0.1972
  115TMC2     C 1791   3.387   1.579  17.699 -0.3501  0.3485  0.5206
  115TMC2     O 1792   3.425   1.465  17.688  0.1475  0.1594 -0.3293
  115TMC2     H 1793   3.631   1.534  17.607 -3.8256 -1.8811  1.7592
  115TMC2    H1 1794   3.380   1.854  17.700  0.9440 -0.7472  1.0596
  115TMC2    H2 1795   3.595   1.861  17.344  0.8735 -1.5832 -0.2086
  115TMC2    C7 1796   3.448   2.010  17.524  0.0195 -0.2376 -0.2490
  115TMC2    C8 1797   3.653   1.626  17.342 -0.2833  0.1952  0.5174
  115TMC2    O1 1798   3.350   2.042  17.583 -0.1853  0.6480 -0.6959
  115TMC2    O2 1799   3.622   1.665  17.231  0.1383  0.2021  0.5534
  115TMC2    O5 1800   3.692   1.505  17.363  0.5500 -0.4810  0.3865
  115TMC2    H5 1801   3.728   1.488  17.453 -2.3641 -0.4860  1.5557
  116MPD2     C 1802   2.925   1.392   0.050  0.1571 -0.9353 -0.1039
  116MPD2    C1 1803   3.031   1.357  17.713 -1.1513 -0.0182 -0.6174
  116MPD2    C2 1804   3.141   1.436  17.697 -0.1728  0.4758 -0.2752
  116MPD2    C3 1805   3.155   1.551   0.022 -0.3316 -0.2297  0.4417
  116MPD2    C4 1806   3.043   1.594   0.095  0.3567 -0.0870  0.0806
  116MPD2    C5 1807   2.936   1.511   0.112 -0.6942  0.6124  0.1180
  116MPD2     H 1808   3.213   1.399  17.626  0.6641 -0.2968  0.9631
  116MPD2    H1 1809   3.037   1.688   0.149 -0.2664 -1.2758  2.0686
  116MPD2    H2 1810   2.838   1.329   0.062 -1.8253  1.9862  0.8349
  116MPD2    H3 1811   2.859   1.553   0.175 -0.4277  1.1815  0.0727
  116MPD2     N 1812   3.266   1.632  17.737  0.1970 -0.2422 -0.1076
  116MPD2    H5 1813   3.265   1.726   0.035 -0.6387  0.0036 -0.7306
  116MPD2    N1 1814   3.015   1.239  17.636 -0.4045  0.0314 -0.1193
  116MPD2    H7 1815   2.927   1.192  17.650  0.6173 -2.0144 -0.5670
  117TMC2    C1 1816   2.666   2.752  14.089 -0.0920  0.2912 -0.5433
  117TMC2    C2 1817   2.750   2.712  14.186  0.5815  0.3333 -0.4372
  117TMC2    C3 1818   2.831   2.805  14.239  0.6319  0.2780  0.1232
  117TMC2    C4 1819   2.668   2.876  14.031 -0.1783 -0.5981 -0.8925
  117TMC2    C5 1820   2.751   2.969  14.087  0.6868  0.0808 -0.2859
  117TMC2    C6 1821   2.832   2.937  14.199 -0.3729  0.0725  0.0366
  117TMC2     C 1822   2.564   2.656  14.061 -0.2415 -0.3193  0.1642
  117TMC2     O 1823   2.580   2.539  14.091  0.3781 -0.6385 -0.4882
  117TMC2     H 1824   2.745   2.610  14.222 -1.4815 -0.5728 -3.3204
  117TMC2    H1 1825   2.595   2.904  13.955  1.2477  1.2545 -1.5796
  117TMC2    H2 1826   2.907   3.000  14.245 -0.2124  0.0003 -0.1294
  117TMC2    C7 1827   2.757   3.106  14.034  0.8675 -0.1065  0.0476
  117TMC2    C8 1828   2.905   2.773  14.351  0.3044 -0.6127  0.2906
  117TMC2    O1 1829   2.851   3.170  14.083  0.2773  0.0521  0.1422
  117TMC2    O2 1830   2.951   2.662  14.350  0.2157  0.1274  0.1160
  117TMC2    O5 1831   2.828   2.821  14.456  0.8180  0.2591 -0.0002
  117TMC2    H5 1832   2.775   2.901  14.439  2.4773  1.3667  0.0292
  118MPD2     C 1833   2.538   3.272  13.793 -0.2512  0.8604  0.5328
  118MPD2    C1 1834   2.653   3.260  13.867 -0.2561 -0.0884  0.1817
  118MPD2    C2 1835   2.752   3.358  13.876  0.6291 -0.0378 -1.1128
  118MPD2    C3 1836   2.724   3.479  13.819 -0.0209  0.4716  0.8260
  118MPD2    C4 1837   2.607   3.499  13.744 -0.2958 -0.1073  0.4131
  118MPD2    C5 1838   2.521   3.387  13.729 -0.3485 -0.1643  0.4179
  118MPD2     H 1839   2.847   3.340  13.924  0.0038  0.5433  0.3424
  118MPD2    H1 1840   2.591   3.587  13.683  2.1567 -0.2164 -0.3768
  118MPD2    H2 1841   2.463   3.194  13.784  1.2327 -0.3877 -1.0355
  118MPD2    H3 1842   2.427   3.398  13.675 -0.5113  0.6717  0.8768
  118MPD2     N 1843   2.816   3.585  13.819 -0.2093  0.1087 -0.3154
  118MPD2    H5 1844   2.795   3.656  13.750 -1.9398 -0.9784 -0.9149
  118MPD2    N1 1845   2.666   3.136  13.933 -0.8910  0.1295 -0.1120
  118MPD2    H7 1846   2.589   3.071  13.922 -1.6886  0.9563  0.4856
  119TMC2    C1 1847   0.399   4.167  13.037  0.2116  0.1532  0.2784
  119TMC2    C2 1848   0.416   4.093  12.922 -0.5030  0.0423 -0.6180
  119TMC2    C3 1849   0.304   4.047  12.862  0.6277 -0.1865  0.3835
  119TMC2    C4 1850   0.279   4.159  13.103 -0.9897  0.5008  0.4910
  119TMC2    C5 1851   0.184   4.081  13.051  0.7750  0.5683 -0.8506
  119TMC2    C6 1852   0.194   4.015  12.936 -1.0634 -0.3058 -0.0497
  119TMC2     C 1853   0.514   4.184  13.123 -0.2968  0.2122  0.3710
  119TMC2     O 1854   0.491   4.209  13.241 -0.3118  0.2888  0.7603
  119TMC2     H 1855   0.507   4.097  12.864  0.8035 -0.6688  1.3902
  119TMC2    H1 1856   0.268   4.225  13.188 -1.5280 -2.1896  2.5221
  119TMC2    H2 1857   0.122   3.947  12.890 -1.1230 -0.2999  0.0344
  119TMC2    C7 1858   0.073   4.041  13.130 -0.0372  0.0473 -0.1673
  119TMC2    C8 1859   0.324   3.982  12.741 -0.0779  0.4623 -0.3505
  119TMC2    O1 1860   4.720   3.987  13.069 -0.7161  0.1157  0.2842
  119TMC2    O2 1861   0.388   3.876  12.733 -0.5052 -0.0232  0.4916
  119TMC2    O5 1862   0.249   4.031  12.640 -0.1959 -0.4707  0.2831
  119TMC2    H5 1863   0.224   4.124  12.658  0.8578 -0.2553  0.5763
  120MPD2     C 1864   0.964   4.004  13.247  0.0475  0.0478 -0.7334
  120MPD2    C1 1865   0.884   4.087  13.317  0.4681 -0.4075 -0.2012
  120MPD2    C2 1866   0.778   4.160  13.253  0.2818 -0.6786 -0.5526
  120MPD2    C3 1867   0.750   4.138  13.120  0.4873  0.1001  0.4316
  120MPD2    C4 1868   0.833   4.056  13.049  0.3814 -0.4617 -0.1213
  120MPD2    C5 1869   0.935   3.983  13.119  0.0179  0.2233 -0.0285
  120MPD2     H 1870   0.711   4.223  13.311 -0.4283 -0.7285 -1.3181
  120MPD2    H1 1871   0.816   4.023  12.947  0.7438  1.2952 -0.7428
  120MPD2    H2 1872   1.044   3.957  13.303 -0.4982  0.2596  0.2280
  120MPD2    H3 1873   0.992   3.909  13.065 -0.2071  0.7849 -1.0265
  120MPD2     N 1874   0.630   4.179  13.056 -0.0893 -0.1560 -0.5720
  120MPD2    H5 1875   0.622   4.161  12.956  1.0508  1.2652 -0.9165
  120MPD2    N1 1876   0.915   4.106  13.455 -0.0309  0.2582  0.1947
  120MPD2    H7 1877   1.006   4.081  13.492  0.0901  0.0795 -0.2253
  121TMC2    C1 1878   2.268   1.214  14.297  0.3829 -0.3213  0.0248
  121TMC2    C2 1879   2.215   1.265  14.415 -0.3667  0.4251 -0.1656
  121TMC2    C3 1880   2.085   1.278  14.431  0.3753  0.2402  0.6074
  121TMC2    C4 1881   2.184   1.164  14.201 -0.5605 -0.5902 -0.1819
  121TMC2    C5 1882   2.049   1.177  14.221  1.0087  0.2469  0.4348
  121TMC2    C6 1883   1.997   1.231  14.337 -0.5606 -0.5437 -0.3197
  121TMC2     C 1884   2.385   1.289  14.254 -0.3664  0.3040  0.5383
  121TMC2     O 1885   2.465   1.317  14.344 -0.1548 -0.4628 -0.3036
  121TMC2     H 1886   2.277   1.312  14.490  0.3297  2.2705 -1.9125
  121TMC2    H1 1887   2.220   1.114  14.111  0.4101 -1.1485  0.5141
  121TMC2    H2 1888   1.894   1.234  14.371 -0.1708 -3.2145  1.1167
  121TMC2    C7 1889   1.959   1.144  14.120  0.1337  0.3813 -0.0477
  121TMC2    C8 1890   2.031   1.351  14.540 -0.3374  0.0346 -0.6836
  121TMC2    O1 1891   1.993   1.067  14.031 -0.7621 -0.2179 -0.2670
  121TMC2    O2 1892   2.099   1.363  14.638  0.0243  0.0117 -0.8190
  121TMC2    O5 1893   1.968   1.451  14.475 -0.9291 -0.5701 -0.2982
  121TMC2    H5 1894   1.914   1.433  14.394 -1.8257  0.7710 -0.0009
  122MPD2     C 1895   2.600   1.460  14.118  0.1148  0.2578 -0.3497
  122MPD2    C1 1896   2.472   1.418  14.064  0.1536  0.3878 -0.4180
  122MPD2    C2 1897   2.446   1.458  13.928  1.0743  0.0231  0.4633
  122MPD2    C3 1898   2.544   1.536  13.863  0.4189 -0.1111 -0.3631
  122MPD2    C4 1899   2.654   1.578  13.919  0.2029  0.4686  0.5185
  122MPD2    C5 1900   2.681   1.547  14.050 -0.2286 -0.3423 -0.2199
  122MPD2     H 1901   2.355   1.421  13.882  0.5382  2.1552 -0.2046
  122MPD2    H1 1902   2.715   1.660  13.882  0.3688 -0.1404 -0.5520
  122MPD2    H2 1903   2.621   1.439  14.222  1.5273  0.6841 -0.5471
  122MPD2    H3 1904   2.769   1.594  14.093 -0.2152 -0.6772  0.1197
  122MPD2     N 1905   2.526   1.572  13.721  0.1485 -0.5476  0.0889
  122MPD2    H5 1906   2.596   1.635  13.683 -2.2979  1.6291 -0.8175
  122MPD2    N1 1907   2.377   1.334  14.124 -0.0017 -0.0076 -0.9359
  122MPD2    H7 1908   2.302   1.300  14.065 -1.6090  3.2578 -0.7988
  123TMC2    C1 1909   1.564   3.397   9.317 -0.1342  0.3193  0.2527
  123TMC2    C2 1910   1.694   3.405   9.291 -0.2501  0.0600  1.1712
  123TMC2    C3 1911   1.768   3.287   9.299 -0.3320 -0.5266 -0.5025
  123TMC2    C4 1912   1.500   3.280   9.358  0.2605 -0.1942 -0.1268
  123TMC2    C5 1913   1.579   3.168   9.360 -0.2263  0.5803  0.3397
  123TMC2    C6 1914   1.712   3.170   9.340  0.0959 -0.0581 -0.9094
  123TMC2     C 1915   1.497   3.523   9.320  0.1065  0.0464  0.7184
  123TMC2     O 1916   1.527   3.609   9.237  0.0624 -0.2425  0.2695
  123TMC2     H 1917   1.734   3.506   9.284  0.4531 -0.3467 -0.6626
  123TMC2    H1 1918   1.394   3.288   9.378 -0.1307 -2.3529 -1.4018
  123TMC2    H2 1919   1.776   3.083   9.348 -0.2105 -0.0809  1.2926
  123TMC2    C7 1920   1.503   3.051   9.414  0.5401  0.0231 -0.4490
  123TMC2    C8 1921   1.908   3.301   9.322 -0.3943  0.1147  0.4034
  123TMC2    O1 1922   1.392   3.078   9.461 -0.6238  0.0986 -0.3117
  123TMC2    O2 1923   1.967   3.217   9.391  0.0020 -0.7040  0.7028
  123TMC2    O5 1924   1.955   3.390   9.232 -0.1568 -0.3668  0.1532
  123TMC2    H5 1925   1.882   3.423   9.174  0.3841  3.3851  1.5960
  124MPD2     C 1926   1.050   3.768   9.438 -0.2043  0.2793  0.1695
  124MPD2    C1 1927   1.055   3.642   9.494  0.8661  0.2024 -0.4981
  124MPD2    C2 1928   1.172   3.556   9.481 -0.2255 -0.1897  0.0819
  124MPD2    C3 1929   1.270   3.607   9.407 -0.3721  0.4305  0.1093
  124MPD2    C4 1930   1.262   3.721   9.331 -0.3818  0.4188 -0.1039
  124MPD2    C5 1931   1.152   3.803   9.346  0.2143  0.0289 -0.5255
  124MPD2     H 1932   1.180   3.464   9.538  1.2724 -0.9037 -1.2997
  124MPD2    H1 1933   1.353   3.760   9.286  0.1313  0.8399  1.2893
  124MPD2    H2 1934   0.968   3.835   9.460 -1.2881 -1.6806  2.1251
  124MPD2    H3 1935   1.156   3.900   9.298 -1.9311 -1.7381 -4.2975
  124MPD2     N 1936   1.384   3.518   9.401  0.1379 -0.0400 -0.1639
  124MPD2    H5 1937   1.368   3.438   9.461  2.4272  0.9862  1.8126
  124MPD2    N1 1938   0.951   3.621   9.581  0.0623  0.4212  0.3424
  124MPD2    H7 1939   0.874   3.686   9.589  0.2411  0.5822  0.7615
  125TMC2    C1 1940   1.219   0.830   9.218  0.0618 -0.0881 -0.4444
  125TMC2    C2 1941   1.277   0.708   9.193 -0.2013  0.0196 -0.9002
  125TMC2    C3 1942   1.412   0.702   9.171  0.0236  0.3041 -0.4476
  125TMC2    C4 1943   1.295   0.940   9.218  0.0877 -0.3349  0.1712
  125TMC2    C5 1944   1.426   0.933   9.182  0.2295  0.0565 -0.8596
  125TMC2    C6 1945   1.484   0.816   9.167  0.0848 -0.0952  0.1149
  125TMC2     C 1946   1.083   0.823   9.273 -0.1216 -0.7039 -0.1818
  125TMC2     O 1947   1.028   0.716   9.287 -0.3045  0.5350 -0.0380
  125TMC2     H 1948   1.211   0.622   9.193  2.1201 -1.7815 -1.4899
  125TMC2    H1 1949   1.260   1.041   9.232 -0.4628 -0.4204 -0.6239
  125TMC2    H2 1950   1.591   0.804   9.150 -0.0637  0.1018 -0.9297
  125TMC2    C7 1951   1.503   1.053   9.214  0.3655  0.0773  0.7478
  125TMC2    C8 1952   1.469   0.571   9.131 -0.3557 -0.7144 -0.1050
  125TMC2    O1 1953   1.458   1.140   9.285 -0.1650 -0.0908 -0.1971
  125TMC2    O2 1954   1.554   0.550   9.048  0.0650  0.0362  0.2529
  125TMC2    O5 1955   1.407   0.474   9.203  0.2634 -0.3875 -0.3478
  125TMC2    H5 1956   1.352   0.509   9.277 -0.1561 -0.3390 -0.6845
  126MPD1     C 1957   0.689   1.028   9.531  0.7239 -0.8502 -0.0472
  126MPD1    C1 1958   0.786   1.124   9.522  0.0778 -0.5757 -0.9231
  126MPD1    C2 1959   0.895   1.096   9.432 -0.0144 -0.6408 -0.8699
  126MPD1    C3 1960   0.912   0.969   9.376  0.3481  0.1448  0.3173
  126MPD1    C4 1961   0.810   0.877   9.379 -0.2499 -0.2890  0.4660
  126MPD1    C5 1962   0.697   0.913   9.454  0.1604  0.3979  0.3023
  126MPD1     H 1963   0.981   1.162   9.425 -1.0267  0.3822 -3.1926
  126MPD1    H1 1964   0.816   0.775   9.343 -1.2819 -0.5160  0.9224
  126MPD1    H2 1965   0.597   1.047   9.586  0.4576  0.6212 -0.9996
  126MPD1    H3 1966   0.620   0.836   9.458 -0.7820  1.4814  2.5585
  126MPD1     N 1967   1.037   0.945   9.316 -0.5080  0.2725  0.4769
  126MPD1    H5 1968   1.105   1.021   9.314 -0.0592 -0.0808  2.1134
  126MPD1    N1 1969   0.763   1.256   9.581 -0.0969  0.8238 -0.1939
  126MPD1    H6 1970   0.684   1.262   9.645  1.5210  0.7450  1.8230
  126MPD1    H7 1971   0.842   1.318   9.596 -0.7574  2.3593 -3.0191
  127TMC2    C1 1972   2.516   4.697   9.837  0.5205 -0.0784 -0.0067
  127TMC2    C2 1973   2.583   4.629   9.938 -0.3146  0.8482 -0.8481
  127TMC2    C3 1974   2.515   4.543  10.012  0.3612  0.2932 -0.6331
  127TMC2    C4 1975   2.396   4.657   9.790  0.4140  0.4243 -0.2737
  127TMC2    C5 1976   2.342   4.547   9.851 -0.3529 -0.5602 -1.1626
  127TMC2    C6 1977   2.399   4.487   9.967  0.2197  0.0975 -0.8026
  127TMC2     C 1978   2.588   0.080   9.773  0.2638  0.2651  0.3764
  127TMC2     O 1979   2.664   0.155   9.836 -0.0654 -0.5931 -0.0866
  127TMC2     H 1980   2.668   4.684   9.976 -0.8130  1.9802 -1.3707
  127TMC2    H1 1981   2.338   4.716   9.720  1.1416 -0.5344 -1.6921
  127TMC2    H2 1982   2.370   4.393  10.011 -0.1374  0.2302 -0.7541
  127TMC2    C7 1983   2.210   4.517   9.805 -0.1368 -0.6027  0.1471
  127TMC2    C8 1984   2.565   4.521  10.147 -0.1266  0.1454  0.3031
  127TMC2    O1 1985   2.179   4.554   9.690 -0.0026 -0.4764  0.1518
  127TMC2    O2 1986   2.683   4.558  10.173  1.0374  0.3058 -0.6378
  127TMC2    O5 1987   2.463   4.527  10.240 -0.3882 -0.2931 -0.0495
  127TMC2    H5 1988   2.378   4.541  10.192 -1.5752  0.9187  2.3861
  128MPD2     C 1989   2.544   0.137   9.415 -0.6121  0.0990 -0.4940
  128MPD2    C1 1990   2.598   0.157   9.537  0.4361 -0.5244  0.2674
  128MPD2    C2 1991   2.675   0.271   9.560 -0.4341  0.7322 -0.4429
  128MPD2    C3 1992   2.716   0.354   9.462  0.2302  0.8352  0.3529
  128MPD2    C4 1993   2.664   0.323   9.330  0.8382  0.7262  0.2379
  128MPD2    C5 1994   2.588   0.218   9.315  0.2721  0.1156 -0.5824
  128MPD2     H 1995   2.702   0.294   9.662  0.0357 -2.0643  0.0654
  128MPD2    H1 1996   2.675   0.384   9.241  0.4409  1.3614  0.6237
  128MPD2    H2 1997   2.494   0.048   9.377 -1.5327  0.0054  0.9564
  128MPD2    H3 1998   2.565   0.199   9.211 -1.1330  0.7045 -0.3853
  128MPD2     N 1999   2.797   0.467   9.486 -0.1393  0.1956 -0.7894
  128MPD2    H5 2000   2.800   0.495   9.583  0.8006 -1.9523 -0.1936
  128MPD2    N1 2001   2.551   0.073   9.638  0.2754  0.3809  0.0156
  128MPD2    H7 2002   2.486   4.734   9.611  0.6767  0.1100 -0.2019
  129TMC2    C1 2003   1.109   0.983   1.902 -0.9278 -0.3437 -0.5345
  129TMC2    C2 2004   1.228   0.938   1.952  0.4041  0.1401 -0.1638
  129TMC2    C3 2005   1.286   0.845   1.875  0.2996  0.3974  0.7256
  129TMC2    C4 2006   1.044   0.931   1.794 -0.0028 -1.0076  0.2000
  129TMC2    C5 2007   1.109   0.818   1.739  0.3932 -0.0802  0.0285
  129TMC2    C6 2008   1.232   0.777   1.778  0.5987 -0.2945  0.3573
  129TMC2     C 2009   1.061   1.111   1.948 -0.8142  0.0977 -0.7992
  129TMC2     O 2010   1.090   1.136   2.065 -0.3791 -0.1842  0.4611
  129TMC2     H 2011   1.275   0.993   2.032  0.7546 -1.8711  1.0144
  129TMC2    H1 2012   0.957   0.978   1.749  1.9923  3.8504  1.5065
  129TMC2    H2 2013   1.285   0.690   1.742 -0.5264 -0.5418 -0.7115
  129TMC2    C7 2014   1.033   0.748   1.638  0.2118  0.1614 -0.2058
  129TMC2    C8 2015   1.422   0.800   1.912 -0.0718 -0.1625  0.6387
  129TMC2    O1 2016   0.912   0.756   1.642  0.5366  0.7882  0.2058
  129TMC2    O2 2017   1.497   0.730   1.841  0.1163  0.5322  0.2965
  129TMC2    O5 2018   1.427   0.780   2.044  0.4939  0.3666  0.0866
  129TMC2    H5 2019   1.364   0.828   2.103 -0.0528  0.3748 -0.4996
  130MPD2     C 2020   0.841   1.290   2.015  0.1335  0.4279 -0.4470
  130MPD2    C1 2021   0.893   1.283   1.890 -0.0919  0.4622  0.7642
  130MPD2    C2 2022   0.844   1.365   1.792  0.1515  0.8385 -0.5009
  130MPD2    C3 2023   0.740   1.458   1.816  0.1465  0.0781 -0.2994
  130MPD2    C4 2024   0.696   1.475   1.948 -0.0080 -0.4938 -0.3963
  130MPD2    C5 2025   0.752   1.391   2.045 -0.4694 -0.3964  0.4782
  130MPD2     H 2026   0.882   1.350   1.691  1.0327  0.0228 -0.0377
  130MPD2    H1 2027   0.628   1.556   1.975  0.4012  0.0804 -1.0888
  130MPD2    H2 2028   0.878   1.229   2.097 -3.0974 -0.2419  0.5380
  130MPD2    H3 2029   0.715   1.405   2.146 -2.2552  0.1006 -0.2573
  130MPD2     N 2030   0.705   1.536   1.709 -0.6127  0.1732  0.0653
  130MPD2    H5 2031   0.762   1.543   1.625 -0.8637  2.3234  0.0753
  130MPD2    N1 2032   0.991   1.179   1.859 -0.3970 -0.0079 -0.2558
  130MPD2    H7 2033   1.014   1.159   1.762  1.7789  1.0212  0.0466
  131TMC2    C1 2034   0.839   4.441   9.848 -0.5116  0.7803  0.7769
  131TMC2    C2 2035   0.837   4.511   9.964  0.1671 -0.1617 -0.6223
  131TMC2    C3 2036   0.892   4.637   9.965  0.1632  0.0418  0.3350
  131TMC2    C4 2037   0.902   4.482   9.737 -0.1183 -0.0699  0.5580
  131TMC2    C5 2038   0.959   4.606   9.741  0.3374  0.0017  0.9104
  131TMC2    C6 2039   0.947   4.686   9.847  0.1881  0.2166  0.6803
  131TMC2     C 2040   0.795   4.307   9.850 -0.2804 -0.3917 -0.4969
  131TMC2     O 2041   0.860   4.222   9.786 -0.1745 -0.1270  0.0091
  131TMC2     H 2042   0.802   4.465  10.056 -0.2431 -0.2170 -0.8104
  131TMC2    H1 2043   0.891   4.424   9.647 -0.6673  0.6717  0.1516
  131TMC2    H2 2044   1.000   0.045   9.847 -1.5982  1.2178 -0.2433
  131TMC2    C7 2045   0.987   4.669   9.611 -0.0358 -0.0670  0.0666
  131TMC2    C8 2046   0.898   4.710  10.087  0.5316 -0.5689  1.0120
  131TMC2    O1 2047   1.008   4.598   9.512  0.1265  0.3218 -0.3037
  131TMC2    O2 2048   0.894   4.656  10.196 -0.1657  0.0963  0.2396
  131TMC2    O5 2049   0.840   0.097  10.062 -0.3195  0.0460  0.1451
  131TMC2    H5 2050   0.816   0.108   9.967  0.5798  2.2136  0.1781
  132MPD2     C 2051   0.492   4.192  10.010 -0.4496  0.4012  0.2537
  132MPD2    C1 2052   0.609   4.183   9.943  0.1225  0.8392  0.5595
  132MPD2    C2 2053   0.654   4.054   9.908 -0.6600 -0.1555 -0.1656
  132MPD2    C3 2054   0.573   3.942   9.942 -0.1064 -0.4302 -0.8018
  132MPD2    C4 2055   0.450   3.956   9.998  0.0783  0.2819  0.1565
  132MPD2    C5 2056   0.422   4.084  10.041  0.2649 -0.2999  0.2145
  132MPD2     H 2057   0.745   4.028   9.855 -0.7482 -0.5300 -0.1385
  132MPD2    H1 2058   0.381   3.881  10.035 -1.2566  0.0412 -2.8022
  132MPD2    H2 2059   0.437   4.284  10.025 -0.3014  0.2482  1.7207
  132MPD2    H3 2060   0.324   4.100  10.085  0.7515  3.0402  0.0380
  132MPD2     N 2061   0.624   3.822   9.893  0.2030  0.3785  0.0172
  132MPD2    H5 2062   0.704   3.837   9.833 -0.7023  1.5000 -0.9183
  132MPD2    N1 2063   0.670   4.302   9.911  0.4607 -0.2571  0.1776
  132MPD2    H7 2064   0.632   4.390   9.944 -0.1115  0.5092 -2.5244
  133TMC2    C1 2065   0.135   1.150   9.889  0.0407 -0.3095  0.4796
  133TMC2    C2 2066   0.173   1.282   9.879  0.2070  0.2049  0.5459
  133TMC2    C3 2067   0.157   1.359   9.992  0.2977  0.2231 -0.1461
  133TMC2    C4 2068   0.084   1.105  10.011 -0.0122 -0.3449 -0.1751
  133TMC2    C5 2069   0.077   1.184  10.122 -0.3569 -0.8549  0.6474
  133TMC2    C6 2070   0.110   1.315  10.109  0.4046  0.0792  0.1149
  133TMC2     C 2071   0.135   1.055   9.784 -0.3711  0.0596 -0.0380
  133TMC2     O 2072   0.064   0.955   9.803  0.5348  0.4527  0.6623
  133TMC2     H 2073   0.192   1.327   9.782  0.3149 -1.4104 -0.1780
  133TMC2    H1 2074   0.067   1.001  10.034  0.8052 -0.6865 -1.1490
  133TMC2    H2 2075   0.106   1.389  10.188 -0.8022 -1.2943  1.3153
  133TMC2    C7 2076   0.077   1.124  10.253  0.6680 -0.0734  0.3759
  133TMC2    C8 2077   0.205   1.498   9.973  1.0652  0.1981  0.1608
  133TMC2    O1 2078   0.088   1.002  10.263  0.2398  0.4704 -0.1245
  133TMC2    O2 2079   0.192   1.561   9.869  0.1989 -0.9329 -0.0244
  133TMC2    O5 2080   0.285   1.542  10.073  0.4889 -0.4729  0.3266
  133TMC2    H5 2081   0.286   1.490  10.156 -0.3894  2.0134  1.9015
  134MPD2     C 2082   0.339   1.062   9.473  0.0008  0.1063 -0.4803
  134MPD2    C1 2083   0.229   1.038   9.556  0.0187  0.2630 -0.3493
  134MPD2    C2 2084   0.125   0.959   9.503  0.2390 -0.2134 -0.1228
  134MPD2    C3 2085   0.135   0.912   9.373  0.6418  0.2082 -0.7258
  134MPD2    C4 2086   0.253   0.918   9.303 -0.6580 -0.3418  0.8957
  134MPD2    C5 2087   0.352   0.998   9.353  0.7621  0.1511  0.2719
  134MPD2     H 2088   0.034   0.952   9.561 -0.4993  1.5137 -1.0714
  134MPD2    H1 2089   0.274   0.872   9.207  1.5520  1.6782  0.3994
  134MPD2    H2 2090   0.416   1.131   9.506 -1.3312  1.5081 -0.2733
  134MPD2    H3 2091   0.444   1.012   9.297  0.2310 -1.9870 -1.1577
  134MPD2     N 2092   0.025   0.841   9.316 -0.0740  0.4572  0.8260
  134MPD2    H5 2093   0.044   0.780   9.237 -0.7779 -0.5002  1.3908
  134MPD2    N1 2094   0.232   1.089   9.688  0.3608  0.0146  0.3671
  134MPD2    H7 2095   0.309   1.152   9.710  1.6807 -1.8768  1.0772
  135TMC2    C1 2096   1.494   1.580   9.970  0.3794 -0.9704  0.3592
  135TMC2    C2 2097   1.357   1.597   9.958 -0.4646 -0.6968  0.0752
  135TMC2    C3 2098   1.276   1.526  10.042  0.2502  0.4823 -0.5215
  135TMC2    C4 2099   1.539   1.498  10.063 -0.3710  0.6375  0.7180
  135TMC2    C5 2100   1.454   1.430  10.147 -0.3188 -0.4468  0.0832
  135TMC2    C6 2101   1.326   1.448  10.142  0.1429 -0.2311  0.2310
  135TMC2     C 2102   1.585   1.639   9.879  0.2625  0.3135  0.4506
  135TMC2     O 2103   1.697   1.649   9.925  0.1621 -0.1522  0.0078
  135TMC2     H 2104   1.314   1.661   9.882  0.4129  0.4915  0.5746
  135TMC2    H1 2105   1.646   1.488  10.071 -0.3447  2.4289  2.4606
  135TMC2    H2 2106   1.255   1.402  10.210 -0.5998 -0.1216 -0.4702
  135TMC2    C7 2107   1.509   1.365  10.263 -0.2041  0.2971  0.6526
  135TMC2    C8 2108   1.135   1.530  10.007  1.0108 -0.0391  0.5381
  135TMC2    O1 2109   1.630   1.374  10.280 -0.4502  0.2394 -0.1573
  135TMC2    O2 2110   1.095   1.604   9.921  0.3888  0.1027  0.0425
  135TMC2    O5 2111   1.081   1.409  10.035  0.2874 -0.0049  0.6560
  135TMC2    H5 2112   1.144   1.346  10.076  1.9092  0.5794 -0.8997
  136MPD2     C 2113   1.768   1.726   9.656  0.4256 -0.4231 -0.7463
  136MPD2    C1 2114   1.635   1.690   9.640 -0.3107 -0.3990  0.2772
  136MPD2    C2 2115   1.587   1.663   9.509  0.1558 -0.4346  0.5204
  136MPD2    C3 2116   1.677   1.651   9.404  0.1650 -0.5644  0.8355
  136MPD2    C4 2117   1.805   1.695   9.419  0.6221 -0.6758  0.1204
  136MPD2    C5 2118   1.844   1.737   9.545  0.1788  0.1786  0.0753
  136MPD2     H 2119   1.482   1.643   9.491 -0.3957  2.8802  0.1071
  136MPD2    H1 2120   1.874   1.701   9.335 -0.1869 -0.0812 -0.5021
  136MPD2    H2 2121   1.802   1.744   9.757  1.8274  1.5454 -1.5663
  136MPD2    H3 2122   1.949   1.765   9.551  0.0031  0.8168  0.1855
  136MPD2     N 2123   1.638   1.600   9.273 -0.5225 -0.1080  0.1365
  136MPD2    H5 2124   1.705   1.620   9.199 -1.4525 -0.8168 -0.8821
  136MPD2    N1 2125   1.542   1.659   9.746 -0.1421 -0.2360  0.2400
  136MPD2    H7 2126   1.445   1.639   9.724 -0.2171  0.1506  0.2079
  137TMC2    C1 2127   1.936   0.720   9.443 -0.3220 -0.9951 -0.2392
  137TMC2    C2 2128   2.001   0.732   9.323 -0.4153  0.0361  0.1159
  137TMC2    C3 2129   2.019   0.857   9.279  0.1183  0.0054 -0.3832
  137TMC2    C4 2130   1.888   0.831   9.505  0.1502  0.0466 -0.4538
  137TMC2    C5 2131   1.915   0.952   9.459  0.2251 -0.0281  0.9547
  137TMC2    C6 2132   1.982   0.968   9.341  0.5874 -0.0623  0.0210
  137TMC2     C 2133   1.906   0.598   9.512 -0.0409 -0.4519 -0.1260
  137TMC2     O 2134   1.895   0.599   9.633  0.8705 -0.7198  0.1718
  137TMC2     H 2135   2.064   0.648   9.295 -0.0727  1.6148 -3.8887
  137TMC2    H1 2136   1.838   0.818   9.600  1.2125  2.7467  0.4760
  137TMC2    H2 2137   2.004   1.067   9.302  0.4545  0.7109  1.8887
  137TMC2    C7 2138   1.849   1.063   9.525  0.5630 -0.2923  0.8278
  137TMC2    C8 2139   2.094   0.873   9.154 -0.1246 -0.4935 -1.0705
  137TMC2    O1 2140   1.890   1.180   9.528  0.1915 -0.1967  0.2849
  137TMC2    O2 2141   2.085   0.796   9.059  0.2933 -0.1981 -0.6518
  137TMC2    O5 2142   2.185   0.975   9.174 -0.0496  0.0898 -0.4284
  137TMC2    H5 2143   2.182   1.016   9.263  0.0403 -1.4095  0.2660
  138MPD2     C 2144   1.789   0.284   9.378 -0.4835  0.1153 -0.0727
  138MPD2    C1 2145   1.838   0.363   9.478 -0.1351 -0.1534 -0.1968
  138MPD2    C2 2146   1.831   0.323   9.609 -0.0183 -0.8724 -0.4344
  138MPD2    C3 2147   1.782   0.198   9.656 -0.0446  0.3161 -0.0020
  138MPD2    C4 2148   1.731   0.122   9.552 -0.0857 -0.1940 -0.0876
  138MPD2    C5 2149   1.737   0.163   9.420 -0.6159 -0.4769  0.9436
  138MPD2     H 2150   1.878   0.385   9.684  0.2907 -1.8635  0.1874
  138MPD2    H1 2151   1.690   0.024   9.574 -0.1616 -0.0262  0.5117
  138MPD2    H2 2152   1.775   0.318   9.277 -0.2988 -1.4008 -0.6165
  138MPD2    H3 2153   1.685   0.098   9.350 -0.0162  0.7197 -0.6145
  138MPD2     N 2154   1.786   0.162   9.792 -0.5180 -0.4032  0.6987
  138MPD2    H5 2155   1.833   0.224   9.858  0.6044 -1.1916  0.6381
  138MPD2    N1 2156   1.884   0.489   9.433 -0.0742 -0.4241 -0.2790
  138MPD2    H7 2157   1.888   0.498   9.332 -0.5891  3.2580  0.0405
  139TMC2    C1 2158   1.976   3.563  13.362 -0.5454 -0.7324  0.0695
  139TMC2    C2 2159   1.974   3.567  13.224 -0.4182  0.1474  0.6834
  139TMC2    C3 2160   1.932   3.688  13.171  0.1173 -0.7270  0.2351
  139TMC2    C4 2161   1.953   3.668  13.441 -1.0389  0.5437  0.2412
  139TMC2    C5 2162   1.930   3.787  13.383 -0.4653 -0.0938  0.1430
  139TMC2    C6 2163   1.914   3.801  13.250  0.3721 -0.3178 -0.3800
  139TMC2     C 2164   2.000   3.434  13.420 -0.2015  0.8915 -0.5179
  139TMC2     O 2165   2.005   3.338  13.346  0.0463  0.2258  0.0280
  139TMC2     H 2166   1.982   3.477  13.164 -0.4945  0.2224  0.5601
  139TMC2    H1 2167   1.981   3.666  13.545  1.5871  0.5284 -0.4723
  139TMC2    H2 2168   1.881   3.896  13.209 -0.2640 -0.6818 -0.7113
  139TMC2    C7 2169   1.911   3.898  13.477 -0.4641  0.9641 -0.3226
  139TMC2    C8 2170   1.919   3.697  13.031  0.2599 -0.9265 -0.5580
  139TMC2    O1 2171   1.935   4.007  13.431 -0.0120  0.2019  0.2002
  139TMC2    O2 2172   1.846   3.779  12.977 -0.0178  0.3642  0.1951
  139TMC2    O5 2173   2.036   3.658  12.979  0.0276 -0.6693 -0.0331
  139TMC2    H5 2174   2.095   3.630  13.052  0.7239 -0.7903 -0.6407
  140MPD2     C 2175   2.086   3.327  13.779 -0.6937 -0.1723 -0.4520
  140MPD2    C1 2176   2.081   3.317  13.635 -0.2983  0.7274  0.2622
  140MPD2    C2 2177   2.154   3.211  13.581  0.1286  0.5431 -0.2299
  140MPD2    C3 2178   2.220   3.116  13.657 -0.0661 -0.0391  0.2977
  140MPD2    C4 2179   2.213   3.128  13.796  0.2950  0.6466  0.1468
  140MPD2    C5 2180   2.143   3.230  13.857  0.4905  0.3981 -0.6782
  140MPD2     H 2181   2.165   3.208  13.473  0.1999 -0.5217 -0.1894
  140MPD2    H1 2182   2.270   3.072  13.869 -0.9958  0.8214  1.2774
  140MPD2    H2 2183   2.034   3.402  13.837  1.8942  2.3973 -1.4732
  140MPD2    H3 2184   2.122   3.222  13.963 -1.5587 -0.0237 -1.1221
  140MPD2     N 2185   2.288   3.003  13.601 -0.3397  0.2127 -0.0417
  140MPD2    H5 2186   2.285   2.992  13.501 -1.7627  0.7355 -0.0515
  140MPD2    N1 2187   2.019   3.429  13.558  0.5773 -0.5233 -0.4531
  140MPD2    H7 2188   1.993   3.508  13.616 -1.4571 -2.2231  0.9377
  141TMC2    C1 2189   2.997   0.534  14.075 -0.3692  0.3732  0.1804
  141TMC2    C2 2190   3.004   0.670  14.106  0.1709 -0.3748  0.3771
  141TMC2    C3 2191   2.992   0.717  14.232 -0.1484  0.2513 -0.2627
  141TMC2    C4 2192   2.989   0.440  14.174 -0.1865  0.4421  0.0243
  141TMC2    C5 2193   2.987   0.493  14.299 -0.0337  0.2569 -0.1172
  141TMC2    C6 2194   2.985   0.627  14.331 -0.3712 -0.1594  0.0138
  141TMC2     C 2195   3.054   0.492  13.952 -0.9130 -0.6765 -0.2759
  141TMC2     O 2196   3.139   0.562  13.903 -0.3813 -0.8212  0.5471
  141TMC2     H 2197   3.006   0.728  14.014 -1.2839  1.4474  1.5067
  141TMC2    H1 2198   2.989   0.334  14.153  1.2325  0.6055 -0.7802
  141TMC2    H2 2199   2.976   0.670  14.430 -2.2975 -0.4855 -0.0193
  141TMC2    C7 2200   3.013   0.400  14.407 -0.4835  0.1088 -0.4479
  141TMC2    C8 2201   3.032   0.850  14.259 -0.0383  0.7340 -0.1762
  141TMC2    O1 2202   2.990   0.284  14.383 -0.1912  0.4078  0.2624
  141TMC2    O2 2203   3.078   0.884  14.365  0.2498 -0.3024 -0.1980
  141TMC2    O5 2204   2.973   0.926  14.161  0.3380 -0.5674 -0.4936
  141TMC2    H5 2205   2.928   0.878  14.088  0.2291  1.4191 -1.7561
  142TMC2    C1 2206   0.899   2.755   9.983 -0.0258  0.1074 -0.3417
  142TMC2    C2 2207   0.843   2.629   9.969  0.1252  0.2044  0.0206
  142TMC2    C3 2208   0.910   2.541   9.884  0.5997  0.2840 -0.4205
  142TMC2    C4 2209   1.018   2.788   9.927 -0.4441  0.6064 -0.5226
  142TMC2    C5 2210   1.083   2.699   9.838  0.7571 -0.8942 -0.1268
  142TMC2    C6 2211   1.026   2.572   9.817 -0.6233  0.6733  0.1921
  142TMC2     C 2212   0.843   2.830  10.097  0.5358 -0.9230 -0.4253
  142TMC2     O 2213   0.739   2.794  10.150  0.0407 -0.2402  0.8236
  142TMC2     H 2214   0.742   2.619  10.007 -0.3592 -0.1002 -1.3496
  142TMC2    H1 2215   1.044   2.893   9.932  0.8278  0.2647  0.1133
  142TMC2    H2 2216   1.068   2.509   9.740 -1.7649 -0.1691  0.2714
  142TMC2    C7 2217   1.186   2.746   9.750 -0.6429 -0.8529 -0.3101
  142TMC2    C8 2218   0.831   2.437   9.815  0.6039  0.1450 -0.6512
  142TMC2    O1 2219   1.176   2.867   9.732  0.1602  0.0768  0.0050
  142TMC2    O2 2220   0.849   2.423   9.694 -0.0883  1.1854 -0.1813
  142TMC2    O5 2221   0.738   2.386   9.898 -0.0220 -0.5024  0.3100
  142TMC2    H5 2222   0.747   2.414   9.992  0.0603 -1.3820  0.5665
  143MPD2     C 2223   0.852   3.192  10.463  0.1129  0.1570 -0.0441
  143MPD2    C1 2224   0.756   3.103  10.433 -0.2693  0.4128 -1.2463
  143MPD2    C2 2225   0.770   3.019  10.326 -0.0446 -0.2475 -0.0985
  143MPD2    C3 2226   0.882   3.020  10.247 -0.1611  0.7373 -0.2078
  143MPD2    C4 2227   0.978   3.117  10.282  0.1943  0.5236 -0.1470
  143MPD2    C5 2228   0.958   3.205  10.378 -0.0748 -0.0358  0.3536
  143MPD2     H 2229   0.703   2.933  10.327  2.8910 -2.5338  1.8922
  143MPD2    H1 2230   1.069   3.131  10.225 -1.8337  2.6078 -2.8674
  143MPD2    H2 2231   0.849   3.251  10.554  1.2387 -0.1093  0.1667
  143MPD2    H3 2232   1.039   3.267  10.414 -0.2381 -0.1431  0.9029
  143MPD2     N 2233   0.921   2.919  10.149 -0.7279  0.4952 -0.4800
  143MPD2    H5 2234   1.013   2.935  10.109 -0.7671  0.3783 -0.6180
  143MPD2    N1 2235   0.645   3.098  10.518  0.4671  0.1932  0.1188
  143MPD2    H7 2236   0.649   3.162  10.596 -0.4620 -2.8944  2.7117
  144TMC2    C1 2237   3.371   2.729   0.889  0.0226 -0.2609  0.0245
  144TMC2    C2 2238   3.418   2.620   0.820  0.2338 -0.1926  0.7191
  144TMC2    C3 2239   3.543   2.575   0.843 -0.3024  0.0391  0.1903
  144TMC2    C4 2240   3.446   2.798   0.979 -0.5287 -0.4592  0.1734
  144TMC2    C5 2241   3.572   2.752   0.987  0.9749  0.1933  0.2088
  144TMC2    C6 2242   3.624   2.637   0.930  0.4299  0.4429  0.9474
  144TMC2     C 2243   3.249   2.798   0.839  0.2715  0.6925  0.9950
  144TMC2     O 2244   3.210   2.757   0.730 -0.2931  0.0107 -0.5673
  144TMC2     H 2245   3.362   2.569   0.742  0.0001  0.3391  0.5378
  144TMC2    H1 2246   3.400   2.848   1.064 -4.5698 -2.0065 -1.1193
  144TMC2    H2 2247   3.724   2.609   0.961  0.5297 -0.4068 -0.1565
  144TMC2    C7 2248   3.651   2.819   1.094 -0.0643  0.6554 -0.6004
  144TMC2    C8 2249   3.563   2.449   0.782  0.4538 -0.0421  0.0659
  144TMC2    O1 2250   3.764   2.776   1.114  0.0879 -0.7700 -0.3171
  144TMC2    O2 2251   3.477   2.367   0.755 -0.6168  0.3220 -0.0476
  144TMC2    O5 2252   3.685   2.411   0.817  0.4894  0.3066  0.0060
  144TMC2    H5 2253   3.751   2.483   0.829 -1.5631  2.1083  0.4798
  145MPD2     C 2254   2.801   3.034   0.920  0.1265  0.0165  0.1931
  145MPD2    C1 2255   2.855   2.976   0.813  0.1312  0.5807  0.1639
  145MPD2    C2 2256   2.979   2.922   0.822  0.1820  0.4697 -0.1860
  145MPD2    C3 2257   3.060   2.933   0.934 -0.7802  0.4256 -0.4096
  145MPD2    C4 2258   3.001   2.996   1.035  0.3133 -0.7403  0.4067
  145MPD2    C5 2259   2.874   3.045   1.032  0.1129  0.4262  0.1901
  145MPD2     H 2260   3.005   2.857   0.739 -4.7651 -0.4053 -1.0505
  145MPD2    H1 2261   3.056   3.021   1.125 -1.0874  1.3681  0.6947
  145MPD2    H2 2262   2.698   3.068   0.929  0.2530  1.2477 -2.8920
  145MPD2    H3 2263   2.839   3.090   1.125  0.0363 -0.0367  0.3817
  145MPD2     N 2264   3.189   2.880   0.934 -0.5533  0.1223 -0.0476
  145MPD2    H5 2265   3.246   2.913   1.011  1.7278 -0.7492 -1.3541
  145MPD2    N1 2266   2.781   2.958   0.689  0.1794 -0.1278  0.2727
  145MPD2    H7 2267   2.838   2.939   0.606  1.4137 -0.2707  1.1496
  146TMC2    C1 2268   0.223   0.950  12.442 -0.3545  0.4920  0.3143
  146TMC2    C2 2269   0.163   0.931  12.319  0.0467  0.3998  0.1911
  146TMC2    C3 2270   0.232   0.866  12.223 -0.0216  0.6079  0.4618
  146TMC2    C4 2271   0.348   0.900  12.471 -0.3797  1.2815 -0.0793
  146TMC2    C5 2272   0.422   0.852  12.363 -0.3080 -0.4054  0.2627
  146TMC2    C6 2273   0.366   0.830  12.245  0.2461  0.5547 -0.0616
  146TMC2     C 2274   0.170   1.047  12.522 -0.6834 -0.5100 -0.0564
  146TMC2     O 2275   0.096   1.126  12.460 -0.3714  0.0643 -0.1905
  146TMC2     H 2276   0.064   0.970  12.301  0.2863  0.4610 -0.9989
  146TMC2    H1 2277   0.394   0.914  12.569 -0.2198  0.2556 -0.0105
  146TMC2    H2 2278   0.417   0.797  12.155  1.6782  0.3567  0.8271
  146TMC2    C7 2279   0.554   0.784  12.368  0.2453  0.2990  0.3849
  146TMC2    C8 2280   0.179   0.836  12.085 -0.5122 -0.4750 -0.5445
  146TMC2    O1 2281   0.598   0.723  12.272  0.3423 -0.2918  0.2795
  146TMC2    O2 2282   0.247   0.860  11.987  0.2494  0.4489  0.4404
  146TMC2    O5 2283   0.048   0.859  12.095 -0.4936 -0.2005  0.0358
  146TMC2    H5 2284   0.012   0.813  12.174 -1.7907  2.4816  0.9998
  147MPD2     C 2285   0.989   0.708  12.641  0.3514  0.3011  0.1645
  147MPD2    C1 2286   0.918   0.808  12.701 -0.6384  0.3396 -0.7919
  147MPD2    C2 2287   0.797   0.842  12.645 -0.5457 -0.2892 -0.4105
  147MPD2    C3 2288   0.748   0.785  12.530 -0.2799 -0.0518 -0.3123
  147MPD2    C4 2289   0.826   0.686  12.466 -0.5895 -1.0854 -0.6001
  147MPD2    C5 2290   0.946   0.656  12.525  0.4400  0.0637 -0.0476
  147MPD2     H 2291   0.735   0.915  12.695  2.0504  0.5726  1.5332
  147MPD2    H1 2292   0.792   0.631  12.379  0.0066 -0.6441 -1.1105
  147MPD2    H2 2293   1.092   0.685  12.669  0.0685  1.3871  2.0595
  147MPD2    H3 2294   1.017   0.593  12.473  0.5853 -1.8821  2.5493
  147MPD2     N 2295   0.623   0.831  12.479  0.1406 -0.3121  0.5539
  147MPD2    H5 2296   0.578   0.902  12.536  1.3309 -0.7283  2.0206
  147MPD2    N1 2297   0.981   0.879  12.805 -0.3873 -0.7437  0.2787
  147MPD2    H7 2298   1.065   0.843  12.848 -0.4648 -1.3128 -0.0422
  148TMC2    C1 2299   0.143   0.045  10.475 -0.1193 -0.6230  0.0880
  148TMC2    C2 2300   0.206   0.112  10.576  0.3161  0.0982 -0.7304
  148TMC2    C3 2301   0.322   0.053  10.628  1.0253 -0.6043 -0.1661
  148TMC2    C4 2302   0.203   4.678  10.413  0.0998 -0.0362 -0.0722
  148TMC2    C5 2303   0.322   4.633  10.461 -0.0782 -0.8273  0.0235
  148TMC2    C6 2304   0.383   4.677  10.572  0.3563  0.4581 -0.2468
  148TMC2     C 2305   0.003   0.078  10.453 -0.1591  0.4224  0.1890
  148TMC2     O 2306   4.710   0.188  10.491  0.0340 -0.0247 -0.0007
  148TMC2     H 2307   0.170   0.199  10.628 -1.1805 -0.3219 -1.0732
  148TMC2    H1 2308   0.147   4.620  10.341 -2.2032 -0.3421  1.9510
  148TMC2    H2 2309   0.463   4.622  10.619  0.3140  0.8604  0.2915
  148TMC2    C7 2310   0.357   4.498  10.418 -0.4045  0.3666 -1.1704
  148TMC2    C8 2311   0.362   0.084  10.764 -0.4568  0.2887 -0.2107
  148TMC2    O1 2312   0.268   4.426  10.374  0.0745 -0.5720 -0.1179
  148TMC2    O2 2313   0.484   0.103  10.787 -0.1399 -0.2080 -0.3770
  148TMC2    O5 2314   0.263   0.069  10.847  0.0774  0.9489 -0.0185
  148TMC2    H5 2315   0.179   0.028  10.817  0.5266 -0.2742  0.4084
  149MPD2     C 2316   4.450   0.110  10.367 -0.3309  0.5034 -0.3561
  149MPD2    C1 2317   4.519   4.723  10.380  0.2316  0.1705  0.2777
  149MPD2    C2 2318   4.458   4.612  10.342 -0.2006  0.2839 -0.2612
  149MPD2    C3 2319   4.325   4.612  10.304  0.6749 -0.1359 -0.8402
  149MPD2    C4 2320   4.261   4.730  10.294  0.1437  0.2491  0.4208
  149MPD2    C5 2321   4.320   0.114  10.328  0.2369  0.2592  0.7840
  149MPD2     H 2322   4.516   4.521  10.338 -0.0476  0.2621  2.2367
  149MPD2    H1 2323   4.159   4.735  10.258  0.4877  1.1507 -0.4232
  149MPD2    H2 2324   4.493   0.209  10.378 -0.4388  0.7826 -2.4412
  149MPD2    H3 2325   4.260   0.203  10.314 -0.3271 -0.6843 -2.9688
  149MPD2     N 2326   4.254   4.495  10.264 -0.1691 -0.1397 -0.0538
  149MPD2    H5 2327   4.162   4.515  10.225 -0.0639  1.2472  0.3873
  149MPD2    N1 2328   4.659   4.709  10.415 -0.0307 -0.1125 -0.1900
  149MPD2    H7 2329   4.707   4.620  10.408  0.4545  0.0768  0.6641
  150TMC2    C1 2330   2.299   4.141  12.106 -0.5758 -0.6871  0.6433
  150TMC2    C2 2331   2.314   4.192  11.982 -0.5893  0.4763  0.3684
  150TMC2    C3 2332   2.436   4.224  11.939  0.6297 -0.9655  0.0475
  150TMC2    C4 2333   2.405   4.131  12.187 -0.5611 -0.0912  0.9760
  150TMC2    C5 2334   2.532   4.160  12.145  0.0045 -0.3114  0.2427
  150TMC2    C6 2335   2.551   4.210  12.016 -0.2867  0.3503 -0.4596
  150TMC2     C 2336   2.180   4.065  12.140 -0.6272  0.4702  0.0207
  150TMC2     O 2337   2.169   4.029  12.250 -0.2037 -0.0948 -0.1608
  150TMC2     H 2338   2.232   4.188  11.911  0.3339  0.5981 -0.6922
  150TMC2    H1 2339   2.392   4.097  12.289 -0.9035 -1.4602  0.4751
  150TMC2    H2 2340   2.649   4.222  11.971 -0.2356  1.7023  0.0028
  150TMC2    C7 2341   2.648   4.180  12.232 -0.1988 -0.5887 -0.1607
  150TMC2    C8 2342   2.447   4.265  11.798  0.1904  0.2361 -0.3588
  150TMC2    O1 2343   2.728   4.264  12.193  0.4461  0.3070 -0.0540
  150TMC2    O2 2344   2.375   4.238  11.706 -0.4784 -0.2205 -0.3445
  150TMC2    O5 2345   2.552   4.344  11.782  0.3588  0.0236  0.2277
  150TMC2    H5 2346   2.600   4.361  11.865  0.8593 -1.0168  0.1467
  151MPD2     C 2347   1.742   3.812  12.035  0.3146  0.2060  0.2930
  151MPD2    C1 2348   1.775   3.886  11.919 -0.2338  0.4867  0.7740
  151MPD2    C2 2349   1.887   3.972  11.926 -0.0705  0.6617  0.1524
  151MPD2    C3 2350   1.967   3.967  12.043 -0.2313  0.6155 -0.7846
  151MPD2    C4 2351   1.931   3.893  12.155  0.4638  0.1071  0.1267
  151MPD2    C5 2352   1.817   3.820  12.150 -0.5657 -0.7248 -1.0452
  151MPD2     H 2353   1.923   4.023  11.837  2.1710  1.8388  1.7668
  151MPD2    H1 2354   1.984   3.878  12.248 -1.1867 -0.9826  0.8887
  151MPD2    H2 2355   1.653   3.751  12.040  0.1547  0.2821 -1.8285
  151MPD2    H3 2356   1.771   3.758  12.227  4.2364 -1.3811  1.3155
  151MPD2     N 2357   2.093   4.040  12.036  0.3141 -0.1505 -0.1213
  151MPD2    H5 2358   2.124   4.093  11.955 -0.0834 -0.8517 -0.7369
  151MPD2    N1 2359   1.689   3.870  11.808  0.5208 -0.3787  0.4333
  151MPD2    H7 2360   1.612   3.806  11.817 -0.3463  0.3650 -1.8231
  152TMC2    C1 2361   2.145   3.527  12.657 -0.0893  0.1347 -0.0208
  152TMC2    C2 2362   2.181   3.456  12.770  0.5541 -0.3452 -0.2772
  152TMC2    C3 2363   2.268   3.520  12.860 -0.1829 -0.0450 -0.2645
  152TMC2    C4 2364   2.196   3.648  12.633  0.5140  0.3746 -0.1331
  152TMC2    C5 2365   2.274   3.708  12.732  0.4566  0.2155 -0.1336
  152TMC2    C6 2366   2.321   3.643  12.846 -0.0459  0.6457 -0.1270
  152TMC2     C 2367   2.024   3.494  12.578  0.5505 -0.2752  0.0127
  152TMC2     O 2368   1.963   3.584  12.534 -0.5035  0.4388  0.0212
  152TMC2     H 2369   2.119   3.372  12.800  0.2840  0.8192  2.4362
  152TMC2    H1 2370   2.185   3.701  12.539 -0.5285  1.2523  0.5008
  152TMC2    H2 2371   2.361   3.691  12.934  1.1196 -0.4075 -0.0916
  152TMC2    C7 2372   2.308   3.852  12.711 -0.4573  0.1650  0.1135
  152TMC2    C8 2373   2.295   3.466  12.996  0.7921 -1.1495  0.4013
  152TMC2    O1 2374   2.307   3.898  12.599 -0.3041  0.5771 -0.1315
  152TMC2    O2 2375   2.238   3.518  13.093 -0.0652 -0.3992 -0.2766
  152TMC2    O5 2376   2.289   3.335  12.968  0.6198  0.3145  0.4471
  152TMC2    H5 2377   2.345   3.311  12.891 -0.9533  0.3075 -0.6850
  153MPD2     C 2378   1.883   3.146  12.539 -0.0058  0.3916  0.1471
  153MPD2    C1 2379   1.892   3.285  12.529 -0.4131  0.7045  0.1363
  153MPD2    C2 2380   1.779   3.352  12.485  0.1245  0.6876  0.1221
  153MPD2    C3 2381   1.661   3.289  12.452  0.0297 -0.3655  0.0935
  153MPD2    C4 2382   1.659   3.156  12.457 -0.4464 -0.0458  0.1625
  153MPD2    C5 2383   1.764   3.085  12.505 -0.5555  0.0737  0.3167
  153MPD2     H 2384   1.784   3.459  12.497  0.1325  0.3727  3.0433
  153MPD2    H1 2385   1.569   3.098  12.437 -0.7859  1.4586 -2.7710
  153MPD2    H2 2386   1.971   3.092  12.570 -0.0453  0.6288  0.6810
  153MPD2    H3 2387   1.744   2.978  12.509 -0.0440 -0.0367 -0.2049
  153MPD2     N 2388   1.551   3.369  12.432 -0.3327  0.7045 -0.3416
  153MPD2    H5 2389   1.560   3.470  12.435 -0.1483  0.6746 -0.0003
  153MPD2    N1 2390   2.004   3.357  12.579  0.7091 -0.2530 -0.1403
  153MPD2    H7 2391   2.079   3.301  12.621  0.7586  1.4636  2.0630
  154TMC2    C1 2392   2.991   4.638  17.674  0.2634 -0.6778  0.4862
  154TMC2    C2 2393   2.868   4.669  17.617 -0.3031 -0.4561  0.3696
  154TMC2    C3 2394   2.797   4.567  17.561 -0.3653  0.6056  0.1100
  154TMC2    C4 2395   3.052   4.518  17.648 -0.0433 -0.5076 -0.4533
  154TMC2    C5 2396   2.985   4.427  17.568 -0.1265  0.3956 -0.1504
  154TMC2    C6 2397   2.853   4.443  17.541  0.7858 -0.3432  0.7008
  154TMC2     C 2398   3.075   4.735   0.011  0.2497  0.8854 -0.1436
  154TMC2     O 2399   3.196   4.711   0.030  0.6488  0.0381  0.4354
  154TMC2     H 2400   2.829   0.034  17.629  1.1059 -0.0499  1.5478
  154TMC2    H1 2401   3.150   4.500  17.692  1.3130  0.6081 -3.0175
  154TMC2    H2 2402   2.798   4.354  17.512 -0.5662  1.1577 -1.3525
  154TMC2    C7 2403   3.046   4.314  17.517  0.7694 -0.3735 -0.1408
  154TMC2    C8 2404   2.665   4.603  17.524 -0.0918 -0.6573 -0.1870
  154TMC2    O1 2405   2.974   4.224  17.479  0.2922  0.0502  0.3245
  154TMC2    O2 2406   2.588   4.670  17.595 -0.4645  0.0924 -0.2384
  154TMC2    O5 2407   2.619   4.508  17.439 -0.4819  0.1457  0.4477
  154TMC2    H5 2408   2.694   4.478  17.384  0.7666  0.7180  1.8281
  155MPD2     C 2409   3.010   0.333   0.143  0.3982  0.1983  0.2200
  155MPD2    C1 2410   3.074   0.217   0.124 -0.1500  0.4817  0.0344
  155MPD2    C2 2411   3.187   0.197   0.200 -0.1194 -0.1863 -0.0550
  155MPD2    C3 2412   3.236   0.296   0.284  0.1452  0.1752 -0.1290
  155MPD2    C4 2413   3.172   0.415   0.294  0.1251 -0.2402 -0.9998
  155MPD2    C5 2414   3.058   0.430   0.220 -0.4047 -0.1358 -0.7201
  155MPD2     H 2415   3.246   0.106   0.203 -0.7834 -0.5921  0.6049
  155MPD2    H1 2416   3.199   0.498   0.358  0.8564  0.2613 -1.9495
  155MPD2    H2 2417   2.913   0.344   0.097  0.6583  1.2908 -0.0653
  155MPD2    H3 2418   2.986   0.509   0.232  1.8476  1.4375  2.5580
  155MPD2     N 2419   3.347   0.256   0.361  0.4401  0.7235 -0.3303
  155MPD2    H5 2420   3.394   0.172   0.327 -1.0843  1.3406 -3.9244
  155MPD2    N1 2421   3.013   0.122   0.043 -0.0852 -0.4410  0.4593
  155MPD2    H7 2422   2.916   0.136   0.016 -0.0052  0.5131  0.6747
  156TMC2    C1 2423   1.829   0.894  11.426 -0.3940 -0.2753  0.2767
  156TMC2    C2 2424   1.800   0.804  11.331  0.2636 -0.2274  0.3185
  156TMC2    C3 2425   1.727   0.845  11.224  0.5421 -0.0538  0.3107
  156TMC2    C4 2426   1.769   1.017  11.430  0.0997 -0.1221 -0.2635
  156TMC2    C5 2427   1.680   1.052  11.331 -0.2062 -0.2258 -0.2220
  156TMC2    C6 2428   1.670   0.970  11.218 -0.6096  0.1139  0.5286
  156TMC2     C 2429   1.935   0.862  11.515 -0.3173 -0.0757 -0.2440
  156TMC2     O 2430   2.001   0.762  11.499  0.4654 -0.6892  0.0756
  156TMC2     H 2431   1.850   0.707  11.332 -0.0327 -0.4024 -1.0884
  156TMC2    H1 2432   1.768   1.083  11.516 -1.4774 -1.6714  0.9099
  156TMC2    H2 2433   1.610   1.008  11.135 -1.8334 -0.8144  0.9763
  156TMC2    C7 2434   1.669   1.194  11.317  0.0572 -0.5479 -0.1241
  156TMC2    C8 2435   1.726   0.747  11.111  0.1385 -0.3603 -0.1978
  156TMC2    O1 2436   1.777   1.252  11.304  0.1674  0.3634  0.3100
  156TMC2    O2 2437   1.799   0.647  11.108  0.1370 -0.0356 -0.2516
  156TMC2    O5 2438   1.634   0.784  11.015 -0.4947 -0.5267 -0.2419
  156TMC2    H5 2439   1.571   0.848  11.053  0.0698 -1.0723  1.6288
  157MPD2     C 2440   2.076   0.813  11.768 -0.2233 -0.1757 -0.0291
  157MPD2    C1 2441   2.020   0.935  11.738 -0.1321 -0.3766  0.0292
  157MPD2    C2 2442   2.040   1.044  11.815  0.6297  0.4007 -0.1089
  157MPD2    C3 2443   2.117   1.045  11.929  0.0349  0.4799  0.8167
  157MPD2    C4 2444   2.181   0.929  11.946 -0.3581 -0.3926 -0.3944
  157MPD2    C5 2445   2.158   0.810  11.879  0.1554  0.3250 -0.1205
  157MPD2     H 2446   1.989   1.131  11.775  0.9332 -0.3323 -2.0922
  157MPD2    H1 2447   2.254   0.916  12.024 -1.1993 -3.1849 -0.0652
  157MPD2    H2 2448   2.071   0.716  11.719 -2.3862  0.8199 -1.7316
  157MPD2    H3 2449   2.197   0.715  11.916 -2.6364 -1.0900 -0.8053
  157MPD2     N 2450   2.131   1.162  12.011  0.9126  0.0359 -0.0487
  157MPD2    H5 2451   2.071   1.242  11.993 -1.5658 -1.1773  2.7218
  157MPD2    N1 2452   1.942   0.951  11.616  0.1557 -0.3385  0.3206
  157MPD2    H7 2453   1.882   1.033  11.613  0.1670 -0.4956 -3.3925
  158TMC2    C1 2454   2.860   0.366  13.225 -0.0103  0.1223 -0.2833
  158TMC2    C2 2455   2.958   0.337  13.133  0.2297  0.5618  0.9870
  158TMC2    C3 2456   2.929   0.263  13.022 -0.3494  0.2796  0.8376
  158TMC2    C4 2457   2.734   0.332  13.207 -0.2699 -0.0205 -0.3142
  158TMC2    C5 2458   2.705   0.263  13.096 -0.2965  0.4020  0.5903
  158TMC2    C6 2459   2.792   0.233  12.995  0.2928 -0.1781 -0.5489
  158TMC2     C 2460   2.896   0.479  13.322 -0.5321  0.3294  0.5140
  158TMC2     O 2461   2.981   0.557  13.283  0.3540 -0.3465  0.4139
  158TMC2     H 2462   3.057   0.381  13.137  0.1874  0.7532 -0.1074
  158TMC2    H1 2463   2.659   0.360  13.280  0.9047  0.3846  0.7299
  158TMC2    H2 2464   2.762   0.160  12.921  0.2522 -0.9650  0.2421
  158TMC2    C7 2465   2.567   0.246  13.066  0.6725 -0.0297 -0.7988
  158TMC2    C8 2466   3.025   0.238  12.921  0.5216  0.4505 -0.5673
  158TMC2    O1 2467   2.536   0.233  12.946 -0.6320 -0.3345  0.9841
  158TMC2    O2 2468   3.148   0.238  12.937  0.5674  0.2976 -0.2534
  158TMC2    O5 2469   2.961   0.215  12.805 -0.6570 -0.2896 -0.2768
  158TMC2    H5 2470   2.865   0.232  12.817 -0.6053 -1.2462  1.4150
  159MPD2     C 2471   2.821   0.764  13.739  0.3630  0.5076  0.0821
  159MPD2    C1 2472   2.748   0.651  13.760  0.1097 -0.7328 -0.8262
  159MPD2    C2 2473   2.750   0.553  13.659 -0.0311  0.7469 -0.9146
  159MPD2    C3 2474   2.801   0.578  13.535  0.4402 -0.3036 -0.8980
  159MPD2    C4 2475   2.859   0.701  13.513  0.3120  0.0693  0.0066
  159MPD2    C5 2476   2.868   0.787  13.617 -0.2405 -0.7165 -0.1121
  159MPD2     H 2477   2.700   0.460  13.683  0.7409 -0.0117 -2.2604
  159MPD2    H1 2478   2.909   0.731  13.421  0.8662 -1.2472 -0.1257
  159MPD2    H2 2479   2.837   0.836  13.818 -1.2249 -0.4322  1.2509
  159MPD2    H3 2480   2.922   0.881  13.607  1.1700 -1.6256 -0.9208
  159MPD2     N 2481   2.826   0.476  13.440 -0.5217 -0.0513  0.2878
  159MPD2    H5 2482   2.776   0.389  13.454  0.4504 -0.4741  1.1875
  159MPD2    N1 2483   2.684   0.620  13.883 -0.0994  0.0720 -0.3221
  159MPD2    H7 2484   2.636   0.531  13.885  2.0963 -1.0762  0.6703
  160TMC2    C1 2485   1.827   3.551   1.663 -0.0092 -1.0843  0.0871
  160TMC2    C2 2486   1.866   3.501   1.784 -0.2198  0.5545  0.0335
  160TMC2    C3 2487   1.967   3.414   1.786  0.2552  0.6414  0.0547
  160TMC2    C4 2488   1.892   3.519   1.547  0.0251 -0.3022  0.5471
  160TMC2    C5 2489   1.990   3.427   1.558  0.3202  0.0188 -0.4601
  160TMC2    C6 2490   2.025   3.370   1.678  0.9119 -0.3209 -0.1701
  160TMC2     C 2491   1.689   3.601   1.663  0.0342 -0.7224 -0.1869
  160TMC2     O 2492   1.627   3.552   1.752  0.8264  0.4464  0.0238
  160TMC2     H 2493   1.815   3.522   1.877  1.2839 -0.2030  1.0337
  160TMC2    H1 2494   1.858   3.553   1.450 -1.4601  3.5788  2.3960
  160TMC2    H2 2495   2.109   3.304   1.695 -0.3326 -1.4470  1.5698
  160TMC2    C7 2496   2.082   3.393   1.440  0.3164 -0.7187 -0.7868
  160TMC2    C8 2497   1.981   3.338   1.911  0.2871  0.0397  0.0911
  160TMC2    O1 2498   2.142   3.287   1.444 -0.0669 -0.1040 -0.1773
  160TMC2    O2 2499   1.891   3.337   1.995 -0.0519 -0.3627  0.1161
  160TMC2    O5 2500   2.111   3.315   1.937 -1.0015  0.2030  0.3899
  160TMC2    H5 2501   2.182   3.347   1.878 -0.8025 -0.9440  0.0045
  161MPD2     C 2502   1.405   3.652   1.607 -0.8219 -0.1190  0.2536
  161MPD2    C1 2503   1.506   3.702   1.531  0.0584 -1.1504  0.7869
  161MPD2    C2 2504   1.480   3.792   1.427  0.0497  0.0606 -0.6303
  161MPD2    C3 2505   1.351   3.845   1.409 -0.0017 -0.3631  1.2150
  161MPD2    C4 2506   1.255   3.794   1.494  0.0654 -0.1623  0.1736
  161MPD2    C5 2507   1.280   3.699   1.588 -0.4193  0.2308 -0.4616
  161MPD2     H 2508   1.549   3.827   1.351  0.9591  1.3908  0.8160
  161MPD2    H1 2509   1.153   3.831   1.487  0.1047 -0.1265 -0.2072
  161MPD2    H2 2510   1.415   3.580   1.688 -1.0035 -0.3088  0.1063
  161MPD2    H3 2511   1.202   3.677   1.661  0.6290  0.7779  0.8305
  161MPD2     N 2512   1.308   3.946   1.316 -0.3664  0.1150 -0.4115
  161MPD2    H5 2513   1.208   3.966   1.320 -0.1479  1.1486 -0.0545
  161MPD2    N1 2514   1.646   3.657   1.546  0.1289  0.0827 -0.0165
  161MPD2    H7 2515   1.699   3.686   1.464 -0.3916 -0.3368 -0.5012
  162TMC2    C1 2516   4.285   0.856   0.761  0.2105 -0.5473  0.6933
  162TMC2    C2 2517   4.204   0.757   0.816 -0.2176 -0.0013 -0.1110
  162TMC2    C3 2518   4.249   0.690   0.935 -0.1787  0.1697  0.6000
  162TMC2    C4 2519   4.409   0.878   0.808 -0.0162  0.0580  1.0560
  162TMC2    C5 2520   4.449   0.809   0.916  1.0455  0.2136 -0.4094
  162TMC2    C6 2521   4.371   0.715   0.982 -0.8269 -0.4950 -0.0272
  162TMC2     C 2522   4.284   0.858   0.613 -0.4673  0.3810 -0.1294
  162TMC2     O 2523   4.390   0.873   0.551 -0.1839 -0.5412 -0.1422
  162TMC2     H 2524   4.109   0.727   0.773  0.0446 -0.3087 -0.4794
  162TMC2    H1 2525   4.475   0.953   0.764  0.9145 -1.4530 -0.1435
  162TMC2    H2 2526   4.409   0.688   1.080 -0.0280 -1.3508 -0.5729
  162TMC2    C7 2527   4.572   0.857   0.982 -0.6684  0.8896  0.0652
  162TMC2    C8 2528   4.152   0.657   1.034  1.1912  0.7688 -0.5842
  162TMC2    O1 2529   4.594   0.976   0.965 -0.1488  0.2241 -0.9463
  162TMC2    O2 2530   4.035   0.675   1.008  0.0765 -0.0835  0.1016
  162TMC2    O5 2531   4.206   0.588   1.136 -0.1095  0.1634 -0.0480
  162TMC2    H5 2532   4.295   0.551   1.115 -0.0500  1.4346 -2.0365
  163MPD2     C 2533   4.080   0.667   0.183  0.2617 -0.4350 -0.4144
  163MPD2    C1 2534   4.212   0.709   0.212  0.4036  0.1775  0.4514
  163MPD2    C2 2535   4.237   0.761   0.337  0.8020 -0.4858  0.6654
  163MPD2    C3 2536   4.139   0.772   0.435  0.3769  0.0421 -0.3965
  163MPD2    C4 2537   4.013   0.729   0.405  0.0538  0.1356 -0.2137
  163MPD2    C5 2538   3.985   0.678   0.284  0.0548 -0.1882  0.7323
  163MPD2     H 2539   4.339   0.787   0.360  1.4761 -3.3268  0.9661
  163MPD2    H1 2540   3.935   0.731   0.480  0.7165 -1.0408  0.5132
  163MPD2    H2 2541   4.042   0.635   0.086  2.3939 -1.3982 -0.9354
  163MPD2    H3 2542   3.882   0.647   0.266  0.5371 -0.8872 -0.7698
  163MPD2     N 2543   4.169   0.807   0.566 -0.0011 -0.2882 -0.2162
  163MPD2    H5 2544   4.095   0.824   0.634  0.3293  1.0072 -0.1826
  163MPD2    N1 2545   4.315   0.697   0.111  0.4573 -0.0308  0.2467
  163MPD2    H7 2546   4.278   0.650   0.029 -1.6493 -0.6379  1.5435
  164TMC2    C1 2547   0.670   4.142  10.717  0.5243  0.5180 -0.4672
  164TMC2    C2 2548   0.780   4.221  10.699 -0.3557 -0.7355  0.7257
  164TMC2    C3 2549   0.759   4.358  10.719 -0.4726  0.2486 -0.0616
  164TMC2    C4 2550   0.545   4.190  10.731 -0.5251 -0.2177  0.3007
  164TMC2    C5 2551   0.528   4.325  10.743  0.5046  0.2110  0.3770
  164TMC2    C6 2552   0.637   4.408  10.746 -0.1169  0.2292  0.5248
  164TMC2     C 2553   0.681   4.001  10.699  0.0398 -0.0607  0.4765
  164TMC2     O 2554   0.607   3.929  10.768  0.0130 -0.2021 -0.0134
  164TMC2     H 2555   0.872   4.166  10.712  0.2156  0.2949  0.9772
  164TMC2    H1 2556   0.469   4.117  10.755  0.1462 -0.8104  0.6256
  164TMC2    H2 2557   0.625   4.515  10.758  0.1983  0.4731 -1.3891
  164TMC2    C7 2558   0.400   4.371  10.775  0.0241  0.3189  0.5616
  164TMC2    C8 2559   0.870   4.451  10.739  0.1860  0.2304 -0.7976
  164TMC2    O1 2560   0.393   4.487  10.814 -0.0960  0.0125 -0.5371
  164TMC2    O2 2561   0.853   4.542  10.820 -0.0851  0.1844 -0.3289
  164TMC2    O5 2562   0.897   4.469  10.608 -0.8222 -0.1770  0.4580
  164TMC2    H5 2563   0.941   4.395  10.560 -0.9424  0.3072 -0.3839
  165TMC2    C1 2564   0.933   3.136   0.935  0.1994 -0.7599  0.3509
  165TMC2    C2 2565   0.948   3.130   0.794  0.2908 -0.4286 -0.4264
  165TMC2    C3 2566   1.054   3.066   0.743 -0.0999  0.1842  0.5532
  165TMC2    C4 2567   1.033   3.108   1.021  0.7730  0.6131 -0.2468
  165TMC2    C5 2568   1.143   3.054   0.964 -0.2375  0.1420  0.0220
  165TMC2    C6 2569   1.155   3.032   0.826 -0.2290 -0.0750 -0.7489
  165TMC2     C 2570   0.802   3.138   0.994  0.0502 -0.5992 -0.0893
  165TMC2     O 2571   0.781   3.089   1.105 -0.4520  0.3696  0.0062
  165TMC2     H 2572   0.862   3.155   0.733 -0.3806 -0.7862  0.3737
  165TMC2    H1 2573   1.017   3.112   1.128 -2.0895 -1.2457 -0.6255
  165TMC2    H2 2574   1.249   2.996   0.786  0.2611  0.0024  0.3451
  165TMC2    C7 2575   1.261   3.060   1.049 -0.0056 -1.0789 -0.2740
  165TMC2    C8 2576   1.038   3.030   0.604 -0.5158  0.2702 -0.0525
  165TMC2    O1 2577   1.355   2.989   1.019 -0.1464 -0.1213  0.3777
  165TMC2    O2 2578   0.969   3.103   0.533  0.9364  0.1885 -0.0480
  165TMC2    O5 2579   1.039   2.892   0.602 -0.1828  0.2670 -0.0046
  165TMC2    H5 2580   1.082   2.863   0.685 -1.4584  2.2866  1.3552
  166MPD2     C 2581   0.298   3.225   0.906  0.2908 -0.0063  1.4883
  166MPD2    C1 2582   0.361   3.113   0.953 -0.3404 -0.0457  0.3192
  166MPD2    C2 2583   0.502   3.107   0.979  0.3918  0.1161 -0.0514
  166MPD2    C3 2584   0.580   3.215   0.932 -0.8040 -0.4375  0.6552
  166MPD2    C4 2585   0.513   3.329   0.904 -0.2653  0.0223  0.5511
  166MPD2    C5 2586   0.374   3.339   0.909  0.2573  0.9037 -0.1653
  166MPD2     H 2587   0.550   3.018   1.017 -0.9414 -1.1064 -1.2510
  166MPD2    H1 2588   0.564   3.419   0.870 -0.2041  0.4231  1.7215
  166MPD2    H2 2589   0.194   3.239   0.877  0.3819 -0.3633  0.9904
  166MPD2    H3 2590   0.331   3.433   0.876  1.9493  1.5913 -0.4257
  166MPD2     N 2591   0.721   3.218   0.923 -0.3731 -0.2711 -0.5159
  166MPD2    H5 2592   0.773   3.295   0.882 -1.5453  1.2841  0.9316
  166MPD2    N1 2593   0.273   3.009   0.979 -0.1610  0.0932  0.5437
  166MPD2    H7 2594   0.176   3.023   0.952 -0.1188 -0.6869 -0.0028
  167TMC2    C1 2595   0.137   0.534  12.881 -0.3153  0.6516  0.3342
  167TMC2    C2 2596   0.013   0.589  12.878 -0.2512  0.3516 -0.0161
  167TMC2    C3 2597   4.663   0.554  12.977 -0.1077 -0.9754 -0.4170
  167TMC2    C4 2598   0.179   0.438  12.973  0.3859 -0.2043 -0.0763
  167TMC2    C5 2599   0.091   0.405  13.076  0.3067 -0.4901  0.0781
  167TMC2    C6 2600   4.701   0.458  13.070 -0.4441  1.0415 -0.3553
  167TMC2     C 2601   0.225   0.560  12.767  0.1007  0.7352 -0.2087
  167TMC2     O 2602   0.344   0.579  12.795 -0.3815 -0.2585  0.2937
  167TMC2     H 2603   4.726   0.659  12.798  2.4894  0.3933 -0.7490
  167TMC2    H1 2604   0.281   0.408  12.953  0.3649  0.8898 -1.8647
  167TMC2    H2 2605   4.629   0.425  13.143  0.9876 -2.8772 -0.7300
  167TMC2    C7 2606   0.104   0.268  13.114 -0.1899  0.3059  0.2664
  167TMC2    C8 2607   4.526   0.602  12.954 -0.0877 -0.4228  0.0966
  167TMC2    O1 2608   0.070   0.238  13.229  0.9913 -0.1607 -0.0543
  167TMC2    O2 2609   4.507   0.723  12.943 -0.4814 -0.4573  0.6168
  167TMC2    O5 2610   4.442   0.505  12.997 -0.0872 -0.0586 -0.1659
  167TMC2    H5 2611   4.483   0.419  12.969 -0.0183 -1.2732  3.7577
  168MPD2     C 2612   0.372   0.525  12.506 -0.3056  0.2089 -0.0116
  168MPD2    C1 2613   0.235   0.521  12.521 -0.0320  0.1406  0.5599
  168MPD2    C2 2614   0.167   0.458  12.419 -0.0902 -0.5130 -0.5623
  168MPD2    C3 2615   0.218   0.433  12.291  0.0303 -0.1573 -0.2354
  168MPD2    C4 2616   0.353   0.456  12.277 -0.0047 -0.8641  0.6999
  168MPD2    C5 2617   0.427   0.494  12.381 -0.2029 -0.1247 -0.6139
  168MPD2     H 2618   0.061   0.456  12.440  0.2547 -0.4662  1.1732
  168MPD2    H1 2619   0.404   0.445  12.182  1.5194  1.0096  1.2951
  168MPD2    H2 2620   0.438   0.563  12.584  1.5348  1.6593 -2.2693
  168MPD2    H3 2621   0.533   0.495  12.357  0.1428  1.9036  1.0139
  168MPD2     N 2622   0.147   0.381  12.180 -0.5766 -0.4603 -0.1167
  168MPD2    H5 2623   0.196   0.363  12.093 -0.8025  1.5355 -0.6605
  168MPD2    N1 2624   0.164   0.536  12.645  0.3385  0.6171 -0.0170
  168MPD2    H7 2625   0.066   0.514  12.650  0.4235  0.7781  2.1984
  169MPD1     C 2626   1.360   4.544   9.497 -0.4065 -0.3710  0.0933
  169MPD1    C1 2627   1.344   4.425   9.551 -0.3635  0.0275 -0.5236
  169MPD1    C2 2628   1.459   4.345   9.566  0.0215  0.0839  0.3851
  169MPD1    C3 2629   1.580   4.384   9.519  0.0492 -0.0541  0.6260
  169MPD1    C4 2630   1.592   4.506   9.457 -0.4555  0.5249 -0.2128
  169MPD1    C5 2631   1.478   4.580   9.449  0.5709 -0.4518 -0.1099
  169MPD1     H 2632   1.449   4.248   9.613 -0.6158 -0.6706 -1.3208
  169MPD1    H1 2633   1.682   4.533   9.403  0.0573 -0.9028 -0.0923
  169MPD1    H2 2634   1.275   4.611   9.485 -2.8892 -3.1699  2.0643
  169MPD1    H3 2635   1.468   4.672   9.393  0.4151  0.0520  0.7565
  169MPD1     N 2636   1.684   4.287   9.522 -0.7283 -0.0287  0.6289
  169MPD1    H5 2637   1.667   4.201   9.573 -1.5667 -0.6508 -0.6639
  169MPD1    N1 2638   1.229   4.396   9.625  0.0057 -0.3730 -0.2095
  169MPD1    H6 2639   1.152   4.444   9.579 -1.7343 -1.1196  1.9529
  169MPD1    H7 2640   1.209   4.297   9.627 -0.0996 -0.3667 -0.7642
  170MPD1     C 2641   1.366   2.348  13.046 -0.4912 -0.3264 -0.6602
  170MPD1    C1 2642   1.399   2.354  13.182 -0.1271 -0.8027  0.2549
  170MPD1    C2 2643   1.289   2.376  13.263  0.1330 -0.2619 -0.5223
  170MPD1    C3 2644   1.161   2.393  13.216 -0.2324 -0.8107 -0.0975
  170MPD1    C4 2645   1.136   2.386  13.085  0.4070  0.2954  0.2730
  170MPD1    C5 2646   1.242   2.369  12.994  0.4416 -0.1203  0.1201
  170MPD1     H 2647   1.306   2.383  13.370 -0.9594  1.3589 -0.4500
  170MPD1    H1 2648   1.038   2.373  13.041  1.0247 -0.3175 -0.9317
  170MPD1    H2 2649   1.443   2.320  12.975  0.0438 -1.0004  0.1883
  170MPD1    H3 2650   1.226   2.358  12.887  0.1785 -1.2246  0.2715
  170MPD1     N 2651   1.068   2.425  13.315  0.2037  0.0067 -0.5207
  170MPD1    H5 2652   1.102   2.452  13.406  2.3720  0.1475 -1.3713
  170MPD1    N1 2653   1.531   2.350  13.219  0.0444  0.0277 -0.1824
  170MPD1    H6 2654   1.592   2.298  13.156 -0.2536  1.3408 -1.5439
  170MPD1    H7 2655   1.538   2.332  13.319 -1.1571 -1.3492 -0.3448
  171MPD1     C 2656   4.112   3.309  15.085  0.5909 -0.0552 -0.1852
  171MPD1    C1 2657   4.066   3.366  15.204  0.0512 -0.0520  0.4134
  171MPD1    C2 2658   4.107   3.293  15.318 -0.0124 -0.0868 -0.4110
  171MPD1    C3 2659   4.208   3.199  15.323  0.1337 -0.4748 -0.1142
  171MPD1    C4 2660   4.265   3.158  15.205  0.3472  0.0829 -0.1462
  171MPD1    C5 2661   4.207   3.212  15.087  0.1750 -0.5860  0.0147
  171MPD1     H 2662   4.066   3.328  15.412 -0.7756 -0.4550 -0.6094
  171MPD1    H1 2663   4.337   3.078  15.193 -0.0268 -0.1843 -0.6689
  171MPD1    H2 2664   4.074   3.345  14.990  1.9820  2.2302  0.1323
  171MPD1    H3 2665   4.250   3.172  14.996  0.6279 -1.7226  0.7217
  171MPD1     N 2666   4.256   3.142  15.444  0.0497 -0.7617 -0.9173
  171MPD1    H5 2667   4.343   3.089  15.441 -0.4845 -1.5874 -1.7333
  171MPD1    N1 2668   3.960   3.456  15.208 -0.4031  0.3068 -0.1686
  171MPD1    H6 2669   3.969   3.525  15.282  0.3332 -0.3910  0.3908
  171MPD1    H7 2670   3.948   3.512  15.124  3.1794  1.9461  0.4228
  172MPD1     C 2671   2.882   2.491   0.368 -0.0090  0.6441 -0.0956
  172MPD1    C1 2672   2.855   2.590   0.461 -0.1210 -0.1222 -0.2675
  172MPD1    C2 2673   2.939   2.702   0.460 -1.3022 -0.1900 -0.8138
  172MPD1    C3 2674   3.022   2.726   0.354 -0.3974 -0.0133  0.0025
  172MPD1    C4 2675   3.040   2.634   0.258 -0.4015 -0.0939  0.5295
  172MPD1    C5 2676   2.970   2.515   0.271 -0.9312 -0.2987  0.5477
  172MPD1     H 2677   2.933   2.771   0.544  0.7582  0.5325 -1.2797
  172MPD1    H1 2678   3.112   2.650   0.178  0.1257 -2.7680  0.4619
  172MPD1    H2 2679   2.829   2.398   0.387  2.7678 -1.4822 -2.8571
  172MPD1    H3 2680   3.000   2.440   0.198 -0.7136 -0.2234  0.5590
  172MPD1     N 2681   3.095   2.845   0.347  0.3526 -0.0046 -0.1704
  172MPD1    H5 2682   3.161   2.854   0.270  0.3938  0.9035 -0.0246
  172MPD1    N1 2683   2.779   2.552   0.568  0.8697 -0.1097 -0.3916
  172MPD1    H6 2684   2.693   2.508   0.535  0.8037  0.9262 -1.6171
  172MPD1    H7 2685   2.757   2.629   0.631 -0.4453 -1.6059  0.9376
  173MPD1     C 2686   4.734   3.036  14.436  0.2207  0.2042  0.4166
  173MPD1    C1 2687   4.646   2.970  14.355  0.4971 -0.4340 -0.2915
  173MPD1    C2 2688   4.554   2.886  14.411 -0.7246  0.0693 -0.0993
  173MPD1    C3 2689   4.558   2.863  14.544 -0.0448  0.3407  0.3621
  173MPD1    C4 2690   4.653   2.919  14.621 -0.3036  0.1467  0.4602
  173MPD1    C5 2691   0.010   2.996  14.567 -0.4960  0.0695  0.2200
  173MPD1     H 2692   4.477   2.834  14.357  0.9227 -0.1642 -2.2204
  173MPD1    H1 2693   4.663   2.901  14.727 -1.8581  0.6823  0.6866
  173MPD1    H2 2694   0.071   3.109  14.401 -1.6612  1.5404 -0.7070
  173MPD1    H3 2695   0.081   3.045  14.633  0.5619 -1.1392 -0.0279
  173MPD1     N 2696   4.467   2.766  14.593 -0.4969  0.5628  0.1945
  173MPD1    H5 2697   4.402   2.727  14.524  0.3686  1.0579 -0.8979
  173MPD1    N1 2698   4.627   3.017  14.228 -0.1239 -0.4022  0.0651
  173MPD1    H6 2699   4.704   3.073  14.192  0.2779 -1.2658 -0.3936
  173MPD1    H7 2700   4.592   2.944  14.167  0.2798 -0.4947 -0.0542
  174MPD1     C 2701   4.014   2.262  14.062  0.9751  0.0665 -0.2285
  174MPD1    C1 2702   4.079   2.169  14.146 -0.2073 -0.2895 -0.3635
  174MPD1    C2 2703   4.140   2.218  14.262  0.2085 -0.7031 -0.9424
  174MPD1    C3 2704   4.121   2.354  14.295  0.5075 -0.3766 -0.2587
  174MPD1    C4 2705   4.045   2.435  14.214  0.0004 -0.3904  0.3760
  174MPD1    C5 2706   3.990   2.389  14.095 -0.2292  0.1776 -0.0061
  174MPD1     H 2707   4.194   2.152  14.328 -0.3567  0.4189  0.6232
  174MPD1    H1 2708   4.027   2.537  14.247  2.6289 -0.1373  1.0670
  174MPD1    H2 2709   3.972   2.229  13.968 -1.2124  1.0022  0.4146
  174MPD1    H3 2710   3.923   2.440  14.028 -1.5686 -1.8357 -0.1724
  174MPD1     N 2711   4.175   2.411  14.411 -0.2625  0.2587 -0.3802
  174MPD1    H5 2712   4.174   2.512  14.410  0.0775  0.2723  1.3324
  174MPD1    N1 2713   4.110   2.039  14.104 -0.3000 -0.2457 -0.3729
  174MPD1    H6 2714   4.038   2.022  14.034 -0.6197 -4.0369  0.9204
  174MPD1    H7 2715   4.112   1.970  14.179 -1.8912  1.9384  1.6919
  175MPD1     C 2716   2.951   4.341  15.713 -0.2538 -0.0810 -0.6409
  175MPD1    C1 2717   3.001   4.217  15.679 -0.7464  0.7872 -0.1926
  175MPD1    C2 2718   2.954   4.102  15.756 -0.4667  0.3116 -0.2484
  175MPD1    C3 2719   2.858   4.124  15.859 -0.4159  0.4827  0.2775
  175MPD1    C4 2720   2.812   4.248  15.881 -0.0301  0.0172 -0.8481
  175MPD1    C5 2721   2.861   4.357  15.809 -0.7259 -0.1058 -0.5565
  175MPD1     H 2722   2.999   4.005  15.740 -0.4416  0.1170  1.0496
  175MPD1    H1 2723   2.731   4.269  15.950  1.8339 -3.6463  2.5291
  175MPD1    H2 2724   2.992   4.426  15.661  1.6692 -1.3500 -1.1948
  175MPD1    H3 2725   2.825   4.459  15.818  1.7488  0.8624 -1.6369
  175MPD1     N 2726   2.808   4.018  15.938 -0.3165  0.8137 -0.1216
  175MPD1    H5 2727   2.761   4.053  16.021  1.5477  1.3133  0.7267
  175MPD1    N1 2728   3.115   4.206  15.596  0.0746 -0.4469 -0.8681
  175MPD1    H6 2729   3.131   4.280  15.528  0.3616 -0.7124 -1.0863
  175MPD1    H7 2730   3.105   4.118  15.546 -0.8960 -0.3409 -0.8600
  176MPD1     C 2731   3.757   0.973  17.254  0.3558 -0.0250 -0.0074
  176MPD1    C1 2732   3.734   1.022  17.377  0.3292  0.2741 -0.0424
  176MPD1    C2 2733   3.833   1.027  17.476  0.3905  0.0950 -0.1119
  176MPD1    C3 2734   3.963   0.996  17.442  0.4159 -0.1356 -0.6325
  176MPD1    C4 2735   3.984   0.946  17.314 -0.3478 -0.3750 -0.2095
  176MPD1    C5 2736   3.883   0.931  17.218 -0.4148  0.1287 -0.5058
  176MPD1     H 2737   3.817   1.075  17.572 -0.5432 -0.1367 -0.1466
  176MPD1    H1 2738   4.085   0.920  17.285 -0.0272 -1.5827  2.0097
  176MPD1    H2 2739   3.682   0.950  17.179  1.4398  1.2369 -1.4857
  176MPD1    H3 2740   3.910   0.890  17.121 -2.0047  0.0915 -0.9375
  176MPD1     N 2741   4.061   1.032  17.536  0.0477 -0.5045  0.2119
  176MPD1    H5 2742   4.034   1.063  17.629 -0.2930 -3.6349  1.1891
  176MPD1    N1 2743   3.597   1.044  17.420  0.4903  0.2191 -0.1408
  176MPD1    H6 2744   3.542   1.098  17.354  2.1634  1.7347 -0.2808
  176MPD1    H7 2745   3.586   1.082  17.514  0.6699  0.5922 -0.2743
  177MPD1     C 2746   3.195   0.696  10.202 -0.2454 -0.4863  0.6600
  177MPD1    C1 2747   3.083   0.621  10.167  0.2023  0.0156 -0.1937
  177MPD1    C2 2748   3.047   0.628  10.030  0.2937 -0.4309 -0.0621
  177MPD1    C3 2749   3.103   0.722   9.943  0.0938 -0.5038  0.5245
  177MPD1    C4 2750   3.195   0.810   9.988  0.5840  0.4108  0.2307
  177MPD1    C5 2751   3.250   0.786  10.110 -0.0243 -0.1169  0.1402
  177MPD1     H 2752   2.962   0.571   9.995 -0.9690  2.0529 -1.0420
  177MPD1    H1 2753   3.237   0.886   9.924  0.6936 -0.5616 -0.8463
  177MPD1    H2 2754   3.253   0.663  10.288  1.4894 -1.2893 -0.8289
  177MPD1    H3 2755   3.336   0.848  10.131 -0.0125  0.1018 -0.5474
  177MPD1     N 2756   3.059   0.722   9.813  0.1845  0.4807 -0.2271
  177MPD1    H5 2757   2.994   0.649   9.787  0.5105 -0.2398  0.9690
  177MPD1    N1 2758   3.049   0.524  10.262 -0.1007  0.2736 -0.5689
  177MPD1    H6 2759   2.952   0.494  10.265 -0.3490  1.2246  0.5960
  177MPD1    H7 2760   3.061   0.566  10.354  1.5306 -0.0372 -0.6414
  178MPD1     C 2761   0.107   2.158  17.447 -0.2181  0.7858  0.2273
  178MPD1    C1 2762   0.220   2.214  17.495 -0.5822  0.0729  0.4419
  178MPD1    C2 2763   0.340   2.152  17.445  0.1266 -0.6052  0.3732
  178MPD1    C3 2764   0.335   2.046  17.358 -0.3456  0.6112  0.3055
  178MPD1    C4 2765   0.212   2.002  17.316  0.1595  0.1624 -0.2137
  178MPD1    C5 2766   0.099   2.066  17.353 -0.0918  1.0927 -0.2843
  178MPD1     H 2767   0.431   2.207  17.463  0.1705 -0.3241 -0.7354
  178MPD1    H1 2768   0.205   1.922  17.243 -1.1698  1.4920 -1.5453
  178MPD1    H2 2769   0.014   2.208  17.474  0.6354  2.2679  0.4264
  178MPD1    H3 2770   0.000   2.039  17.318 -0.4728  0.0726  1.5668
  178MPD1     N 2771   0.449   1.982  17.310  0.6365 -0.0324 -0.1280
  178MPD1    H5 2772   0.445   1.900  17.251  1.9556 -0.6639  0.6847
  178MPD1    N1 2773   0.221   2.342  17.554  0.8866 -0.8283  0.2910
  178MPD1    H6 2774   0.130   2.355  17.596  0.3312 -0.1675 -1.1039
  178MPD1    H7 2775   0.293   2.351  17.625 -1.3471 -0.4001  2.4605
  179MPD1     C 2776   4.226   0.288  16.304 -0.2296 -0.2777 -0.0621
  179MPD1    C1 2777   4.241   0.151  16.301  0.3081  0.5975  0.0213
  179MPD1    C2 2778   4.358   0.108  16.246  0.5086  0.0916 -0.4114
  179MPD1    C3 2779   4.441   0.190  16.182 -0.2510 -0.2643  0.1259
  179MPD1    C4 2780   4.406   0.321  16.169 -0.6228 -0.5917 -0.9814
  179MPD1    C5 2781   4.297   0.371  16.229 -0.6690  0.2054  0.2420
  179MPD1     H 2782   4.379   0.001  16.254  0.7464  0.2302  0.8578
  179MPD1    H1 2783   4.475   0.388  16.120  0.1602 -1.4390 -1.0460
  179MPD1    H2 2784   4.148   0.349  16.348 -0.0197 -0.4519  0.5487
  179MPD1    H3 2785   4.281   0.478  16.241  2.5269  0.5493  1.2814
  179MPD1     N 2786   4.557   0.143  16.119 -0.6894 -0.4933  0.1003
  179MPD1    H5 2787   4.579   0.046  16.137  2.8683  0.5618  1.3497
  179MPD1    N1 2788   4.151   0.071  16.363  0.1605  0.0814 -0.3086
  179MPD1    H6 2789   4.139   4.717  16.316 -0.9140  0.0791 -0.0367
  179MPD1    H7 2790   4.060   0.116  16.351 -0.2258 -0.9932 -1.4432
  180MPD1     C 2791   0.017   1.076  15.495 -0.1108  0.4894  0.6554
  180MPD1    C1 2792   0.086   1.154  15.398  0.5706  0.1543  0.2161
  180MPD1    C2 2793   0.121   1.094  15.276 -0.5013 -0.4124  0.3025
  180MPD1    C3 2794   0.075   0.970  15.251  0.0656  0.4198  0.0777
  180MPD1    C4 2795   0.000   0.897  15.337 -0.3536 -0.9273 -0.5323
  180MPD1    C5 2796   4.710   0.950  15.464 -0.0125 -0.2073  0.4670
  180MPD1     H 2797   0.176   1.149  15.201 -0.9419  1.8251  1.6157
  180MPD1    H1 2798   4.700   0.798  15.313  1.4806 -2.3001  2.4836
  180MPD1    H2 2799   4.729   1.118  15.592  1.7781 -0.9794  1.7545
  180MPD1    H3 2800   4.649   0.899  15.537 -0.8265 -0.7385 -0.5687
  180MPD1     N 2801   0.111   0.929  15.117 -0.1656  0.3232 -1.0009
  180MPD1    H5 2802   0.189   0.977  15.072 -0.1410  1.0883 -0.1429
  180MPD1    N1 2803   0.136   1.285  15.439 -0.1240 -0.2084  0.1990
  180MPD1    H6 2804   0.074   1.325  15.509 -0.7472 -0.0959 -0.4160
  180MPD1    H7 2805   0.141   1.351  15.362 -2.0519 -0.9671 -0.5881
  181MPD1     C 2806   1.546   2.064   9.928  0.1159  0.5899 -0.8155
  181MPD1    C1 2807   1.538   2.114  10.061 -0.4357  0.0888  0.2962
  181MPD1    C2 2808   1.645   2.182  10.114 -0.2323  0.0072  0.3944
  181MPD1    C3 2809   1.759   2.199  10.042 -0.0939 -0.7816  0.8298
  181MPD1    C4 2810   1.775   2.125   9.923  0.0723 -0.0573 -0.2815
  181MPD1    C5 2811   1.668   2.058   9.863  0.2931 -0.8011 -0.2786
  181MPD1     H 2812   1.628   2.240  10.204 -1.3717  0.3460 -0.0337
  181MPD1    H1 2813   1.875   2.125   9.881  0.0240  0.0277 -0.3960
  181MPD1    H2 2814   1.457   2.020   9.885 -0.7051  1.5344 -0.0825
  181MPD1    H3 2815   1.672   2.015   9.763  2.8884  2.0198 -1.3881
  181MPD1     N 2816   1.869   2.272  10.084  0.5247  0.6016  0.5520
  181MPD1    H5 2817   1.951   2.276  10.025  0.0881 -0.7954 -0.1458
  181MPD1    N1 2818   1.412   2.125  10.127  0.1897 -0.0465  0.3025
  181MPD1    H6 2819   1.361   2.039  10.108  0.8629 -0.4226  0.1799
  181MPD1    H7 2820   1.420   2.109  10.227 -1.4479  0.7948  0.5595
  182MPD1     C 2821   2.240   0.990   0.583 -0.7130 -0.3087 -0.3847
  182MPD1    C1 2822   2.196   1.044   0.701 -0.5910  0.5612 -0.4593
  182MPD1    C2 2823   2.137   1.166   0.692  0.0905 -0.1216  0.7464
  182MPD1    C3 2824   2.152   1.246   0.583 -0.5730  0.1209 -0.2630
  182MPD1    C4 2825   2.201   1.193   0.463 -0.5958 -0.1804 -0.2277
  182MPD1    C5 2826   2.242   1.063   0.468 -0.2279  0.1116 -0.1032
  182MPD1     H 2827   2.091   1.200   0.785  1.2324 -1.2126  1.7131
  182MPD1    H1 2828   2.206   1.255   0.375 -1.4867  0.0239 -0.1352
  182MPD1    H2 2829   2.266   0.885   0.586  1.2904  0.1725 -1.3963
  182MPD1    H3 2830   2.273   1.001   0.385  0.4778 -1.3486  1.2339
  182MPD1     N 2831   2.107   1.378   0.587 -0.7865  0.1615 -0.4301
  182MPD1    H5 2832   2.099   1.416   0.493  0.1024  1.5889  0.0790
  182MPD1    N1 2833   2.178   0.965   0.811  0.1576  0.7433 -0.2567
  182MPD1    H6 2834   2.257   0.902   0.824 -1.1724 -0.6414  1.0883
  182MPD1    H7 2835   2.149   1.014   0.895  0.2474 -1.2098  0.9013
  183MPD1     C 2836   3.678   3.293  10.033 -0.2835 -0.0049  0.8339
  183MPD1    C1 2837   3.561   3.361  10.071  0.8621  0.0332  0.5506
  183MPD1    C2 2838   3.447   3.288  10.047 -0.6733 -0.6771  0.4719
  183MPD1    C3 2839   3.455   3.161   9.998 -0.3996 -0.0989 -0.4051
  183MPD1    C4 2840   3.573   3.091   9.985 -0.1670  0.0807 -0.5403
  183MPD1    C5 2841   3.685   3.167   9.994  0.1323  0.5099  0.3755
  183MPD1     H 2842   3.346   3.326  10.053 -0.2913  0.4918 -0.5728
  183MPD1    H1 2843   3.586   2.990   9.947 -1.8123  0.1125 -1.1659
  183MPD1    H2 2844   3.769   3.351  10.037  0.3005 -0.8005 -0.9381
  183MPD1    H3 2845   3.781   3.129   9.962  0.1673  0.5996  0.3746
  183MPD1     N 2846   3.328   3.094   9.969 -0.4662  0.1576  1.0776
  183MPD1    H5 2847   3.247   3.153   9.954  0.3578  0.7681 -0.9206
  183MPD1    N1 2848   3.563   3.501  10.093 -0.1663  0.1042 -0.0513
  183MPD1    H6 2849   3.481   3.544  10.134  0.7628  1.2353  0.6013
  183MPD1    H7 2850   3.648   3.531  10.140  1.5752 -0.4817 -2.8198
  184MPD1     C 2851   2.216   0.130  10.237  0.0083 -0.1333  0.3668
  184MPD1    C1 2852   2.189   0.052  10.122  0.0078  0.5686 -0.0860
  184MPD1    C2 2853   2.190   0.114   9.995 -0.1122  0.1344 -0.4020
  184MPD1    C3 2854   2.214   0.252   9.981  0.2326 -0.3692 -0.0861
  184MPD1    C4 2855   2.251   0.326  10.096 -0.1853 -0.0523  0.1549
  184MPD1    C5 2856   2.248   0.263  10.214  1.3933 -0.2384  0.3530
  184MPD1     H 2857   2.172   0.050   9.910 -0.4092 -2.0791  1.3246
  184MPD1    H1 2858   2.277   0.430  10.084 -1.9990  0.4203  0.2416
  184MPD1    H2 2859   2.238   0.082  10.332  1.2160 -1.5196 -0.5965
  184MPD1    H3 2860   2.275   0.324  10.300 -2.4559  0.3202  1.1796
  184MPD1     N 2861   2.228   0.319   9.856 -0.5565  0.2949  0.2039
  184MPD1    H5 2862   2.258   0.416   9.855 -0.6045  0.2981 -0.6860
  184MPD1    N1 2863   2.180   4.646  10.135 -0.0324 -0.6531  0.2788
  184MPD1    H6 2864   2.153   4.624  10.231  0.2840  2.1077  1.0242
  184MPD1    H7 2865   2.127   4.604  10.059  0.5252  2.4631 -1.8561
  185MPD1     C 2866   1.895   0.288   8.900 -0.2067 -0.0620 -0.2362
  185MPD1    C1 2867   2.008   0.363   8.899  0.4301  0.0370 -1.2908
  185MPD1    C2 2868   2.081   0.384   9.009  0.3801 -0.2383  0.2372
  185MPD1    C3 2869   2.058   0.306   9.123 -0.3567  0.2931  0.2785
  185MPD1    C4 2870   1.957   0.207   9.113  0.3048 -0.6251  0.2680
  185MPD1    C5 2871   1.882   0.195   8.998 -0.8144  0.1489  0.1353
  185MPD1     H 2872   2.163   0.455   8.998  0.1503  0.0284  0.2281
  185MPD1    H1 2873   1.949   0.132   9.190 -0.2180  1.4314  2.2143
  185MPD1    H2 2874   1.829   0.291   8.814  0.8237  2.0617 -0.9385
  185MPD1    H3 2875   1.796   0.129   9.005 -1.1169  0.5822  0.4505
  185MPD1     N 2876   2.136   0.312   9.238  0.1496 -0.0798  0.4687
  185MPD1    H5 2877   2.118   0.248   9.315  0.0949 -0.1290  0.4158
  185MPD1    N1 2878   2.039   0.438   8.781 -0.9305 -0.0450 -0.7573
  185MPD1    H6 2879   1.996   0.393   8.700 -1.4652  0.3313 -0.6768
  185MPD1    H7 2880   2.140   0.440   8.768 -0.9288  4.0115  0.0500
  186MPD1     C 2881   0.344   0.012  15.395  0.7536 -0.2642  0.4326
  186MPD1    C1 2882   0.465   0.066  15.432 -0.1394 -0.1316  0.7513
  186MPD1    C2 2883   0.474   0.165  15.530  0.2574 -0.0626 -0.6931
  186MPD1    C3 2884   0.362   0.224  15.584  0.1871  0.0547  0.6272
  186MPD1    C4 2885   0.244   0.166  15.553  0.0885 -0.3475  0.2752
  186MPD1    C5 2886   0.232   0.067  15.454 -0.6014  0.4523  0.3563
  186MPD1     H 2887   0.567   0.195  15.576 -0.7053  0.7646  0.7342
  186MPD1    H1 2888   0.151   0.202  15.595  1.6029  3.9830 -0.1012
  186MPD1    H2 2889   0.337   4.666  15.324 -1.2145  0.0238  0.3069
  186MPD1    H3 2890   0.132   0.045  15.419 -1.2221  1.5794  1.4416
  186MPD1     N 2891   0.368   0.335  15.677  0.3779  0.0210 -0.2616
  186MPD1    H5 2892   0.286   0.346  15.736  1.0812 -0.8021  0.9003
  186MPD1    N1 2893   0.590   0.015  15.383  0.0386 -0.1124  0.4319
  186MPD1    H6 2894   0.654   0.093  15.394 -0.6862  0.6341 -0.5634
  186MPD1    H7 2895   0.595   4.720  15.286 -1.0039  0.3369  0.2354
  187MPD1     C 2896   0.249   1.829   0.205 -0.4613 -0.0097 -0.0892
  187MPD1    C1 2897   0.143   1.742   0.192  1.0252  0.0592 -0.3865
  187MPD1    C2 2898   0.045   1.770   0.098  0.7928 -0.7356  0.5996
  187MPD1    C3 2899   0.051   1.890   0.026  0.0762 -0.1494 -0.7557
  187MPD1    C4 2900   0.150   1.977   0.039  0.2876  0.0253 -0.1916
  187MPD1    C5 2901   0.255   1.933   0.117 -0.2491 -0.1393 -0.2889
  187MPD1     H 2902   4.703   1.698   0.072  3.0872 -2.4077 -1.5916
  187MPD1    H1 2903   0.150   2.071  17.726  0.6721  0.7200  1.0218
  187MPD1    H2 2904   0.333   1.808   0.270 -1.0822  1.5382  1.2134
  187MPD1    H3 2905   0.346   1.992   0.121 -1.2674  1.3820  0.2215
  187MPD1     N 2906   4.681   1.929  17.686  0.2297  0.2637 -0.3022
  187MPD1    H5 2907   4.706   2.018  17.643 -0.9374  0.3064 -0.9043
  187MPD1    N1 2908   0.142   1.613   0.247 -0.0133  0.2625  0.2610
  187MPD1    H6 2909   0.050   1.585   0.279  0.6423 -3.1249 -0.8387
  187MPD1    H7 2910   0.199   1.617   0.332  1.1584 -1.0272 -0.4619
  188MPD1     C 2911   4.413   1.484  10.276  0.2032  0.0469  0.6098
  188MPD1    C1 2912   4.442   1.477  10.143  0.2350  0.3254  0.0709
  188MPD1    C2 2913   4.474   1.359  10.089  0.1156 -0.7225 -0.2706
  188MPD1    C3 2914   4.465   1.242  10.172 -0.3100  0.6952  0.1288
  188MPD1    C4 2915   4.458   1.258  10.306 -1.8354 -0.2717 -0.0046
  188MPD1    C5 2916   4.432   1.375  10.352  0.1508  0.6074  0.6041
  188MPD1     H 2917   4.496   1.349   9.984  2.2704 -0.9215  0.1930
  188MPD1    H1 2918   4.445   1.177  10.376  0.3217 -1.7106 -1.2985
  188MPD1    H2 2919   4.412   1.576  10.334  2.8807  0.3168  0.2103
  188MPD1    H3 2920   4.416   1.371  10.459  0.9491 -0.2148  0.6897
  188MPD1     N 2921   4.490   1.112  10.124 -0.4999 -0.3930 -0.7741
  188MPD1    H5 2922   4.474   1.045  10.199 -1.0377  0.7536  0.1309
  188MPD1    N1 2923   4.461   1.591  10.061 -0.5315  0.1155 -0.5724
  188MPD1    H6 2924   4.384   1.658  10.058 -0.1214  0.6842  1.7263
  188MPD1    H7 2925   4.479   1.568   9.963  0.7288 -0.6914 -0.1563
  189MPD1     C 2926   1.892   3.547   0.573 -0.3198 -0.2785 -0.2144
  189MPD1    C1 2927   1.881   3.623   0.463  1.0933 -0.1624 -0.6836
  189MPD1    C2 2928   1.754   3.667   0.435  0.1717 -0.1729 -0.0243
  189MPD1    C3 2929   1.652   3.640   0.521 -0.4168 -0.1748  0.1796
  189MPD1    C4 2930   1.674   3.578   0.647  0.5764  0.8598 -0.2995
  189MPD1    C5 2931   1.794   3.513   0.659  0.4131 -0.6444  0.3682
  189MPD1     H 2932   1.741   3.745   0.360  2.2807  0.5008  0.3306
  189MPD1    H1 2933   1.599   3.573   0.725  1.0135  1.1525  0.1377
  189MPD1    H2 2934   1.985   3.518   0.619 -1.0334 -1.1461  0.6951
  189MPD1    H3 2935   1.813   3.451   0.746  0.6104 -0.2491  0.6125
  189MPD1     N 2936   1.529   3.703   0.498 -0.7429  0.5408  0.3251
  189MPD1    H5 2937   1.523   3.765   0.418  2.9162  1.0360  0.4219
  189MPD1    N1 2938   1.994   3.678   0.406 -0.0301 -0.1389  0.5899
  189MPD1    H6 2939   1.974   3.705   0.310 -1.1558 -1.1660  0.5377
  189MPD1    H7 2940   2.070   3.611   0.407 -0.2360 -0.3565  2.1583
  190MPD1     C 2941   0.595   2.362  15.365 -0.1845  0.4400 -0.2712
  190MPD1    C1 2942   0.716   2.349  15.432 -0.1250 -0.0000 -0.3250
  190MPD1    C2 2943   0.747   2.226  15.493 -0.2968 -0.7223  0.5936
  190MPD1    C3 2944   0.651   2.124  15.509 -0.5337 -0.5187  0.3866
  190MPD1    C4 2945   0.532   2.140  15.439  0.7440  0.0537 -0.4349
  190MPD1    C5 2946   0.508   2.258  15.370  0.3787 -0.8225 -0.6859
  190MPD1     H 2947   0.839   2.221  15.552  0.6423 -1.5818 -0.9313
  190MPD1    H1 2948   0.456   2.063  15.435  0.9273 -0.0425 -2.1675
  190MPD1    H2 2949   0.555   2.452  15.318 -2.3392  0.2860  1.2600
  190MPD1    H3 2950   0.423   2.264  15.303 -0.4144 -0.5697  0.3525
  190MPD1     N 2951   0.679   2.014  15.592  0.2049 -0.0268  0.0223
  190MPD1    H5 2952   0.776   2.012  15.624 -0.1600 -1.3505  1.0668
  190MPD1    N1 2953   0.799   2.457  15.431 -0.4810  0.5217  0.2778
  190MPD1    H6 2954   0.893   2.423  15.411 -1.5627 -2.3626  0.1488
  190MPD1    H7 2955   0.764   2.519  15.357 -0.9610  0.9743  0.8873
  191MPD1     C 2956   4.426   2.513  13.064  0.6321 -0.2635 -0.2577
  191MPD1    C1 2957   4.492   2.592  12.970  0.8766  0.2796  0.6980
  191MPD1    C2 2958   4.417   2.664  12.878  0.3067 -0.4305  0.1472
  191MPD1    C3 2959   4.285   2.691  12.894  0.0786 -0.1876  0.5184
  191MPD1    C4 2960   4.215   2.631  12.999  0.2900  0.3808  0.0781
  191MPD1    C5 2961   4.287   2.538  13.073  0.5464  1.2036 -0.2634
  191MPD1     H 2962   4.465   2.707  12.791 -2.3626  0.4253 -0.9068
  191MPD1    H1 2963   4.108   2.638  13.015 -0.1379 -1.4734 -1.9430
  191MPD1    H2 2964   4.477   2.447  13.133 -3.1922 -2.2221  0.6914
  191MPD1    H3 2965   4.229   2.477  13.141  0.6224  1.6166  0.1737
  191MPD1     N 2966   4.225   2.774  12.798 -0.7082  0.4650 -0.4138
  191MPD1    H5 2967   4.282   2.830  12.735  0.1727 -0.4581 -0.4313
  191MPD1    N1 2968   4.624   2.572  12.944 -0.0001  0.1854  0.8717
  191MPD1    H6 2969   4.671   2.536  13.027 -0.5903  1.0486  1.5765
  191MPD1    H7 2970   4.674   2.650  12.903 -0.6535 -0.5519 -1.3015
  192MPD1     C 2971   3.315   3.181  12.268  0.6774  0.1734 -0.0453
  192MPD1    C1 2972   3.381   3.063  12.242 -0.2751  0.3701  0.0148
  192MPD1    C2 2973   3.504   3.046  12.305  0.5780 -0.0442 -0.4352
  192MPD1    C3 2974   3.564   3.140  12.391 -0.7135  0.5833 -0.0337
  192MPD1    C4 2975   3.494   3.260  12.407 -0.0054 -0.0969 -0.1440
  192MPD1    C5 2976   3.377   3.278  12.346  0.2670 -0.4199  0.1349
  192MPD1     H 2977   3.560   2.954  12.292 -0.3047 -0.5350 -0.7412
  192MPD1    H1 2978   3.534   3.339  12.469 -2.2296  0.9808 -0.0998
  192MPD1    H2 2979   3.214   3.189  12.230  0.3402 -1.8874  0.4648
  192MPD1    H3 2980   3.329   3.373  12.364  1.1743  0.5726 -2.7365
  192MPD1     N 2981   3.681   3.113  12.471 -0.0948  0.2654 -1.0437
  192MPD1    H5 2982   3.725   3.191  12.519 -3.4245  1.9289 -0.7672
  192MPD1    N1 2983   3.317   2.959  12.172 -0.1778  0.1104 -0.2864
  192MPD1    H6 2984   3.248   2.915  12.232  1.2973 -0.2243  1.1562
  192MPD1    H7 2985   3.259   3.005  12.102 -1.9998 -0.9529  0.5246
  193MPD1     C 2986   3.956   3.330  16.135  0.3435 -0.1700  0.7172
  193MPD1    C1 2987   3.869   3.289  16.237 -0.3494  0.3731 -0.6881
  193MPD1    C2 2988   3.880   3.347  16.364  0.3211 -0.0910 -0.8419
  193MPD1    C3 2989   3.969   3.449  16.385 -1.2263 -0.3274 -0.3334
  193MPD1    C4 2990   4.057   3.480  16.287  0.9138 -0.3824 -0.1389
  193MPD1    C5 2991   4.053   3.423  16.165  0.4777  0.0718 -0.4105
  193MPD1     H 2992   3.804   3.337  16.441 -0.4108  2.4736 -1.2312
  193MPD1    H1 2993   4.122   3.566  16.301  0.8688  0.0402 -2.5479
  193MPD1    H2 2994   3.945   3.295  16.033  0.6745 -0.7004  0.8641
  193MPD1    H3 2995   4.120   3.449  16.083  2.7109 -0.8276  1.1480
  193MPD1     N 2996   3.980   3.520  16.508 -0.0647  0.9194  0.9865
  193MPD1    H5 2997   4.059   3.582  16.521 -1.7345  3.1647  0.3797
  193MPD1    N1 2998   3.760   3.211  16.207 -0.1818  0.4347  0.4532
  193MPD1    H6 2999   3.725   3.148  16.279  0.4239  0.3585  0.6778
  193MPD1    H7 3000   3.780   3.153  16.125  1.0886 -1.9898  2.4864
  194MPD1     C 3001   1.074   0.731  17.229  0.3259  0.5318  0.4600
  194MPD1    C1 3002   1.034   0.603  17.177  0.3426 -0.6345  0.0092
  194MPD1    C2 3003   1.108   0.493  17.213  1.3378  0.5418 -0.3545
  194MPD1    C3 3004   1.238   0.501  17.257 -0.3233 -0.1624  1.4402
  194MPD1    C4 3005   1.285   0.624  17.287  0.7418  0.5056  0.6654
  194MPD1    C5 3006   1.194   0.731  17.286 -0.5780 -0.6155  1.1145
  194MPD1     H 3007   1.062   0.398  17.188  2.1303 -0.0906  0.6358
  194MPD1    H1 3008   1.386   0.639  17.326  0.4532  0.0062  1.5942
  194MPD1    H2 3009   1.014   0.818  17.207 -1.8279 -0.8767  0.7927
  194MPD1    H3 3010   1.244   0.822  17.315 -2.0296  0.9608 -1.3166
  194MPD1     N 3011   1.327   0.390  17.275  0.0432 -0.3375  0.6904
  194MPD1    H5 3012   1.423   0.410  17.302  0.0276  0.5935  0.0835
  194MPD1    N1 3013   0.909   0.575  17.111 -0.0956  0.0078  0.6781
  194MPD1    H6 3014   0.878   0.663  17.070  0.4510  0.2564  0.8047
  194MPD1    H7 3015   0.915   0.499  17.043  0.8553 -0.6667  1.5103
  195MPD1     C 3016   4.204   2.920  17.375 -0.5809  0.6813 -0.2831
  195MPD1    C1 3017   4.101   2.910  17.471 -0.7042 -0.9260  0.4786
  195MPD1    C2 3018   4.089   2.800  17.552  0.1484  0.2961  0.0977
  195MPD1    C3 3019   4.179   2.696  17.531  0.3982  0.0273 -0.7763
  195MPD1    C4 3020   4.278   2.706  17.440 -0.0497  0.3699  0.6571
  195MPD1    C5 3021   4.292   2.817  17.362  0.5781  0.1800  0.2031
  195MPD1     H 3022   4.011   2.787  17.627  0.6052 -1.9975  0.1960
  195MPD1    H1 3023   4.352   2.629  17.419  0.6948  1.3120 -0.2472
  195MPD1    H2 3024   4.210   3.006  17.309  0.4539  2.3398  1.9775
  195MPD1    H3 3025   4.366   2.815  17.282  0.3814  1.5038 -0.0095
  195MPD1     N 3026   4.171   2.576  17.608  0.1586  0.4016  0.1140
  195MPD1    H5 3027   4.258   2.524  17.602  0.6911  1.6408 -3.1493
  195MPD1    N1 3028   4.004   3.009  17.480  0.1204  0.3667  0.5528
  195MPD1    H6 3029   4.047   3.099  17.462  0.8552  0.0552  0.7932
  195MPD1    H7 3030   3.957   3.019  17.570  0.6769  2.1902  0.6355
  196MPD1     C 3031   2.762   0.853   0.233 -0.2171  0.4162  0.7884
  196MPD1    C1 3032   2.704   0.979   0.235  0.2589  0.0564  0.7721
  196MPD1    C2 3033   2.779   1.082   0.277 -0.0530  0.5917  0.0414
  196MPD1    C3 3034   2.892   1.060   0.347 -0.0482  1.2383 -0.1011
  196MPD1    C4 3035   2.949   0.934   0.357 -0.3972 -0.1672  0.2867
  196MPD1    C5 3036   2.887   0.832   0.294 -0.5999 -0.2476 -0.1298
  196MPD1     H 3037   2.740   1.181   0.255 -2.0056  0.3647  2.3778
  196MPD1    H1 3038   3.036   0.910   0.416  1.5734  1.4243 -1.9967
  196MPD1    H2 3039   2.720   0.776   0.169  3.5444  1.1322 -2.5668
  196MPD1    H3 3040   2.922   0.730   0.287  2.9912  1.0187 -0.4333
  196MPD1     N 3041   2.965   1.165   0.395  0.5299  0.9006 -0.5139
  196MPD1    H5 3042   3.061   1.145   0.422 -0.7195 -1.8951  1.7500
  196MPD1    N1 3043   2.597   1.008   0.156 -0.1837  0.4631 -0.4024
  196MPD1    H6 3044   2.532   0.931   0.142 -2.5106  1.8489  2.5869
  196MPD1    H7 3045   2.546   1.094   0.175 -1.6176 -0.8286  1.5797
  197MPD1     C 3046   2.605   3.985  17.599  0.2124  0.8373  0.1954
  197MPD1    C1 3047   2.576   4.109  17.563 -0.0217  0.5932 -0.2245
  197MPD1    C2 3048   2.579   4.137  17.432 -0.1363 -0.2531 -0.3136
  197MPD1    C3 3049   2.579   4.045  17.324  0.5315 -0.6652 -0.3502
  197MPD1    C4 3050   2.605   3.914  17.365  0.5661 -0.8851  0.4359
  197MPD1    C5 3051   2.619   3.889  17.504 -0.6512 -0.1764  0.4206
  197MPD1     H 3052   2.555   4.240  17.408  0.0121 -0.0664  0.3290
  197MPD1    H1 3053   2.608   3.834  17.292  2.1468 -1.5260  1.2091
  197MPD1    H2 3054   2.637   3.957  17.699  2.5337  0.2306 -0.7270
  197MPD1    H3 3055   2.639   3.788  17.536  3.2345  0.1500 -1.0832
  197MPD1     N 3056   2.575   4.072  17.188  0.4329  0.5526 -0.1850
  197MPD1    H5 3057   2.582   3.999  17.119  1.3899 -0.6843  1.2300
  197MPD1    N1 3058   2.562   4.211  17.655 -0.4970  0.2587 -0.1195
  197MPD1    H6 3059   2.519   4.295  17.616 -0.1123  1.5284  2.1990
  197MPD1    H7 3060   2.501   4.182  17.730 -0.5467  1.4199  0.2834
  198MPD1     C 3061   0.051   1.684  15.480 -0.3918 -0.3146 -0.3113
  198MPD1    C1 3062   4.708   1.740  15.580  0.9243  0.1150 -0.0345
  198MPD1    C2 3063   4.716   1.876  15.610  0.2098 -0.0558  1.2373
  198MPD1    C3 3064   0.080   1.950  15.542  0.5176 -0.8164 -0.4277
  198MPD1    C4 3065   0.158   1.894  15.446  0.3548  0.1933  0.4567
  198MPD1    C5 3066   0.151   1.754  15.425 -0.1333  0.2655 -0.2325
  198MPD1     H 3067   4.646   1.931  15.673 -0.1121  0.1324  0.7136
  198MPD1    H1 3068   0.237   1.946  15.392  0.8146  1.7319  2.5933
  198MPD1    H2 3069   0.039   1.579  15.458  0.2175 -0.2288 -1.0948
  198MPD1    H3 3070   0.223   1.716  15.353  0.2135 -0.7547  0.6503
  198MPD1     N 3071   0.088   2.082  15.581  0.5560  0.2558 -0.8062
  198MPD1    H5 3072   0.028   2.112  15.656 -0.0977 -1.9951 -0.4234
  198MPD1    N1 3073   4.613   1.661  15.641 -0.2998 -0.0665  0.0674
  198MPD1    H6 3074   4.629   1.567  15.606  1.2240  0.4846 -0.7117
  198MPD1    H7 3075   4.517   1.687  15.620 -0.5873  0.1255  1.6461
  199MPD1     C 3076   3.115   3.117  10.350 -0.8130 -0.1479  0.1529
  199MPD1    C1 3077   3.053   3.236  10.320 -0.1909  0.1965 -0.0545
  199MPD1    C2 3078   2.918   3.233  10.288 -1.1313 -0.3174 -0.0372
  199MPD1    C3 3079   2.847   3.114  10.274  0.5277  0.2156 -0.3804
  199MPD1    C4 3080   2.908   2.996  10.314 -0.0117  0.6199 -0.1741
  199MPD1    C5 3081   3.043   2.996  10.349  0.6996 -0.0405 -0.8347
  199MPD1     H 3082   2.875   3.330  10.263  2.3785  1.6846  1.8197
  199MPD1    H1 3083   2.859   2.899  10.311 -0.5732  0.8306  1.9892
  199MPD1    H2 3084   3.221   3.120  10.372 -0.7661 -1.3973  0.0554
  199MPD1    H3 3085   3.087   2.903  10.384 -0.9474 -1.2415 -1.9877
  199MPD1     N 3086   2.714   3.110  10.230 -0.7727 -0.7273  0.0371
  199MPD1    H5 3087   2.683   3.021  10.191  1.0115 -1.5162  0.4348
  199MPD1    N1 3088   3.140   3.348  10.299 -0.7414  0.7528 -0.0875
  199MPD1    H6 3089   3.211   3.348  10.372 -0.7122  1.3741 -0.1129
  199MPD1    H7 3090   3.092   3.437  10.315 -3.5842 -0.5350 -1.5224
  200MPD1     C 3091   0.642   3.311  14.332 -0.3689 -0.0447  0.8523
  200MPD1    C1 3092   0.711   3.256  14.227  0.3161  0.1308 -0.8084
  200MPD1    C2 3093   0.843   3.288  14.218  0.4584 -0.1855  0.1710
  200MPD1    C3 3094   0.911   3.357  14.324  0.2905  0.3582 -0.1673
  200MPD1    C4 3095   0.836   3.399  14.437  0.2977  0.1130  0.0651
  200MPD1    C5 3096   0.705   3.369  14.433 -0.1272 -0.2897  0.1483
  200MPD1     H 3097   0.895   3.243  14.134  0.3318  0.2415 -0.1340
  200MPD1    H1 3098   0.881   3.446  14.524  1.8887 -0.0419 -0.6611
  200MPD1    H2 3099   0.534   3.300  14.340 -0.7054  1.9559 -0.9677
  200MPD1    H3 3100   0.649   3.401  14.520 -0.9399  2.7190 -1.4586
  200MPD1     N 3101   1.053   3.367  14.319 -0.4429 -0.2076 -0.2901
  200MPD1    H5 3102   1.092   3.347  14.228 -0.6197  0.5850 -0.5456
  200MPD1    N1 3103   0.639   3.207  14.118  0.1547  0.3486  0.0374
  200MPD1    H6 3104   0.692   3.137  14.065 -1.4740  1.1290 -2.6278
  200MPD1    H7 3105   0.542   3.184  14.137  0.0537  0.4730 -0.3204
  201MPD1     C 3106   0.055   1.859  13.916 -0.0045  0.1971  0.7632
  201MPD1    C1 3107   4.701   1.945  13.866 -0.5590 -0.4776 -0.4756
  201MPD1    C2 3108   4.565   1.909  13.861 -0.7818  0.1781 -0.0416
  201MPD1    C3 3109   4.527   1.786  13.907  0.6257  0.4373 -0.1897
  201MPD1    C4 3110   4.628   1.700  13.956  0.4471 -0.0092  0.1450
  201MPD1    C5 3111   0.024   1.733  13.954  0.0689 -0.2444 -0.4678
  201MPD1     H 3112   4.490   1.977  13.823 -1.7816 -0.8039  0.1732
  201MPD1    H1 3113   4.604   1.600  13.991  2.4119 -0.5044  0.0967
  201MPD1    H2 3114   0.160   1.883  13.926  0.3555 -0.7612 -0.7154
  201MPD1    H3 3115   0.104   1.670  13.992 -0.9519 -1.5927 -0.5900
  201MPD1     N 3116   4.389   1.753  13.915  0.4427  0.2461  0.1985
  201MPD1    H5 3117   4.328   1.831  13.895  1.8966  0.4193 -3.4512
  201MPD1    N1 3118   0.003   2.062  13.808  0.6764 -0.2148 -0.0220
  201MPD1    H6 3119   4.663   2.130  13.805 -0.4004 -1.2916  3.0009
  201MPD1    H7 3120   0.084   2.096  13.860  2.1523 -3.5705 -0.1074
  202MPD1     C 3121   4.317   2.373   9.917 -0.3127 -0.4474  1.0221
  202MPD1    C1 3122   4.237   2.428  10.010  0.2613  0.1745 -0.0069
  202MPD1    C2 3123   4.120   2.352  10.031 -0.9138 -0.1452  0.7614
  202MPD1    C3 3124   4.102   2.217  10.004  0.2312  0.2575  0.4783
  202MPD1    C4 3125   4.197   2.159   9.922 -0.0357 -0.3845  0.2383
  202MPD1    C5 3126   4.298   2.244   9.873  0.2747  0.5935 -0.2749
  202MPD1     H 3127   4.053   2.396  10.105 -2.3230 -2.0777  0.6369
  202MPD1    H1 3128   4.190   2.058   9.884 -2.0465 -0.5976  1.1690
  202MPD1    H2 3129   4.383   2.441   9.864 -0.5204 -0.1108  1.1962
  202MPD1    H3 3130   4.366   2.198   9.802  1.2312  0.4799  0.7134
  202MPD1     N 3131   3.991   2.143  10.051 -0.1272 -0.0529 -0.3367
  202MPD1    H5 3132   4.001   2.043  10.038  0.7475 -0.0642  0.4752
  202MPD1    N1 3133   4.219   2.566  10.014  0.7012 -0.9108 -0.3933
  202MPD1    H6 3134   4.308   2.615  10.022  0.3997 -0.2976 -0.8097
  202MPD1    H7 3135   4.164   2.594  10.094 -0.8036 -1.5474 -1.2136
  203MPD1     C 3136   2.664   2.997  12.536  0.0589  0.3317 -0.3186
  203MPD1    C1 3137   2.606   2.883  12.484 -0.3360 -0.2173  0.3778
  203MPD1    C2 3138   2.663   2.758  12.515  0.0450 -0.0507 -0.5573
  203MPD1    C3 3139   2.766   2.746  12.609  1.0993 -0.3496  0.1405
  203MPD1    C4 3140   2.812   2.865  12.667 -0.0213  0.0190 -0.0574
  203MPD1    C5 3141   2.765   2.987  12.630 -0.0849 -0.7909 -0.8283
  203MPD1     H 3142   2.621   2.663  12.483 -1.2954  0.4934 -0.4190
  203MPD1    H1 3143   2.876   2.861  12.755 -0.8952 -1.8085  0.4855
  203MPD1    H2 3144   2.633   3.095  12.501  2.8035  0.9999 -0.9265
  203MPD1    H3 3145   2.795   3.078  12.680  0.8006 -0.6353 -1.6324
  203MPD1     N 3146   2.806   2.616  12.648  0.6473  0.2046  0.0409
  203MPD1    H5 3147   2.770   2.535  12.598  0.8544  0.2528 -0.1851
  203MPD1    N1 3148   2.498   2.884  12.389  0.0750  0.4433 -0.8887
  203MPD1    H6 3149   2.433   2.960  12.405  0.8488  0.5796  1.7641
  203MPD1    H7 3150   2.431   2.808  12.400  1.7859 -0.7155  1.7944
  204MPD1     C 3151   1.775   4.331   0.263  0.0118  0.3616 -0.1377
  204MPD1    C1 3152   1.693   4.376   0.157  0.6683  0.6852 -0.0498
  204MPD1    C2 3153   1.599   4.283   0.124  0.0124  0.0203 -0.2674
  204MPD1    C3 3154   1.585   4.159   0.170  0.3442  0.8923  0.3784
  204MPD1    C4 3155   1.689   4.113   0.251 -0.2813  0.0171  0.6102
  204MPD1    C5 3156   1.779   4.200   0.302  0.6962  0.3677 -0.2380
  204MPD1     H 3157   1.544   4.317   0.037 -0.4715 -1.8753 -0.7111
  204MPD1    H1 3158   1.701   4.009   0.279 -0.7528 -0.2772 -0.2860
  204MPD1    H2 3159   1.848   4.403   0.298  0.9595 -0.5506 -0.2302
  204MPD1    H3 3160   1.868   4.164   0.353  0.1685 -0.6651 -0.0452
  204MPD1     N 3161   1.487   4.069   0.133  0.4723 -0.2950 -0.3075
  204MPD1    H5 3162   1.420   4.103   0.064  0.6375  1.6216  0.4661
  204MPD1    N1 3163   1.703   4.506   0.103  0.3609 -0.0305  0.1891
  204MPD1    H6 3164   1.667   4.525   0.010  1.0440  1.1734  0.1645
  204MPD1    H7 3165   1.795   4.548   0.111 -0.0028  0.8077  0.0622
  205MPD1     C 3166   1.462   2.413   0.901 -0.0714  0.1754  0.1396
  205MPD1    C1 3167   1.415   2.545   0.913  0.2650  0.8847  0.0840
  205MPD1    C2 3168   1.378   2.606   0.792  0.5550 -0.4244 -0.5421
  205MPD1    C3 3169   1.373   2.533   0.676  0.0838 -0.0955 -0.2111
  205MPD1    C4 3170   1.410   2.395   0.672 -0.0823 -0.1872 -0.2732
  205MPD1    C5 3171   1.461   2.334   0.787 -0.4765 -0.9820  0.2723
  205MPD1     H 3172   1.354   2.712   0.788 -0.5231 -0.6195  0.9635
  205MPD1    H1 3173   1.405   2.335   0.582 -0.2416 -1.8758  0.8609
  205MPD1    H2 3174   1.489   2.358   0.991 -1.9885 -0.4219  0.3515
  205MPD1    H3 3175   1.490   2.230   0.795 -0.1907 -0.8685  0.7183
  205MPD1     N 3176   1.338   2.594   0.551 -0.1604  0.2067  0.3833
  205MPD1    H5 3177   1.312   2.540   0.469  0.3571 -1.3323  1.2381
  205MPD1    N1 3178   1.440   2.618   1.040  0.6933 -0.0322  0.4193
  205MPD1    H6 3179   1.455   2.565   1.126  1.4211  1.3360  1.1385
  205MPD1    H7 3180   1.367   2.689   1.052  0.8645  0.5050 -1.7370
  206MPD1     C 3181   1.669   0.325  17.118 -0.0813 -0.5056  0.1679
  206MPD1    C1 3182   1.628   0.451  17.160  0.4805 -0.4458 -0.4418
  206MPD1    C2 3183   1.602   0.547  17.066  0.1853  0.9658 -0.1144
  206MPD1    C3 3184   1.627   0.515  16.931  0.3695 -0.5186  0.3181
  206MPD1    C4 3185   1.674   0.391  16.894 -0.7803 -0.3228 -1.0947
  206MPD1    C5 3186   1.703   0.302  16.990  0.4992  0.2509 -0.6317
  206MPD1     H 3187   1.542   0.635  17.083 -1.4094 -0.1052 -0.1533
  206MPD1    H1 3188   1.704   0.372  16.792  1.3046 -0.1592 -0.5141
  206MPD1    H2 3189   1.692   0.253  17.196 -0.6256  0.2815  1.0581
  206MPD1    H3 3190   1.754   0.208  16.969  0.3281  0.1601 -0.6400
  206MPD1     N 3191   1.607   0.602  16.824  0.2638  0.4626 -0.1076
  206MPD1    H5 3192   1.613   0.569  16.728 -0.1289  2.1435 -0.7142
  206MPD1    N1 3193   1.607   0.470  17.299  0.2838  0.3302 -0.9531
  206MPD1    H6 3194   1.673   0.417  17.355  0.5139  0.5571 -1.0078
  206MPD1    H7 3195   1.604   0.562  17.342 -0.1134 -1.2278  2.3323
  207MPD1     C 3196   4.507   2.613  10.316  0.0397  0.5447 -0.7819
  207MPD1    C1 3197   4.546   2.595  10.444 -0.1973  0.7043 -0.5945
  207MPD1    C2 3198   4.655   2.670  10.488 -0.3292  0.7864  0.2469
  207MPD1    C3 3199   4.694   2.787  10.426  0.0375 -0.2728 -0.3656
  207MPD1    C4 3200   4.649   2.816  10.296 -0.1692 -0.3547  0.0841
  207MPD1    C5 3201   4.554   2.724  10.245 -0.3277 -0.7796 -0.2887
  207MPD1     H 3202   4.685   2.658  10.591 -1.1190  1.9502  0.6063
  207MPD1    H1 3203   4.681   2.901  10.236 -4.5009 -0.5538 -2.4514
  207MPD1    H2 3204   4.431   2.549  10.273  0.6944 -0.6665 -0.1429
  207MPD1    H3 3205   4.508   2.752  10.152  1.3576  0.9511 -0.5906
  207MPD1     N 3206   0.062   2.867  10.479  0.6382 -0.2641 -0.0392
  207MPD1    H5 3207   0.084   2.948  10.423 -2.8023 -0.4152 -1.6121
  207MPD1    N1 3208   4.509   2.474  10.514  0.2466  0.0134 -0.2278
  207MPD1    H6 3209   4.410   2.454  10.500  0.0521  0.8778 -0.0391
  207MPD1    H7 3210   4.545   2.481  10.609  2.1157  0.3660 -0.9659
  208MPD1     C 3211   1.137   1.107  17.157  1.2537  0.1278 -0.3764
  208MPD1    C1 3212   1.248   1.116  17.232 -0.0433 -0.4593 -0.1861
  208MPD1    C2 3213   1.249   1.210  17.337  0.6303 -0.2373  0.2943
  208MPD1    C3 3214   1.152   1.309  17.345  0.4560  0.6951  0.1688
  208MPD1    C4 3215   1.038   1.297  17.264 -0.2089 -0.0201 -0.1236
  208MPD1    C5 3216   1.027   1.188  17.181  0.6457 -0.2004 -0.3268
  208MPD1     H 3217   1.338   1.217  17.399  2.0136  0.6844 -1.7793
  208MPD1    H1 3218   0.948   1.355  17.283 -0.3930 -0.5399  0.5396
  208MPD1    H2 3219   1.117   1.020  17.095 -1.0012  1.2107 -1.1717
  208MPD1    H3 3220   0.939   1.165  17.123  2.0854 -1.3022 -2.0711
  208MPD1     N 3221   1.155   1.404  17.447  0.7612  0.2472 -0.5649
  208MPD1    H5 3222   1.232   1.390  17.511  0.6896  0.7926 -0.3618
  208MPD1    N1 3223   1.354   1.021  17.216  0.2246  0.6370 -0.0089
  208MPD1    H6 3224   1.371   0.973  17.128 -2.2912 -1.3568  0.6071
  208MPD1    H7 3225   1.444   1.058  17.246  0.2831  1.4224 -1.1774
  209MPD1     C 3226   0.561   1.786  11.699 -0.4231  0.6165 -0.3440
  209MPD1    C1 3227   0.511   1.912  11.715  0.2902  0.0825  0.1024
  209MPD1    C2 3228   0.582   2.020  11.659  0.3268  0.0023  0.5796
  209MPD1    C3 3229   0.675   1.995  11.564 -0.4376 -0.4241  0.9192
  209MPD1    C4 3230   0.716   1.866  11.546  0.1400 -0.1665 -0.0165
  209MPD1    C5 3231   0.661   1.765  11.612 -0.0411 -0.6868 -0.4955
  209MPD1     H 3232   0.544   2.121  11.669 -3.4274 -1.2422 -1.1164
  209MPD1    H1 3233   0.799   1.844  11.479  1.1657 -2.1532  1.9041
  209MPD1    H2 3234   0.515   1.698  11.742  1.2167  0.2579  0.6569
  209MPD1    H3 3235   0.694   1.662  11.601 -2.4604 -1.5744  0.5728
  209MPD1     N 3236   0.725   2.103  11.491 -0.0828  0.3153  0.3873
  209MPD1    H5 3237   0.670   2.187  11.502  1.0373  1.0562  0.3524
  209MPD1    N1 3238   0.411   1.937  11.809  0.8589 -0.2954  0.0121
  209MPD1    H6 3239   0.350   2.008  11.770  1.0305 -0.3334 -0.3347
  209MPD1    H7 3240   0.351   1.856  11.823  0.9243 -0.0647  1.6430
  210MPD1     C 3241   1.621   2.540  11.123 -0.8058 -0.6154  0.0269
  210MPD1    C1 3242   1.575   2.442  11.207 -0.2891 -0.3676 -0.0119
  210MPD1    C2 3243   1.441   2.439  11.239  0.3315  0.3640 -0.0899
  210MPD1    C3 3244   1.354   2.536  11.202 -1.0113  0.2815  0.4602
  210MPD1    C4 3245   1.398   2.645  11.125  0.8584 -0.5386  0.6665
  210MPD1    C5 3246   1.528   2.638  11.085  0.2119  0.6222 -0.1986
  210MPD1     H 3247   1.416   2.352  11.299  0.0351  0.1115 -0.5861
  210MPD1    H1 3248   1.331   2.726  11.096 -1.6989 -2.7496  0.3369
  210MPD1    H2 3249   1.723   2.549  11.086 -0.9056 -0.0744 -0.1272
  210MPD1    H3 3250   1.568   2.718  11.023  1.3701 -0.8069 -1.3057
  210MPD1     N 3251   1.220   2.519  11.227  0.0567 -0.4644  0.0063
  210MPD1    H5 3252   1.150   2.565  11.171  1.5404  0.7457 -0.8643
  210MPD1    N1 3253   1.655   2.322  11.241  0.4926 -0.0900 -0.3926
  210MPD1    H6 3254   1.637   2.288  11.335 -1.8126  0.3217 -0.6773
  210MPD1    H7 3255   1.753   2.347  11.245  0.7931 -1.0358 -1.8920
  211MPD1     C 3256   2.692   2.608  16.010  0.0282 -0.7852  0.2418
  211MPD1    C1 3257   2.597   2.529  16.060  0.1052 -0.5653 -0.1187
  211MPD1    C2 3258   2.493   2.590  16.126 -0.2588 -0.0392 -0.3312
  211MPD1    C3 3259   2.478   2.727  16.134  0.1276  0.6393 -0.9124
  211MPD1    C4 3260   2.575   2.807  16.076 -0.3261 -0.0793 -0.2019
  211MPD1    C5 3261   2.684   2.739  16.016 -0.3292 -0.3742  0.0926
  211MPD1     H 3262   2.421   2.535  16.185 -2.7535  1.7045 -1.7833
  211MPD1    H1 3263   2.567   2.915  16.068 -0.1303 -0.0694 -0.2520
  211MPD1    H2 3264   2.782   2.559  15.976  0.6165 -0.2933  1.0773
  211MPD1    H3 3265   2.771   2.793  15.979  1.0825 -1.9117  1.2127
  211MPD1     N 3266   2.362   2.778  16.199 -0.2145 -0.1039  0.1096
  211MPD1    H5 3267   2.293   2.710  16.228 -0.2722 -0.1945 -0.2350
  211MPD1    N1 3268   2.623   2.381  16.084  0.4529 -0.2079 -0.5861
  211MPD1    H6 3269   2.668   2.342  16.002  0.9934  0.2408 -0.4973
  211MPD1    H7 3270   2.535   2.335  16.106  1.0609 -0.2552  1.7580
  212MPD1     C 3271   1.427   1.206  16.235  0.1318  0.1596  0.9387
  212MPD1    C1 3272   1.344   1.283  16.316  0.2851 -0.0446  0.4187
  212MPD1    C2 3273   1.258   1.220  16.402  0.2633  0.2318  0.5253
  212MPD1    C3 3274   1.276   1.088  16.443  0.4040  0.4092 -0.5223
  212MPD1    C4 3275   1.359   1.007  16.362  0.4727 -0.4224 -0.0760
  212MPD1    C5 3276   1.440   1.074  16.270  0.1015  0.2679 -0.4183
  212MPD1     H 3277   1.186   1.282  16.454 -0.6203  0.5880 -1.1436
  212MPD1    H1 3278   1.369   0.901  16.384 -0.0133 -0.1596  1.4187
  212MPD1    H2 3279   1.492   1.249  16.159 -0.7145  0.6875  0.5159
  212MPD1    H3 3280   1.512   1.014  16.216 -0.6323 -0.2114 -0.8632
  212MPD1     N 3281   1.208   1.018  16.552  0.1320 -0.1629  0.1100
  212MPD1    H5 3282   1.226   0.918  16.555 -2.1909 -0.5188  1.8624
  212MPD1    N1 3283   1.308   1.410  16.266  0.3948 -0.2817 -0.1585
  212MPD1    H6 3284   1.395   1.451  16.234 -0.2012  0.1027 -1.2819
  212MPD1    H7 3285   1.276   1.471  16.341 -1.0927 -0.7104 -0.4403
  213MPD1     C 3286   4.301   1.653  15.981 -0.0026  0.5741 -0.5362
  213MPD1    C1 3287   4.240   1.538  15.948  0.7100  0.4137 -0.1222
  213MPD1    C2 3288   4.236   1.516  15.818  0.2679 -0.4832  0.8425
  213MPD1    C3 3289   4.269   1.606  15.720 -0.5121 -0.0791 -0.1972
  213MPD1    C4 3290   4.313   1.733  15.761 -0.6842  0.3496 -0.2101
  213MPD1    C5 3291   4.316   1.759  15.894 -0.6215  0.0163  0.1136
  213MPD1     H 3292   4.210   1.414  15.790 -0.8788 -0.4992  1.9730
  213MPD1    H1 3293   4.330   1.813  15.689 -2.8200  2.1467  1.2704
  213MPD1    H2 3294   4.306   1.677  16.087  0.2987 -0.5226 -0.3099
  213MPD1    H3 3295   4.337   1.859  15.930 -3.1327  0.4013  0.5306
  213MPD1     N 3296   4.247   1.567  15.585  0.6610  0.2641  0.3819
  213MPD1    H5 3297   4.207   1.475  15.573  0.4653  0.3838  0.1209
  213MPD1    N1 3298   4.256   1.425  16.037  0.2015 -0.1462 -0.1773
  213MPD1    H6 3299   4.192   1.350  16.014  0.6600 -0.4878 -0.3490
  213MPD1    H7 3300   4.251   1.442  16.137 -0.1988 -1.4901  0.0271
  214MPD1     C 3301   3.952   0.842  15.032 -0.2457  0.2205 -0.3727
  214MPD1    C1 3302   3.921   0.891  15.158 -0.2430 -0.1842  0.1596
  214MPD1    C2 3303   3.983   1.008  15.197  0.4976  0.1673 -0.6570
  214MPD1    C3 3304   4.054   1.083  15.103  0.0983 -0.3926 -0.3333
  214MPD1    C4 3305   4.069   1.035  14.982 -0.0208 -0.0546 -0.7512
  214MPD1    C5 3306   4.029   0.909  14.949 -0.1121 -0.6844  0.4730
  214MPD1     H 3307   3.963   1.049  15.295 -0.2121  3.3943 -2.1747
  214MPD1    H1 3308   4.123   1.092  14.907 -1.3927 -0.7322 -2.2604
  214MPD1    H2 3309   3.899   0.752  15.003 -1.0715  1.2273 -1.9902
  214MPD1    H3 3310   4.042   0.869  14.849 -0.9420  3.1343 -1.1429
  214MPD1     N 3311   4.106   1.216  15.121  0.0217  0.1886  0.0047
  214MPD1    H5 3312   4.152   1.256  15.040  0.6173  0.0365  0.2626
  214MPD1    N1 3313   3.863   0.806  15.257 -0.1515  0.3687 -0.0867
  214MPD1    H6 3314   3.797   0.738  15.220 -0.0540  0.7317 -0.9290
  214MPD1    H7 3315   3.816   0.863  15.328  0.7797  1.2184 -0.1460
  215MPD1     C 3316   0.092   2.041  10.641  0.6706  0.6768 -0.5622
  215MPD1    C1 3317   4.715   2.073  10.715  0.2990 -0.2553  0.5493
  215MPD1    C2 3318   0.004   2.084  10.850  0.5000 -0.7289 -0.6044
  215MPD1    C3 3319   0.129   2.087  10.906 -0.4488 -0.7416 -0.3984
  215MPD1    C4 3320   0.237   2.051  10.828  0.2055 -0.8973 -0.4022
  215MPD1    C5 3321   0.216   2.022  10.694 -0.5588  0.2053  0.1248
  215MPD1     H 3322   4.655   2.110  10.912  1.7502  1.1270  0.3210
  215MPD1    H1 3323   0.340   2.046  10.862 -0.3298 -3.1426  0.8962
  215MPD1    H2 3324   0.072   2.002  10.542 -0.0587  0.9012 -0.5054
  215MPD1    H3 3325   0.299   1.985  10.636  1.6545  2.7481  1.6793
  215MPD1     N 3326   0.140   2.138  11.033 -0.4744 -0.2231 -0.1375
  215MPD1    H5 3327   0.057   2.174  11.079 -1.2995 -0.2899 -1.5837
  215MPD1    N1 3328   4.585   2.048  10.666 -0.2063  0.2900 -0.4033
  215MPD1    H6 3329   4.567   2.073  10.568 -2.4063  1.1849  0.2299
  215MPD1    H7 3330   4.519   2.096  10.727  1.0785 -0.7899  1.8229
  216MPD1     C 3331   0.453   0.510   0.270  0.2647  0.0354  0.6064
  216MPD1    C1 3332   0.574   0.542   0.312  0.5940  0.0612  0.1952
  216MPD1    C2 3333   0.674   0.444   0.290  0.4081  0.5161  0.1185
  216MPD1    C3 3334   0.647   0.327   0.219  0.3347  0.4308  0.0360
  216MPD1    C4 3335   0.515   0.301   0.182  0.1528  0.1937 -0.0347
  216MPD1    C5 3336   0.426   0.401   0.191 -0.0149 -0.3014  0.2867
  216MPD1     H 3337   0.777   0.465   0.318  0.4036 -0.4920  0.8838
  216MPD1    H1 3338   0.480   0.218   0.122  3.1075 -3.1214  2.8287
  216MPD1    H2 3339   0.365   0.567   0.297 -0.3415 -0.4833 -0.2576
  216MPD1    H3 3340   0.328   0.385   0.146  0.6616 -1.6677 -0.7031
  216MPD1     N 3341   0.757   0.244   0.188  0.4905  0.2934 -0.2283
  216MPD1    H5 3342   0.848   0.280   0.213  0.4767  1.7934 -2.2809
  216MPD1    N1 3343   0.595   0.643   0.408 -0.1022 -0.1592 -0.1341
  216MPD1    H6 3344   0.689   0.681   0.413 -0.4093  0.5323  0.5479
  216MPD1    H7 3345   0.533   0.723   0.393 -1.1540 -0.9627 -0.0725
  217MPD1     C 3346   1.053   0.867   8.892  0.4279  0.0710 -0.1677
  217MPD1    C1 3347   1.184   0.854   8.868 -0.3237  0.1589  0.3045
  217MPD1    C2 3348   1.270   0.965   8.878  0.3636 -0.0233 -1.1784
  217MPD1    C3 3349   1.225   1.088   8.928 -0.0080  0.4364  0.0951
  217MPD1    C4 3350   1.088   1.103   8.947  0.2702  0.4673 -0.0359
  217MPD1    C5 3351   1.009   0.993   8.920 -0.2452 -0.3621 -0.9582
  217MPD1     H 3352   1.377   0.957   8.862  0.3618 -2.1737 -0.1436
  217MPD1    H1 3353   1.040   1.198   8.969  0.3786  0.9008 -1.7017
  217MPD1    H2 3354   0.985   0.782   8.891 -1.0608  1.2678  0.3765
  217MPD1    H3 3355   0.901   0.999   8.924 -0.3748 -3.4798  0.0401
  217MPD1     N 3356   1.312   1.196   8.962 -0.5751 -0.4767 -0.4291
  217MPD1    H5 3357   1.268   1.271   9.015  2.2868  0.5109  0.5493
  217MPD1    N1 3358   1.238   0.730   8.833  0.8740  0.2100  0.2509
  217MPD1    H6 3359   1.334   0.735   8.799  0.1399 -0.1903 -1.8736
  217MPD1    H7 3360   1.185   0.699   8.751  0.7716  0.7587  0.1115
  218MPD1     C 3361   3.882   1.268  12.686  0.4479  0.3413 -0.2348
  218MPD1    C1 3362   4.016   1.264  12.668  0.7447  0.3198 -0.2340
  218MPD1    C2 3363   4.078   1.390  12.659  0.1715  0.0197 -0.6102
  218MPD1    C3 3364   4.006   1.511  12.666 -0.4994 -0.0120  0.2976
  218MPD1    C4 3365   3.876   1.501  12.696  0.1130  0.0083 -1.0363
  218MPD1    C5 3366   3.813   1.384  12.707  0.7282 -0.7907 -0.2020
  218MPD1     H 3367   4.182   1.398  12.629  0.1442  1.0452 -0.4220
  218MPD1    H1 3368   3.818   1.593  12.698 -2.4799 -1.6412 -0.5851
  218MPD1    H2 3369   3.819   1.180  12.685  1.7131 -0.5636 -0.3671
  218MPD1    H3 3370   3.706   1.386  12.724  0.9710 -0.9012  1.3303
  218MPD1     N 3371   4.072   1.630  12.625  0.4573 -0.0491 -0.3273
  218MPD1    H5 3372   4.168   1.615  12.593  0.5596  2.5943 -1.2251
  218MPD1    N1 3373   4.084   1.148  12.633  0.7115  0.6862 -0.3558
  218MPD1    H6 3374   4.036   1.063  12.665 -0.7687  1.4911 -0.4377
  218MPD1    H7 3375   4.183   1.148  12.658  0.7129  0.2508 -0.3486
  219MPD1     C 3376   3.929   2.212  11.899  0.3617 -0.0861 -0.6790
  219MPD1    C1 3377   4.031   2.281  11.970  0.1500  0.2624 -0.0913
  219MPD1    C2 3378   4.060   2.239  12.097 -0.2574 -0.6422  0.2072
  219MPD1    C3 3379   3.986   2.146  12.161 -0.4453 -0.6079 -0.5366
  219MPD1    C4 3380   3.880   2.091  12.097 -0.4977  0.0869  0.0438
  219MPD1    C5 3381   3.853   2.121  11.967  0.1001  0.0778 -0.5110
  219MPD1     H 3382   4.150   2.280  12.141 -0.9403  0.0458  0.9691
  219MPD1    H1 3383   3.808   2.036  12.156 -1.0198 -0.8747 -1.4853
  219MPD1    H2 3384   3.906   2.240  11.797 -1.0941  0.6132 -0.1580
  219MPD1    H3 3385   3.764   2.089  11.915 -1.2148 -1.5231  2.6790
  219MPD1     N 3386   4.019   2.103  12.291 -0.2465 -0.9857  0.0410
  219MPD1    H5 3387   3.964   2.024  12.324 -1.4151  0.0302  0.5323
  219MPD1    N1 3388   4.114   2.366  11.897  0.5292  0.0287 -0.0940
  219MPD1    H6 3389   4.066   2.408  11.817 -0.4949 -1.5793 -0.3070
  219MPD1    H7 3390   4.154   2.445  11.947  1.6437  1.2558 -2.9263
  220MPD1     C 3391   4.371   3.184   9.958 -0.2826 -0.1229  0.2788
  220MPD1    C1 3392   4.297   3.075  10.002 -0.9072 -0.7380 -0.4314
  220MPD1    C2 3393   4.318   3.030  10.130  0.6440 -0.0642 -0.1169
  220MPD1    C3 3394   4.395   3.100  10.215  0.2789  0.3081  0.0724
  220MPD1    C4 3395   4.465   3.206  10.170 -0.9263 -0.2773  0.2506
  220MPD1    C5 3396   4.448   3.254  10.045 -0.0258 -0.3522  0.4714
  220MPD1     H 3397   4.263   2.946  10.171 -0.5341  1.5228  1.5140
  220MPD1    H1 3398   4.523   3.272  10.233  1.0805 -1.0040 -0.8477
  220MPD1    H2 3399   4.370   3.212   9.854  2.8136 -2.8418 -0.4818
  220MPD1    H3 3400   4.494   3.347  10.015  0.9383 -1.2972 -0.9847
  220MPD1     N 3401   4.400   3.046  10.344  0.3085  0.3921  1.1904
  220MPD1    H5 3402   4.347   2.963  10.367  1.3158 -0.5664  0.0220
  220MPD1    N1 3403   4.228   2.999   9.904 -0.1710 -0.8633 -0.4365
  220MPD1    H6 3404   4.147   2.950   9.941 -0.6689  0.8222  0.6770
  220MPD1    H7 3405   4.185   3.049   9.827  0.6116  0.0188 -0.2993
  221MPD1     C 3406   2.171   1.742  17.411  0.5779  0.1815  0.0651
  221MPD1    C1 3407   2.187   1.642  17.316 -0.1944  0.3743 -0.1754
  221MPD1    C2 3408   2.120   1.644  17.192  0.2400  0.0252 -0.0357
  221MPD1    C3 3409   2.050   1.758  17.148  0.1136 -1.0757  0.1012
  221MPD1    C4 3410   2.025   1.854  17.241 -0.5571  0.4868  0.1099
  221MPD1    C5 3411   2.088   1.848  17.369 -0.0813  0.1467 -0.2823
  221MPD1     H 3412   2.140   1.574  17.112 -3.3346 -1.1670  0.0851
  221MPD1    H1 3413   1.974   1.943  17.207 -1.9946  0.2259  1.5698
  221MPD1    H2 3414   2.213   1.734  17.510 -0.0761 -0.8036  0.2578
  221MPD1    H3 3415   2.068   1.931  17.436  0.1313 -0.1567  0.1548
  221MPD1     N 3416   1.999   1.774  17.020 -0.7487  0.0507  0.1686
  221MPD1    H5 3417   1.958   1.861  16.989 -2.6999 -0.7598  0.4429
  221MPD1    N1 3418   2.275   1.534  17.340  0.0238  0.1222 -0.9765
  221MPD1    H6 3419   2.302   1.476  17.261  0.7849 -2.1306  0.9121
  221MPD1    H7 3420   2.360   1.557  17.392 -1.5666  2.0193  0.7318
  222MPD1     C 3421   0.330   0.515  17.039  0.1928  0.4808 -0.5404
  222MPD1    C1 3422   0.308   0.628  17.109 -0.0627  0.7260 -0.6624
  222MPD1    C2 3423   0.407   0.678  17.192  0.3741  0.3757  0.4144
  222MPD1    C3 3424   0.536   0.621  17.186  0.6505 -0.4670 -0.2252
  222MPD1    C4 3425   0.554   0.506  17.112 -0.2725  0.0143 -0.5416
  222MPD1    C5 3426   0.449   0.450  17.045  0.6419  0.1468 -0.2661
  222MPD1     H 3427   0.387   0.762  17.257  1.1018  2.0764 -1.5405
  222MPD1    H1 3428   0.643   0.444  17.114 -0.5511 -0.3299  1.0791
  222MPD1    H2 3429   0.249   0.469  16.984  1.2610  0.5387 -2.1430
  222MPD1    H3 3430   0.471   0.358  16.992  1.2399 -1.1890  2.3332
  222MPD1     N 3431   0.652   0.675  17.252  0.0742  0.4642  0.3062
  222MPD1    H5 3432   0.738   0.627  17.228  0.1553 -0.7251  2.9947
  222MPD1    N1 3433   0.179   0.669  17.125  0.4196 -0.2767  0.2896
  222MPD1    H6 3434   0.127   0.635  17.044  0.8803 -0.1061 -0.0813
  222MPD1    H7 3435   0.176   0.771  17.125  1.5935 -0.2434  0.4407
  223MPD1     C 3436   1.470   0.438  17.675 -0.2047  0.0304 -0.4677
  223MPD1    C1 3437   1.481   0.574  17.656 -0.1099 -0.0046 -0.0319
  223MPD1    C2 3438   1.364   0.647  17.653 -0.4675  0.7293 -0.2062
  223MPD1    C3 3439   1.248   0.582  17.635  0.3725 -0.0077  0.4924
  223MPD1    C4 3440   1.240   0.441  17.621 -0.0320  0.6200 -0.5764
  223MPD1    C5 3441   1.349   0.375  17.666  0.4594 -0.1965  0.0726
  223MPD1     H 3442   1.352   0.755  17.649  0.4673  0.8827  0.9963
  223MPD1    H1 3443   1.151   0.382  17.598 -0.1427  0.9137 -0.9081
  223MPD1    H2 3444   1.553   0.375  17.706  0.3997 -0.3258 -2.8166
  223MPD1    H3 3445   1.336   0.270  17.689 -2.0850 -0.3407 -2.0406
  223MPD1     N 3446   1.132   0.668  17.624 -0.2309  0.2641  1.1121
  223MPD1    H5 3447   1.153   0.768  17.617 -0.2618  0.1656 -0.5093
  223MPD1    N1 3448   1.602   0.643  17.676  0.4145  0.6285  0.1944
  223MPD1    H6 3449   1.678   0.580  17.653 -1.7448 -0.7227 -3.3052
  223MPD1    H7 3450   1.613   0.719  17.609  2.2369 -0.2962 -0.5443
  224MPD1     C 3451   3.718   1.888   9.847 -0.2608 -0.0085  0.7637
  224MPD1    C1 3452   3.649   2.000   9.821  0.2954 -0.9673 -0.7655
  224MPD1    C2 3453   3.510   1.998   9.824  0.2435  0.2023  0.3999
  224MPD1    C3 3454   3.444   1.888   9.875 -0.2139 -0.2708 -0.3672
  224MPD1    C4 3455   3.516   1.787   9.920 -0.0640 -0.2720  0.0807
  224MPD1    C5 3456   3.653   1.782   9.903 -0.0915  0.2153  0.0645
  224MPD1     H 3457   3.464   2.091   9.794  3.3208  1.1286 -1.4983
  224MPD1    H1 3458   3.466   1.703   9.967 -0.2976 -1.6994 -2.7553
  224MPD1    H2 3459   3.823   1.874   9.829 -0.5112 -0.3596 -0.4144
  224MPD1    H3 3460   3.704   1.690   9.928  2.6803  2.5730  3.0985
  224MPD1     N 3461   3.302   1.888   9.898  0.0088 -0.1314  0.1615
  224MPD1    H5 3462   3.263   1.806   9.944 -1.3087  1.0395  1.1460
  224MPD1    N1 3463   3.720   2.097   9.750 -0.0351  0.1328  0.3796
  224MPD1    H6 3464   3.820   2.095   9.769  0.0688 -0.7282 -0.2318
  224MPD1    H7 3465   3.693   2.190   9.780 -2.7649 -0.7400  0.6647
  225MPD1     C 3466   4.526   3.188  12.912  0.3756  0.0732  0.0800
  225MPD1    C1 3467   4.459   3.094  12.987  0.6475 -0.1005 -0.9073
  225MPD1    C2 3468   4.318   3.096  13.002 -0.0102 -0.2811 -0.3646
  225MPD1    C3 3469   4.251   3.208  12.956  0.4402  0.1306 -0.0330
  225MPD1    C4 3470   4.319   3.308  12.888  0.0943  0.4491  0.7378
  225MPD1    C5 3471   4.454   3.297  12.857  0.7941  0.4211  0.1637
  225MPD1     H 3472   4.268   3.008  13.042  0.7824 -0.1510  0.9067
  225MPD1    H1 3473   4.266   3.397  12.856 -0.0260 -1.2450 -3.7775
  225MPD1    H2 3474   4.631   3.171  12.893  1.1270  3.6306  0.9966
  225MPD1    H3 3475   4.494   3.375  12.794  2.5164 -0.6196 -0.0296
  225MPD1     N 3476   4.108   3.225  12.967 -0.1650  0.6040 -0.1818
  225MPD1    H5 3477   4.073   3.316  12.942 -2.1529 -0.4047 -1.0947
  225MPD1    N1 3478   4.533   2.980  13.028 -0.2506  0.1830  0.2625
  225MPD1    H6 3479   4.630   3.004  13.049  0.1990 -0.8693 -0.6278
  225MPD1    H7 3480   4.487   2.937  13.108  0.8640  0.5936  1.1414
  226MPD1     C 3481   1.517   2.916   9.834  0.2203  0.3518  0.2618
  226MPD1    C1 3482   1.473   3.048   9.832  0.4102 -1.0142 -0.1999
  226MPD1    C2 3483   1.574   3.145   9.829  0.5556  0.1088  0.2890
  226MPD1    C3 3484   1.708   3.111   9.797  0.6504  0.8505 -0.5212
  226MPD1    C4 3485   1.743   2.979   9.788  0.1539  0.6412 -0.6344
  226MPD1    C5 3486   1.646   2.883   9.814 -0.0684 -0.0344  0.4738
  226MPD1     H 3487   1.547   3.246   9.858 -1.9639  0.1579 -2.2893
  226MPD1    H1 3488   1.845   2.949   9.765  0.4120  1.4116 -0.5000
  226MPD1    H2 3489   1.452   2.837   9.869 -1.3272  2.2356  1.6181
  226MPD1    H3 3490   1.671   2.778   9.816 -2.3847 -0.5483  2.3087
  226MPD1     N 3491   1.802   3.218   9.768  0.7135  0.1222 -0.0115
  226MPD1    H5 3492   1.748   3.303   9.756 -0.5163 -1.1005 -3.0338
  226MPD1    N1 3493   1.337   3.068   9.866  0.3216 -0.8502 -0.1104
  226MPD1    H6 3494   1.298   3.159   9.842  1.3498 -0.2436  0.5040
  226MPD1    H7 3495   1.269   2.997   9.839 -0.4636  0.5436 -1.8171
  227MPD1     C 3496   1.554   3.936   9.411 -0.0198 -0.3204  0.3414
  227MPD1    C1 3497   1.513   3.857   9.521 -0.4851  0.6414 -0.5396
  227MPD1    C2 3498   1.603   3.757   9.561  0.3253  0.3205 -0.2882
  227MPD1    C3 3499   1.725   3.738   9.497 -0.1782  0.8203 -0.0292
  227MPD1    C4 3500   1.758   3.812   9.383  0.4071 -0.2990 -0.0870
  227MPD1    C5 3501   1.676   3.910   9.347  0.2548 -0.4419  1.3088
  227MPD1     H 3502   1.587   3.693   9.647 -1.3013 -0.0727 -0.8887
  227MPD1    H1 3503   1.850   3.806   9.326 -0.3054 -0.0761 -1.2675
  227MPD1    H2 3504   1.492   4.018   9.376  0.4988  0.5439  1.4621
  227MPD1    H3 3505   1.704   3.982   9.272 -1.1936 -0.8461  0.3894
  227MPD1     N 3506   1.816   3.646   9.552 -0.6709 -0.8826  0.7279
  227MPD1    H5 3507   1.795   3.610   9.645 -0.4635  1.0004  1.5140
  227MPD1    N1 3508   1.411   3.903   9.607  0.0712 -0.2126 -0.6912
  227MPD1    H6 3509   1.343   3.974   9.579  2.4290  1.9989 -0.8207
  227MPD1    H7 3510   1.370   3.830   9.665  1.3125  0.2352  0.7609
  228MPD1     C 3511   0.734   1.761  12.764  0.5034 -0.0408  0.8121
  228MPD1    C1 3512   0.722   1.649  12.688 -0.2523 -0.6598 -0.4992
  228MPD1    C2 3513   0.772   1.532  12.746  0.6027 -0.5702 -0.2420
  228MPD1    C3 3514   0.837   1.527  12.870 -0.0813  0.5816 -0.1627
  228MPD1    C4 3515   0.877   1.647  12.925  0.0343  0.4975  0.6137
  228MPD1    C5 3516   0.813   1.763  12.878 -0.1257 -1.0029  0.3279
  228MPD1     H 3517   0.739   1.438  12.702  0.7692 -1.0559  0.6689
  228MPD1    H1 3518   0.953   1.662  13.001  1.2939  0.0182 -0.5700
  228MPD1    H2 3519   0.672   1.847  12.740 -0.2836 -0.5206  1.1199
  228MPD1    H3 3520   0.817   1.855  12.935 -2.9570 -0.1628 -0.8486
  228MPD1     N 3521   0.863   1.399  12.927  0.1399 -0.8871 -0.8085
  228MPD1    H5 3522   0.843   1.314  12.877  0.8745 -2.0994  0.9742
  228MPD1    N1 3523   0.624   1.631  12.587  0.2163 -0.6262 -0.0236
  228MPD1    H6 3524   0.665   1.560  12.527  0.7496 -0.4488  0.1280
  228MPD1    H7 3525   0.620   1.720  12.537  0.3673 -0.2745  0.6004
  229MPD1     C 3526   0.483   0.351  14.218  0.3965  0.7341  0.5700
  229MPD1    C1 3527   0.474   0.361  14.357  0.8068  0.1821 -0.6498
  229MPD1    C2 3528   0.514   0.255  14.440 -0.4628  0.1338 -0.3717
  229MPD1    C3 3529   0.584   0.146  14.384 -0.3164 -0.3709 -0.2021
  229MPD1    C4 3530   0.601   0.129  14.246  0.3813  0.0430 -0.2906
  229MPD1    C5 3531   0.546   0.237  14.168  0.3352  0.1138 -0.2245
  229MPD1     H 3532   0.496   0.265  14.547 -0.6088 -2.7287 -0.1258
  229MPD1    H1 3533   0.664   0.051  14.205  0.1030 -0.1926 -0.2756
  229MPD1    H2 3534   0.465   0.430  14.146 -1.3077  0.8477  1.1259
  229MPD1    H3 3535   0.561   0.229  14.061  2.8486  0.5543  0.1029
  229MPD1     N 3536   0.627   0.038  14.466 -0.2271  0.6168  0.0851
  229MPD1    H5 3537   0.696   4.714  14.421 -0.2511  1.8646 -1.5563
  229MPD1    N1 3538   0.404   0.470  14.412  0.6098  0.1818 -0.1012
  229MPD1    H6 3539   0.422   0.483  14.512  2.1116  3.1247 -0.7525
  229MPD1    H7 3540   0.430   0.553  14.359 -1.5850  0.2885 -0.9902
  230MPD1     C 3541   1.020   4.468  15.445  0.0802 -0.3229  0.3520
  230MPD1    C1 3542   1.061   4.376  15.357  0.4720  0.1137 -0.5967
  230MPD1    C2 3543   1.009   4.383  15.222  0.1622 -0.5723 -0.1988
  230MPD1    C3 3544   0.928   4.483  15.176 -0.4598 -0.1418 -0.0779
  230MPD1    C4 3545   0.885   4.574  15.268 -0.1161 -0.1764 -0.3748
  230MPD1    C5 3546   0.926   4.566  15.399 -0.5440  0.2210 -0.2614
  230MPD1     H 3547   1.030   4.301  15.155  1.4445  0.5493 -1.1686
  230MPD1    H1 3548   0.817   4.654  15.242  0.4817  0.1024 -1.1051
  230MPD1    H2 3549   1.053   4.477  15.548  0.9407  0.2103  0.0257
  230MPD1    H3 3550   0.892   4.637  15.473  0.4021  0.9074 -0.4903
  230MPD1     N 3551   0.872   4.477  15.049  0.4933  0.1079 -0.3620
  230MPD1    H5 3552   0.908   4.394  15.003 -0.7028 -2.2466  2.9192
  230MPD1    N1 3553   1.132   4.266  15.401  0.2019 -0.4042  0.0118
  230MPD1    H6 3554   1.197   4.290  15.476 -1.7723  0.2697  1.5313
  230MPD1    H7 3555   1.167   4.208  15.326 -0.0335  1.8093 -1.8076
  231MPD1     C 3556   3.097   1.534  15.605  0.1271  0.2375  0.6098
  231MPD1    C1 3557   3.121   1.461  15.491  0.2105 -0.3344  0.0234
  231MPD1    C2 3558   3.248   1.483  15.437 -0.1017 -0.1009 -0.0403
  231MPD1    C3 3559   3.347   1.557  15.493 -0.0033  0.8405  0.0521
  231MPD1    C4 3560   3.319   1.612  15.619  0.0424  0.2842  0.1954
  231MPD1    C5 3561   3.189   1.607  15.663  0.0982  0.3707  0.0056
  231MPD1     H 3562   3.264   1.450  15.335  0.5436  0.1704 -0.0239
  231MPD1    H1 3563   3.388   1.681  15.667  1.8303 -2.1322  1.1113
  231MPD1    H2 3564   3.004   1.526  15.660  0.0767 -0.2091  0.4629
  231MPD1    H3 3565   3.156   1.670  15.745 -0.9945 -1.3169  0.8546
  231MPD1     N 3566   3.467   1.580  15.420  0.6099  0.2373 -0.6907
  231MPD1    H5 3567   3.488   1.525  15.337 -0.1597  0.4731 -1.0539
  231MPD1    N1 3568   3.026   1.407  15.407  0.0954  0.5452 -0.7452
  231MPD1    H6 3569   3.063   1.342  15.338 -2.2628 -0.0054 -1.4668
  231MPD1    H7 3570   2.954   1.368  15.467  0.5191  0.7341 -0.1002
  232MPD1     C 3571   0.669   0.003   0.621 -0.1150 -0.1376  0.2277
  232MPD1    C1 3572   0.582   0.061   0.530 -0.3174 -0.3737  0.4691
  232MPD1    C2 3573   0.519   4.716   0.440  0.7344 -0.0730  0.2968
  232MPD1    C3 3574   0.517   4.576   0.454  0.0589  0.0004 -0.5009
  232MPD1    C4 3575   0.588   4.520   0.559 -0.7987 -0.0765 -0.5204
  232MPD1    C5 3576   0.670   4.605   0.633  0.1391  0.0313 -0.1299
  232MPD1     H 3577   0.456   0.033   0.370 -0.3323  0.4816  1.6818
  232MPD1    H1 3578   0.599   4.413   0.573 -0.3805  0.1650  1.0102
  232MPD1    H2 3579   0.736   0.059   0.685  0.0611  2.1785 -2.0100
  232MPD1    H3 3580   0.738   4.558   0.702 -0.7913  0.4796  1.1051
  232MPD1     N 3581   0.456   4.498   0.357 -0.1353 -0.2464 -0.6071
  232MPD1    H5 3582   0.429   4.551   0.275 -2.8308 -0.4149  0.1824
  232MPD1    N1 3583   0.584   0.198   0.512  0.2108  0.5651  0.6174
  232MPD1    H6 3584   0.597   0.248   0.600 -0.0785  0.4777  0.7094
  232MPD1    H7 3585   0.503   0.233   0.460  0.7773  0.8622 -0.0605
  233MPD1     C 3586   1.623   2.830   1.752  0.2423 -0.6880 -0.1193
  233MPD1    C1 3587   1.669   2.858   1.627 -0.1951  0.0723  0.1095
  233MPD1    C2 3588   1.772   2.785   1.577 -0.0315 -0.1905 -0.1234
  233MPD1    C3 3589   1.841   2.690   1.653 -0.3105  0.1665  0.7852
  233MPD1    C4 3590   1.785   2.667   1.782  0.3430 -0.3774 -0.6793
  233MPD1    C5 3591   1.675   2.736   1.826  0.0544 -0.3516  0.2917
  233MPD1     H 3592   1.805   2.804   1.475  1.5888 -2.5016 -0.0175
  233MPD1    H1 3593   1.822   2.593   1.852  0.1954 -0.0693 -0.2725
  233MPD1    H2 3594   1.532   2.875   1.791 -0.0828 -0.5162 -1.0723
  233MPD1    H3 3595   1.648   2.725   1.930 -1.7239  2.0349  0.0755
  233MPD1     N 3596   1.951   2.612   1.611  0.1439  0.2837  0.3723
  233MPD1    H5 3597   1.998   2.559   1.684 -0.7311 -0.2834  0.5098
  233MPD1    N1 3598   1.596   2.954   1.554 -0.1660 -0.2305  0.2061
  233MPD1    H6 3599   1.652   2.988   1.476 -0.0950  1.4421  0.9921
  233MPD1    H7 3600   1.571   3.030   1.618 -0.7826  0.8352 -1.3083
  234MPD1     C 3601   3.275   1.802   8.854 -0.2630  0.1138  0.0077
  234MPD1    C1 3602   3.269   1.696   8.945 -0.2050  0.1818  0.1427
  234MPD1    C2 3603   3.143   1.652   8.988 -0.1630 -0.0536  0.1633
  234MPD1    C3 3604   3.029   1.702   8.923 -0.2664  0.2182 -0.1710
  234MPD1    C4 3605   3.043   1.802   8.834  0.1662 -0.1827 -0.1856
  234MPD1    C5 3606   3.162   1.861   8.804 -0.1652  0.4706  0.8253
  234MPD1     H 3607   3.136   1.578   9.067  0.8914 -2.6585 -2.1758
  234MPD1    H1 3608   2.960   1.846   8.780  0.6833  0.0686 -0.7820
  234MPD1    H2 3609   3.374   1.839   8.828 -0.6497  0.0525 -1.5168
  234MPD1    H3 3610   3.167   1.947   8.739 -1.0892  0.1672  0.3525
  234MPD1     N 3611   2.902   1.656   8.970 -0.4309 -0.0454  0.1587
  234MPD1    H5 3612   2.901   1.599   9.054  1.2008  1.4871  1.2310
  234MPD1    N1 3613   3.389   1.647   9.003 -0.0605 -0.0059 -0.1750
  234MPD1    H6 3614   3.469   1.651   8.940  0.2481  1.9258  0.3582
  234MPD1    H7 3615   3.377   1.554   9.043  1.3660  0.2458  0.8416
  235MPD1     C 3616   0.213   2.904  10.047 -0.7467  0.4577 -0.6180
  235MPD1    C1 3617   0.151   2.994   9.968 -0.1834 -0.8337 -0.1682
  235MPD1    C2 3618   0.225   3.096   9.909 -0.7801 -0.1486 -0.3740
  235MPD1    C3 3619   0.367   3.107   9.925  0.2449 -0.3070  0.0916
  235MPD1    C4 3620   0.428   3.004   9.996 -0.3286  0.4167  0.3127
  235MPD1    C5 3621   0.350   2.907  10.052  0.7690 -0.0229  0.7494
  235MPD1     H 3622   0.164   3.169   9.857 -0.9579 -0.5555 -0.7333
  235MPD1    H1 3623   0.536   2.993  10.002 -0.5813 -1.6729  0.9964
  235MPD1    H2 3624   0.159   2.822  10.095 -1.6580  0.8189 -1.0181
  235MPD1    H3 3625   0.399   2.835  10.116  1.8325 -0.1888 -0.2618
  235MPD1     N 3626   0.439   3.218   9.872 -0.2119  0.1370 -0.3801
  235MPD1    H5 3627   0.387   3.301   9.848  0.0243  0.1794 -0.7514
  235MPD1    N1 3628   0.013   3.003   9.972  0.2107  0.5234  0.1303
  235MPD1    H6 3629   4.709   3.030   9.882  0.8974 -2.0892 -0.9512
  235MPD1    H7 3630   4.702   2.919  10.005  1.0426  0.5724  1.3992
  236MPD1     C 3631   3.392   4.132   9.937  0.0868 -0.3643 -0.5280
  236MPD1    C1 3632   3.433   4.243  10.012  0.1662  0.4903  0.3445
  236MPD1    C2 3633   3.563   4.248  10.052 -0.3727 -0.3706  0.5491
  236MPD1    C3 3634   3.641   4.142  10.021 -0.2931  0.1418 -0.1238
  236MPD1    C4 3635   3.597   4.036   9.945 -0.5764  0.2954 -0.0822
  236MPD1    C5 3636   3.475   4.032   9.895 -0.1028 -0.0473  0.3847
  236MPD1     H 3637   3.601   4.329  10.114  1.8801 -1.7912  0.9996
  236MPD1    H1 3638   3.663   3.954   9.922  1.2575  1.1524  2.1688
  236MPD1    H2 3639   3.288   4.135   9.907 -0.1763 -2.0230  0.2098
  236MPD1    H3 3640   3.444   3.947   9.836 -0.3825 -0.8555  1.7098
  236MPD1     N 3641   3.773   4.143  10.065  0.7118  0.1102 -0.0992
  236MPD1    H5 3642   3.833   4.063  10.047  0.0968 -0.1704 -0.8911
  236MPD1    N1 3643   3.346   4.349  10.044 -0.1232  0.3697  0.0103
  236MPD1    H6 3644   3.296   4.376   9.960  0.1555  0.8355 -0.0040
  236MPD1    H7 3645   3.391   4.427  10.091  0.5303 -0.2809  0.4748
  237MPD1     C 3646   3.883   2.425  15.652  0.9443 -0.3901  0.3846
  237MPD1    C1 3647   3.888   2.435  15.514 -0.3220 -0.0387  0.1595
  237MPD1    C2 3648   3.774   2.479  15.448  0.2758 -0.0415 -0.1874
  237MPD1    C3 3649   3.678   2.542  15.523 -0.7163 -0.2085 -0.4262
  237MPD1    C4 3650   3.685   2.546  15.657 -0.4211  0.0560 -0.4475
  237MPD1    C5 3651   3.785   2.479  15.727 -0.4827 -0.2825  0.1493
  237MPD1     H 3652   3.777   2.462  15.341 -4.1991 -2.1412  0.0029
  237MPD1    H1 3653   3.602   2.594  15.707  1.8209  4.5113 -1.0701
  237MPD1    H2 3654   3.966   2.373  15.700  0.1112 -0.8874  1.2917
  237MPD1    H3 3655   3.780   2.489  15.835  0.4802  1.3128  0.0452
  237MPD1     N 3656   3.568   2.616  15.470 -0.0433 -0.0686 -0.5356
  237MPD1    H5 3657   3.510   2.662  15.538  0.8706  0.1040  0.1248
  237MPD1    N1 3658   3.984   2.356  15.454  0.2226 -0.0277 -0.5643
  237MPD1    H6 3659   4.009   2.388  15.361  1.5256  0.5891 -0.0084
  237MPD1    H7 3660   4.072   2.357  15.505  1.3328 -1.1669 -2.4659
  238MPD1     C 3661   1.076   2.111  15.342  0.5155  0.4815 -0.1704
  238MPD1    C1 3662   1.014   1.990  15.362  0.1336  0.1883 -0.3459
  238MPD1    C2 3663   0.892   1.970  15.299 -0.0057 -0.0090  0.5326
  238MPD1    C3 3664   0.845   2.056  15.195  0.4697 -0.5373 -0.2659
  238MPD1    C4 3665   0.910   2.178  15.183 -0.2820  0.0087  0.2990
  238MPD1    C5 3666   1.022   2.205  15.261  0.3635  0.2181  0.1856
  238MPD1     H 3667   0.848   1.871  15.307 -0.1655 -0.0945 -1.4827
  238MPD1    H1 3668   0.879   2.264  15.126 -0.2280 -0.3323 -0.2420
  238MPD1    H2 3669   1.168   2.132  15.395 -0.8284  1.2237  1.8695
  238MPD1    H3 3670   1.059   2.306  15.258  0.4146  0.1253 -2.5166
  238MPD1     N 3671   0.734   2.030  15.107 -0.4974 -0.0883  0.3378
  238MPD1    H5 3672   0.726   2.089  15.024  0.9591  0.1495  0.3579
  238MPD1    N1 3673   1.066   1.905  15.461  0.6174  0.6290 -0.6104
  238MPD1    H6 3674   1.047   1.806  15.445 -3.9279  1.2500  0.9984
  238MPD1    H7 3675   1.167   1.918  15.471  0.6902 -0.1057 -0.4121
  239MPD1     C 3676   0.840   3.067  15.056  0.3596 -0.1241 -0.4584
  239MPD1    C1 3677   0.959   3.068  14.992 -0.1178  0.0921  0.2115
  239MPD1    C2 3678   0.964   3.036  14.852 -0.4692 -0.1044  0.0535
  239MPD1    C3 3679   0.853   2.996  14.785  0.6058  0.5271 -0.3170
  239MPD1    C4 3680   0.733   2.985  14.857 -0.3060  0.8837  0.3546
  239MPD1    C5 3681   0.729   3.011  14.989 -0.2126 -0.1421 -0.8161
  239MPD1     H 3682   1.052   3.058  14.792  0.0316  0.7701  1.1201
  239MPD1    H1 3683   0.645   2.951  14.803  0.1648  1.9918 -1.1112
  239MPD1    H2 3684   0.834   3.097  15.160  0.8870 -0.3259 -0.3688
  239MPD1    H3 3685   0.633   3.000  15.039 -0.7260  0.4706 -1.6743
  239MPD1     N 3686   0.850   2.966  14.651  0.4462  0.2564 -0.5797
  239MPD1    H5 3687   0.770   2.920  14.609 -1.5273  2.4436  0.8677
  239MPD1    N1 3688   1.068   3.137  15.042  0.7125 -0.1381  0.2806
  239MPD1    H6 3689   1.158   3.093  15.020  0.9357  0.1244  0.6724
  239MPD1    H7 3690   1.072   3.131  15.143  0.9969  0.7177  0.3222
  240MPD1     C 3691   4.472   2.674  14.011 -0.3536  1.3730 -0.0682
  240MPD1    C1 3692   4.398   2.559  14.048  0.0195  0.6872 -0.4818
  240MPD1    C2 3693   4.464   2.458  14.121  0.3181 -0.3472 -0.1393
  240MPD1    C3 3694   4.600   2.456  14.129 -0.6075  0.5799  0.2861
  240MPD1    C4 3695   4.673   2.557  14.064 -0.3066 -0.2572 -0.1789
  240MPD1    C5 3696   4.606   2.672  14.019  0.9041  0.0425 -0.6047
  240MPD1     H 3697   4.404   2.384  14.172  0.3696 -0.2613  0.0473
  240MPD1    H1 3698   0.045   2.551  14.065 -0.3905 -1.9267 -0.7565
  240MPD1    H2 3699   4.423   2.760  13.967 -0.4412  1.5796  0.4232
  240MPD1    H3 3700   4.665   2.753  13.979  0.8802 -0.0020 -0.7336
  240MPD1     N 3701   4.656   2.347  14.189  0.7892 -0.1541  0.4963
  240MPD1    H5 3702   4.588   2.279  14.218  0.1587  0.4964  0.5377
  240MPD1    N1 3703   4.263   2.553  14.034 -0.2923  0.8783 -0.3046
  240MPD1    H6 3704   4.210   2.470  14.058  1.6280 -0.8394 -2.0142
  240MPD1    H7 3705   4.226   2.583  13.944  0.4677 -0.0133 -0.9126
  241MPD1     C 3706   0.332   2.322  15.015  0.3767 -0.4072 -0.6539
  241MPD1    C1 3707   0.243   2.213  15.007 -0.3411  0.3446  0.2949
  241MPD1    C2 3708   0.212   2.156  14.882  0.3574  0.6591  0.0379
  241MPD1    C3 3709   0.273   2.220  14.770 -0.8930 -0.2927 -0.4942
  241MPD1    C4 3710   0.354   2.331  14.785 -0.7262  0.5188 -0.1495
  241MPD1    C5 3711   0.393   2.377  14.908  0.3237  0.0816  0.2226
  241MPD1     H 3712   0.138   2.078  14.866 -0.6653  1.0571  2.7785
  241MPD1    H1 3713   0.390   2.376  14.694 -0.2002  0.1080 -0.1458
  241MPD1    H2 3714   0.351   2.371  15.110  0.5095  0.2963 -1.0399
  241MPD1    H3 3715   0.451   2.466  14.928  0.3106  0.4489 -1.3753
  241MPD1     N 3716   0.247   2.188  14.632  0.5497  0.1816 -0.0018
  241MPD1    H5 3717   0.296   2.242  14.561  1.8451 -1.6814 -0.5222
  241MPD1    N1 3718   0.150   2.194  15.108  0.5970 -0.4060 -0.1682
  241MPD1    H6 3719   0.181   2.228  15.199  0.3151  0.8673 -0.5427
  241MPD1    H7 3720   0.109   2.103  15.128  0.7075 -0.4828 -0.2881
  242MPD1     C 3721   0.044   0.917  15.839 -0.1896 -0.3157  0.2472
  242MPD1    C1 3722   0.170   0.952  15.789 -0.0322 -0.2060  0.1304
  242MPD1    C2 3723   0.236   0.856  15.715 -0.0048 -0.1959  0.8969
  242MPD1    C3 3724   0.174   0.745  15.677 -0.0210  0.0002 -0.8353
  242MPD1    C4 3725   0.043   0.722  15.714  0.5682 -0.4062 -0.5232
  242MPD1    C5 3726   4.720   0.803  15.795 -0.0596  0.9920 -0.6149
  242MPD1     H 3727   0.341   0.867  15.691  0.4312 -3.3762  1.4093
  242MPD1    H1 3728   4.723   0.631  15.693  0.5084 -0.4271 -0.2760
  242MPD1    H2 3729   4.723   0.969  15.915 -0.9996 -0.6091 -0.1577
  242MPD1    H3 3730   4.621   0.781  15.834  0.5910 -0.3009  0.3107
  242MPD1     N 3731   0.228   0.658  15.574 -0.1031  0.4976  0.0142
  242MPD1    H5 3732   0.177   0.576  15.543 -0.6894 -0.0489  2.4585
  242MPD1    N1 3733   0.234   1.064  15.838 -0.0257  0.4011  0.0718
  242MPD1    H6 3734   0.329   1.064  15.802 -0.2206 -1.7824 -0.4399
  242MPD1    H7 3735   0.179   1.149  15.834  0.2578  0.5498 -0.6782
  243MPD1     C 3736   0.846   0.227  17.388 -0.5282  0.1333 -0.0728
  243MPD1    C1 3737   0.817   0.143  17.287  0.3293 -0.0080  0.7297
  243MPD1    C2 3738   0.900   0.038  17.257 -0.8350 -1.0590  0.4817
  243MPD1    C3 3739   1.009   0.010  17.339 -0.2246 -0.1606 -0.6515
  243MPD1    C4 3740   1.029   0.098  17.445  0.2539  0.1324  0.7388
  243MPD1    C5 3741   0.951   0.204  17.467  0.1400  0.4503  0.5386
  243MPD1     H 3742   0.878   4.723  17.164  0.3829 -0.7502  0.0359
  243MPD1    H1 3743   1.111   0.084  17.514  2.4767 -0.4349 -2.0312
  243MPD1    H2 3744   0.793   0.321  17.392  1.3426  1.3567 -3.4747
  243MPD1    H3 3745   0.963   0.273  17.549 -0.9508  0.1044  0.9832
  243MPD1     N 3746   1.096   4.640  17.313 -0.3747 -0.4302 -0.2166
  243MPD1    H5 3747   1.077   4.592  17.225 -0.6287  0.0839 -0.4437
  243MPD1    N1 3748   0.725   0.183  17.185  0.6410  0.9197  0.4821
  243MPD1    H6 3749   0.637   0.219  17.220  0.9410  3.4312 -1.3106
  243MPD1    H7 3750   0.695   0.103  17.131  0.3555 -0.0649  2.0998
  244MPD1     C 3751   2.081   4.189  17.299  0.2498 -0.3345  0.3625
  244MPD1    C1 3752   2.003   4.102  17.236 -0.6433 -0.7145  0.1153
  244MPD1    C2 3753   1.869   4.128  17.227 -0.5032  0.8478  0.0917
  244MPD1    C3 3754   1.811   4.243  17.284 -0.3457  0.6206  0.2899
  244MPD1    C4 3755   1.899   4.341  17.331 -0.6933 -0.0031  0.2744
  244MPD1    C5 3756   2.031   4.313  17.338  0.2828  0.4505 -0.0554
  244MPD1     H 3757   1.802   4.059  17.177 -0.9916  2.1532 -1.0486
  244MPD1    H1 3758   1.874   4.446  17.348  1.6583  0.9761 -2.2569
  244MPD1    H2 3759   2.180   4.152  17.325 -0.5168 -1.5752  1.5200
  244MPD1    H3 3760   2.098   4.385  17.384  0.5860 -0.7762  1.4078
  244MPD1     N 3761   1.667   4.248  17.278 -0.0514 -0.1870 -0.3573
  244MPD1    H5 3762   1.614   4.165  17.253 -1.0515  0.8518 -1.6897
  244MPD1    N1 3763   2.050   3.973  17.204  0.2947 -0.4310 -0.4033
  244MPD1    H6 3764   2.000   3.927  17.128 -0.6976 -0.3461  0.2109
  244MPD1    H7 3765   2.150   3.973  17.184  0.4920  1.0391  0.6092
  245MPD1     C 3766   3.839   4.079  13.183  0.1093 -0.0685  0.4281
  245MPD1    C1 3767   3.945   4.104  13.260  0.6460  0.2494  0.7160
  245MPD1    C2 3768   3.950   4.221  13.333  0.6373  0.1115  0.4077
  245MPD1    C3 3769   3.839   4.302  13.333  0.3429  0.7645 -0.0264
  245MPD1    C4 3770   3.729   4.277  13.261 -0.3701  0.0127 -0.0084
  245MPD1    C5 3771   3.726   4.162  13.179 -0.2592 -0.3531 -0.3199
  245MPD1     H 3772   4.038   4.246  13.391  1.3284  1.5535 -1.2746
  245MPD1    H1 3773   3.645   4.345  13.261 -1.3953 -1.2337  1.9992
  245MPD1    H2 3774   3.843   3.989  13.122 -1.4018 -0.0349  0.2674
  245MPD1    H3 3775   3.646   4.149  13.107  0.1787  2.7421 -1.3387
  245MPD1     N 3776   3.851   4.418  13.413  0.1735  0.3338  0.2952
  245MPD1    H5 3777   3.940   4.436  13.459  0.1947 -1.8386  1.0878
  245MPD1    N1 3778   4.063   4.030  13.234 -0.0620 -0.1339  0.2010
  245MPD1    H6 3779   4.142   4.045  13.297  1.1123 -0.4069 -1.2174
  245MPD1    H7 3780   4.051   3.930  13.220  0.9827 -0.2508  0.1674
  246MPD1     C 3781   0.117   1.173  10.763 -0.0265 -0.2383 -0.4442
  246MPD1    C1 3782   0.051   1.288  10.714 -0.2985 -0.4158 -1.0407
  246MPD1    C2 3783   0.024   1.291  10.576 -0.1923  0.2660  0.4830
  246MPD1    C3 3784   0.066   1.192  10.493  0.0127  0.0708 -0.3246
  246MPD1    C4 3785   0.132   1.082  10.541 -0.0809 -0.9416  0.2818
  246MPD1    C5 3786   0.164   1.077  10.672  0.0490 -0.2932  0.5351
  246MPD1     H 3787   4.709   1.378  10.535  1.9551  1.1414 -0.3172
  246MPD1    H1 3788   0.186   1.012  10.478  1.2945  1.4905 -1.2198
  246MPD1    H2 3789   0.115   1.161  10.871  0.2382 -0.6454 -0.4840
  246MPD1    H3 3790   0.215   0.992  10.716  0.2562 -0.4938 -0.0970
  246MPD1     N 3791   0.057   1.216  10.356  0.6243  0.3671  0.1531
  246MPD1    H5 3792   0.019   1.306  10.329  0.2177  0.5596  1.3240
  246MPD1    N1 3793   4.724   1.383  10.798  0.0529  0.3963 -0.0415
  246MPD1    H6 3794   0.023   1.395  10.893 -1.0370 -1.9872  0.6551
  246MPD1    H7 3795   4.722   1.474  10.753 -0.1743  0.4181  0.0137
  247MPD1     C 3796   1.790   4.482  16.088  0.0728  0.9135  0.1898
  247MPD1    C1 3797   1.776   4.495  16.222 -0.8996  0.0852  0.5724
  247MPD1    C2 3798   1.864   4.423  16.302  0.4526  0.3238 -0.0104
  247MPD1    C3 3799   1.967   4.342  16.252  0.0323 -0.2092 -0.4807
  247MPD1    C4 3800   1.976   4.330  16.117  0.1787 -0.5009  0.0154
  247MPD1    C5 3801   1.892   4.406  16.036  1.0815 -0.4465  0.2780
  247MPD1     H 3802   1.841   4.423  16.408 -2.1536  3.9819 -0.5615
  247MPD1    H1 3803   2.057   4.278  16.067  0.7344  1.3920 -1.0403
  247MPD1    H2 3804   1.733   4.545  16.020 -1.3281 -0.0446  0.4936
  247MPD1    H3 3805   1.913   4.419  15.931 -0.0399 -1.4296 -0.0665
  247MPD1     N 3806   2.066   4.279  16.333  0.2446  0.1030 -0.1385
  247MPD1    H5 3807   2.143   4.237  16.281 -0.9078 -1.1816 -0.8110
  247MPD1    N1 3808   1.655   4.557  16.277 -0.2416 -0.3564  0.5985
  247MPD1    H6 3809   1.666   4.574  16.377 -1.1880  0.4134  0.5730
  247MPD1    H7 3810   1.626   4.639  16.224  0.2743 -0.5899 -0.0430
  248MPD1     C 3811   3.461   4.117  17.292  0.3752  0.1618  1.0379
  248MPD1    C1 3812   3.481   4.256  17.291  0.1352 -0.3074  0.4909
  248MPD1    C2 3813   3.387   4.332  17.361  0.0654 -0.0403  0.2327
  248MPD1    C3 3814   3.272   4.277  17.415 -0.3864 -0.3407  0.2479
  248MPD1    C4 3815   3.263   4.137  17.408 -0.0202 -0.0699  0.3015
  248MPD1    C5 3816   3.351   4.060  17.346 -0.5401 -0.5548  0.1002
  248MPD1     H 3817   3.403   4.439  17.364 -0.9085  0.1866 -2.9560
  248MPD1    H1 3818   3.179   4.083  17.450 -0.5884  0.2360 -0.4368
  248MPD1    H2 3819   3.532   4.046  17.250 -2.4059 -1.4703 -0.8727
  248MPD1    H3 3820   3.338   3.953  17.348  2.8488 -0.9405 -0.1251
  248MPD1     N 3821   3.177   4.352  17.491  0.6880 -0.2772 -0.2908
  248MPD1    H5 3822   3.201   4.450  17.502 -2.3171  0.5440 -0.9866
  248MPD1    N1 3823   3.604   4.309  17.238 -0.4489  0.0056 -0.4653
  248MPD1    H6 3824   3.592   4.406  17.209  3.1917  0.5047 -0.3379
  248MPD1    H7 3825   3.643   4.256  17.161  0.4638  0.7849 -0.5465
  249MPD1     C 3826   0.233   2.556  10.369 -0.3468 -0.8892 -0.2890
  249MPD1    C1 3827   0.305   2.576  10.253 -0.6841 -0.1424 -0.0769
  249MPD1    C2 3828   0.438   2.612  10.280  0.4573 -1.0517 -0.4321
  249MPD1    C3 3829   0.499   2.639  10.407  0.9978  0.6226 -0.0064
  249MPD1    C4 3830   0.414   2.636  10.510  0.4579  0.3357  0.2392
  249MPD1    C5 3831   0.288   2.598  10.492 -0.7435 -0.2965 -0.5348
  249MPD1     H 3832   0.501   2.610  10.191  1.2999 -2.0224  0.1858
  249MPD1    H1 3833   0.448   2.671  10.607 -1.5678  0.2224  0.9908
  249MPD1    H2 3834   0.132   2.517  10.366 -0.4231 -0.8157  1.5356
  249MPD1    H3 3835   0.221   2.584  10.577  1.4469  1.3880  1.4651
  249MPD1     N 3836   0.639   2.650  10.412  0.5596  0.7190 -0.0046
  249MPD1    H5 3837   0.688   2.657  10.323 -0.0596 -1.8229 -0.5315
  249MPD1    N1 3838   0.261   2.526  10.133  0.3396  0.4013 -0.1819
  249MPD1    H6 3839   0.321   2.560  10.058 -0.2202  0.9299 -0.3924
  249MPD1    H7 3840   0.160   2.531  10.120  0.3475 -1.0594 -0.9296
  250MPD2     C 3841   2.368   2.625  12.794  0.0281 -0.1234 -0.8522
  250MPD2    C1 3842   2.248   2.674  12.754 -0.0804  0.2488  0.5978
  250MPD2    C2 3843   2.171   2.601  12.664  0.1191  0.1850  0.2958
  250MPD2    C3 3844   2.220   2.479  12.617  0.1179  0.4260 -0.7623
  250MPD2    C4 3845   2.339   2.434  12.665  0.1018 -0.1879  0.6019
  250MPD2    C5 3846   2.418   2.508  12.751 -0.0652  0.5095  0.3753
  250MPD2     H 3847   2.071   2.640  12.646  0.3720  1.7911  2.3998
  250MPD2    H1 3848   2.389   2.354  12.610  0.2726 -0.0582  0.5686
  250MPD2    H2 3849   2.434   2.672  12.866 -1.7500  1.7195 -0.4248
  250MPD2    H3 3850   2.517   2.474  12.780  0.2901  0.7838 -0.5326
  250MPD2     N 3851   2.141   2.395  12.534 -0.3814 -0.1988 -0.3702
  250MPD2    H5 3852   2.171   2.299  12.516 -0.4860 -0.0281 -1.4663
  250MPD2    N1 3853   2.203   2.786  12.832  0.7104 -0.7166 -0.2153
  250MPD2    H7 3854   2.265   2.836  12.894  0.3600  1.2732 -1.4899
  251TMC3    C1 3855   2.065   2.942  12.929 -0.0839  0.6914 -0.2201
  251TMC3    C2 3856   1.980   3.048  12.899  1.0459 -0.6338  0.2715
  251TMC3    C3 3857   1.983   3.160  12.978  0.6784 -0.3775 -0.1406
  251TMC3    C4 3858   2.146   2.947  13.042 -0.2304 -0.1512 -0.4156
  251TMC3    C5 3859   2.139   3.061  13.120  0.0651 -0.1051 -0.4588
  251TMC3    C6 3860   2.064   3.171  13.088 -0.8535 -0.5525 -0.0161
  251TMC3     C 3861   2.080   2.835  12.834 -0.0376 -0.1534  0.2509
  251TMC3     O 3862   1.981   2.811  12.768  0.1164  0.4920  0.0219
  251TMC3     H 3863   1.933   3.041  12.802  1.2866  1.6812 -0.0141
  251TMC3    H1 3864   2.217   2.873  13.078  1.6755  1.1554 -1.5662
  251TMC3    H2 3865   2.068   3.252  13.159 -0.4427  0.6848 -1.4409
  251TMC3    C7 3866   2.243   3.072  13.225  0.0475  0.0108 -0.6743
  251TMC3    C8 3867   1.894   3.265  12.943 -0.2144 -0.3811 -0.0189
  251TMC3    O1 3868   2.292   2.971  13.276 -0.0331  0.0761 -0.0031
  251TMC3    O2 3869   1.930   3.380  12.968 -0.8529 -0.5538  0.1189
  252TMC3    C1 3870   1.901   4.211   9.549 -0.4554  0.1000  0.7880
  252TMC3    C2 3871   2.032   4.258   9.570 -0.2329 -0.3446  0.7603
  252TMC3    C3 3872   2.113   4.184   9.646 -0.8277  0.1511  0.5748
  252TMC3    C4 3873   1.850   4.093   9.601 -1.1274 -0.1809  0.4883
  252TMC3    C5 3874   1.942   4.027   9.680  0.6253  0.4318  0.4899
  252TMC3    C6 3875   2.071   4.074   9.715 -0.6576 -0.6639 -0.4886
  252TMC3     C 3876   1.815   4.310   9.490 -0.6566 -0.2404  0.2436
  252TMC3     O 3877   1.880   4.396   9.438  0.1511  0.0110 -0.0287
  252TMC3     H 3878   2.070   4.350   9.528  0.4808 -0.1405  1.8600
  252TMC3    H1 3879   1.748   4.058   9.593 -1.0630 -0.3953  0.6080
  252TMC3    H2 3880   2.129   4.014   9.785  2.8071  0.9496 -2.0393
  252TMC3    C7 3881   1.884   3.916   9.758 -0.8104 -0.3657 -0.1233
  252TMC3    C8 3882   2.256   4.223   9.644  0.0998 -0.0160  0.3915
  252TMC3    O1 3883   1.763   3.920   9.783 -0.1597 -0.1280  0.0218
  252TMC3    O2 3884   2.293   4.297   9.556  0.3711  0.2170 -0.1086
  253MPD2     C 3885   2.752   3.748  15.474 -0.2970 -0.3865  0.4964
  253MPD2    C1 3886   2.693   3.819  15.582 -0.1664 -0.6401  0.1086
  253MPD2    C2 3887   2.639   3.752  15.687 -0.1860 -0.2325  0.1488
  253MPD2    C3 3888   2.651   3.614  15.697 -0.5324  0.0748 -0.8721
  253MPD2    C4 3889   2.715   3.547  15.598  0.5432  0.0028 -0.7609
  253MPD2    C5 3890   2.769   3.611  15.489 -0.2889 -0.0033 -0.2121
  253MPD2     H 3891   2.589   3.812  15.762 -4.1204 -1.7663 -1.2258
  253MPD2    H1 3892   2.734   3.440  15.605  0.6350  0.2639  2.7383
  253MPD2    H2 3893   2.797   3.788  15.383 -0.4836 -0.9932  0.1357
  253MPD2    H3 3894   2.823   3.547  15.420  0.8282 -0.4207  1.0566
  253MPD2     N 3895   2.602   3.536  15.809 -0.0125  0.5298 -0.4901
  253MPD2    H5 3896   2.615   3.436  15.804 -1.8258  0.1986  1.2063
  253MPD2    N1 3897   2.667   3.954  15.567 -0.6739  0.0892 -0.0333
  253MPD2    H7 3898   2.608   3.991  15.640 -0.8219  1.9119 -1.0921
  254TMC3    C1 3899   2.492   3.485  15.998  0.1165  0.4144 -0.1289
  254TMC3    C2 3900   2.384   3.522  16.075 -0.2333 -0.0154 -0.6051
  254TMC3    C3 3901   2.378   3.460  16.199  0.3727  0.2130 -0.3806
  254TMC3    C4 3902   2.592   3.398  16.042  0.2446  0.3947 -0.1008
  254TMC3    C5 3903   2.567   3.325  16.158  0.2399  0.4488  0.4435
  254TMC3    C6 3904   2.466   3.361  16.236 -0.9183  0.3551 -0.3228
  254TMC3     C 3905   2.527   3.591  15.907 -0.0958  0.3164  0.3311
  254TMC3     O 3906   2.483   3.708  15.911  0.1137  0.5645  0.2839
  254TMC3     H 3907   2.313   3.593  16.035  0.6002  0.9245 -0.4280
  254TMC3    H1 3908   2.675   3.366  15.979 -0.9647 -1.1329 -0.9191
  254TMC3    H2 3909   2.449   3.311  16.331 -0.8932  0.3763 -0.3074
  254TMC3    C7 3910   2.659   3.225  16.221  0.6657  0.0629  1.0478
  254TMC3    C8 3911   2.257   3.474  16.275 -0.1378  0.3156  0.5250
  254TMC3    O1 3912   2.629   3.196  16.340  0.0243 -0.0369 -0.7511
  254TMC3    O2 3913   2.253   3.427  16.387  0.2756 -0.0668  0.6937
  255MPD2     C 3914   1.051   0.096  10.491  0.1410  0.0292  0.4161
  255MPD2    C1 3915   1.137   0.200  10.473  0.7321 -0.0216  0.3785
  255MPD2    C2 3916   1.256   0.181  10.409 -0.7896 -0.5457  0.3643
  255MPD2    C3 3917   1.299   0.060  10.372  0.1742  0.3273  0.4159
  255MPD2    C4 3918   1.215   4.688  10.391 -0.1906 -0.3800  0.1764
  255MPD2    C5 3919   1.088   4.709  10.446  0.5372  0.5941 -0.7557
  255MPD2     H 3920   1.324   0.262  10.388  0.3439 -0.7145  3.3296
  255MPD2    H1 3921   1.240   4.588  10.356  2.9928  1.0647 -1.6556
  255MPD2    H2 3922   0.953   0.100  10.535 -0.3914 -0.4614 -0.7113
  255MPD2    H3 3923   1.017   4.629  10.466  1.3422  0.2685  0.8357
  255MPD2     N 3924   1.421   0.056  10.302  0.2441 -0.4493 -0.4010
  255MPD2    H5 3925   1.480   0.138  10.305  0.0963 -0.4537  1.9573
  255MPD2    N1 3926   1.094   0.328  10.522 -0.1150  0.6072  0.4187
  255MPD2    H7 3927   0.995   0.343  10.542 -0.3567  1.3045 -1.2944
  256TMC3    C1 3928   1.116   0.526  10.648 -0.2508 -0.3444 -0.9379
  256TMC3    C2 3929   1.209   0.617  10.700 -0.0889 -0.4546 -0.2107
  256TMC3    C3 3930   1.169   0.748  10.709 -0.3837 -0.0268 -0.1857
  256TMC3    C4 3931   0.998   0.576  10.593 -0.4372 -0.1903 -0.2984
  256TMC3    C5 3932   0.973   0.712  10.598 -0.5139  0.4552 -0.0556
  256TMC3    C6 3933   1.061   0.802  10.653  0.3951  1.0012 -0.0572
  256TMC3     C 3934   1.184   0.413  10.580  0.3869 -0.7423 -0.0157
  256TMC3     O 3935   1.303   0.416  10.596 -0.7965 -0.6941  0.1100
  256TMC3     H 3936   1.310   0.596  10.736 -0.1583 -0.9505 -0.3096
  256TMC3    H1 3937   0.917   0.519  10.550  0.6573 -1.2638 -0.9272
  256TMC3    H2 3938   1.039   0.908  10.662 -0.0389  1.0183 -1.2868
  256TMC3    C7 3939   0.902   0.764  10.480  0.5963 -0.6603 -0.4012
  256TMC3    C8 3940   1.272   0.843  10.735 -0.2012  0.4357  0.3361
  256TMC3    O1 3941   0.887   0.687  10.387  0.1772 -0.4283 -0.0473
  256TMC3    O2 3942   1.358   0.810  10.815 -0.2376  0.0407 -0.3244
  257MPD2     C 3943   0.164   2.739  13.141 -0.3932  0.1247 -0.6335
  257MPD2    C1 3944   0.290   2.770  13.096  1.4632  0.6575 -0.4401
  257MPD2    C2 3945   0.404   2.723  13.165  0.4585 -1.3937  0.2041
  257MPD2    C3 3946   0.382   2.647  13.282 -0.3475  0.2466  0.2064
  257MPD2    C4 3947   0.255   2.624  13.329 -0.2583 -0.8107 -0.0540
  257MPD2    C5 3948   0.146   2.664  13.251 -0.9288 -0.5494 -0.2053
  257MPD2     H 3949   0.505   2.736  13.129 -0.2152 -2.3097 -2.0379
  257MPD2    H1 3950   0.239   2.570  13.421 -1.3305 -2.7596 -1.3679
  257MPD2    H2 3951   0.078   2.779  13.088 -0.0051  1.1574 -0.5036
  257MPD2    H3 3952   0.045   2.637  13.280  0.4761 -4.3182  1.1590
  257MPD2     N 3953   0.494   2.603  13.341 -0.3088 -0.1976 -0.3011
  257MPD2    H5 3954   0.576   2.615  13.282 -0.7947 -0.6629 -1.0778
  257MPD2    N1 3955   0.293   2.849  12.982  0.0062 -0.1986 -0.0551
  257MPD2    H7 3956   0.202   2.876  12.945  0.7194  1.9909 -0.2190
  258TMC3    C1 3957   0.638   2.496  13.494 -0.1105  0.0725  0.2299
  258TMC3    C2 3958   0.719   2.490  13.387 -0.6995  0.1004 -0.4770
  258TMC3    C3 3959   0.857   2.486  13.420 -0.8041 -0.1947  0.1931
  258TMC3    C4 3960   0.681   2.525  13.619  0.6325 -1.0746  0.0363
  258TMC3    C5 3961   0.814   2.519  13.643  0.0022 -0.2148  0.0431
  258TMC3    C6 3962   0.907   2.504  13.548 -0.5888 -0.0468  0.1282
  258TMC3     C 3963   0.503   2.535  13.463  0.7150  0.2525 -0.2127
  258TMC3     O 3964   0.418   2.514  13.549 -0.6934  0.1282  0.4192
  258TMC3     H 3965   0.693   2.468  13.284  0.8628 -1.0421 -0.6226
  258TMC3    H1 3966   0.607   2.525  13.698 -0.6547 -3.6543 -1.1781
  258TMC3    H2 3967   1.012   2.504  13.572 -0.8181 -1.3136  1.1387
  258TMC3    C7 3968   0.862   2.509  13.781 -0.0286 -0.4114  0.1815
  258TMC3    C8 3969   0.932   2.429  13.298 -0.0859 -0.3637 -0.6961
  258TMC3    O1 3970   0.987   2.495  13.784  0.0065 -0.3001 -0.1186
  258TMC3    O2 3971   0.875   2.414  13.188  0.0049  0.1379 -0.1028
  259MPD2     C 3972   4.297   0.234   0.456 -0.0127 -0.2854 -0.4659
  259MPD2    C1 3973   4.286   0.112   0.401  0.0651 -0.2370  0.4005
  259MPD2    C2 3974   4.251   0.101   0.264 -0.1708 -0.1712  0.3290
  259MPD2    C3 3975   4.237   0.215   0.187  0.9081  0.1396 -0.5559
  259MPD2    C4 3976   4.251   0.337   0.247  0.0972 -0.2235 -0.6316
  259MPD2    C5 3977   4.279   0.346   0.383 -0.2574  0.0595  0.3715
  259MPD2     H 3978   4.247   0.000   0.225 -1.4968 -0.1451  0.4110
  259MPD2    H1 3979   4.245   0.429   0.190  0.4088  0.5070  0.5167
  259MPD2    H2 3980   4.323   0.262   0.557  0.6624 -1.0211 -0.4310
  259MPD2    H3 3981   4.283   0.442   0.433  0.3270  0.4125 -0.3414
  259MPD2     N 3982   4.215   0.213   0.045  0.0407 -0.5027  0.3802
  259MPD2    H5 3983   4.225   0.298  17.731  0.0977 -1.2356 -0.7597
  259MPD2    N1 3984   4.300   0.009   0.496  0.6243  0.6714 -0.1506
  259MPD2    H7 3985   4.301   0.029   0.596 -0.5564 -1.1229  0.2145
  260TMC3    C1 3986   4.210   0.108  17.573  0.1508 -0.1121 -0.3877
  260TMC3    C2 3987   4.305   0.198  17.528 -0.1104 -0.7309 -0.2408
  260TMC3    C3 3988   4.396   0.151  17.441 -0.4614  0.2646 -0.6230
  260TMC3    C4 3989   4.202   4.717  17.526  0.6067  0.4327  0.3711
  260TMC3    C5 3990   4.287   4.672  17.434  0.9265 -0.2518 -0.4325
  260TMC3    C6 3991   4.386   0.025  17.391  0.0669  0.2813 -0.2442
  260TMC3     C 3992   4.196   0.095  17.716  0.1522 -0.1550  0.0597
  260TMC3     O 3993   4.184   4.720   0.024 -0.0616  0.0182 -0.0021
  260TMC3     H 3994   4.318   0.297  17.569 -1.9961 -0.4991 -0.2203
  260TMC3    H1 3995   4.125   4.649  17.561  1.5397 -0.9130 -0.2050
  260TMC3    H2 3996   4.462   0.001  17.317  1.2941  1.7278  0.5352
  260TMC3    C7 3997   4.320   4.535  17.412  0.5626  0.0133 -0.5437
  260TMC3    C8 3998   4.531   0.195  17.489  0.3955  0.2269  0.3956
  260TMC3    O1 3999   4.393   4.517  17.315  0.3031 -0.2847  0.3378
  260TMC3    O2 4000   4.542   0.303  17.540 -0.2987 -0.0006 -0.2253
  261MPD2     C 4001   1.377   2.374  12.176 -0.3083 -0.4680  0.5132
  261MPD2    C1 4002   1.502   2.401  12.127 -0.3502 -0.7375 -0.1140
  261MPD2    C2 4003   1.518   2.489  12.017 -0.1706 -0.3192 -0.6666
  261MPD2    C3 4004   1.409   2.540  11.955  0.0022 -0.1550  0.0745
  261MPD2    C4 4005   1.285   2.519  12.008 -0.1200  0.0123  0.2103
  261MPD2    C5 4006   1.272   2.445  12.127  0.8367  0.4209 -0.0818
  261MPD2     H 4007   1.617   2.525  11.991 -0.0168  0.3264  0.7901
  261MPD2    H1 4008   1.190   2.564  11.980 -0.4517  0.2712  1.7328
  261MPD2    H2 4009   1.363   2.321  12.270 -1.4397 -0.0772  0.5698
  261MPD2    H3 4010   1.174   2.444  12.174  0.3371 -1.0563 -1.1340
  261MPD2     N 4011   1.432   2.633  11.849  0.4117 -0.3519 -0.3333
  261MPD2    H5 4012   1.531   2.646  11.831  0.7256 -3.7474 -0.8863
  261MPD2    N1 4013   1.625   2.347  12.183  0.5125  0.5002  0.0480
  261MPD2    H7 4014   1.714   2.372  12.142  1.5113 -1.9651  0.7333
  262TMC3    C1 4015   1.388   2.773  11.660  0.3407  0.5857 -0.6052
  262TMC3    C2 4016   1.348   2.898  11.649 -0.5808 -0.4318  0.3891
  262TMC3    C3 4017   1.413   2.981  11.563  0.0091  0.1759  0.1041
  262TMC3    C4 4018   1.486   2.720  11.580 -0.3101  0.3317 -0.0025
  262TMC3    C5 4019   1.544   2.793  11.486 -0.5202  0.7697 -0.3141
  262TMC3    C6 4020   1.516   2.930  11.485  0.2080  0.2033 -0.3275
  262TMC3     C 4021   1.337   2.706  11.779 -0.6207  0.4636  0.8126
  262TMC3     O 4022   1.216   2.716  11.801 -0.3721 -0.0435  0.0575
  262TMC3     H 4023   1.273   2.933  11.718 -0.4040 -0.6422  0.6871
  262TMC3    H1 4024   1.516   2.616  11.581 -0.2588  0.3277 -1.3961
  262TMC3    H2 4025   1.558   3.001  11.414 -1.9146  0.3607 -1.4283
  262TMC3    C7 4026   1.654   2.740  11.410 -0.4616  0.0393 -0.4333
  262TMC3    C8 4027   1.376   3.119  11.551 -0.6548  0.1603 -0.3011
  262TMC3    O1 4028   1.707   2.642  11.456  0.1052 -0.3377  0.3155
  262TMC3    O2 4029   1.447   3.188  11.478  0.4722  0.2433  0.4714
  263MPD2     C 4030   2.284   2.025  11.302  0.1175 -0.6691 -0.0306
  263MPD2    C1 4031   2.386   2.086  11.371  0.4589 -0.2093  0.9242
  263MPD2    C2 4032   2.467   2.166  11.292  0.1827  0.5350  0.0689
  263MPD2    C3 4033   2.447   2.185  11.158  0.2663  0.0449  0.0143
  263MPD2    C4 4034   2.345   2.114  11.095 -0.3187 -0.0585 -0.4987
  263MPD2    C5 4035   2.267   2.033  11.167  1.0064  0.6057  0.2542
  263MPD2     H 4036   2.555   2.214  11.334  1.5136 -1.0136 -0.9544
  263MPD2    H1 4037   2.319   2.133  10.992  0.1644  0.4303 -0.5331
  263MPD2    H2 4038   2.212   1.974  11.367  1.2039  2.3359  3.4953
  263MPD2    H3 4039   2.184   1.980  11.122  0.2421  0.0255  2.3163
  263MPD2     N 4040   2.538   2.270  11.097 -0.2579 -0.3509  0.4609
  263MPD2    H5 4041   2.600   2.314  11.164 -0.1803 -2.3727  1.7370
  263MPD2    N1 4042   2.405   2.066  11.511  0.0589  0.3380  0.1766
  263MPD2    H7 4043   2.349   1.995  11.557 -0.3650 -1.1905 -2.6865
  264TMC3    C1 4044   2.662   2.379  10.946 -0.0824  0.0123 -0.5926
  264TMC3    C2 4045   2.684   2.479  11.037  0.0212  0.1533 -0.7086
  264TMC3    C3 4046   2.767   2.578  11.008  0.2926 -0.1410  0.3283
  264TMC3    C4 4047   2.720   2.376  10.821  0.1160 -0.3762  0.7947
  264TMC3    C5 4048   2.809   2.484  10.798  0.1202 -0.6716 -0.4069
  264TMC3    C6 4049   2.836   2.586  10.887 -0.1062 -0.4732  0.6946
  264TMC3     C 4050   2.557   2.284  10.967 -0.1446  0.5845  0.3317
  264TMC3     O 4051   2.515   2.222  10.870  0.0682  0.1001 -0.2783
  264TMC3     H 4052   2.638   2.483  11.135 -1.8375 -0.2505 -1.5621
  264TMC3    H1 4053   2.714   2.293  10.752  0.3758  0.7574 -0.5990
  264TMC3    H2 4054   2.909   2.664  10.866 -2.1162  0.9442 -1.0073
  264TMC3    C7 4055   2.935   2.454  10.727  0.2972  0.2027  0.0321
  264TMC3    C8 4056   2.810   2.682  11.104 -0.3823 -0.1074  0.6185
  264TMC3    O1 4057   2.974   2.343  10.724 -0.5427  0.3914  0.5068
  264TMC3    O2 4058   2.909   2.745  11.079  0.6783  0.1917  0.3036
  265MPD2     C 4059   4.549   2.499  15.616 -0.2819  0.5631 -0.2866
  265MPD2    C1 4060   4.556   2.613  15.533 -0.7853 -0.0879 -0.0721
  265MPD2    C2 4061   4.601   2.605  15.404 -0.0570 -0.5207  0.3304
  265MPD2    C3 4062   4.636   2.479  15.351  0.1963 -0.0390  0.6128
  265MPD2    C4 4063   4.615   2.362  15.423 -0.4862  0.3229 -0.4911
  265MPD2    C5 4064   4.574   2.379  15.556 -0.0391 -0.1585  0.3856
  265MPD2     H 4065   4.607   2.694  15.344  1.5750 -1.7003 -1.2349
  265MPD2    H1 4066   4.628   2.260  15.387 -0.5705 -0.6123  2.1306
  265MPD2    H2 4067   4.533   2.494  15.723  0.0125  2.0437 -0.1726
  265MPD2    H3 4068   4.564   2.294  15.623 -0.2156 -1.7480 -1.6748
  265MPD2     N 4069   4.688   2.459  15.217 -0.6287  0.1602  0.0073
  265MPD2    H5 4070   4.701   2.363  15.186 -1.7550  1.0379 -3.1207
  265MPD2    N1 4071   4.515   2.743  15.577 -0.0393  0.6554 -0.0424
  265MPD2    H7 4072   4.554   2.814  15.515 -0.4806  1.5092  0.6633
  266TMC3    C1 4073   4.437   2.914  15.728 -0.2445  0.2719  0.0816
  266TMC3    C2 4074   4.439   2.947  15.858  0.3283 -0.0246 -0.0939
  266TMC3    C3 4075   4.376   3.066  15.888 -0.0112 -0.2974 -0.6449
  266TMC3    C4 4076   4.370   2.982  15.632 -0.3710  0.3657 -0.6008
  266TMC3    C5 4077   4.289   3.084  15.670  0.1629 -0.0202 -0.1287
  266TMC3    C6 4078   4.300   3.132  15.795 -0.1944 -0.1448 -0.2047
  266TMC3     C 4079   4.449   2.777  15.694  0.2164  0.3581 -0.0198
  266TMC3     O 4080   4.420   2.706  15.789 -0.0086 -0.2370 -0.3228
  266TMC3     H 4081   4.510   2.888  15.915 -0.8360  1.0051  2.4263
  266TMC3    H1 4082   4.371   2.947  15.530 -0.2774 -0.1346 -0.4276
  266TMC3    H2 4083   4.235   3.215  15.821 -1.0497 -0.8035 -0.2444
  266TMC3    C7 4084   4.207   3.158  15.573  0.5571 -0.3611  0.0552
  266TMC3    C8 4085   4.366   3.098  16.026  0.4599 -0.4979 -0.2443
  266TMC3    O1 4086   4.113   3.217  15.620  0.2647  0.2894  0.3874
  266TMC3    O2 4087   4.383   3.008  16.104  0.8363  0.2730  0.1669
  267MPD2     C 4088   1.459   0.332   0.606 -0.0511  0.4639  0.2769
  267MPD2    C1 4089   1.500   0.238   0.521  0.5105 -0.5098 -0.1997
  267MPD2    C2 4090   1.415   0.183   0.428  0.5476 -0.8479  0.1551
  267MPD2    C3 4091   1.278   0.198   0.434 -0.2951  0.1155 -0.2680
  267MPD2    C4 4092   1.231   0.291   0.527  0.5070  0.1978 -0.3400
  267MPD2    C5 4093   1.327   0.357   0.605 -0.4429 -0.3251  0.6108
  267MPD2     H 4094   1.456   0.119   0.351  0.3876  1.0775 -1.5420
  267MPD2    H1 4095   1.127   0.321   0.536  0.1240 -1.6922  1.5770
  267MPD2    H2 4096   1.518   0.387   0.678  0.2889  0.6484 -0.1355
  267MPD2    H3 4097   1.280   0.428   0.671 -1.0405 -0.2130  0.0696
  267MPD2     N 4098   1.186   0.136   0.346 -0.1726  0.0009  0.5131
  267MPD2    H5 4099   1.086   0.155   0.357 -0.1420  1.4923 -1.7145
  267MPD2    N1 4100   1.633   0.198   0.515 -0.7835  0.6147  0.1334
  267MPD2    H7 4101   1.667   0.121   0.458  0.4069  0.8424  0.5369
  268TMC3    C1 4102   1.863   0.206   0.564  0.1997 -0.0430 -0.0239
  268TMC3    C2 4103   1.886   0.176   0.435  0.6204  0.5112  0.6750
  268TMC3    C3 4104   2.022   0.149   0.405  0.2521  0.1141 -0.3187
  268TMC3    C4 4105   1.961   0.212   0.660  0.0978 -0.1583 -0.0058
  268TMC3    C5 4106   2.086   0.170   0.630 -0.1750  0.8457  0.6961
  268TMC3    C6 4107   2.123   0.156   0.499  0.7105 -0.6332  0.2103
  268TMC3     C 4108   1.733   0.245   0.599 -0.4631  0.3851 -0.4689
  268TMC3     O 4109   1.728   0.330   0.688 -0.1945  0.4032 -0.1582
  268TMC3     H 4110   1.813   0.187   0.356  0.5323 -3.0560  0.2829
  268TMC3    H1 4111   1.934   0.259   0.754  2.4219 -1.5135  1.3530
  268TMC3    H2 4112   2.220   0.133   0.456  1.2944  1.2651  0.5034
  268TMC3    C7 4113   2.146   0.071   0.710 -0.2916  0.7394 -0.0408
  268TMC3    C8 4114   2.057   0.073   0.286 -0.9214 -0.0372  0.1051
  268TMC3    O1 4115   2.221   4.728   0.655  0.2642 -0.1136  0.0141
  268TMC3    O2 4116   2.164   0.020   0.272  0.2455  0.1253  0.0287
  269MPD2     C 4117   2.155   3.718  15.743  0.9832 -0.4182 -0.1613
  269MPD2    C1 4118   2.032   3.772  15.736  0.0423 -0.2310 -0.2072
  269MPD2    C2 4119   2.028   3.909  15.715 -0.1044 -0.6276 -0.2634
  269MPD2    C3 4120   2.142   3.989  15.722 -0.9215  0.5585 -0.3971
  269MPD2    C4 4121   2.262   3.926  15.707  0.6845  0.6449 -0.9541
  269MPD2    C5 4122   2.271   3.789  15.713  0.8614  0.0458 -0.0429
  269MPD2     H 4123   1.935   3.962  15.698  0.6694  0.6765 -0.4303
  269MPD2    H1 4124   2.349   3.987  15.686  0.0297  2.0107  0.2732
  269MPD2    H2 4125   2.158   3.610  15.744 -1.1472 -0.5211 -3.2328
  269MPD2    H3 4126   2.369   3.742  15.715 -0.2486 -2.3383 -1.8853
  269MPD2     N 4127   2.122   4.127  15.724 -0.8465 -0.1426  0.0627
  269MPD2    H5 4128   2.031   4.164  15.700  0.4634  2.0606 -1.5159
  269MPD2    N1 4129   1.919   3.687  15.734 -0.0158 -0.2463  0.3582
  269MPD2    H7 4130   1.932   3.587  15.749  3.3976  0.0133 -0.7027
  270TMC3    C1 4131   1.704   3.611  15.673  0.0079  0.2832  0.8868
  270TMC3    C2 4132   1.624   3.618  15.566 -0.3722 -0.1370  0.1194
  270TMC3    C3 4133   1.505   3.545  15.579 -0.5852 -1.0574 -0.2222
  270TMC3    C4 4134   1.691   3.522  15.779  0.2432  0.2716  0.2474
  270TMC3    C5 4135   1.567   3.460  15.785  0.0769  0.0200  0.1926
  270TMC3    C6 4136   1.473   3.466  15.685 -1.2401  0.3215 -0.0327
  270TMC3     C 4137   1.795   3.724  15.687  0.4765 -0.4293  1.0532
  270TMC3     O 4138   1.747   3.833  15.654  0.2388  0.0058  0.1247
  270TMC3     H 4139   1.633   3.689  15.485  1.2276  1.0599  1.3615
  270TMC3    H1 4140   1.746   3.530  15.872  0.7744  0.5949 -0.0945
  270TMC3    H2 4141   1.394   3.393  15.676 -2.1519  1.4108 -0.8577
  270TMC3    C7 4142   1.554   3.340  15.866 -0.2499 -0.1412 -0.5853
  270TMC3    C8 4143   1.433   3.496  15.460  0.0576 -0.1032 -0.0735
  270TMC3    O1 4144   1.442   3.301  15.890 -0.0280 -0.0045 -1.3932
  270TMC3    O2 4145   1.314   3.458  15.461  0.3346 -0.1338  0.1647
  271MPD2     C 4146   1.307   3.145  13.731 -0.0154  0.1307  0.8007
  271MPD2    C1 4147   1.249   3.103  13.848 -0.1138 -0.5547 -0.0092
  271MPD2    C2 4148   1.109   3.106  13.853 -0.1267 -0.0158 -0.8250
  271MPD2    C3 4149   1.027   3.137  13.746  0.2340  0.3706 -0.2984
  271MPD2    C4 4150   1.086   3.173  13.629  0.3737  0.3359 -0.2215
  271MPD2    C5 4151   1.229   3.181  13.622 -0.0451  0.1812 -0.2867
  271MPD2     H 4152   1.064   3.091  13.950 -0.5095 -0.5692 -1.0865
  271MPD2    H1 4153   1.032   3.218  13.546 -1.4674 -2.2901 -0.4489
  271MPD2    H2 4154   1.414   3.146  13.715 -0.2458  1.5629 -0.6672
  271MPD2    H3 4155   1.282   3.200  13.529 -0.5475 -0.1062 -0.6267
  271MPD2     N 4156   0.884   3.145  13.750  1.0527 -0.3905 -0.3016
  271MPD2    H5 4157   0.840   3.205  13.681 -1.2719  0.0201  1.5047
  271MPD2    N1 4158   1.325   3.049  13.955 -0.5220 -0.1078  0.2313
  271MPD2    H7 4159   1.274   3.023  14.039 -0.9980  3.4547  1.0422
  272TMC3    C1 4160   1.492   2.943  14.082  0.2292 -0.2131 -0.0140
  272TMC3    C2 4161   1.616   2.892  14.098  0.2991 -0.1108 -0.2453
  272TMC3    C3 4162   1.678   2.876  14.218 -0.0271 -0.1501  1.0611
  272TMC3    C4 4163   1.427   2.991  14.193  0.1134 -0.1244  0.0286
  272TMC3    C5 4164   1.498   2.984  14.311  0.0219 -0.0287 -0.4263
  272TMC3    C6 4165   1.620   2.921  14.328  0.8976  0.2623  0.6213
  272TMC3     C 4166   1.457   3.019  13.962  0.7366  0.0912 -0.1440
  272TMC3     O 4167   1.544   3.035  13.878 -0.4953  0.1355 -0.1656
  272TMC3     H 4168   1.669   2.854  14.011  0.1095 -2.5789  0.7197
  272TMC3    H1 4169   1.326   3.031  14.197  0.1359 -0.1832  1.2378
  272TMC3    H2 4170   1.665   2.911  14.426  0.8363 -0.0316  0.6219
  272TMC3    C7 4171   1.447   3.072  14.414  0.4682  0.1498  0.1997
  272TMC3    C8 4172   1.786   2.771  14.215 -0.0766  0.4786  0.1072
  272TMC3    O1 4173   1.324   3.083  14.415 -0.3187  0.7981  0.6050
  272TMC3    O2 4174   1.806   2.713  14.107 -0.9331  0.3839  0.2234
  273MPD2     C 4175   2.964   0.406  11.707 -0.6658 -0.1797 -0.4873
  273MPD2    C1 4176   3.037   0.522  11.701  0.1729 -0.3377  0.4717
  273MPD2    C2 4177   2.982   0.630  11.632 -0.4107  0.1111 -0.4108
  273MPD2    C3 4178   2.852   0.617  11.581  0.1053 -0.3478  0.3928
  273MPD2    C4 4179   2.777   0.507  11.608  1.2237 -0.2922 -0.1018
  273MPD2    C5 4180   2.836   0.401  11.658 -0.0484  0.5064  0.2792
  273MPD2     H 4181   3.030   0.725  11.615 -0.8245  0.4359  0.2146
  273MPD2    H1 4182   2.673   0.502  11.578  0.9272  1.3588  0.5848
  273MPD2    H2 4183   3.017   0.316  11.739  0.2560  0.2585 -0.7858
  273MPD2    H3 4184   2.782   0.307  11.662 -3.3498  2.3948  0.0759
  273MPD2     N 4185   2.787   0.730  11.515  0.4482  0.7305 -0.3444
  273MPD2    H5 4186   2.691   0.711  11.488  0.6516  1.7251 -1.7828
  273MPD2    N1 4187   3.170   0.519  11.738 -0.3285 -0.0396  0.3177
  273MPD2    H7 4188   3.207   0.436  11.783  1.0145  0.1715 -0.3905
  274TMC3    C1 4189   2.724   0.958  11.502 -0.3363  0.1285  0.4813
  274TMC3    C2 4190   2.655   0.955  11.391 -0.7214  0.3040 -0.3270
  274TMC3    C3 4191   2.611   1.067  11.332 -0.5060 -0.4103  0.6486
  274TMC3    C4 4192   2.752   1.077  11.565  0.7536 -0.1615 -0.1446
  274TMC3    C5 4193   2.695   1.187  11.510 -0.2492 -0.0519 -0.7768
  274TMC3    C6 4194   2.629   1.191  11.388  0.2826  0.2656  0.0210
  274TMC3     C 4195   2.831   0.860  11.513  0.4079 -0.4965 -0.4494
  274TMC3     O 4196   2.939   0.905  11.541 -0.8640  0.0613 -0.2725
  274TMC3     H 4197   2.645   0.858  11.344  0.8668 -0.3154  0.6205
  274TMC3    H1 4198   2.818   1.076  11.651 -1.0655 -1.9876  1.2198
  274TMC3    H2 4199   2.565   1.272  11.355  0.0072 -0.4308 -1.1529
  274TMC3    C7 4200   2.678   1.294  11.605  0.3972  0.6078  0.0353
  274TMC3    C8 4201   2.510   1.066  11.221  0.4956  0.8994 -0.0762
  274TMC3    O1 4202   2.669   1.405  11.555  0.1404 -0.2942 -0.0689
  274TMC3    O2 4203   2.509   1.168  11.151  0.1658 -0.1113  0.2613
  275MPD2     C 4204   3.139   3.546  14.855 -0.2866  0.1773 -0.2137
  275MPD2    C1 4205   3.129   3.661  14.778 -0.0505 -0.4309 -0.1003
  275MPD2    C2 4206   3.040   3.659  14.669  0.6931  0.2717  0.2795
  275MPD2    C3 4207   2.969   3.543  14.641 -0.3484 -0.8599  0.1102
  275MPD2    C4 4208   2.985   3.431  14.716 -0.4277 -1.4548  0.0994
  275MPD2    C5 4209   3.063   3.439  14.826 -0.3371 -0.2085  0.2972
  275MPD2     H 4210   3.025   3.755  14.621 -1.0700 -0.7895 -1.2964
  275MPD2    H1 4211   2.924   3.345  14.690 -1.8196 -0.0244 -1.3532
  275MPD2    H2 4212   3.196   3.537  14.946  1.9999 -0.6986 -1.7276
  275MPD2    H3 4213   3.070   3.353  14.892  0.6840  1.5373  2.4381
  275MPD2     N 4214   2.877   3.526  14.533 -0.2247  0.4399  0.1202
  275MPD2    H5 4215   2.845   3.432  14.511 -0.7691  1.0091 -1.5956
  275MPD2    N1 4216   3.197   3.782  14.812 -0.1176 -0.6511  0.9444
  275MPD2    H7 4217   3.168   3.863  14.757  2.5569  0.1335  0.6830
  276TMC3    C1 4218   3.352   3.930  14.914  1.0469  0.2582 -0.4937
  276TMC3    C2 4219   3.306   4.037  14.837  0.0629 -0.5138 -0.8463
  276TMC3    C3 4220   3.314   4.161  14.899 -0.1975 -0.1711 -0.9158
  276TMC3    C4 4221   3.408   3.942  15.038 -0.4137 -0.4175 -0.3459
  276TMC3    C5 4222   3.401   4.067  15.096  0.1762  0.0285 -0.5295
  276TMC3    C6 4223   3.369   4.177  15.021 -0.0913  0.2350 -0.7016
  276TMC3     C 4224   3.304   3.790  14.895 -0.4684 -0.2351  0.0542
  276TMC3     O 4225   3.362   3.702  14.955  0.5699 -0.6167  0.0747
  276TMC3     H 4226   3.263   4.028  14.738 -0.8058 -0.7826 -0.4427
  276TMC3    H1 4227   3.427   3.853  15.096  2.1948  0.8629  0.7359
  276TMC3    H2 4228   3.389   4.277  15.057 -1.4297 -0.0934  0.9833
  276TMC3    C7 4229   3.414   4.091  15.238  0.0624 -0.0960 -0.3221
  276TMC3    C8 4230   3.240   4.275  14.850  0.4715 -0.1910 -0.2348
  276TMC3    O1 4231   3.377   4.201  15.284  0.2360 -0.7589  0.4456
  276TMC3    O2 4232   3.246   4.309  14.735 -0.2117  0.4428  0.1975
  277MPD2     C 4233   4.492   2.958  13.366 -0.2454  0.0063  0.0139
  277MPD2    C1 4234   4.374   3.019  13.334  0.1248  0.1442  0.1092
  277MPD2    C2 4235   4.257   2.940  13.326  0.0855  0.6298 -0.1862
  277MPD2    C3 4236   4.260   2.804  13.362 -0.8093 -0.8422 -0.1805
  277MPD2    C4 4237   4.382   2.751  13.390  0.9193  0.1741 -0.5498
  277MPD2    C5 4238   4.490   2.824  13.394  0.0435  0.0770  0.5997
  277MPD2     H 4239   4.162   2.975  13.287 -0.5360 -0.8725 -0.0272
  277MPD2    H1 4240   4.393   2.644  13.406 -1.6113  0.1588  1.1897
  277MPD2    H2 4241   4.592   2.999  13.363 -0.6417  0.6584 -3.7183
  277MPD2    H3 4242   4.585   2.776  13.418 -0.0031 -0.0578  0.5150
  277MPD2     N 4243   4.134   2.731  13.360  0.0726  0.0686 -0.1985
  277MPD2    H5 4244   4.054   2.792  13.345  0.4231 -0.3006 -3.5789
  277MPD2    N1 4245   4.377   3.154  13.312 -0.2283 -0.2802 -0.1129
  277MPD2    H7 4246   4.466   3.198  13.334 -0.8223  0.4717  0.8075
  278TMC3    C1 4247   3.974   2.572  13.393  0.0557  0.2591 -0.5452
  278TMC3    C2 4248   3.925   2.474  13.474 -0.3699 -1.0064 -0.1333
  278TMC3    C3 4249   3.789   2.446  13.459 -0.4076  0.1689 -0.3959
  278TMC3    C4 4250   3.898   2.635  13.297 -0.0062 -0.3528  0.2402
  278TMC3    C5 4251   3.765   2.606  13.295  0.7086 -0.2943 -0.2310
  278TMC3    C6 4252   3.698   2.524  13.384  0.0961  0.2448  0.2657
  278TMC3     C 4253   4.116   2.599  13.393 -1.0272  0.2118 -0.3889
  278TMC3     O 4254   4.189   2.515  13.446 -0.5159 -0.4103  0.3754
  278TMC3     H 4255   3.989   2.429  13.549 -1.2610  0.4390  1.4954
  278TMC3    H1 4256   3.947   2.685  13.214 -1.2449 -1.9669 -1.4767
  278TMC3    H2 4257   3.595   2.492  13.387 -0.3078  1.7711  2.3862
  278TMC3    C7 4258   3.675   2.706  13.236 -0.2951  0.4864  0.4089
  278TMC3    C8 4259   3.727   2.389  13.582 -0.0154  0.9985 -0.0524
  278TMC3    O1 4260   3.720   2.798  13.163 -0.1605  0.2081 -0.2473
  278TMC3    O2 4261   3.621   2.435  13.619 -0.2470  0.0796  0.1490
  279MPD2     C 4262   3.659   2.810   0.189  0.0070 -0.3823 -0.4358
  279MPD2    C1 4263   3.603   2.932   0.152 -1.0933  0.1249  0.8747
  279MPD2    C2 4264   3.621   2.980   0.026 -0.5104 -0.4460 -0.3421
  279MPD2    C3 4265   3.677   2.903  17.672 -0.5919  0.3484 -0.0736
  279MPD2    C4 4266   3.731   2.781  17.702 -0.1063 -0.3112  0.3491
  279MPD2    C5 4267   3.730   2.742   0.095 -0.3078 -0.3931  0.6327
  279MPD2     H 4268   3.580   3.079   0.007 -2.1094 -1.3389 -1.6089
  279MPD2    H1 4269   3.778   2.720  17.626  1.5893 -0.6898  1.6893
  279MPD2    H2 4270   3.650   2.783   0.293 -1.9819 -0.1947 -0.5442
  279MPD2    H3 4271   3.785   2.649   0.112  0.1282  0.0740  1.7736
  279MPD2     N 4272   3.672   2.940  17.535 -0.0118 -0.2806 -0.0160
  279MPD2    H5 4273   3.709   2.865  17.477 -1.1937 -0.2496 -0.8089
  279MPD2    N1 4274   3.526   2.999   0.249 -0.3024 -0.3021  0.6779
  279MPD2    H7 4275   3.512   2.955   0.340 -0.5179  0.1295  0.8511
  280TMC3    C1 4276   3.364   3.160   0.318 -0.0493 -0.7594 -0.4678
  280TMC3    C2 4277   3.283   3.058   0.356 -0.1546 -0.0045  0.4652
  280TMC3    C3 4278   3.148   3.069   0.383 -0.6520  0.0431 -0.4423
  280TMC3    C4 4279   3.307   3.283   0.309 -0.2708  0.1068 -0.1353
  280TMC3    C5 4280   3.173   3.292   0.346  0.3629  0.4941 -0.4418
  280TMC3    C6 4281   3.094   3.187   0.385 -0.5840 -0.2707  0.2907
  280TMC3     C 4282   3.485   3.133   0.240 -0.3193  0.2362  0.1346
  280TMC3     O 4283   3.513   3.224   0.162 -0.1739  0.1654 -0.3319
  280TMC3     H 4284   3.322   2.958   0.368 -0.5476 -0.1289  0.7103
  280TMC3    H1 4285   3.358   3.367   0.264 -1.6046  1.4769  0.9309
  280TMC3    H2 4286   2.992   3.199   0.420 -0.5771 -0.1046  0.2562
  280TMC3    C7 4287   3.119   3.431   0.347 -0.1871  0.1758  0.3192
  280TMC3    C8 4288   3.069   2.961   0.419 -0.7639 -0.6508  0.1145
  280TMC3    O1 4289   3.199   3.523   0.376  0.1233 -0.0996  0.3858
  280TMC3    O2 4290   2.968   2.991   0.483  0.8103 -0.0160 -0.0104
  281TMC3    C1 4291   2.472   2.868  13.576  0.1688  0.0150  0.0469
  281TMC3    C2 4292   2.590   2.933  13.555 -0.4007  0.3509 -0.1428
  281TMC3    C3 4293   2.645   2.906  13.432  0.3801  0.2958 -0.3602
  281TMC3    C4 4294   2.412   2.778  13.493 -0.4281  0.1254  0.4235
  281TMC3    C5 4295   2.473   2.751  13.375 -0.3501 -0.4003 -0.1608
  281TMC3    C6 4296   2.588   2.816  13.344  0.0066 -0.0339 -0.1938
  281TMC3     C 4297   2.381   2.928  13.673 -0.1208  0.1870 -0.1572
  281TMC3     O 4298   2.424   2.929  13.788  0.1486  0.6159  0.0753
  281TMC3     H 4299   2.619   3.015  13.619  0.6970 -0.5719  0.5410
  281TMC3    H1 4300   2.313   2.740  13.517  1.1757 -1.8223  3.8377
  281TMC3    H2 4301   2.643   2.803  13.252  3.1433  1.6249  1.4312
  281TMC3    C7 4302   2.395   2.691  13.262 -0.2888 -0.8317 -0.5054
  281TMC3    C8 4303   2.754   2.989  13.384  0.4091 -0.0779  0.1483
  281TMC3    O1 4304   2.440   2.706  13.151  0.1114 -0.6878  0.0817
  281TMC3    O2 4305   2.850   2.926  13.343 -0.8127  0.2666 -0.2899
  282MPD2     C 4306   4.569   0.106  15.350 -0.1473  0.0288  0.0149
  282MPD2    C1 4307   4.431   0.118  15.368  0.0581 -0.0107  0.4336
  282MPD2    C2 4308   4.345   0.086  15.263  0.7979  0.0547 -0.5802
  282MPD2    C3 4309   4.397   0.045  15.140  0.5716  0.3853  0.4033
  282MPD2    C4 4310   4.535   0.024  15.132  0.2379 -1.3118 -0.5345
  282MPD2    C5 4311   4.622   0.054  15.234  0.2565 -0.0439 -0.6091
  282MPD2     H 4312   4.239   0.101  15.278  0.4056 -2.1238 -1.1439
  282MPD2    H1 4313   4.580   4.724  15.040  0.0801  0.3549 -1.2525
  282MPD2    H2 4314   4.638   0.128  15.431 -1.2372 -1.7620  1.4343
  282MPD2    H3 4315   4.730   0.055  15.224  0.2490  5.7053 -0.1389
  282MPD2     N 4316   4.314   0.042  15.026  0.8134  0.5394  0.2115
  282MPD2    H5 4317   4.218   0.070  15.043  1.1563  2.0286 -0.3093
  282MPD2    N1 4318   4.375   0.160  15.494 -0.6179  0.0371 -0.5043
  282MPD2    H7 4319   4.275   0.155  15.508 -0.4609 -0.4207  0.4608
  283TMC3    C1 4320   4.358   0.246  15.705 -0.5646  0.3859 -0.4235
  283TMC3    C2 4321   4.379   0.366  15.748  0.5570 -1.1956 -0.6560
  283TMC3    C3 4322   4.292   0.426  15.831  0.3682 -0.5777  0.5998
  283TMC3    C4 4323   4.257   0.170  15.750  0.2110 -0.0767  0.0665
  283TMC3    C5 4324   4.158   0.227  15.820  0.1536 -0.1737  0.4161
  283TMC3    C6 4325   4.174   0.359  15.861 -0.0523  0.5440 -0.2863
  283TMC3     C 4326   4.448   0.203  15.596 -0.0875 -0.2098 -0.0279
  283TMC3     O 4327   4.566   0.237  15.608 -0.6077  1.2210 -0.1001
  283TMC3     H 4328   4.471   0.419  15.728  0.1338 -0.4098 -0.5183
  283TMC3    H1 4329   4.254   0.065  15.723  1.8010 -0.7235  2.3999
  283TMC3    H2 4330   4.113   0.399  15.941 -1.1398 -0.9473 -0.3455
  283TMC3    C7 4331   4.076   0.138  15.901  0.0754 -0.6405 -0.3479
  283TMC3    C8 4332   4.294   0.567  15.859 -0.4125  0.1153  0.1763
  283TMC3    O1 4333   3.965   0.176  15.929 -0.0723 -0.3818  0.2218
  283TMC3    O2 4334   4.270   0.594  15.974  0.1175  0.2647 -0.0443
  284MPD2     C 4335   2.647   4.018  11.730 -0.2591 -0.5362 -0.7361
  284MPD2    C1 4336   2.777   4.043  11.769 -0.9070 -1.0835 -0.2055
  284MPD2    C2 4337   2.830   3.987  11.887  0.1830 -0.3933 -0.3861
  284MPD2    C3 4338   2.754   3.895  11.957 -0.0146  0.7206  0.1242
  284MPD2    C4 4339   2.625   3.866  11.914 -0.4099  0.7158 -1.0885
  284MPD2    C5 4340   2.572   3.942  11.813 -0.1628  0.0393  0.4276
  284MPD2     H 4341   2.928   4.006  11.930 -0.4106  2.5439 -0.3811
  284MPD2    H1 4342   2.553   3.803  11.964 -0.7185  0.4687 -1.8326
  284MPD2    H2 4343   2.605   4.077  11.650 -1.0997  1.0817  0.8816
  284MPD2    H3 4344   2.466   3.928  11.793  0.4185 -1.5073 -1.5552
  284MPD2     N 4345   2.809   3.850  12.082 -0.5437  0.3424 -0.3306
  284MPD2    H5 4346   2.907   3.873  12.095 -0.1844 -1.0021 -0.6406
  284MPD2    N1 4347   2.869   4.106  11.687  0.1168 -0.7575  0.9705
  284MPD2    H7 4348   2.962   4.110  11.727  0.0546 -2.4761  1.2933
  285TMC3    C1 4349   2.965   4.165  11.490 -0.4830 -0.3260  0.1051
  285TMC3    C2 4350   3.067   4.068  11.518  0.4502  0.0107  0.5575
  285TMC3    C3 4351   3.183   4.082  11.452 -0.5377  0.2904  0.3623
  285TMC3    C4 4352   2.963   4.261  11.392  0.1371 -0.2161  1.0812
  285TMC3    C5 4353   3.086   4.271  11.329 -0.5210  0.2997 -0.5741
  285TMC3    C6 4354   3.191   4.180  11.352  0.2371  0.0560  0.4933
  285TMC3     C 4355   2.846   4.172  11.574  0.0035 -0.9221 -1.3697
  285TMC3     O 4356   2.743   4.224  11.531  0.1738  0.3683  0.1903
  285TMC3     H 4357   3.063   3.996  11.599  2.4622  1.0567  1.5736
  285TMC3    H1 4358   2.895   4.346  11.387 -0.0405 -0.2965  2.1137
  285TMC3    H2 4359   3.287   4.213  11.314 -0.5888  2.0659  0.1613
  285TMC3    C7 4360   3.125   4.399  11.266 -0.1401 -0.2441  0.4439
  285TMC3    C8 4361   3.238   3.953  11.433  0.8128 -0.3117 -0.3677
  285TMC3    O1 4362   3.243   4.422  11.270  0.9525 -0.5876 -0.1873
  285TMC3    O2 4363   3.184   3.850  11.471 -0.6827 -0.0866 -0.0467
  286MPD2     C 4364   2.433   2.751   1.559  0.0414  0.5177 -0.3109
  286MPD2    C1 4365   2.394   2.729   1.427  0.7685 -0.3812  0.1862
  286MPD2    C2 4366   2.447   2.626   1.353 -0.0968 -0.3616  0.5542
  286MPD2    C3 4367   2.547   2.548   1.408 -0.0080  0.0986 -0.7644
  286MPD2    C4 4368   2.589   2.577   1.540 -0.3038 -0.2626  0.0244
  286MPD2    C5 4369   2.531   2.679   1.610 -0.4604 -0.2956 -0.1683
  286MPD2     H 4370   2.418   2.618   1.249 -0.8439 -0.6119  0.7757
  286MPD2    H1 4371   2.660   2.513   1.591  0.7410  0.3433 -0.6693
  286MPD2    H2 4372   2.390   2.827   1.623  1.3601 -1.5651  3.0315
  286MPD2    H3 4373   2.543   2.677   1.718  0.8553  1.4430 -0.2747
  286MPD2     N 4374   2.614   2.440   1.339  0.2188  0.2273 -0.0900
  286MPD2    H5 4375   2.687   2.396   1.394  0.4901 -0.3751 -0.9463
  286MPD2    N1 4376   2.296   2.810   1.371  0.0263  0.0115  0.3054
  286MPD2    H7 4377   2.267   2.808   1.274 -0.3779 -0.6236  0.4329
  287TMC3    C1 4378   2.647   2.275   1.159 -0.3790 -0.0748  0.0121
  287TMC3    C2 4379   2.591   2.206   1.053  0.6439  0.6020  0.1966
  287TMC3    C3 4380   2.678   2.134   0.977 -0.2468 -0.4040  0.0312
  287TMC3    C4 4381   2.773   2.261   1.202 -0.3953 -0.4140  0.0872
  287TMC3    C5 4382   2.850   2.171   1.126  0.6527  0.4285 -0.6114
  287TMC3    C6 4383   2.810   2.114   1.010  0.2662 -0.3579  0.0307
  287TMC3     C 4384   2.575   2.395   1.210 -0.0796 -0.7103  0.6713
  287TMC3     O 4385   2.475   2.425   1.146  0.1224 -0.1021 -0.1059
  287TMC3     H 4386   2.484   2.196   1.042  0.3857  0.1624  3.1691
  287TMC3    H1 4387   2.807   2.338   1.269  0.3379 -0.0489 -0.7114
  287TMC3    H2 4388   2.879   2.053   0.954  1.3971  0.0911  0.9391
  287TMC3    C7 4389   2.985   2.164   1.174  0.2894 -0.4841  0.9723
  287TMC3    C8 4390   2.623   2.057   0.863 -0.1661  0.0755  0.5499
  287TMC3    O1 4391   3.019   2.235   1.267  0.0071  0.0842  0.0704
  287TMC3    O2 4392   2.689   1.963   0.816  0.3305 -0.5590  0.6568
  288TMC3    C1 4393   4.257   2.412  14.646  1.0196 -0.1648 -0.1365
  288TMC3    C2 4394   4.227   2.360  14.771  0.0445 -0.0560  0.1916
  288TMC3    C3 4395   4.279   2.429  14.878  0.1639  0.1447 -0.1233
  288TMC3    C4 4396   4.327   2.527  14.614 -0.1936 -0.1678  0.5537
  288TMC3    C5 4397   4.376   2.592  14.730 -0.3664 -0.4315 -0.5971
  288TMC3    C6 4398   4.351   2.542  14.859 -0.5701  0.4114 -0.5137
  288TMC3     C 4399   4.188   2.342  14.530 -0.2981 -0.6861 -0.5324
  288TMC3     O 4400   4.149   2.230  14.543 -0.2480 -0.1602  0.4199
  288TMC3     H 4401   4.152   2.281  14.765 -0.1127 -0.0335  1.9469
  288TMC3    H1 4402   4.357   2.551  14.513 -1.1852 -1.1861  0.0062
  288TMC3    H2 4403   4.390   2.602  14.940  0.4194 -2.3193  1.0337
  288TMC3    C7 4404   4.472   2.702  14.716 -0.3066  0.2005 -0.0230
  288TMC3    C8 4405   4.300   2.354  14.997  0.5933  0.3490 -0.0884
  288TMC3    O1 4406   4.528   2.737  14.814 -0.0058  0.8637  0.2439
  288TMC3    O2 4407   4.381   2.399  15.072 -0.0606 -0.0952  0.5586
  289MPD2     C 4408   4.587   1.524  14.378  0.0243  0.3138  0.1224
  289MPD2    C1 4409   4.546   1.653  14.350  0.8313 -1.1238  0.0707
  289MPD2    C2 4410   4.413   1.687  14.353  0.5353 -0.3619 -0.0224
  289MPD2    C3 4411   4.315   1.590  14.353 -0.3349 -0.2574  0.0920
  289MPD2    C4 4412   4.358   1.458  14.367 -0.1890  0.0364  0.3083
  289MPD2    C5 4413   4.490   1.422  14.379 -0.3069 -0.0259  0.0835
  289MPD2     H 4414   4.385   1.791  14.339  0.9940 -0.3874 -1.1076
  289MPD2    H1 4415   4.289   1.375  14.361 -1.4490  0.8842  2.7524
  289MPD2    H2 4416   4.690   1.492  14.392  1.1932  2.2793 -3.8050
  289MPD2    H3 4417   4.502   1.314  14.379 -0.0998 -0.0042  2.1446
  289MPD2     N 4418   4.171   1.603  14.340  0.1001 -0.2222 -0.0309
  289MPD2    H5 4419   4.109   1.527  14.364  1.8915 -1.6285  0.1119
  289MPD2    N1 4420   4.647   1.751  14.324 -0.2204  0.4451  0.2960
  289MPD2    H7 4421   0.008   1.720  14.321  0.3227  2.1915 -0.3122
  290TMC3    C1 4422   3.966   1.722  14.351 -0.3586  0.0679 -0.0352
  290TMC3    C2 4423   3.906   1.846  14.363 -0.1637 -0.0617 -0.8905
  290TMC3    C3 4424   3.774   1.843  14.360 -0.0924 -1.3671 -0.2787
  290TMC3    C4 4425   3.895   1.606  14.345 -0.6282 -0.7966 -0.0862
  290TMC3    C5 4426   3.757   1.616  14.333 -0.0356  0.2814 -0.3612
  290TMC3    C6 4427   3.693   1.735  14.351 -0.4076 -0.1815  0.6849
  290TMC3     C 4428   4.110   1.729  14.331 -0.3934 -0.0125 -0.5274
  290TMC3     O 4429   4.153   1.828  14.272  0.3721 -0.1407  0.2194
  290TMC3     H 4430   3.966   1.937  14.355 -2.3697  1.2632 -2.3826
  290TMC3    H1 4431   3.941   1.516  14.306  0.7460  0.1451 -0.6540
  290TMC3    H2 4432   3.585   1.740  14.336  0.0248 -2.9131 -3.1038
  290TMC3    C7 4433   3.671   1.500  14.317 -0.4193  0.2938 -0.3971
  290TMC3    C8 4434   3.711   1.975  14.372 -1.3752 -0.5697  0.1336
  290TMC3    O1 4435   3.559   1.521  14.262 -0.3595  0.1255  0.5821
  290TMC3    O2 4436   3.589   1.987  14.339 -0.4943 -0.5619 -0.0121
  291MPD2     C 4437   3.579   1.882   0.179 -0.2576 -0.8292 -0.0092
  291MPD2    C1 4438   3.705   1.848   0.212  0.2555  0.4922 -0.3567
  291MPD2    C2 4439   3.805   1.937   0.221  0.2296  0.2723  0.2609
  291MPD2    C3 4440   3.774   2.071   0.190  0.3916 -0.2972  0.1771
  291MPD2    C4 4441   3.648   2.108   0.151 -0.2733 -0.4009 -0.1786
  291MPD2    C5 4442   3.552   2.018   0.146 -0.3856  0.6131  0.4159
  291MPD2     H 4443   3.904   1.902   0.248 -0.4482 -1.6060  0.2935
  291MPD2    H1 4444   3.631   2.213   0.128  0.9025 -0.0782  0.4596
  291MPD2    H2 4445   3.501   1.809   0.157  1.2926 -2.6383  0.4549
  291MPD2    H3 4446   3.448   2.037   0.122 -0.9659 -0.5109  2.0339
  291MPD2     N 4447   3.869   2.172   0.196  0.2996 -0.1652  0.3668
  291MPD2    H5 4448   3.835   2.261   0.161 -0.0669 -1.2371 -2.0044
  291MPD2    N1 4449   3.736   1.712   0.231 -0.3228  0.8063 -0.3644
  291MPD2    H7 4450   3.837   1.703   0.237 -0.3643 -0.0322 -1.0224
  292TMC3    C1 4451   3.730   1.477   0.219 -0.1042 -0.3674  0.4494
  292TMC3    C2 4452   3.871   1.474   0.238 -0.1290 -0.0005 -0.9207
  292TMC3    C3 4453   3.929   1.350   0.261 -1.1970  0.2131 -0.1903
  292TMC3    C4 4454   3.657   1.366   0.195  0.5910 -0.1627  0.0857
  292TMC3    C5 4455   3.723   1.246   0.211  0.2591 -0.3507 -0.1435
  292TMC3    C6 4456   3.862   1.228   0.234 -0.4422 -1.3242 -0.6459
  292TMC3     C 4457   3.654   1.599   0.221 -0.0225  0.4476 -0.3794
  292TMC3     O 4458   3.531   1.595   0.226 -0.4859 -0.0036  0.0306
  292TMC3     H 4459   3.916   1.565   0.276  2.0441 -1.2010 -0.6232
  292TMC3    H1 4460   3.560   1.379   0.147  0.1540  1.7167  1.4446
  292TMC3    H2 4461   3.909   1.131   0.240  1.1500 -0.5453 -0.4320
  292TMC3    C7 4462   3.647   1.127   0.184 -0.7042 -0.0426  0.1116
  292TMC3    C8 4463   4.047   1.337   0.335 -0.7125 -0.4409 -0.0462
  292TMC3    O1 4464   3.711   1.026   0.154  0.1519  0.3694 -0.3383
  292TMC3    O2 4465   4.118   1.438   0.333  0.3696 -0.4525  0.1914
  293MPD2     C 4466   1.075   2.481  12.515  0.1889  0.2523  0.4417
  293MPD2    C1 4467   0.947   2.500  12.554  0.0115  0.1058 -0.8874
  293MPD2    C2 4468   0.939   2.553  12.684  0.0811  0.4095 -0.9777
  293MPD2    C3 4469   1.050   2.610  12.755  0.1914 -0.0424 -0.7523
  293MPD2    C4 4470   1.179   2.592  12.704  0.0968 -0.0763  0.0784
  293MPD2    C5 4471   1.183   2.520  12.584  0.1934  0.9996 -0.5207
  293MPD2     H 4472   0.836   2.563  12.719  1.1994  0.0407  2.4163
  293MPD2    H1 4473   1.265   2.620  12.762 -1.2633  2.1143  1.0279
  293MPD2    H2 4474   1.084   2.435  12.417  0.6876  0.7852  0.2388
  293MPD2    H3 4475   1.281   2.496  12.545 -0.5111  0.3668 -1.8888
  293MPD2     N 4476   1.021   2.684  12.872 -0.2398 -0.2789 -0.2331
  293MPD2    H5 4477   0.923   2.688  12.896 -0.1939  1.1644 -0.3240
  293MPD2    N1 4478   0.843   2.451  12.471 -0.0875 -0.5535  0.1800
  293MPD2    H7 4479   0.853   2.423  12.374 -1.5968 -1.4184  0.2757
  294TMC3    C1 4480   0.637   2.389  12.396 -0.1983  0.4213  0.1173
  294TMC3    C2 4481   0.528   2.308  12.421 -0.3863 -0.4537 -0.0729
  294TMC3    C3 4482   0.452   2.275  12.314 -0.0171  0.3323  0.4409
  294TMC3    C4 4483   0.661   2.441  12.267 -0.1686  0.5116 -0.9041
  294TMC3    C5 4484   0.575   2.410  12.157  0.1018  0.0312  0.7903
  294TMC3    C6 4485   0.475   2.321  12.185 -0.4514 -0.2772 -0.2721
  294TMC3     C 4486   0.718   2.426  12.514  0.2279 -0.3401 -0.1247
  294TMC3     O 4487   0.684   2.413  12.633 -0.2306 -0.3547 -0.1321
  294TMC3     H 4488   0.509   2.274  12.522 -1.1523  2.2240  0.6920
  294TMC3    H1 4489   0.733   2.519  12.248  0.5330 -0.0934 -0.7365
  294TMC3    H2 4490   0.416   2.275  12.106 -0.9927 -0.0066 -0.0279
  294TMC3    C7 4491   0.603   2.454  12.026 -0.5277 -0.2856  0.4833
  294TMC3    C8 4492   0.344   2.185  12.336  0.0430 -0.9668 -0.5237
  294TMC3    O1 4493   0.529   2.541  11.981  0.5632  0.2189 -0.2620
  294TMC3    O2 4494   0.295   2.192  12.447 -0.0113 -0.4919  0.3196
  295MPD2     C 4495   1.110   1.553   0.977 -0.0142 -0.3827 -0.0188
  295MPD2    C1 4496   1.021   1.641   0.932 -0.1962 -0.1689  0.3483
  295MPD2    C2 4497   0.930   1.697   1.027 -0.1825  0.5877  0.1740
  295MPD2    C3 4498   0.929   1.651   1.155 -0.8866 -0.1349 -0.1424
  295MPD2    C4 4499   1.027   1.557   1.199  0.0127  0.5688 -0.8396
  295MPD2    C5 4500   1.123   1.518   1.112 -0.6791 -0.0020  0.1947
  295MPD2     H 4501   0.851   1.759   0.986 -0.0525 -0.3242 -1.4801
  295MPD2    H1 4502   1.020   1.499   1.290 -1.2699  0.2783 -1.1325
  295MPD2    H2 4503   1.190   1.512   0.916 -0.4712 -0.0515 -0.8346
  295MPD2    H3 4504   1.195   1.450   1.156 -0.7639  1.4456  2.5480
  295MPD2     N 4505   0.822   1.672   1.248 -0.3187  0.1286  0.2621
  295MPD2    H5 4506   0.838   1.631   1.339  1.2137  0.9910  0.3905
  295MPD2    N1 4507   0.996   1.668   0.794 -0.5136 -0.0666 -0.1571
  295MPD2    H7 4508   0.946   1.755   0.777  1.2126  0.7209 -1.2162
  296TMC3    C1 4509   0.629   1.746   1.352  0.9775 -0.4682  0.4525
  296TMC3    C2 4510   0.516   1.823   1.350  0.3481 -0.1113 -0.0385
  296TMC3    C3 4511   0.435   1.826   1.460  0.2978 -0.1723  0.1119
  296TMC3    C4 4512   0.653   1.659   1.463 -0.9113  0.0939 -0.1457
  296TMC3    C5 4513   0.574   1.674   1.578  0.6190 -1.0529 -0.6170
  296TMC3    C6 4514   0.466   1.760   1.577  0.3062 -0.0469  0.3417
  296TMC3     C 4515   0.700   1.739   1.228 -0.3261  0.3502 -1.0030
  296TMC3     O 4516   0.652   1.771   1.121  0.5324 -0.1758  0.0647
  296TMC3     H 4517   0.488   1.872   1.257 -0.4637 -1.8025 -0.6916
  296TMC3    H1 4518   0.704   1.564   1.453 -2.0457 -0.4701 -0.4802
  296TMC3    H2 4519   0.402   1.779   1.662  0.1145  0.3639  0.1058
  296TMC3    C7 4520   0.587   1.608   1.703  0.0288  0.7566  0.3906
  296TMC3    C8 4521   0.300   1.872   1.453  0.1983 -0.9747  0.2529
  296TMC3    O1 4522   0.503   1.634   1.792  0.2587 -0.3153  0.0297
  296TMC3    O2 4523   0.223   1.829   1.536 -0.2389 -0.4983 -0.2424
  297MPD2     C 4524   3.115   3.564  16.516 -0.8256  0.7553  0.2288
  297MPD2    C1 4525   3.142   3.606  16.386 -0.0775  0.2564 -0.3423
  297MPD2    C2 4526   3.262   3.672  16.358  0.6915 -0.5775  0.1722
  297MPD2    C3 4527   3.354   3.692  16.454  0.8741 -0.7333  0.4313
  297MPD2    C4 4528   3.324   3.649  16.584  0.3823  0.3125 -0.1096
  297MPD2    C5 4529   3.207   3.582  16.613 -0.7532  0.0166  0.4768
  297MPD2     H 4530   3.272   3.707  16.256 -0.9129  1.3875  0.7001
  297MPD2    H1 4531   3.398   3.659  16.662  1.9836 -0.0432 -1.5613
  297MPD2    H2 4532   3.021   3.516  16.541 -0.2198 -1.0045 -0.8231
  297MPD2    H3 4533   3.188   3.561  16.718 -3.0897 -0.3784 -0.0248
  297MPD2     N 4534   3.475   3.752  16.415 -0.4137  0.4152 -0.5354
  297MPD2    H5 4535   3.480   3.764  16.315 -0.3367 -1.2868 -0.7266
  297MPD2    N1 4536   3.039   3.613  16.283  0.2573 -0.3514 -0.2668
  297MPD2    H7 4537   3.064   3.654  16.194  1.8007 -0.1706  0.2484
  298TMC3    C1 4538   2.821   3.626  16.205  0.7234  0.0147 -0.7648
  298TMC3    C2 4539   2.870   3.697  16.095  0.1305  0.6378 -0.8083
  298TMC3    C3 4540   2.788   3.798  16.041 -0.2971  0.5484  0.5624
  298TMC3    C4 4541   2.690   3.657  16.243  0.1273  0.2008  0.1204
  298TMC3    C5 4542   2.619   3.762  16.186  0.3925 -1.0543  0.2582
  298TMC3    C6 4543   2.665   3.835  16.086  0.3489  0.0888  0.5532
  298TMC3     C 4544   2.911   3.562  16.299 -0.1154  0.6810 -0.0418
  298TMC3     O 4545   2.870   3.490  16.390  0.1901  0.0588 -0.3387
  298TMC3     H 4546   2.968   3.678  16.052 -1.0315 -2.4109 -2.1461
  298TMC3    H1 4547   2.659   3.607  16.334 -0.6240  1.9284  0.8217
  298TMC3    H2 4548   2.607   3.917  16.044 -0.6698 -0.6053  0.6100
  298TMC3    C7 4549   2.497   3.803  16.250 -0.0081 -0.3959 -0.8512
  298TMC3    C8 4550   2.854   3.886  15.946  0.3910  0.6424 -0.2688
  298TMC3    O1 4551   2.483   3.767  16.366 -0.2187  0.6909 -0.3231
  298TMC3    O2 4552   2.940   3.835  15.875  0.1085 -1.1726  0.4423
  299MPD2     C 4553   4.320   3.358  10.764 -0.7018 -0.4016 -0.5392
  299MPD2    C1 4554   4.292   3.273  10.861  0.3835 -0.0100 -0.6717
  299MPD2    C2 4555   4.203   3.173  10.841 -0.1094 -0.3472  0.3920
  299MPD2    C3 4556   4.154   3.139  10.714 -0.6345 -0.3416 -0.1085
  299MPD2    C4 4557   4.175   3.235  10.619 -0.3156  0.2999 -0.6317
  299MPD2    C5 4558   4.263   3.337  10.640  0.2420 -0.1681 -0.2150
  299MPD2     H 4559   4.187   3.110  10.927  2.4739 -2.7022 -0.8504
  299MPD2    H1 4560   4.124   3.229  10.524 -0.6983 -0.7302 -0.3662
  299MPD2    H2 4561   4.386   3.441  10.785  0.7524 -1.4584 -0.9581
  299MPD2    H3 4562   4.282   3.401  10.555 -1.9359  0.3944 -0.2728
  299MPD2     N 4563   4.072   3.024  10.681  0.2268  0.2555  0.4461
  299MPD2    H5 4564   4.036   3.013  10.587  3.6087 -1.3196 -0.6466
  299MPD2    N1 4565   4.337   3.315  10.989 -0.1053 -0.7246  0.1415
  299MPD2    H7 4566   4.383   3.406  10.991  2.7960 -2.1726 -1.8205
  300TMC3    C1 4567   3.940   2.826  10.737 -0.0984 -0.3266 -0.0360
  300TMC3    C2 4568   3.852   2.839  10.627  0.3517 -0.5335 -1.5411
  300TMC3    C3 4569   3.748   2.750  10.612  0.5132  0.0138  0.0304
  300TMC3    C4 4570   3.919   2.731  10.825  0.5888 -0.3642  0.3581
  300TMC3    C5 4571   3.831   2.628  10.799 -0.2548  0.5080  0.0143
  300TMC3    C6 4572   3.733   2.647  10.703 -0.0719  0.3351 -0.2098
  300TMC3     C 4573   4.045   2.923  10.774 -0.0630 -0.4699  0.2495
  300TMC3     O 4574   4.064   2.924  10.896 -0.5556  0.0213 -0.1497
  300TMC3     H 4575   3.859   2.924  10.559 -3.0796 -0.5973 -1.9838
  300TMC3    H1 4576   3.979   2.716  10.914 -1.4344 -1.1847  1.6046
  300TMC3    H2 4577   3.666   2.566  10.676  0.1285  0.0169  0.2530
  300TMC3    C7 4578   3.773   2.569  10.919  0.9508  0.0521  0.5661
  300TMC3    C8 4579   3.624   2.815  10.578 -0.8007  0.1494  0.3102
  300TMC3    O1 4580   3.707   2.464  10.907 -0.2360  0.1586  0.3092
  300TMC3    O2 4581   3.621   2.898  10.485  0.0955 -0.1747 -0.5097
  301MPD2     C 4582   1.632   0.106   0.904 -0.0413 -0.1607 -0.0112
  301MPD2    C1 4583   1.505   0.101   0.955 -0.1327  0.6478  0.0748
  301MPD2    C2 4584   1.452   4.707   0.980 -0.6565  0.3100  0.7740
  301MPD2    C3 4585   1.531   4.593   0.973  0.2887  0.2424 -1.1375
  301MPD2    C4 4586   1.660   4.608   0.937  0.1663  0.0268  0.4626
  301MPD2    C5 4587   1.710   4.727   0.889 -0.5829  0.2506  0.1320
  301MPD2     H 4588   1.346   4.697   1.004 -0.5718 -3.4080 -0.4773
  301MPD2    H1 4589   1.727   4.525   0.918 -1.9146 -1.4786 -0.2453
  301MPD2    H2 4590   1.670   0.201   0.869  3.1383 -0.9780  1.2304
  301MPD2    H3 4591   1.805   0.001   0.837  0.6114  0.2132  2.3172
  301MPD2     N 4592   1.477   4.466   0.991 -0.1429  0.2355 -0.1300
  301MPD2    H5 4593   1.549   4.401   1.022 -0.6943  0.0593  0.7938
  301MPD2    N1 4594   1.411   0.211   0.970  0.2274 -0.0125 -0.0428
  301MPD2    H7 4595   1.319   0.182   1.002  0.8160 -2.4293 -0.5549
  302TMC3    C1 4596   1.298   4.302   1.023 -0.7001  0.2136  0.5223
  302TMC3    C2 4597   1.374   4.229   1.108 -0.3341 -0.1302 -0.0482
  302TMC3    C3 4598   1.324   4.110   1.144 -0.8999 -0.3622 -0.2701
  302TMC3    C4 4599   1.167   4.269   0.983  0.1846 -0.1019 -0.5632
  302TMC3    C5 4600   1.121   4.149   1.022  0.2744  0.2300  0.1256
  302TMC3    C6 4601   1.204   4.071   1.099 -0.8660  0.4789  0.4320
  302TMC3     C 4602   1.346   4.431   0.972 -0.2777  0.1882  0.1313
  302TMC3     O 4603   1.259   4.501   0.921  0.0070  0.5632  0.1464
  302TMC3     H 4604   1.475   4.255   1.137 -0.7102  0.8133  0.4411
  302TMC3    H1 4605   1.109   4.337   0.921 -0.2587 -0.3924 -0.4663
  302TMC3    H2 4606   1.165   3.971   1.116  0.5757 -0.3368 -1.0198
  302TMC3    C7 4607   0.997   4.097   0.974 -0.1524  0.1370  0.1590
  302TMC3    C8 4608   1.402   4.022   1.238  0.6041  0.2262 -0.0078
  302TMC3    O1 4609   0.989   3.973   0.946 -0.3320 -0.3955  0.1462
  302TMC3    O2 4610   1.523   4.019   1.235 -0.2625  0.0093 -0.6633
  303MPD2     C 4611   1.603   2.378  10.799  0.0706 -0.4154 -0.5902
  303MPD2    C1 4612   1.473   2.363  10.746  0.0181 -0.3119 -0.1090
  303MPD2    C2 4613   1.449   2.393  10.611 -0.5864 -0.1639 -0.4259
  303MPD2    C3 4614   1.554   2.431  10.527  0.2820  0.4101 -0.9232
  303MPD2    C4 4615   1.682   2.431  10.579 -1.2351 -0.3150  0.7689
  303MPD2    C5 4616   1.701   2.412  10.713  0.1224 -0.0502 -0.4644
  303MPD2     H 4617   1.346   2.385  10.579 -1.3045  1.0328  1.5935
  303MPD2    H1 4618   1.767   2.463  10.520 -0.8246  2.0204  2.6432
  303MPD2    H2 4619   1.614   2.359  10.905  0.3622  1.1298 -0.3458
  303MPD2    H3 4620   1.803   2.431  10.743 -0.2414  3.9905 -1.7353
  303MPD2     N 4621   1.540   2.441  10.387  0.0289  0.5745  0.4827
  303MPD2    H5 4622   1.625   2.462  10.337  0.5482  0.9897  1.5232
  303MPD2    N1 4623   1.368   2.325  10.827  0.3740 -0.5930 -0.6945
  303MPD2    H7 4624   1.400   2.298  10.920 -2.5335 -1.3783  0.0924
  304TMC3    C1 4625   1.148   2.276  10.915 -1.1449  0.3458  0.4799
  304TMC3    C2 4626   1.014   2.299  10.895 -0.6573  0.2087  0.2431
  304TMC3    C3 4627   0.925   2.222  10.961  0.6494 -0.6745  0.4411
  304TMC3    C4 4628   1.197   2.186  11.006  0.4007 -0.2139 -0.3763
  304TMC3    C5 4629   1.103   2.091  11.055  0.0886  0.4275  0.7091
  304TMC3    C6 4630   0.970   2.112  11.037 -0.3415 -0.6545 -0.7065
  304TMC3     C 4631   1.230   2.319  10.804 -0.0861  0.3902 -0.7271
  304TMC3     O 4632   1.163   2.342  10.702  0.0909  0.6849 -0.1271
  304TMC3     H 4633   0.980   2.366  10.818 -0.3137 -1.6589 -1.5311
  304TMC3    H1 4634   1.299   2.150  11.001  0.1635 -0.9399 -0.1070
  304TMC3    H2 4635   0.897   2.041  11.076 -0.1793  0.0046  0.8123
  304TMC3    C7 4636   1.146   1.954  11.022  1.0667 -0.4314 -0.5572
  304TMC3    C8 4637   0.823   2.168  10.868  0.3575  0.7066  0.3806
  304TMC3    O1 4638   1.259   1.910  11.049  0.1732  0.6339  0.0167
  304TMC3    O2 4639   0.805   2.046  10.874  0.0842 -0.8261  0.3852
  305MPD2     C 4640   0.159   0.276  14.072 -0.4920 -0.0178 -0.2522
  305MPD2    C1 4641   0.065   0.180  14.072 -0.5092  0.1238 -0.0008
  305MPD2    C2 4642   0.010   0.117  13.958  0.3840  0.5645  0.0389
  305MPD2    C3 4643   0.061   0.162  13.834  0.1790  0.1115 -0.1431
  305MPD2    C4 4644   0.158   0.264  13.836  0.5379  0.2468  0.1198
  305MPD2    C5 4645   0.210   0.314  13.953  0.2580  0.3114  0.3273
  305MPD2     H 4646   4.676   0.034  13.965 -0.1683  1.1104  1.1569
  305MPD2    H1 4647   0.197   0.291  13.739 -0.7205 -0.3209 -0.5567
  305MPD2    H2 4648   0.194   0.313  14.168 -0.2868  0.7152 -0.6152
  305MPD2    H3 4649   0.292   0.384  13.956  1.2515 -0.8720  0.8930
  305MPD2     N 4650   0.012   0.103  13.712 -0.4229 -0.0263 -0.6048
  305MPD2    H5 4651   0.067   0.124  13.629 -0.4690  1.9006 -0.1415
  305MPD2    N1 4652   0.025   0.141  14.204  0.0792 -0.0095 -0.2201
  305MPD2    H7 4653   0.066   0.194  14.279  0.7137 -1.3291  0.3698
  306TMC3    C1 4654   4.661   0.025  14.381  0.4683 -0.3100  0.4223
  306TMC3    C2 4655   0.020   4.680  14.436 -0.3241  0.0453  1.1779
  306TMC3    C3 4656   0.034   4.684  14.567  0.1453  0.2940 -0.2164
  306TMC3    C4 4657   4.588   0.114  14.461 -0.2455 -0.9419  0.6952
  306TMC3    C5 4658   4.605   0.115  14.592  0.3790 -0.0744 -0.1372
  306TMC3    C6 4659   4.703   0.040  14.646  0.2111 -0.3620  0.5432
  306TMC3     C 4660   4.672   0.042  14.237 -0.4673 -0.4061  0.3664
  306TMC3     O 4661   4.637   4.685  14.166 -0.0628  0.2800 -0.0788
  306TMC3     H 4662   0.092   4.633  14.369  0.1010 -0.1195  1.7511
  306TMC3    H1 4663   4.543   0.203  14.418 -0.9773 -0.1361  3.1561
  306TMC3    H2 4664   4.706   0.032  14.754 -1.6670  0.1246  0.6418
  306TMC3    C7 4665   4.542   0.214  14.674 -0.3522 -0.3293 -0.3404
  306TMC3    C8 4666   0.153   4.636  14.633 -0.5099  0.1244  0.5884
  306TMC3    O1 4667   4.423   0.241  14.655 -0.2016  0.1945  0.0302
  306TMC3    O2 4668   0.191   4.523  14.594 -0.3576  0.4893  0.5680
  307MPD2     C 4669   1.594   3.149   0.258  0.2736 -0.1656 -0.0560
  307MPD2    C1 4670   1.576   3.282   0.287 -0.3793 -0.8784  0.5521
  307MPD2    C2 4671   1.542   3.318   0.413  0.0532  0.6962 -0.0180
  307MPD2    C3 4672   1.543   3.224   0.518 -0.6793  0.3364 -0.2723
  307MPD2    C4 4673   1.562   3.090   0.483  0.2294 -0.6665  0.3484
  307MPD2    C5 4674   1.596   3.056   0.360  0.3558 -0.5414 -0.1519
  307MPD2     H 4675   1.534   3.421   0.448 -0.0214  0.2803  1.2145
  307MPD2    H1 4676   1.550   3.009   0.554  2.0468 -0.2691  1.1145
  307MPD2    H2 4677   1.638   3.112   0.166 -0.1443  0.4468 -0.5004
  307MPD2    H3 4678   1.628   2.957   0.330 -0.7236 -1.0623  0.4096
  307MPD2     N 4679   1.510   3.263   0.649 -0.0242 -0.1446 -0.5540
  307MPD2    H5 4680   1.476   3.358   0.657  0.5079  0.0233 -0.2807
  307MPD2    N1 4681   1.609   3.388   0.202 -1.0603  0.2275 -0.6680
  307MPD2    H7 4682   1.608   3.477   0.250  0.1832 -0.4961  0.7081
  308TMC3    C1 4683   1.469   3.486   0.949 -0.6508 -0.1777 -0.0152
  308TMC3    C2 4684   1.587   3.535   0.996  0.1467  0.5458 -0.1440
  308TMC3    C3 4685   1.693   3.447   0.974  0.1815 -0.4842  0.7719
  308TMC3    C4 4686   1.450   3.369   0.887 -0.3611  0.9984 -0.4005
  308TMC3    C5 4687   1.551   3.279   0.885  0.2248  0.2954 -0.9031
  308TMC3    C6 4688   1.679   3.322   0.913 -0.6184 -0.7087 -0.1326
  308TMC3     C 4689   1.358   3.551   1.016  0.4306 -0.1218  0.7227
  308TMC3     O 4690   1.394   3.630   1.100  0.5060  0.4513  0.2582
  308TMC3     H 4691   1.601   3.613   1.070  0.0372 -0.1866  0.6493
  308TMC3    H1 4692   1.355   3.320   0.873  0.2493 -0.0479 -0.8062
  308TMC3    H2 4693   1.765   3.264   0.880  0.5213  0.2165  1.2377
  308TMC3    C7 4694   1.551   3.197   0.766  0.1810  0.1332  0.0246
  308TMC3    C8 4695   1.819   3.481   1.025  0.0913  0.2697 -0.3151
  308TMC3    O1 4696   1.629   3.101   0.765 -0.2178  0.0795  0.3930
  308TMC3    O2 4697   1.897   3.390   1.035 -0.1786 -0.5983  0.2910
  309MPD2     C 4698   1.042   3.320  17.295 -0.1864 -0.1789  0.3610
  309MPD2    C1 4699   0.974   3.397  17.199 -0.1082  0.2158 -0.5204
  309MPD2    C2 4700   0.890   3.507  17.230 -0.6780 -0.4286  0.5645
  309MPD2    C3 4701   0.878   3.551  17.356  0.1328  0.0276 -1.0264
  309MPD2    C4 4702   0.944   3.477  17.453  0.6738 -0.0410  0.3459
  309MPD2    C5 4703   1.017   3.362  17.424 -0.5222  0.3332 -0.1791
  309MPD2     H 4704   0.829   3.547  17.149  0.4143  0.5626  0.2277
  309MPD2    H1 4705   0.935   3.480  17.561 -1.7313  0.2675  0.1418
  309MPD2    H2 4706   1.118   3.244  17.280  0.1343  0.3484 -0.7324
  309MPD2    H3 4707   1.071   3.315  17.506 -1.4705  0.2055  0.3666
  309MPD2     N 4708   0.824   3.676  17.388 -0.2174  0.4399 -0.3593
  309MPD2    H5 4709   0.777   3.720  17.310 -0.2831 -0.1752 -0.6639
  309MPD2    N1 4710   0.999   3.365  17.061  0.3138  0.0871  0.1057
  309MPD2    H7 4711   0.957   3.421  16.988 -1.5992 -0.1453  1.0357
  310TMC3    C1 4712   1.114   3.313  16.871  0.1897  0.5332 -0.2383
  310TMC3    C2 4713   1.028   3.390  16.801 -0.4573 -0.0084 -0.9584
  310TMC3    C3 4714   1.037   3.393  16.665 -0.2820  0.0845  0.2318
  310TMC3    C4 4715   1.213   3.238  16.812 -0.1140 -0.1682 -0.3615
  310TMC3    C5 4716   1.229   3.245  16.675 -0.0608 -0.3285 -0.0203
  310TMC3    C6 4717   1.136   3.321  16.604 -0.6513  0.6068  0.2935
  310TMC3     C 4718   1.094   3.286  17.012 -0.9260 -0.2442 -0.0109
  310TMC3     O 4719   1.176   3.213  17.067  1.0483  0.5607  0.2651
  310TMC3     H 4720   0.970   3.470  16.846  1.9314  1.1104  0.1157
  310TMC3    H1 4721   1.293   3.192  16.869  1.0338  2.0406 -0.1485
  310TMC3    H2 4722   1.117   3.315  16.497  0.5240 -1.1350  0.1839
  310TMC3    C7 4723   1.366   3.244  16.627 -0.1685 -0.2019  0.2200
  310TMC3    C8 4724   1.032   3.526  16.608 -0.1863  0.4101  0.3567
  310TMC3    O1 4725   1.456   3.221  16.709 -0.1850 -0.0046  0.2720
  310TMC3    O2 4726   0.930   3.591  16.587 -0.0550  0.3338  0.1777
  311MPD2     C 4727   3.435   4.219  12.760  0.1231  0.1187  0.4576
  311MPD2    C1 4728   3.457   4.317  12.856 -0.5045  0.3056 -0.5071
  311MPD2    C2 4729   3.374   4.315  12.974 -0.1774  0.1560 -0.3978
  311MPD2    C3 4730   3.275   4.227  13.002  0.1330 -0.2912  0.0225
  311MPD2    C4 4731   3.255   4.133  12.903 -0.8206  0.8940  0.0677
  311MPD2    C5 4732   3.337   4.133  12.787  0.3430 -1.2204 -0.0186
  311MPD2     H 4733   3.395   4.398  13.040  0.2407  1.3659 -2.0605
  311MPD2    H1 4734   3.180   4.055  12.914  1.2046 -0.9869  0.4788
  311MPD2    H2 4735   3.497   4.196  12.674 -0.0962  1.7593 -0.1459
  311MPD2    H3 4736   3.313   4.044  12.730 -3.5856 -1.4401  1.9736
  311MPD2     N 4737   3.205   4.233  13.118 -0.3516 -0.0246  0.1608
  311MPD2    H5 4738   3.195   4.323  13.164  0.4300  0.0792  0.1243
  311MPD2    N1 4739   3.561   4.415  12.832 -0.0703  0.3162 -0.5730
  311MPD2    H7 4740   3.559   4.497  12.892  0.8941 -0.6659  0.8076
  312TMC3    C1 4741   3.008   4.166  13.247 -0.0854 -0.1860  0.3356
  312TMC3    C2 4742   2.884   4.106  13.214 -1.0445 -0.0274 -0.7106
  312TMC3    C3 4743   2.778   4.183  13.266 -0.4559  0.2063 -0.4850
  312TMC3    C4 4744   3.017   4.290  13.313  0.0218 -0.2716 -0.6172
  312TMC3    C5 4745   2.908   4.360  13.348  0.2673 -0.7947  0.1248
  312TMC3    C6 4746   2.783   4.306  13.318 -0.0032  0.1329 -0.3096
  312TMC3     C 4747   3.117   4.132  13.160 -0.4515 -0.6543 -0.4619
  312TMC3     O 4748   3.097   4.023  13.115 -0.2032 -0.6104 -0.5210
  312TMC3     H 4749   2.856   4.010  13.172  2.6534 -0.5434 -1.9645
  312TMC3    H1 4750   3.115   4.333  13.323 -0.1917 -0.1501  0.9788
  312TMC3    H2 4751   2.690   4.352  13.350 -0.2317 -0.5496  0.0013
  312TMC3    C7 4752   2.926   4.451  13.455  0.2020  0.0380 -0.5537
  312TMC3    C8 4753   2.655   4.152  13.197  0.4230  0.6429  0.8858
  312TMC3    O1 4754   2.846   4.544  13.469  0.0225  0.6528 -0.0759
  312TMC3    O2 4755   2.623   4.034  13.205  0.4479  0.5160 -0.2435
  313MPD2     C 4756   2.501   3.394  11.409 -0.1237  0.0091 -0.1012
  313MPD2    C1 4757   2.556   3.483  11.316  0.4890  0.1281 -0.5849
  313MPD2    C2 4758   2.624   3.438  11.208  0.2874  0.3104 -0.0555
  313MPD2    C3 4759   2.634   3.301  11.180 -0.1697  0.1993 -0.2921
  313MPD2    C4 4760   2.586   3.215  11.273  0.4645 -0.0954  0.4132
  313MPD2    C5 4761   2.523   3.255  11.389  0.2323 -0.8187  0.4747
  313MPD2     H 4762   2.673   3.505  11.139  0.9310 -0.2338 -0.1260
  313MPD2    H1 4763   2.606   3.108  11.272 -1.1183 -0.3869 -0.1098
  313MPD2    H2 4764   2.463   3.419  11.507  1.8412 -1.8827  1.1713
  313MPD2    H3 4765   2.481   3.175  11.450 -1.7499 -0.3731 -0.3004
  313MPD2     N 4766   2.714   3.266  11.069  0.3664 -0.3783 -0.1150
  313MPD2    H5 4767   2.761   3.348  11.033 -2.9222  1.4149 -0.2756
  313MPD2    N1 4768   2.563   3.623  11.337  0.1100  0.6402 -0.2007
  313MPD2    H7 4769   2.617   3.679  11.271 -0.5378  1.4779 -0.0161
  314TMC3    C1 4770   2.537   3.839  11.440 -0.0356 -0.6221 -1.0611
  314TMC3    C2 4771   2.662   3.868  11.388  0.3569 -0.1380 -0.2971
  314TMC3    C3 4772   2.677   3.994  11.336 -0.0994  0.3228  0.6883
  314TMC3    C4 4773   2.444   3.938  11.448  0.3479 -0.4600 -0.4296
  314TMC3    C5 4774   2.460   4.051  11.372 -0.2062 -0.2890  0.2076
  314TMC3    C6 4775   2.581   4.083  11.327 -1.0642  0.7185  0.3695
  314TMC3     C 4776   2.493   3.696  11.432  0.6750 -0.2058 -0.4857
  314TMC3     O 4777   2.404   3.661  11.509  0.5016 -0.0493 -0.0529
  314TMC3     H 4778   2.748   3.803  11.400 -0.2319 -0.8805 -0.0045
  314TMC3    H1 4779   2.339   3.925  11.471 -0.0196  1.1832 -1.1459
  314TMC3    H2 4780   2.604   4.182  11.287 -0.1855  0.3754  0.0093
  314TMC3    C7 4781   2.367   4.048  11.258 -0.8531 -0.2029 -0.0073
  314TMC3    C8 4782   2.786   4.018  11.249 -0.2758  0.4590 -0.7496
  314TMC3    O1 4783   2.254   4.020  11.275 -0.2682  1.2501  0.0596
  314TMC3    O2 4784   2.771   4.111  11.169  0.0122  0.3007 -0.1810
  315MPD2     C 4785   2.045   3.010   0.244 -0.1308  0.5929  0.0607
  315MPD2    C1 4786   2.159   3.077   0.281  0.7476  0.1917  0.3697
  315MPD2    C2 4787   2.180   3.202   0.220  0.0911  0.0501  0.1923
  315MPD2    C3 4788   2.090   3.267   0.137  0.4629  0.1578 -0.1465
  315MPD2    C4 4789   1.970   3.205   0.114 -0.0121 -0.5633 -0.5260
  315MPD2    C5 4790   1.963   3.075   0.157 -0.0178  0.4293  0.8865
  315MPD2     H 4791   2.274   3.255   0.235  0.5343  0.2179 -3.1173
  315MPD2    H1 4792   1.892   3.249   0.054  0.5765  1.7118  0.3963
  315MPD2    H2 4793   2.021   2.910   0.277 -0.4612  0.7315  0.2442
  315MPD2    H3 4794   1.879   3.011   0.131  1.3398 -0.6262 -0.8732
  315MPD2     N 4795   2.123   3.399   0.110 -0.0625 -0.0115  0.6497
  315MPD2    H5 4796   2.211   3.431   0.148  0.7887 -0.8971 -0.5598
  315MPD2    N1 4797   2.268   3.017   0.351 -0.0514 -0.0905  0.6282
  315MPD2    H7 4798   2.356   3.066   0.342  0.7859 -1.6846  0.1428
  316TMC3    C1 4799   2.145   3.590  17.724 -1.0470  0.1328  0.5173
  316TMC3    C2 4800   2.244   3.625   0.076 -0.5694 -0.0310 -0.0161
  316TMC3    C3 4801   2.376   3.651   0.039 -0.1548  0.2574  0.2422
  316TMC3    C4 4802   2.179   3.605  17.592 -0.3585 -1.3652  0.1949
  316TMC3    C5 4803   2.306   3.632  17.557  0.2475 -0.4510  0.8242
  316TMC3    C6 4804   2.405   3.656  17.647 -0.6625 -0.2679 -0.8160
  316TMC3     C 4805   2.061   3.481   0.018 -0.1168 -0.0324 -0.8577
  316TMC3     O 4806   1.979   3.449  17.673  0.4031 -0.7392  0.5508
  316TMC3     H 4807   2.233   3.633   0.183 -2.1210 -2.8463  0.0230
  316TMC3    H1 4808   2.114   3.554  17.522  0.3145  1.4008 -2.4398
  316TMC3    H2 4809   2.508   3.652  17.615  0.3027  1.7451  2.0079
  316TMC3    C7 4810   2.346   3.637  17.419 -0.5450 -0.6076  0.0348
  316TMC3    C8 4811   2.471   3.714   0.125 -0.6229 -0.5975  0.3442
  316TMC3    O1 4812   2.466   3.616  17.401 -0.0672 -0.1821  0.2154
  316TMC3    O2 4813   2.441   3.815   0.189 -0.2968  0.1938  0.2669
  317MPD2     C 4814   0.043   1.237  12.726 -0.3592 -0.8317  0.7326
  317MPD2    C1 4815   0.160   1.156  12.744  0.1626 -0.2397 -0.2110
  317MPD2    C2 4816   0.221   1.166  12.869  0.5179 -0.3259 -0.1422
  317MPD2    C3 4817   0.175   1.258  12.965 -0.2200 -0.2073 -0.1127
  317MPD2    C4 4818   0.069   1.334  12.945 -0.4410 -0.1464  0.2549
  317MPD2    C5 4819   0.014   1.337  12.817 -0.7229 -0.6813 -0.5505
  317MPD2     H 4820   0.307   1.104  12.890  0.9023 -1.2799 -4.6289
  317MPD2    H1 4821   0.027   1.404  13.017  1.0410 -0.5924  1.5365
  317MPD2    H2 4822   0.008   1.250  12.624  3.7521 -0.6536 -0.6880
  317MPD2    H3 4823   4.667   1.405  12.800 -0.1246  0.3509  0.5906
  317MPD2     N 4824   0.242   1.253  13.086  0.6700  0.5046  0.3426
  317MPD2    H5 4825   0.314   1.181  13.088  0.9809  0.8211  0.3002
  317MPD2    N1 4826   0.212   1.059  12.652 -0.5899  0.2035  0.2275
  317MPD2    H7 4827   0.286   0.996  12.683  1.0665  1.7556 -0.5479
  318TMC3    C1 4828   0.271   1.277  13.312  0.0909 -0.1915  0.3613
  318TMC3    C2 4829   0.248   1.147  13.327  0.6933  0.4202  0.0151
  318TMC3    C3 4830   0.318   1.077  13.414  0.6657 -0.0637  0.3556
  318TMC3    C4 4831   0.364   1.350  13.383 -0.3236  0.4780  0.2305
  318TMC3    C5 4832   0.449   1.261  13.455 -0.4020  0.3068  0.0740
  318TMC3    C6 4833   0.429   1.129  13.471  0.2765  0.6641 -0.4639
  318TMC3     C 4834   0.219   1.333  13.190 -0.3617  0.5004  0.5224
  318TMC3     O 4835   0.152   1.431  13.205 -0.5992  0.4446 -0.2646
  318TMC3     H 4836   0.175   1.091  13.268  1.5472  2.1968 -2.7490
  318TMC3    H1 4837   0.385   1.456  13.375  0.4277  0.2836 -0.4388
  318TMC3    H2 4838   0.480   1.065  13.542 -1.4254 -0.8343 -0.5766
  318TMC3    C7 4839   0.575   1.316  13.505 -0.3594 -0.4974  0.1937
  318TMC3    C8 4840   0.293   0.934  13.413  0.7950  0.2053 -0.0590
  318TMC3    O1 4841   0.586   1.440  13.516  0.1416 -0.5783  0.3434
  318TMC3    O2 4842   0.396   0.869  13.437  0.3690 -0.2411  0.3784
  319MPD2     C 4843   0.661   3.194  16.720 -1.1307 -0.4595 -0.2052
  319MPD2    C1 4844   0.563   3.153  16.807 -0.7168  0.5100  0.3569
  319MPD2    C2 4845   0.437   3.139  16.758 -0.1424 -0.0300 -0.1134
  319MPD2    C3 4846   0.409   3.150  16.621 -0.5330  0.2128 -0.3575
  319MPD2    C4 4847   0.504   3.198  16.536 -0.0603 -0.2577 -0.4816
  319MPD2    C5 4848   0.630   3.222  16.587 -0.8733  0.1276 -0.1562
  319MPD2     H 4849   0.362   3.122  16.834  0.2354  1.5985  0.6258
  319MPD2    H1 4850   0.485   3.205  16.430 -0.7508 -0.1203 -0.3505
  319MPD2    H2 4851   0.763   3.212  16.751 -1.7401  0.4325  1.3017
  319MPD2    H3 4852   0.709   3.254  16.521 -1.1306  0.2269 -0.4170
  319MPD2     N 4853   0.286   3.118  16.559 -0.5166  0.2797  0.5095
  319MPD2    H5 4854   0.274   3.116  16.458 -0.9252 -0.9544  0.5777
  319MPD2    N1 4855   0.588   3.122  16.939 -0.3613 -0.5499 -0.1049
  319MPD2    H7 4856   0.505   3.108  16.996 -0.9124  1.9908 -0.2901
  320TMC3    C1 4857   0.062   3.076  16.539  0.0019  0.5938 -0.4170
  320TMC3    C2 4858   0.078   3.135  16.415  0.3595  0.5449  0.6696
  320TMC3    C3 4859   0.009   3.080  16.305 -0.5968  0.1661  0.7940
  320TMC3    C4 4860   4.726   2.960  16.553  0.1237  0.5253  0.2002
  320TMC3    C5 4861   4.670   2.901  16.440  0.0883  0.1951  0.3413
  320TMC3    C6 4862   4.675   2.961  16.313 -0.7785  0.4748  0.4092
  320TMC3     C 4863   0.176   3.085  16.630  0.6130 -0.5574  0.6492
  320TMC3     O 4864   0.167   3.041  16.743  0.4417 -0.2685 -0.2427
  320TMC3     H 4865   0.140   3.223  16.403  5.1986 -2.8291  1.2537
  320TMC3    H1 4866   4.716   2.909  16.648  2.1340  0.9853  0.6760
  320TMC3    H2 4867   4.607   2.926  16.235  1.3555  0.2035 -1.3164
  320TMC3    C7 4868   4.637   2.764  16.440 -0.3578  0.2244 -0.1284
  320TMC3    C8 4869   0.013   3.138  16.175 -0.0883  0.0970  0.4136
  320TMC3    O1 4870   4.578   2.723  16.340 -0.5205 -0.2408 -0.1632
  320TMC3    O2 4871   0.055   3.255  16.167 -0.0144  0.0398 -0.2010
  321TMC3    C1 4872   0.701   3.087  17.136 -0.3475 -0.7685  0.5912
  321TMC3    C2 4873   0.784   2.991  17.183  0.5243  0.5630 -0.0855
  321TMC3    C3 4874   0.811   3.002  17.319 -0.3670  0.7088 -0.0502
  321TMC3    C4 4875   0.673   3.199  17.209  0.9913  0.0120  0.3711
  321TMC3    C5 4876   0.721   3.217  17.336  0.0685 -0.1927 -0.1341
  321TMC3    C6 4877   0.791   3.115  17.390 -0.4946 -0.2213 -0.3940
  321TMC3     C 4878   0.714   3.114  16.997 -0.2819 -0.0622  0.0063
  321TMC3     O 4879   0.823   3.117  16.947 -0.9739 -0.2024  0.6042
  321TMC3     H 4880   0.801   2.902  17.125  1.0518 -0.1855  1.2224
  321TMC3    H1 4881   0.609   3.268  17.154  0.2691 -1.8437 -1.1006
  321TMC3    H2 4882   0.844   3.122  17.484  1.0707  1.0636 -1.3742
  321TMC3    C7 4883   0.623   3.285  17.421 -0.3492  0.1727  0.0262
  321TMC3    C8 4884   0.749   2.896  17.400 -0.0612 -0.1219 -0.7862
  321TMC3    O1 4885   0.554   3.373  17.377  0.5719 -0.4475  0.2907
  321TMC3    O2 4886   0.705   2.935  17.510 -0.3322  0.4789 -0.0100
  322MPD2     C 4887   4.124   3.997  13.636  0.7874  0.1232  0.1835
  322MPD2    C1 4888   4.202   3.971  13.750  0.3617 -0.2801 -0.1576
  322MPD2    C2 4889   4.205   3.848  13.806  0.6674 -0.0149  0.0893
  322MPD2    C3 4890   4.142   3.746  13.755  0.3910  0.2340  0.2660
  322MPD2    C4 4891   4.067   3.772  13.641 -0.1444  0.5137 -0.2942
  322MPD2    C5 4892   4.067   3.895  13.579  0.9904  0.3540  0.2308
  322MPD2     H 4893   4.265   3.819  13.892  0.5970 -1.5219 -0.3605
  322MPD2    H1 4894   4.011   3.684  13.611 -0.8600  0.7097  0.4787
  322MPD2    H2 4895   4.124   4.097  13.595 -2.2825  0.6139  1.3982
  322MPD2    H3 4896   4.011   3.914  13.488  0.1366 -1.3261  0.3992
  322MPD2     N 4897   4.152   3.618  13.803  0.5077  0.3332 -0.6295
  322MPD2    H5 4898   4.200   3.605  13.891  0.5856 -2.2552 -1.0534
  322MPD2    N1 4899   4.277   4.067  13.818 -0.3360 -0.5250 -0.4722
  322MPD2    H7 4900   4.309   4.046  13.912  1.0131  0.7368 -0.6459
  323TMC3    C1 4901   4.335   4.296  13.869 -0.1241 -0.3960 -0.1352
  323TMC3    C2 4902   4.430   4.385  13.828 -0.4091  0.7097  0.0161
  323TMC3    C3 4903   4.512   4.437  13.930  0.1129  0.0458  0.2623
  323TMC3    C4 4904   4.305   4.274  14.003 -0.3702  0.6459  0.2542
  323TMC3    C5 4905   4.389   4.329  14.095  0.0162  0.0627  0.2006
  323TMC3    C6 4906   4.499   4.403  14.059 -0.5814  0.0962 -0.9739
  323TMC3     C 4907   4.298   4.192  13.766 -0.1497  0.5951  0.2535
  323TMC3     O 4908   4.303   4.223  13.646 -0.3522  0.2096  0.1523
  323TMC3     H 4909   4.462   4.384  13.724  0.5450 -0.8389  0.3253
  323TMC3    H1 4910   4.218   4.224  14.044 -1.1376  1.0019 -0.9176
  323TMC3    H2 4911   4.568   4.443  14.133 -1.3578 -0.5590  0.1144
  323TMC3    C7 4912   4.384   4.268  14.227 -0.2500 -0.0231  0.1501
  323TMC3    C8 4913   4.652   4.443  13.889  0.1690  0.3951  0.9950
  323TMC3    O1 4914   4.311   4.169  14.245  0.1640 -0.1006  0.2650
  323TMC3    O2 4915   4.678   4.386  13.787 -0.7525  0.7712 -0.3663
  324MPD2     C 4916   2.026   0.894  14.390  0.2645  0.4667 -0.1464
  324MPD2    C1 4917   1.976   0.928  14.515  0.3121  0.4678 -0.4929
  324MPD2    C2 4918   1.841   0.926  14.541  0.3791 -0.7736 -0.2658
  324MPD2    C3 4919   1.754   0.879  14.441  0.1860  0.4545 -0.1092
  324MPD2    C4 4920   1.808   0.827  14.324 -0.0088  0.1535 -0.3637
  324MPD2    C5 4921   1.945   0.835  14.296  0.3665 -0.1453  0.2012
  324MPD2     H 4922   1.804   0.949  14.640 -3.2823 -2.0276 -1.3491
  324MPD2    H1 4923   1.742   0.782  14.252 -0.0801  0.1371 -0.2884
  324MPD2    H2 4924   2.130   0.900  14.360  0.1575 -0.5799 -0.7338
  324MPD2    H3 4925   1.990   0.792  14.208 -3.2071  1.4900 -2.3885
  324MPD2     N 4926   1.615   0.856  14.470 -0.1980  0.0392  0.3133
  324MPD2    H5 4927   1.563   0.799  14.404 -0.6123  1.0541 -0.2258
  324MPD2    N1 4928   2.062   0.979  14.616 -0.3259 -0.0492  0.4014
  324MPD2    H7 4929   2.019   0.998  14.706  0.1476  0.1378  0.5894
  325TMC3    C1 4930   1.407   0.863  14.569 -0.0280  0.0633 -0.0712
  325TMC3    C2 4931   1.394   0.732  14.555 -0.9308 -0.8657  0.1936
  325TMC3    C3 4932   1.280   0.666  14.613  0.1147  0.5936 -0.5483
  325TMC3    C4 4933   1.311   0.939  14.633 -0.3075 -0.4368  0.7852
  325TMC3    C5 4934   1.204   0.873  14.691 -0.2086 -0.6365  0.1938
  325TMC3    C6 4935   1.184   0.736  14.678  0.0046  0.6854 -0.9939
  325TMC3     C 4936   1.546   0.913  14.570 -1.2579  0.5198 -0.5165
  325TMC3     O 4937   1.570   1.002  14.652 -0.3759 -0.0498  0.5602
  325TMC3     H 4938   1.474   0.666  14.524  0.6723  1.0188  0.3263
  325TMC3    H1 4939   1.317   1.047  14.647  1.4246 -0.5177  0.5826
  325TMC3    H2 4940   1.096   0.689  14.722  1.0076 -0.3609 -0.1197
  325TMC3    C7 4941   1.105   0.962  14.750  0.2989  0.3078  0.3528
  325TMC3    C8 4942   1.237   0.538  14.549  0.7098 -0.2165  0.2935
  325TMC3    O1 4943   1.138   1.068  14.793 -0.0229  0.2242  0.5014
  325TMC3    O2 4944   1.268   0.535  14.432  0.7502 -0.5392 -0.2973
  326MPD2     C 4945   2.109   1.660  11.366  0.6046 -1.0234  0.1869
  326MPD2    C1 4946   2.149   1.631  11.239  0.3561  0.2885 -0.0121
  326MPD2    C2 4947   2.274   1.652  11.191 -0.7701  0.7531 -0.5240
  326MPD2    C3 4948   2.372   1.688  11.283 -0.1709  0.0495 -0.9826
  326MPD2    C4 4949   2.333   1.705  11.418  0.5588  0.2153 -0.8594
  326MPD2    C5 4950   2.204   1.689  11.459  0.2100 -0.3858  0.1133
  326MPD2     H 4951   2.295   1.635  11.086 -0.4531  0.1690 -0.3666
  326MPD2    H1 4952   2.404   1.729  11.497  2.9973 -1.1093 -2.6472
  326MPD2    H2 4953   2.008   1.651  11.402 -0.4051 -3.4347 -3.1923
  326MPD2    H3 4954   2.175   1.701  11.562  1.5299 -0.3768  0.4799
  326MPD2     N 4955   2.505   1.722  11.252 -0.1094  0.7953  0.0956
  326MPD2    H5 4956   2.563   1.755  11.329 -1.2870 -0.7767  1.6479
  326MPD2    N1 4957   2.058   1.574  11.150  0.0735 -0.5662  0.0502
  326MPD2    H7 4958   2.098   1.541  11.063 -0.5290 -0.4686 -0.2685
  327TMC3    C1 4959   1.849   1.470  11.089  0.6399  1.0454 -0.6426
  327TMC3    C2 4960   1.716   1.483  11.066  0.6171  0.1843  0.3599
  327TMC3    C3 4961   1.653   1.384  11.003  0.3357  0.5965  0.8122
  327TMC3    C4 4962   1.919   1.356  11.053  0.2850  0.1851 -0.3976
  327TMC3    C5 4963   1.853   1.259  10.983  0.7267  0.1897 -0.6187
  327TMC3    C6 4964   1.718   1.263  10.970 -0.5338  0.4459  0.8153
  327TMC3     C 4965   1.923   1.566  11.173  0.9072 -0.0790  0.5607
  327TMC3     O 4966   1.854   1.628  11.253  0.5104  0.3875  0.6339
  327TMC3     H 4967   1.659   1.573  11.087  1.8854  1.0060  0.2568
  327TMC3    H1 4968   2.025   1.349  11.076 -0.2980  0.4508  2.3787
  327TMC3    H2 4969   1.662   1.193  10.909  0.7042 -1.5481  1.9762
  327TMC3    C7 4970   1.903   1.123  10.982 -0.3184 -0.3138 -0.2466
  327TMC3    C8 4971   1.562   1.437  10.904  0.1325 -0.9427  0.1596
  327TMC3    O1 4972   1.825   1.032  10.967  0.2052  0.5309 -0.6510
  327TMC3    O2 4973   1.456   1.383  10.886 -0.4725 -0.3192  0.1297
  328MPD2     C 4974   4.684   1.624  17.477  0.3664 -0.2061 -0.4172
  328MPD2    C1 4975   4.592   1.531  17.443 -0.6963 -0.0812 -0.8566
  328MPD2    C2 4976   4.543   1.531  17.317  0.6173 -0.4625 -0.8177
  328MPD2    C3 4977   4.580   1.631  17.226  0.5452 -0.5281 -0.6834
  328MPD2    C4 4978   4.683   1.724  17.263  0.2989 -0.0498  0.2367
  328MPD2    C5 4979   4.730   1.719  17.393 -0.7059  0.3094  0.1550
  328MPD2     H 4980   4.479   1.448  17.289 -1.2378  1.2450 -1.5764
  328MPD2    H1 4981   4.703   1.810  17.201 -0.3543  2.3953  3.4259
  328MPD2    H2 4982   4.714   1.619  17.581  0.3481 -2.3801 -0.5180
  328MPD2    H3 4983   0.055   1.801  17.431  2.5566 -2.4243  0.8817
  328MPD2     N 4984   4.526   1.646  17.102  0.1016  0.2067  0.6655
  328MPD2    H5 4985   4.533   1.737  17.057  1.1581 -0.3249 -0.2441
  328MPD2    N1 4986   4.558   1.433  17.543  0.0743  0.0100 -0.1048
  328MPD2    H7 4987   4.590   1.445  17.639 -0.8625  0.5948  0.1342
  329TMC3    C1 4988   4.449   1.249  17.632 -0.0193 -0.2744 -0.4197
  329TMC3    C2 4989   4.371   1.329  17.720  0.3891  0.2443  0.1360
  329TMC3    C3 4990   4.248   1.284   0.021 -0.4557 -0.1622  0.5915
  329TMC3    C4 4991   4.398   1.129  17.599 -0.6740  0.1804  0.0119
  329TMC3    C5 4992   4.266   1.088  17.628  0.2963  0.5939  0.4236
  329TMC3    C6 4993   4.195   1.165  17.717 -0.6355  0.3386 -0.3654
  329TMC3     C 4994   4.497   1.315  17.517 -0.0235  0.1606 -0.0491
  329TMC3     O 4995   4.491   1.267  17.406 -0.0412  0.1825 -0.2735
  329TMC3     H 4996   4.408   1.426   0.012 -0.9630  0.0247  2.3222
  329TMC3    H1 4997   4.457   1.065  17.533 -0.7574  1.2154 -1.0569
  329TMC3    H2 4998   4.104   1.123   0.018 -0.5760  0.2029 -0.3734
  329TMC3    C7 4999   4.197   1.023  17.520 -0.0230  0.0908 -0.0469
  329TMC3    C8 5000   4.144   1.383  17.733  0.8482  0.1483  0.2001
  329TMC3    O1 5001   4.262   0.964  17.435  0.1323 -0.4671 -0.4370
  329TMC3    O2 5002   4.039   1.346  17.680 -0.7373 -0.3466  0.0287
  330TMC3    C1 5003   2.943   0.901   9.398  0.5310  0.0658 -0.3656
  330TMC3    C2 5004   2.880   0.789   9.351  0.3321 -0.5777 -0.0405
  330TMC3    C3 5005   2.895   0.679   9.433  0.5882 -0.7139  0.1946
  330TMC3    C4 5006   3.018   0.906   9.508 -0.4065 -0.3840  0.0271
  330TMC3    C5 5007   3.023   0.799   9.593 -0.0570 -0.1416  0.0867
  330TMC3    C6 5008   2.963   0.684   9.554 -0.3970 -0.1363  0.3704
  330TMC3     C 5009   2.945   1.013   9.309 -0.1779  0.3133  0.3138
  330TMC3     O 5010   3.039   1.087   9.321 -0.6050  0.5189 -0.2024
  330TMC3     H 5011   2.844   0.775   9.249 -1.0451  0.8873  0.2524
  330TMC3    H1 5012   3.062   1.002   9.536 -0.9989 -0.0349 -0.2313
  330TMC3    H2 5013   2.982   0.591   9.607 -0.4299  0.2369  1.0425
  330TMC3    C7 5014   3.099   0.811   9.715  0.3948 -0.4030  0.7292
  330TMC3    C8 5015   2.842   0.551   9.386 -0.9255  0.1330 -0.2667
  330TMC3    O1 5016   3.166   0.917   9.721  0.0305  0.5460 -0.3025
  330TMC3    O2 5017   2.847   0.535   9.265  0.1968  0.0914 -0.0004
  331MPD2     C 5018   0.732   3.932  12.698  0.1910 -0.3915  0.4055
  331MPD2    C1 5019   0.840   3.993  12.626  0.3454  0.2571 -0.1192
  331MPD2    C2 5020   0.932   3.914  12.562 -0.0853  0.6942  0.2940
  331MPD2    C3 5021   0.914   3.776  12.553 -0.2144  0.2524  0.6474
  331MPD2    C4 5022   0.805   3.727  12.620  0.0631 -0.9166  0.0004
  331MPD2    C5 5023   0.720   3.796  12.692 -0.2594 -0.4382 -0.2901
  331MPD2     H 5024   1.025   3.947  12.516 -0.3339  0.4082 -0.4252
  331MPD2    H1 5025   0.780   3.621  12.629 -0.4529 -0.7241  0.8115
  331MPD2    H2 5026   0.652   3.987  12.746  1.1251  1.2180  0.1248
  331MPD2    H3 5027   0.637   3.752  12.747  0.5088 -0.2945  0.9972
  331MPD2     N 5028   1.002   3.702  12.468  0.4151 -0.4073  1.0239
  331MPD2    H5 5029   1.076   3.749  12.418 -0.5919  2.5653  2.2773
  331MPD2    N1 5030   0.872   4.130  12.632  0.5478 -0.4504  0.7216
  331MPD2    H7 5031   0.953   4.166  12.583  0.0805 -0.5989 -0.1663
  332TMC3    C1 5032   1.123   3.531  12.375 -0.3939 -0.0361  0.3000
  332TMC3    C2 5033   1.164   3.617  12.277  1.1244  0.3197 -0.6812
  332TMC3    C3 5034   1.297   3.613  12.238  1.1121 -0.4214 -0.2214
  332TMC3    C4 5035   1.207   3.431  12.421 -0.1111 -0.6638 -0.4209
  332TMC3    C5 5036   1.329   3.424  12.370 -0.1177 -0.2094 -0.0827
  332TMC3    C6 5037   1.379   3.515  12.285 -0.3868 -0.1891 -0.0186
  332TMC3     C 5038   1.011   3.566  12.453  0.5924  0.6366  0.0719
  332TMC3     O 5039   0.951   3.475  12.516  0.0105  0.4238 -0.2133
  332TMC3     H 5040   1.106   3.705  12.251  1.8368  0.6108 -1.2831
  332TMC3    H1 5041   1.189   3.365  12.505 -0.7780 -0.3452 -0.3138
  332TMC3    H2 5042   1.485   3.518  12.261 -0.4029  1.8578  0.1906
  332TMC3    C7 5043   1.421   3.322  12.430  0.0753 -0.2635 -0.6912
  332TMC3    C8 5044   1.366   3.713  12.153 -0.0577  1.2565  0.5368
  332TMC3    O1 5045   1.376   3.220  12.477  0.5139  0.0207 -0.3906
  332TMC3    O2 5046   1.475   3.751  12.194 -0.1353  0.8901  0.1064
  333MPD2     C 5047   1.241   4.375  11.284 -0.0952 -0.1133  0.2181
  333MPD2    C1 5048   1.169   4.321  11.180 -0.0422 -0.1917  0.1866
  333MPD2    C2 5049   1.079   4.219  11.215  0.6574  0.3065 -0.1741
  333MPD2    C3 5050   1.070   4.175  11.346  0.7945 -0.3524  0.1341
  333MPD2    C4 5051   1.132   4.246  11.449  0.3437  0.0353  0.4210
  333MPD2    C5 5052   1.230   4.334  11.412  0.3385 -0.3719  0.0637
  333MPD2     H 5053   1.016   4.175  11.138  1.0809  0.3835 -0.5649
  333MPD2    H1 5054   1.122   4.223  11.555  0.5999  1.7608  0.8308
  333MPD2    H2 5055   1.317   4.448  11.261 -0.4934  1.0142  2.4823
  333MPD2    H3 5056   1.304   4.373  11.481  1.1475 -1.9301  0.0788
  333MPD2     N 5057   0.970   4.081  11.381  0.4597 -0.5012 -0.1649
  333MPD2    H5 5058   0.939   4.015  11.311  5.6513 -2.8813 -0.2046
  333MPD2    N1 5059   1.201   4.370  11.051  0.1487 -0.3209 -0.5190
  333MPD2    H7 5060   1.266   4.446  11.037 -0.0983 -0.3322 -1.7284
  334TMC3    C1 5061   1.166   4.429  10.832 -0.5802  0.4880  0.4160
  334TMC3    C2 5062   1.248   4.376  10.737  0.1902  0.6089  0.0609
  334TMC3    C3 5063   1.334   4.462  10.687  0.5269  0.3998 -0.2142
  334TMC3    C4 5064   1.158   4.562  10.862 -0.4560 -0.4694 -1.3535
  334TMC3    C5 5065   1.252   4.649  10.808  0.0782 -0.2662  0.1765
  334TMC3    C6 5066   1.341   4.600  10.711 -0.9052  0.3979 -0.0949
  334TMC3     C 5067   1.136   4.336  10.937  0.4107  0.2084 -0.1919
  334TMC3     O 5068   1.071   4.233  10.919 -0.2699 -0.4479  0.0679
  334TMC3     H 5069   1.259   4.268  10.731 -2.5514  0.4001 -1.1289
  334TMC3    H1 5070   1.086   4.582  10.941 -1.5520 -4.4057 -1.3142
  334TMC3    H2 5071   1.417   4.668  10.674  0.6213 -1.1817  0.1200
  334TMC3    C7 5072   1.237   0.053  10.834  0.1729 -0.6797 -0.5408
  334TMC3    C8 5073   1.434   4.405  10.600  0.7008  0.0011 -0.6870
  334TMC3    O1 5074   1.339   0.124  10.839 -0.0826 -0.4433 -0.0880
  334TMC3    O2 5075   1.406   4.295  10.550 -0.7676 -0.1823  0.4365
  335TMC3    C1 5076   0.676   1.963  17.262 -0.2907 -0.1820  0.3355
  335TMC3    C2 5077   0.644   1.934  17.132  0.2418 -0.0552  0.5309
  335TMC3    C3 5078   0.748   1.908  17.045  0.3132 -0.0695 -0.2986
  335TMC3    C4 5079   0.808   1.970  17.308 -0.7713  0.7167 -0.1026
  335TMC3    C5 5080   0.907   1.943  17.218 -0.6072 -0.2465 -0.5166
  335TMC3    C6 5081   0.875   1.914  17.083 -0.0484 -0.6039 -0.7788
  335TMC3     C 5082   0.572   2.009  17.349  0.4406  0.1526 -0.2398
  335TMC3     O 5083   0.607   2.075  17.449 -0.0060  0.4753  0.0177
  335TMC3     H 5084   0.543   1.932  17.094  0.5858 -1.6713 -0.2817
  335TMC3    H1 5085   0.843   1.998  17.407 -0.3437 -0.4035  0.0556
  335TMC3    H2 5086   0.955   1.889  17.014 -1.7055 -0.3533 -2.8137
  335TMC3    C7 5087   1.028   1.877  17.265  0.4374  0.6935  0.9142
  335TMC3    C8 5088   0.715   1.830  16.922 -0.3727  0.7579 -0.0307
  335TMC3    O1 5089   1.081   1.793  17.194  0.1142 -0.3881  0.1684
  335TMC3    O2 5090   0.798   1.834  16.831  0.3903  0.0436 -0.1108
  336MPD2     C 5091   4.732   4.396  16.435  0.9523 -0.0178 -1.0038
  336MPD2    C1 5092   0.050   4.350  16.316 -0.3550  0.0162 -0.0042
  336MPD2    C2 5093   0.087   4.218  16.309 -0.0729  0.2683  0.1931
  336MPD2    C3 5094   0.088   4.142  16.423 -0.0035  0.2611 -0.9408
  336MPD2    C4 5095   0.030   4.188  16.545  0.1073 -0.7979  0.5150
  336MPD2    C5 5096   4.724   4.317  16.545  0.0812 -0.4111 -0.2347
  336MPD2     H 5097   0.130   4.190  16.213  0.4752 -0.3149  0.6049
  336MPD2    H1 5098   0.026   4.128  16.636  2.0003 -2.0496 -0.2168
  336MPD2    H2 5099   4.700   4.497  16.460 -2.0550 -1.1912 -0.1027
  336MPD2    H3 5100   4.684   4.363  16.635  1.1588  0.1866 -0.0681
  336MPD2     N 5101   0.139   4.010  16.427 -0.1943  0.5924  0.6368
  336MPD2    H5 5102   0.113   3.955  16.508 -0.4503 -0.8922 -0.4576
  336MPD2    N1 5103   0.065   4.432  16.204 -0.2967 -0.1967 -0.6720
  336MPD2    H7 5104   0.104   4.390  16.120 -0.3953  0.2704 -0.9520
  337TMC3    C1 5105   0.026   4.627  16.065 -0.8168  0.7270 -0.6287
  337TMC3    C2 5106   4.698   4.557  15.963 -0.8301  0.1276 -0.2981
  337TMC3    C3 5107   4.640   4.629  15.865 -0.0984 -0.1119 -0.3601
  337TMC3    C4 5108   0.039   0.027  16.066 -1.3348  0.5524 -0.2237
  337TMC3    C5 5109   4.715   0.097  15.972 -0.4697  0.0413 -0.7310
  337TMC3    C6 5110   4.658   0.032  15.866  0.2372  0.3352 -0.6527
  337TMC3     C 5111   0.024   4.564  16.198 -0.0375  0.7604  0.3593
  337TMC3     O 5112   4.730   4.635  16.295 -0.3741 -0.2949 -0.0049
  337TMC3     H 5113   4.661   4.457  15.983 -0.7562 -0.3176 -2.3669
  337TMC3    H1 5114   0.087   0.075  16.151  1.5354 -2.9108  0.1092
  337TMC3    H2 5115   4.584   0.087  15.809 -0.3230  1.0548  0.7740
  337TMC3    C7 5116   4.630   0.203  16.023 -0.2339 -0.7221  0.3778
  337TMC3    C8 5117   4.502   4.607  15.836 -0.6678  1.0608  0.0660
  337TMC3    O1 5118   4.624   0.316  15.972  0.5411  0.5032 -0.0538
  337TMC3    O2 5119   4.423   4.655  15.919  0.8576 -0.2600 -0.0934
  338MPD2     C 5120   4.611   3.557   0.844  0.2718 -0.6357  0.1059
  338MPD2    C1 5121   4.688   3.599   0.738  0.2222  0.1864  0.0304
  338MPD2    C2 5122   4.627   3.586   0.613  0.3222  0.1237 -0.2965
  338MPD2    C3 5123   4.515   3.506   0.589  0.1951 -0.6742 -0.1528
  338MPD2    C4 5124   4.439   3.466   0.704 -0.0528  0.3409 -0.4917
  338MPD2    C5 5125   4.490   3.504   0.823  0.3223  0.4705 -0.1560
  338MPD2     H 5126   4.683   3.612   0.524  1.1597 -0.2979  0.1042
  338MPD2    H1 5127   4.343   3.415   0.700 -0.8525  1.7518  0.4676
  338MPD2    H2 5128   4.638   3.550   0.949 -0.7357 -2.2614  0.2628
  338MPD2    H3 5129   4.432   3.470   0.908 -0.0129 -0.6853 -0.8502
  338MPD2     N 5130   4.477   3.485   0.454  0.3960  0.1658 -0.8582
  338MPD2    H5 5131   4.521   3.528   0.374  0.6726  1.0340 -0.2478
  338MPD2    N1 5132   0.087   3.649   0.747 -0.1829  0.0347  0.1644
  338MPD2    H7 5133   0.133   3.683   0.663 -0.9868  1.4667  0.3162
  339TMC3    C1 5134   4.370   3.370   0.281  1.0604 -0.0706 -0.1798
  339TMC3    C2 5135   4.397   3.232   0.252  0.3994  0.2919  0.3215
  339TMC3    C3 5136   4.508   3.209   0.167  0.3106 -0.0425 -0.0382
  339TMC3    C4 5137   4.419   3.466   0.199  0.3211  0.1782 -0.3017
  339TMC3    C5 5138   4.511   3.438   0.101 -0.5753 -0.0732 -0.2193
  339TMC3    C6 5139   4.568   3.306   0.086 -0.3060  0.1509  0.0527
  339TMC3     C 5140   4.375   3.397   0.421  0.9469  0.3279  0.2305
  339TMC3     O 5141   4.330   3.317   0.500  0.1738 -0.0121 -0.5441
  339TMC3     H 5142   4.369   3.156   0.324  0.7057 -1.4008 -1.3487
  339TMC3    H1 5143   4.387   3.566   0.228 -1.5551  0.0152 -1.7788
  339TMC3    H2 5144   4.666   3.295   0.041  0.9095  1.1973  2.4643
  339TMC3    C7 5145   4.582   3.551   0.057 -0.4115 -0.0915  0.3144
  339TMC3    C8 5146   4.588   3.089   0.193 -0.1195 -0.0748 -0.2807
  339TMC3    O1 5147   4.553   3.653   0.119 -0.1499  0.6393  0.2775
  339TMC3    O2 5148   4.708   3.099   0.188 -0.0901  0.5336  0.7516
  340MPD2     C 5149   0.853   1.169  10.174 -0.2864 -0.0594 -0.2202
  340MPD2    C1 5150   0.851   1.041  10.133 -0.2395  0.6521 -0.0316
  340MPD2    C2 5151   0.865   0.943  10.238  0.1489  0.2540 -0.4566
  340MPD2    C3 5152   0.861   0.986  10.372 -0.2120  0.1768 -0.0683
  340MPD2    C4 5153   0.847   1.114  10.408 -0.6861  0.2983 -0.2919
  340MPD2    C5 5154   0.849   1.207  10.303 -0.3767 -0.4800  0.1578
  340MPD2     H 5155   0.894   0.844  10.206 -0.5412 -0.5374  1.3421
  340MPD2    H1 5156   0.844   1.150  10.510  0.6736 -0.2472 -0.0492
  340MPD2    H2 5157   0.843   1.248  10.100 -0.7780 -0.0680 -0.1651
  340MPD2    H3 5158   0.826   1.310  10.328  0.3676 -0.1696 -0.4507
  340MPD2     N 5159   0.883   0.901  10.482 -0.0524 -0.6846  0.1880
  340MPD2    H5 5160   0.891   0.948  10.572  0.4051 -0.9690  0.2957
  340MPD2    N1 5161   0.847   1.019   9.991 -0.6846 -0.5117  0.4192
  340MPD2    H7 5162   0.857   1.097   9.927  2.5799 -0.9317  0.4361
  341TMC3    C1 5163   0.884   0.899   9.790  0.1531 -0.1311 -0.6470
  341TMC3    C2 5164   0.847   0.778   9.742 -0.4177  0.4112 -0.2570
  341TMC3    C3 5165   0.926   0.720   9.646 -0.4209 -0.1043  0.4330
  341TMC3    C4 5166   1.010   0.954   9.757 -0.4244  0.0519 -0.1633
  341TMC3    C5 5167   1.087   0.891   9.661 -0.1514 -0.1017 -0.3974
  341TMC3    C6 5168   1.046   0.775   9.603 -0.5450  0.2367  0.2960
  341TMC3     C 5169   0.852   0.897   9.931  0.0378 -0.4711  0.0034
  341TMC3     O 5170   0.862   0.784   9.987  0.4803 -0.8182  0.1332
  341TMC3     H 5171   0.751   0.734   9.764 -0.6527  1.3860  0.6741
  341TMC3    H1 5172   1.041   1.040   9.816 -1.4672  1.6378 -1.9395
  341TMC3    H2 5173   1.111   0.728   9.531  0.9049  1.1889  0.9889
  341TMC3    C7 5174   1.222   0.935   9.634  0.0386  0.4355 -0.2854
  341TMC3    C8 5175   0.890   0.580   9.620  0.4192  0.0102  0.4884
  341TMC3    O1 5176   1.289   0.851   9.575  0.3915 -0.4210 -0.4675
  341TMC3    O2 5177   0.821   0.521   9.703 -0.1293 -0.3006 -0.2328
  342MPD2     C 5178   2.838   0.008  17.241  0.4290 -0.0937  0.4511
  342MPD2    C1 5179   2.959   4.695  17.260  0.5755  0.6336 -0.4405
  342MPD2    C2 5180   3.046   0.020  17.339 -0.3305 -0.2025 -0.3335
  342MPD2    C3 5181   3.015   0.137  17.400 -0.4251  0.5504  0.2729
  342MPD2    C4 5182   2.891   0.190  17.383  0.6433 -0.6015  0.0954
  342MPD2    C5 5183   2.805   0.125  17.303 -0.3651  0.1444 -0.0386
  342MPD2     H 5184   3.142   4.705  17.349  1.2841  2.7007 -1.4028
  342MPD2    H1 5185   2.867   0.281  17.437 -1.4251 -1.9372  1.4220
  342MPD2    H2 5186   2.765   4.696  17.177  0.9309 -2.1170  1.3631
  342MPD2    H3 5187   2.707   0.166  17.279  0.2261 -0.2150 -3.0873
  342MPD2     N 5188   3.113   0.219  17.473  0.7257 -0.2338  0.2890
  342MPD2    H5 5189   3.081   0.313  17.491  0.1518 -0.2249 -0.7789
  342MPD2    N1 5190   2.993   4.569  17.209  0.0237  0.5879  0.4287
  342MPD2    H7 5191   3.088   4.535  17.202 -0.0167  0.6632 -0.5178
  343TMC3    C1 5192   2.981   4.346  17.148  0.0700 -0.5889  0.9345
  343TMC3    C2 5193   3.079   4.367  17.058  0.1261  0.7082 -0.1695
  343TMC3    C3 5194   3.149   4.256  17.011 -0.0891 -0.5413 -0.2739
  343TMC3    C4 5195   2.945   4.218  17.185  0.9944  0.4152  0.2646
  343TMC3    C5 5196   3.024   4.113  17.147  0.2124  0.1081 -0.9372
  343TMC3    C6 5197   3.131   4.128  17.061  0.1404 -0.2914  0.4183
  343TMC3     C 5198   2.912   4.464  17.194 -0.5618 -0.2906 -0.1681
  343TMC3     O 5199   2.805   4.441  17.247 -0.0867  0.1713 -0.2735
  343TMC3     H 5200   3.097   4.461  17.008 -2.9434  1.1076 -0.5276
  343TMC3    H1 5201   2.857   4.196  17.245  1.8833 -0.9386  1.0778
  343TMC3    H2 5202   3.172   4.037  17.020  3.9746  1.6645 -0.1308
  343TMC3    C7 5203   2.985   3.980  17.197  0.5854  0.4194  0.7998
  343TMC3    C8 5204   3.285   4.284  16.973 -0.5127  0.2571 -1.0244
  343TMC3    O1 5205   3.038   3.886  17.136  0.4789  0.1201 -0.2568
  343TMC3    O2 5206   3.318   4.398  16.975 -0.0868 -0.3565  0.4078
  344MPD2     C 5207   0.070   3.779  11.234 -0.2894 -0.3389  0.3162
  344MPD2    C1 5208   4.728   3.707  11.147  0.5588 -0.2844 -0.5837
  344MPD2    C2 5209   0.014   3.704  11.007 -0.5166  0.0392 -0.1870
  344MPD2    C3 5210   0.124   3.776  10.964 -0.6827  0.1328  0.2215
  344MPD2    C4 5211   0.197   3.847  11.052  0.5730  0.0844  0.5664
  344MPD2    C5 5212   0.169   3.856  11.182 -0.3620 -0.2971  0.5108
  344MPD2     H 5213   4.677   3.651  10.946 -1.3483  1.1649 -0.1716
  344MPD2    H1 5214   0.284   3.897  11.011  0.3051  0.0023 -0.1088
  344MPD2    H2 5215   0.052   3.775  11.340 -0.4770 -2.6858  0.1894
  344MPD2    H3 5216   0.245   3.908  11.239 -1.7343  3.5606 -1.1513
  344MPD2     N 5217   0.156   3.792  10.826 -0.7872 -0.5664 -0.0549
  344MPD2    H5 5218   0.233   3.856  10.809 -2.1757  0.7192 -1.6081
  344MPD2    N1 5219   4.627   3.621  11.187 -0.2163  0.0790  0.1238
  344MPD2    H7 5220   4.560   3.587  11.118 -3.4395  0.6370  2.9878
  345TMC3    C1 5221   0.158   3.762  10.590  0.3400  0.2626 -0.0357
  345TMC3    C2 5222   0.288   3.803  10.582  0.0738  0.1875  0.3831
  345TMC3    C3 5223   0.344   3.837  10.463  0.4603 -0.4280  0.3403
  345TMC3    C4 5224   0.083   3.738  10.480  0.9400 -0.1661  0.7078
  345TMC3    C5 5225   0.142   3.771  10.358  0.3366  0.3426  0.0628
  345TMC3    C6 5226   0.272   3.810  10.347 -0.2339 -0.6903 -0.4092
  345TMC3     C 5227   0.085   3.743  10.718  0.1624  0.1772 -0.6200
  345TMC3     O 5228   4.711   3.686  10.709 -0.0868  0.4725 -0.5462
  345TMC3     H 5229   0.355   3.807  10.668 -0.5787  0.5953  0.8717
  345TMC3    H1 5230   4.714   3.709  10.478  1.4436 -1.8979 -0.5400
  345TMC3    H2 5231   0.309   3.853  10.255  0.4979 -0.9531 -0.2397
  345TMC3    C7 5232   0.057   3.848  10.263  0.3401  0.8212 -0.6718
  345TMC3    C8 5233   0.386   3.970  10.465  0.2580 -0.0367  0.3864
  345TMC3    O1 5234   0.118   3.938  10.203  0.0968  0.7771  0.1844
  345TMC3    O2 5235   0.337   4.036  10.553  0.0941  0.1193 -0.3468
  346MPD2     C 5236   4.624   0.519  14.133 -0.0468 -0.6396  0.7392
  346MPD2    C1 5237   0.010   0.580  14.141  0.4555 -0.0635  0.2556
  346MPD2    C2 5238   0.077   0.600  14.259 -0.0467 -0.0515  0.4756
  346MPD2    C3 5239   0.017   0.576  14.382  0.0624  0.1711 -0.0586
  346MPD2    C4 5240   4.634   0.512  14.373  0.4120  0.3054  0.3051
  346MPD2    C5 5241   4.569   0.481  14.257 -0.2361 -0.0175  0.3592
  346MPD2     H 5242   0.178   0.640  14.257  0.1662 -0.5689  0.7473
  346MPD2    H1 5243   4.586   0.485  14.466  2.8022  0.5687  1.6296
  346MPD2    H2 5244   4.575   0.484  14.044 -0.5576  2.0907 -0.0563
  346MPD2    H3 5245   4.472   0.434  14.258 -0.4718  0.4517 -0.3933
  346MPD2     N 5246   0.084   0.620  14.499 -0.6083 -0.4181  0.0843
  346MPD2    H5 5247   0.167   0.675  14.480 -1.3851  0.3755 -1.0448
  346MPD2    N1 5248   0.081   0.613  14.020 -0.1889 -0.9344 -0.5718
  346MPD2    H7 5249   0.174   0.653  14.028  0.9566 -2.9254 -3.5272
  347TMC3    C1 5250   0.124   0.652  14.733 -0.0104 -1.0448 -0.7459
  347TMC3    C2 5251   0.242   0.713  14.683 -0.1483  0.0545 -0.0939
  347TMC3    C3 5252   0.302   0.785  14.786 -0.0812 -0.0591  0.0746
  347TMC3    C4 5253   0.060   0.683  14.849  0.1198 -0.2149  0.8544
  347TMC3    C5 5254   0.127   0.768  14.939 -0.5944  0.0535 -0.1373
  347TMC3    C6 5255   0.248   0.819  14.907 -0.0157  0.1045 -0.2818
  347TMC3     C 5256   0.040   0.591  14.627 -0.2070  0.6705  0.0331
  347TMC3     O 5257   4.667   0.549  14.662  0.3328  0.4688  0.1763
  347TMC3     H 5258   0.297   0.663  14.604  1.6342 -0.2773  1.3482
  347TMC3    H1 5259   4.706   0.630  14.880  1.1129 -3.0064 -1.0844
  347TMC3    H2 5260   0.306   0.867  14.985 -0.8195  0.6333 -0.0111
  347TMC3    C7 5261   0.055   0.819  15.060  0.0926  0.1552 -0.0639
  347TMC3    C8 5262   0.447   0.799  14.773 -0.5788 -0.0795 -0.6815
  347TMC3    O1 5263   4.696   0.748  15.101 -0.5359  0.3504  0.0486
  347TMC3    O2 5264   0.498   0.737  14.680 -0.3937  0.7428 -0.3024
  348MPD2     C 5265   3.108   4.522  11.669  0.0412  0.0892 -0.0706
  348MPD2    C1 5266   3.223   4.598  11.659  0.2650 -0.2677  0.3488
  348MPD2    C2 5267   3.213   4.719  11.594  0.3592 -0.3708 -0.0581
  348MPD2    C3 5268   3.106   0.019  11.518 -0.4134 -0.0852  0.0235
  348MPD2    C4 5269   2.999   4.674  11.515  0.3568  0.6783 -0.4982
  348MPD2    C5 5270   2.997   4.560  11.594  0.6058 -0.7861  0.4414
  348MPD2     H 5271   3.292   0.056  11.613 -0.4394  0.0200  1.7382
  348MPD2    H1 5272   2.913   4.693  11.451 -1.5762 -4.9501  0.4223
  348MPD2    H2 5273   3.110   4.425  11.717  0.6050  0.2240  0.1777
  348MPD2    H3 5274   2.908   4.498  11.591  1.9128 -2.6480  0.1794
  348MPD2     N 5275   3.115   0.137  11.448 -0.0354 -0.0554 -0.0428
  348MPD2    H5 5276   3.201   0.186  11.467  0.5519 -0.5383 -1.4134
  348MPD2    N1 5277   3.347   4.564  11.722 -0.1194  0.7535  0.2288
  348MPD2    H7 5278   3.430   4.617  11.700 -0.6519  0.9422 -1.3209
  349TMC3    C1 5279   3.507   4.422  11.837 -0.2134 -0.0348 -0.0288
  349TMC3    C2 5280   3.522   4.370  11.964  0.2450 -0.3048  1.0283
  349TMC3    C3 5281   3.644   4.393  12.024 -0.7633  0.3044 -0.1335
  349TMC3    C4 5282   3.609   4.476  11.769 -0.2424 -0.0802 -0.5964
  349TMC3    C5 5283   3.732   4.493  11.828  0.2310  0.2703  0.0078
  349TMC3    C6 5284   3.747   4.453  11.960  0.4868 -0.0055  0.0700
  349TMC3     C 5285   3.372   4.445  11.792 -0.5408 -0.4423 -0.1417
  349TMC3     O 5286   3.291   4.365  11.829  0.9135 -0.3689  0.0832
  349TMC3     H 5287   3.435   4.344  12.023  0.0961 -0.3162  0.8018
  349TMC3    H1 5288   3.596   4.501  11.664  3.2621 -0.2111 -1.0427
  349TMC3    H2 5289   3.839   4.463  12.017 -1.5381 -1.7813  3.7075
  349TMC3    C7 5290   3.844   4.545  11.753  0.2969 -0.6246  0.3316
  349TMC3    C8 5291   3.662   4.331  12.150  0.1678 -0.2360 -0.4338
  349TMC3    O1 5292   3.953   4.522  11.795  0.4238 -0.2625 -0.3070
  349TMC3    O2 5293   3.740   4.376  12.234  0.3553  0.3927  0.6748
  350MPD2     C 5294   2.182   3.060  10.376 -0.7506  0.8059 -0.1400
  350MPD2    C1 5295   2.257   2.947  10.399  0.1019  0.3417  0.2742
  350MPD2    C2 5296   2.373   2.971  10.457  0.0529 -0.3166  0.1181
  350MPD2    C3 5297   2.419   3.092  10.496  0.7223 -0.0721 -0.2980
  350MPD2    C4 5298   2.336   3.199  10.472 -0.0700 -0.9926 -0.5061
  350MPD2    C5 5299   2.215   3.186  10.412  0.2276  0.5107 -0.3502
  350MPD2     H 5300   2.437   2.887  10.479 -0.0132 -0.3806  0.0643
  350MPD2    H1 5301   2.363   3.300  10.498 -0.7313 -0.4718 -1.8712
  350MPD2    H2 5302   2.082   3.048  10.335 -0.1838  0.9865 -1.5713
  350MPD2    H3 5303   2.157   3.277  10.399 -0.5514 -0.0008 -0.4230
  350MPD2     N 5304   2.547   3.097  10.550  0.3060 -0.5136 -0.6633
  350MPD2    H5 5305   2.604   3.013  10.543  2.4892  1.0739 -1.7199
  350MPD2    N1 5306   2.225   2.816  10.355 -0.0252  0.1752 -0.1376
  350MPD2    H7 5307   2.300   2.749  10.361 -1.0797 -1.1181 -1.4006
  351TMC3    C1 5308   2.100   2.629  10.260  0.4355  0.3568  0.1510
  351TMC3    C2 5309   2.220   2.594  10.198 -0.5957  0.5975  0.1131
  351TMC3    C3 5310   2.219   2.472  10.129  0.4323 -0.2971 -0.6486
  351TMC3    C4 5311   1.991   2.551  10.262  0.4199  0.4488 -0.9308
  351TMC3    C5 5312   1.999   2.424  10.202 -0.6949  0.5332 -0.0626
  351TMC3    C6 5313   2.115   2.388  10.134  0.7540  0.4115  0.5945
  351TMC3     C 5314   2.096   2.767  10.317 -0.3072 -0.2197 -0.0229
  351TMC3     O 5315   1.997   2.826  10.287  0.0879 -0.1703 -0.5026
  351TMC3     H 5316   2.300   2.666  10.189  0.8256 -0.9539  0.1927
  351TMC3    H1 5317   1.899   2.580  10.313  0.8869  0.9118 -0.3527
  351TMC3    H2 5318   2.118   2.291  10.087  0.4959  1.4591 -1.5920
  351TMC3    C7 5319   1.876   2.352  10.197 -0.2579  0.1839  0.6903
  351TMC3    C8 5320   2.337   2.427  10.054 -0.0669  0.4640 -0.4392
  351TMC3    O1 5321   1.781   2.385  10.266  0.1426 -0.3093 -0.4682
  351TMC3    O2 5322   2.342   2.310  10.009  0.1397 -0.6452  0.4229
  352MPD2     C 5323   1.259   1.199   0.779 -0.3147 -0.4623 -0.3613
  352MPD2    C1 5324   1.148   1.151   0.852 -0.1557  0.1880 -0.2607
  352MPD2    C2 5325   1.159   1.022   0.903 -0.2375  0.5181 -0.0920
  352MPD2    C3 5326   1.269   0.941   0.899  0.5743  0.2110 -0.2952
  352MPD2    C4 5327   1.376   0.990   0.826  0.0643 -0.3023 -0.0442
  352MPD2    C5 5328   1.364   1.113   0.767  0.7291 -0.0747  0.2055
  352MPD2     H 5329   1.073   0.977   0.952 -0.3322  0.2632 -0.4935
  352MPD2    H1 5330   1.474   0.944   0.823  1.0642  1.6951  2.3229
  352MPD2    H2 5331   1.259   1.296   0.730 -1.2826 -0.7090 -0.8425
  352MPD2    H3 5332   1.450   1.152   0.715  1.0020 -0.9524  0.0036
  352MPD2     N 5333   1.280   0.812   0.957  0.1109  0.5115 -0.5471
  352MPD2    H5 5334   1.355   0.763   0.910  0.4709  1.3415 -0.8410
  352MPD2    N1 5335   1.041   1.240   0.865  0.1195  0.4705  0.4356
  352MPD2    H7 5336   1.038   1.315   0.798 -0.4472  2.0711  2.2378
  353TMC3    C1 5337   1.184   0.606   1.027  0.2027  0.6117 -0.3775
  353TMC3    C2 5338   1.301   0.552   0.975  0.2331  0.0221  0.0405
  353TMC3    C3 5339   1.297   0.418   0.935 -0.1125 -1.2860 -0.6122
  353TMC3    C4 5340   1.063   0.543   1.010 -0.0778 -0.6091  0.0701
  353TMC3    C5 5341   1.061   0.408   0.974  1.0930 -0.9350  0.3072
  353TMC3    C6 5342   1.179   0.345   0.934  0.1097  0.5669  0.4836
  353TMC3     C 5343   1.182   0.751   1.034 -0.1189 -0.6294 -0.4718
  353TMC3     O 5344   1.087   0.794   1.099  0.1421 -0.0076 -0.1303
  353TMC3     H 5345   1.393   0.597   1.010 -0.5831  2.5688 -1.1397
  353TMC3    H1 5346   0.975   0.606   1.016 -0.2764 -0.6223 -2.5024
  353TMC3    H2 5347   1.175   0.244   0.895 -2.1739  1.5401 -1.8363
  353TMC3    C7 5348   0.934   0.341   0.938  0.0822 -0.2265  0.1607
  353TMC3    C8 5349   1.422   0.349   0.933  0.5998 -0.6505  0.9404
  353TMC3    O1 5350   0.936   0.229   0.887  0.4623 -0.1928  0.3149
  353TMC3    O2 5351   1.526   0.407   0.914  0.2352  0.1837 -0.2878
  354TMC3    C1 5352   2.439   1.574  13.501 -0.4355  0.2258  0.0071
  354TMC3    C2 5353   2.496   1.697  13.476  0.0881 -0.6763  0.0485
  354TMC3    C3 5354   2.481   1.752  13.352  0.8850  0.8117  0.3640
  354TMC3    C4 5355   2.374   1.503  13.400 -0.4499  0.5959  0.3722
  354TMC3    C5 5356   2.378   1.563  13.274  0.3454 -0.1512  0.2291
  354TMC3    C6 5357   2.437   1.683  13.243  0.0931 -0.3564  0.3369
  354TMC3     C 5358   2.432   1.520  13.634 -0.4136  0.3258  0.0861
  354TMC3     O 5359   2.353   1.428  13.652  0.1096  0.0175 -0.3701
  354TMC3     H 5360   2.530   1.750  13.564  1.4576 -0.0234 -0.8816
  354TMC3    H1 5361   2.366   1.395  13.404  2.0634  0.4132  0.6392
  354TMC3    H2 5362   2.407   1.733  13.152 -1.3198 -0.1453  0.9204
  354TMC3    C7 5363   2.399   1.474  13.167 -0.3637  0.2395 -0.2708
  354TMC3    C8 5364   2.587   1.835  13.301  0.2539 -0.4903  0.4055
  354TMC3    O1 5365   2.354   1.357  13.167 -0.2320  0.1939 -0.1933
  354TMC3    O2 5366   2.596   1.838  13.177 -0.1746 -0.4849  0.2532
  355MPD2     C 5367   2.654   2.624  12.080  0.8828  0.0577  0.4283
  355MPD2    C1 5368   2.726   2.618  11.966  0.3290  0.2573  0.0486
  355MPD2    C2 5369   2.865   2.586  11.967 -0.4339  0.1111  0.7266
  355MPD2    C3 5370   2.925   2.569  12.090  0.1891  0.1471 -0.2558
  355MPD2    C4 5371   2.848   2.570  12.212  0.8098  0.8944  0.1326
  355MPD2    C5 5372   2.714   2.594  12.199  0.2078  0.7941 -0.2617
  355MPD2     H 5373   2.919   2.582  11.874 -0.8409  0.0892  0.4895
  355MPD2    H1 5374   2.888   2.542  12.308 -1.0960  0.3046  0.7576
  355MPD2    H2 5375   2.549   2.653  12.088  1.0179 -0.8458  5.4873
  355MPD2    H3 5376   2.651   2.575  12.285 -0.2380  0.1246 -0.7344
  355MPD2     N 5377   3.068   2.559  12.106 -0.3329  0.3965  0.3548
  355MPD2    H5 5378   3.098   2.562  12.203  3.3729  1.6998 -0.8593
  355MPD2    N1 5379   2.647   2.635  11.850 -0.5236  0.6058 -0.2769
  355MPD2    H7 5380   2.547   2.646  11.868 -0.8313 -0.9425 -1.0530
  356TMC3    C1 5381   3.295   2.587  12.065  0.6861  0.0864  0.4376
  356TMC3    C2 5382   3.372   2.674  11.992 -0.1271  0.2914 -0.2277
  356TMC3    C3 5383   3.481   2.731  12.058 -0.8759 -0.5369  0.0741
  356TMC3    C4 5384   3.318   2.561  12.198  0.7828 -0.3529 -0.1332
  356TMC3    C5 5385   3.432   2.610  12.252  0.4841  0.0544 -0.3874
  356TMC3    C6 5386   3.518   2.703  12.189  0.0323  0.6147 -0.2548
  356TMC3     C 5387   3.160   2.563  12.009 -0.0496  0.2629 -0.2246
  356TMC3     O 5388   3.142   2.586  11.892  0.1203  0.2189 -0.1509
  356TMC3     H 5389   3.353   2.703  11.889 -0.6293 -1.5834 -0.6623
  356TMC3    H1 5390   3.257   2.492  12.255 -0.3970 -0.5024 -1.5835
  356TMC3    H2 5391   3.613   2.731  12.233 -0.1388  1.3848 -0.3691
  356TMC3    C7 5392   3.444   2.580  12.394 -1.0083 -0.4037  0.0940
  356TMC3    C8 5393   3.583   2.794  11.974  0.2481 -0.0022 -0.5208
  356TMC3    O1 5394   3.402   2.467  12.427 -0.4578  0.0813  0.1795
  356TMC3    O2 5395   3.587   2.765  11.856  0.0717 -0.6755  0.1074
  357MPD2     C 5396   1.989   2.297   0.679 -0.2790  0.2694 -0.0896
  357MPD2    C1 5397   2.031   2.192   0.756 -0.2194  0.0656  0.5452
  357MPD2    C2 5398   2.092   2.228   0.886 -0.1322  0.1088  0.7633
  357MPD2    C3 5399   2.101   2.359   0.930 -0.4419  0.8730 -0.4539
  357MPD2    C4 5400   2.062   2.453   0.842  0.9103 -0.3276  0.2810
  357MPD2    C5 5401   2.007   2.426   0.722  0.6315  0.0820 -0.4503
  357MPD2     H 5402   2.133   2.149   0.949  0.7383 -1.7139 -2.0652
  357MPD2    H1 5403   2.066   2.560   0.861 -1.8249 -0.4865  1.6624
  357MPD2    H2 5404   1.943   2.277   0.583 -0.4024  2.0169 -0.4054
  357MPD2    H3 5405   1.979   2.509   0.658  1.4003 -2.2358 -3.7869
  357MPD2     N 5406   2.145   2.402   1.060  0.0536 -0.1025  0.0022
  357MPD2    H5 5407   2.161   2.498   1.087 -0.1064 -0.1721  0.3478
  357MPD2    N1 5408   2.026   2.055   0.701  0.5116 -0.1706 -0.7701
  357MPD2    H7 5409   2.000   2.049   0.603 -0.3729 -0.5973 -0.5149
  358TMC3    C1 5410   2.033   1.815   0.695 -0.7444 -0.7949  0.7570
  358TMC3    C2 5411   1.935   1.824   0.593  1.2236  0.1044 -0.1846
  358TMC3    C3 5412   1.902   1.714   0.521  0.0207  0.0162  0.4129
  358TMC3    C4 5413   2.083   1.695   0.735 -0.9365  0.4767 -0.5913
  358TMC3    C5 5414   2.049   1.589   0.653 -0.7738  0.5729  0.0230
  358TMC3    C6 5415   1.974   1.597   0.534  0.0784 -0.8365  0.3337
  358TMC3     C 5416   2.067   1.942   0.764  0.0944  0.0659  0.6443
  358TMC3     O 5417   2.104   1.926   0.881  0.2737  0.2018  0.2448
  358TMC3     H 5418   1.883   1.911   0.555 -1.2930 -0.5533  1.7774
  358TMC3    H1 5419   2.143   1.696   0.826  1.4835 -0.4873 -2.1788
  358TMC3    H2 5420   1.930   1.502   0.502  0.1278 -0.7350 -0.0385
  358TMC3    C7 5421   2.091   1.460   0.704  0.0404 -0.1706  0.3326
  358TMC3    C8 5422   1.810   1.722   0.412 -0.5023  0.7957 -0.4864
  358TMC3    O1 5423   2.109   1.444   0.822 -0.7303  0.2139 -0.0336
  358TMC3    O2 5424   1.732   1.814   0.408 -0.2058  0.1136  0.5780
  359MPD2     C 5425   3.382   0.523  12.448  0.4538 -0.5184 -0.0267
  359MPD2    C1 5426   3.349   0.451  12.338 -0.6599  0.6426 -0.2034
  359MPD2    C2 5427   3.270   0.342  12.350  0.4021  0.2410 -0.1774
  359MPD2    C3 5428   3.224   0.304  12.470  0.1435  0.0688 -0.2650
  359MPD2    C4 5429   3.261   0.368  12.580 -0.5008 -0.0982 -0.2747
  359MPD2    C5 5430   3.331   0.478  12.570  0.2263 -0.7904  0.1003
  359MPD2     H 5431   3.244   0.300  12.254 -1.6144  1.5796 -0.2233
  359MPD2    H1 5432   3.219   0.343  12.677  0.6000  0.9213  0.4622
  359MPD2    H2 5433   3.442   0.613  12.440 -0.7531  0.1386 -1.6448
  359MPD2    H3 5434   3.335   0.542  12.658 -0.1976 -0.1117 -0.3797
  359MPD2     N 5435   3.127   0.200  12.480 -0.3363  0.9452 -0.2040
  359MPD2    H5 5436   3.088   0.173  12.570 -0.8340 -0.0697 -0.7293
  359MPD2    N1 5437   3.381   0.493  12.208  0.1494 -0.4529 -0.3848
  359MPD2    H7 5438   3.345   0.431  12.136 -1.1792 -0.2096  0.0704
  360TMC3    C1 5439   3.469   0.621  12.031  1.1612  0.3475 -0.4315
  360TMC3    C2 5440   3.574   0.704  11.988  0.2922  0.2867  0.9889
  360TMC3    C3 5441   3.572   0.717  11.851  0.1547 -0.5951 -0.5581
  360TMC3    C4 5442   3.361   0.591  11.954 -0.2639  0.2365 -0.4544
  360TMC3    C5 5443   3.364   0.630  11.822 -0.2118 -0.5585  0.1526
  360TMC3    C6 5444   3.470   0.689  11.766  0.3669  0.8045 -0.2257
  360TMC3     C 5445   3.460   0.605  12.174  0.6400  0.8641  0.7038
  360TMC3     O 5446   3.533   0.678  12.243  0.3355 -0.1483  0.2430
  360TMC3     H 5447   3.666   0.720  12.043 -0.6297  2.1792  2.0103
  360TMC3    H1 5448   3.273   0.543  11.995  0.9304 -0.8643  0.7912
  360TMC3    H2 5449   3.469   0.718  11.662 -0.0516  1.2522 -0.0969
  360TMC3    C7 5450   3.246   0.637  11.745 -0.5315 -1.0801 -0.0475
  360TMC3    C8 5451   3.693   0.789  11.800 -0.4019 -0.9500 -0.1332
  360TMC3    O1 5452   3.239   0.740  11.684  0.6024  0.1754 -0.5643
  360TMC3    O2 5453   3.775   0.846  11.875 -0.3309 -0.2476 -0.2154
  361MPD2     C 5454   4.314   0.679  17.272  0.0143  0.1757 -0.0815
  361MPD2    C1 5455   4.303   0.579  17.168  0.5566  0.7871  0.0062
  361MPD2    C2 5456   4.423   0.507  17.154  0.6241  0.7254 -0.6270
  361MPD2    C3 5457   4.542   0.513  17.234  0.2064 -0.3167  0.3042
  361MPD2    C4 5458   4.536   0.614  17.328 -0.2314 -0.0463 -0.2139
  361MPD2    C5 5459   4.424   0.690  17.349 -0.1806  0.4294  0.3660
  361MPD2     H 5460   4.431   0.439  17.070  2.2970 -1.4554  1.3090
  361MPD2    H1 5461   4.615   0.628  17.401 -1.7335  0.2722  1.3428
  361MPD2    H2 5462   4.232   0.742  17.305  0.8515  0.6459  1.0629
  361MPD2    H3 5463   4.440   0.771  17.419  1.5408  0.8543 -0.5164
  361MPD2     N 5464   4.647   0.422  17.220  0.2369  0.0267  0.0181
  361MPD2    H5 5465   4.724   0.441  17.284 -0.5314 -2.7993  1.7838
  361MPD2    N1 5466   4.192   0.559  17.083  0.8528  0.7317 -0.0450
  361MPD2    H7 5467   4.196   0.492  17.006  1.2675  1.6628 -0.8334
  362TMC3    C1 5468   3.963   0.530  17.025 -1.4464  0.3594 -0.1783
  362TMC3    C2 5469   3.857   0.477  17.091 -0.1253 -0.4690  0.4088
  362TMC3    C3 5470   3.776   0.393  17.018 -0.1295  0.3851  0.2402
  362TMC3    C4 5471   3.997   0.495  16.898  0.4391 -0.4677 -0.0258
  362TMC3    C5 5472   3.916   0.411  16.829  0.4639 -0.6237  0.4062
  362TMC3    C6 5473   3.796   0.369  16.885 -0.3965 -0.7798 -0.6538
  362TMC3     C 5474   4.061   0.595  17.112  0.5573 -0.2162 -0.0283
  362TMC3     O 5475   4.018   0.655  17.212  0.2830 -0.2310  0.4730
  362TMC3     H 5476   3.847   0.484  17.198  1.2026 -0.6788  0.5483
  362TMC3    H1 5477   4.080   0.541  16.846 -1.4413  2.2842 -0.5619
  362TMC3    H2 5478   3.713   0.328  16.829 -1.4747 -0.6757  0.8942
  362TMC3    C7 5479   3.920   0.414  16.685  0.2303 -0.2881 -0.2339
  362TMC3    C8 5480   3.647   0.350  17.067  0.0968 -0.4318  0.0597
  362TMC3    O1 5481   3.978   0.517  16.653  0.2386 -0.3897 -0.1945
  362TMC3    O2 5482   3.619   0.244  17.014 -0.4919  0.3243 -0.1579
  363TMC3    C1 5483   3.180   2.912   9.933 -0.1156 -0.1103  0.1144
  363TMC3    C2 5484   3.148   2.781   9.966 -0.6069 -0.2536 -0.0189
  363TMC3    C3 5485   3.016   2.743   9.997  0.3696  0.9659 -0.0556
  363TMC3    C4 5486   3.077   3.008   9.915 -0.5853 -0.3395 -0.2796
  363TMC3    C5 5487   2.948   2.962   9.939 -0.7729  0.3542  0.8855
  363TMC3    C6 5488   2.919   2.835   9.974 -0.0275 -0.2383 -0.0679
  363TMC3     C 5489   3.317   2.956   9.961  0.1184  0.7404 -0.2106
  363TMC3     O 5490   3.398   2.865   9.974  0.2130  0.1191  0.4581
  363TMC3     H 5491   3.229   2.710   9.979 -1.0109 -1.0477 -1.8639
  363TMC3    H1 5492   3.084   3.110   9.880 -0.8464  0.0750  0.8775
  363TMC3    H2 5493   2.815   2.808   9.991  0.2951 -0.1477  2.0559
  363TMC3    C7 5494   2.829   3.037   9.904 -0.0862 -0.1791 -0.3096
  363TMC3    C8 5495   2.980   2.611  10.042  0.5385  0.5151 -0.4654
  363TMC3    O1 5496   2.731   2.978   9.873 -0.8262 -0.1292  0.2147
  363TMC3    O2 5497   2.882   2.608  10.110  0.6015  0.3082 -0.2877
  364MPD2     C 5498   1.491   1.684  10.464 -0.1434 -0.1110 -0.4047
  364MPD2    C1 5499   1.594   1.749  10.538  0.3963  0.4458  1.2126
  364MPD2    C2 5500   1.632   1.694  10.655  0.5578  0.8626  0.2176
  364MPD2    C3 5501   1.570   1.583  10.713 -0.4771  0.0337  0.0111
  364MPD2    C4 5502   1.478   1.522  10.639 -0.0134  0.0211  0.8058
  364MPD2    C5 5503   1.436   1.570  10.518 -0.4245  1.0881 -0.0620
  364MPD2     H 5504   1.712   1.739  10.713 -0.4680  0.1728  2.1803
  364MPD2    H1 5505   1.440   1.426  10.671 -2.1535  0.8326  0.7536
  364MPD2    H2 5506   1.460   1.714  10.364  1.6937 -1.1018 -1.2578
  364MPD2    H3 5507   1.353   1.521  10.467 -0.4602  1.6040 -0.4952
  364MPD2     N 5508   1.621   1.543  10.837  0.2359 -0.7033  0.3791
  364MPD2    H5 5509   1.708   1.583  10.870 -0.0407  0.6444 -0.5415
  364MPD2    N1 5510   1.668   1.861  10.490  0.2724  0.0117 -0.0269
  364MPD2    H7 5511   1.735   1.901  10.555 -0.4493  0.8915  0.1812
  365TMC3    C1 5512   1.782   1.982  10.340  0.4848  0.1148 -0.4153
  365TMC3    C2 5513   1.878   1.948  10.244  0.1173  0.0849  0.2362
  365TMC3    C3 5514   2.000   2.006  10.245 -0.1065  0.7567  1.3123
  365TMC3    C4 5515   1.816   2.060  10.450 -0.0850 -1.2360  0.7334
  365TMC3    C5 5516   1.942   2.115  10.445 -0.3422 -0.3393  0.0004
  365TMC3    C6 5517   2.034   2.087  10.342  0.1948  0.4909 -0.3371
  365TMC3     C 5518   1.670   1.898  10.358  0.9050 -0.8197 -0.4651
  365TMC3     O 5519   1.618   1.849  10.261 -0.1054 -0.4766 -0.1336
  365TMC3     H 5520   1.839   1.912  10.149 -0.1916 -1.8736  1.1152
  365TMC3    H1 5521   1.735   2.099  10.511 -1.5436 -1.0064 -1.3517
  365TMC3    H2 5522   2.132   2.133  10.351 -0.5050  1.9737 -0.4073
  365TMC3    C7 5523   1.986   2.209  10.546  0.3648  0.9503 -0.1398
  365TMC3    C8 5524   2.109   1.958  10.162 -0.1432  0.6615 -0.4448
  365TMC3    O1 5525   2.088   2.275  10.523 -0.2408 -0.3018  0.1354
  365TMC3    O2 5526   2.215   2.018  10.168 -0.4471 -0.5455  0.0508
  366MPD2     C 5527   0.372   3.346  14.917  0.6230 -0.5804 -1.0238
  366MPD2    C1 5528   0.376   3.376  15.051 -0.3164  0.3764  0.3288
  366MPD2    C2 5529   0.495   3.379  15.121  0.4673  0.6575  0.9202
  366MPD2    C3 5530   0.618   3.358  15.058  0.1529  0.4092  0.3624
  366MPD2    C4 5531   0.607   3.325  14.923 -0.1446  0.3870  0.1746
  366MPD2    C5 5532   0.491   3.317  14.858  0.0737 -0.9634  0.6050
  366MPD2     H 5533   0.497   3.418  15.222  1.1483  0.5898  0.9326
  366MPD2    H1 5534   0.699   3.309  14.868 -0.4789  1.6555 -0.7428
  366MPD2    H2 5535   0.282   3.344  14.856 -1.4505 -0.5075  2.0473
  366MPD2    H3 5536   0.505   3.294  14.753  1.2281 -1.5012  0.8761
  366MPD2     N 5537   0.748   3.377  15.120  0.2518  0.3511  0.1264
  366MPD2    H5 5538   0.830   3.381  15.061 -0.5952  0.3337 -1.0602
  366MPD2    N1 5539   0.270   3.431  15.127  0.3499  0.3690 -0.1939
  366MPD2    H7 5540   0.286   3.480  15.215  0.4922  0.9218 -0.5301
  367TMC3    C1 5541   0.059   3.504  15.175  0.5428  0.0910  0.4504
  367TMC3    C2 5542   0.126   3.550  15.286 -0.3403  0.2420 -0.0687
  367TMC3    C3 5543   0.089   3.671  15.338  0.1169  0.2176 -0.7751
  367TMC3    C4 5544   4.691   3.567  15.117  0.5034 -0.8720 -0.3874
  367TMC3    C5 5545   4.645   3.682  15.179 -0.2315  0.2730  0.3901
  367TMC3    C6 5546   4.718   3.741  15.279  0.2694  0.2615 -0.1497
  367TMC3     C 5547   0.142   3.441  15.079  0.3966 -0.2912  0.1760
  367TMC3     O 5548   0.100   3.419  14.962  0.7387 -0.0690  0.1408
  367TMC3     H 5549   0.191   3.490  15.349  0.3983  0.5864 -0.4992
  367TMC3    H1 5550   4.645   3.533  15.025  0.0232 -2.8594  0.5781
  367TMC3    H2 5551   4.685   3.837  15.315 -4.6581 -1.4172 -0.1069
  367TMC3    C7 5552   4.565   3.776  15.106  0.6439 -0.5247  0.0201
  367TMC3    C8 5553   0.180   3.743  15.425 -0.4623  0.0285  0.2596
  367TMC3    O1 5554   4.589   3.891  15.116 -0.1172 -0.9510  0.1723
  367TMC3    O2 5555   0.283   3.678  15.439  0.7955  0.2678 -0.2686
  368MPD2     C 5556   1.572   4.509  13.475 -0.4739  0.4357 -0.9088
  368MPD2    C1 5557   1.599   4.606  13.390 -0.3339  0.2655  0.0950
  368MPD2    C2 5558   1.716   4.607  13.313  0.2464 -0.4034 -0.4934
  368MPD2    C3 5559   1.806   4.505  13.334 -0.6663  0.4208 -0.5472
  368MPD2    C4 5560   1.769   4.399  13.419 -0.8941 -0.2932  0.9536
  368MPD2    C5 5561   1.646   4.396  13.485  0.3601 -0.1276 -0.0131
  368MPD2     H 5562   1.742   4.683  13.240 -4.4204  1.4458 -0.2058
  368MPD2    H1 5563   1.836   4.316  13.434 -0.1041 -0.1359 -1.7646
  368MPD2    H2 5564   1.477   4.510  13.527 -0.8316  2.5899 -1.6001
  368MPD2    H3 5565   1.614   4.319  13.555 -0.3283  0.6617  0.5372
  368MPD2     N 5566   1.937   4.493  13.272  0.4280 -0.0333 -0.7582
  368MPD2    H5 5567   2.008   4.430  13.309  0.7986  2.2889  2.4823
  368MPD2    N1 5568   1.493   4.695  13.370  0.1842 -0.6387  0.1865
  368MPD2    H7 5569   1.403   4.678  13.414  0.6909 -0.9605  1.0782
  369TMC3    C1 5570   1.378   0.147  13.282 -0.2221  0.1809 -0.4026
  369TMC3    C2 5571   1.408   0.275  13.257 -0.1563  0.0163  0.0632
  369TMC3    C3 5572   1.337   0.375  13.323  0.4400 -0.0993  0.4329
  369TMC3    C4 5573   1.259   0.109  13.330 -0.2807 -0.0695  0.3552
  369TMC3    C5 5574   1.177   0.211  13.378  0.2718  0.0430 -1.0499
  369TMC3    C6 5575   1.220   0.339  13.382 -0.6898  0.2315  0.5641
  369TMC3     C 5576   1.496   0.063  13.282 -0.3582  0.1186  0.3352
  369TMC3     O 5577   1.584   0.095  13.203 -0.3614  0.4955  0.0450
  369TMC3     H 5578   1.495   0.302  13.197  0.3264 -1.1780  0.2324
  369TMC3    H1 5579   1.235   0.004  13.344  2.5609 -0.8840 -0.7832
  369TMC3    H2 5580   1.176   0.422  13.435 -1.5267 -0.4167  0.8936
  369TMC3    C7 5581   1.048   0.189  13.436  0.1505 -0.2795  0.0677
  369TMC3    C8 5582   1.374   0.513  13.305 -0.1735  0.1465 -0.4369
  369TMC3    O1 5583   1.034   0.260  13.535 -0.5845 -0.3222 -0.7551
  369TMC3    O2 5584   1.280   0.588  13.280 -0.0420 -0.2049  0.0634
  370TMC3    C1 5585   0.844   1.404  16.259  0.1971 -0.8949 -0.0366
  370TMC3    C2 5586   0.753   1.334  16.330  0.4240  0.9691  0.1625
  370TMC3    C3 5587   0.686   1.238  16.258 -0.5570  0.3244  0.4746
  370TMC3    C4 5588   0.870   1.381  16.124 -0.5891 -0.0726 -0.1960
  370TMC3    C5 5589   0.803   1.285  16.056 -0.3099  0.7491 -0.1874
  370TMC3    C6 5590   0.717   1.209  16.125  0.5939 -0.0395  0.0583
  370TMC3     C 5591   0.938   1.479  16.337  0.2674 -0.2567 -0.4986
  370TMC3     O 5592   0.965   1.433  16.446  0.2189  0.1561 -0.2617
  370TMC3     H 5593   0.752   1.337  16.439  0.0736  0.4289  0.1747
  370TMC3    H1 5594   0.938   1.445  16.070 -1.9759  1.6627  0.1408
  370TMC3    H2 5595   0.669   1.133  16.064  0.1838  0.1193  0.1840
  370TMC3    C7 5596   0.863   1.256  15.922 -0.2528  0.1288  0.1393
  370TMC3    C8 5597   0.592   1.150  16.325 -0.5735 -0.1487 -0.6993
  370TMC3    O1 5598   0.942   1.347  15.885 -0.4654 -0.0507 -0.9301
  370TMC3    O2 5599   0.535   1.062  16.257  0.5299 -0.4238 -0.4774
  371TMC3    C1 5600   2.188   4.354  15.739  0.0841  0.2135  0.4095
  371TMC3    C2 5601   2.076   4.399  15.666 -0.3707 -0.6515 -0.4637
  371TMC3    C3 5602   2.025   4.521  15.688 -0.1367  0.6818  0.3330
  371TMC3    C4 5603   2.243   4.437  15.828  0.2684 -0.3279 -0.1732
  371TMC3    C5 5604   2.190   4.561  15.851 -0.8618  0.5522 -0.0955
  371TMC3    C6 5605   2.076   4.600  15.785  0.8096 -0.6038  0.4436
  371TMC3     C 5606   2.229   4.215  15.756  0.3041 -0.5260  0.9394
  371TMC3     O 5607   2.325   4.189  15.826  0.3453 -0.6530 -0.0184
  371TMC3     H 5608   2.032   4.338  15.587  0.0973  1.4576 -2.3333
  371TMC3    H1 5609   2.337   4.409  15.874  1.5876  4.0830 -0.1734
  371TMC3    H2 5610   2.046   4.703  15.801 -0.2242 -0.9649  0.8250
  371TMC3    C7 5611   2.260   4.646  15.936  0.2017 -0.2743  0.2856
  371TMC3    C8 5612   1.928   4.567  15.586 -0.5263  0.1633  0.5581
  371TMC3    O1 5613   2.318   4.584  16.027  0.3273 -0.3811  0.2600
  371TMC3    O2 5614   1.933   4.511  15.479  0.0152 -0.1672 -0.3135
  372MPD2     C 5615   2.269   0.219  13.088  0.0210  0.4636  0.1572
  372MPD2    C1 5616   2.357   0.186  13.185 -0.5386 -0.2826  0.0681
  372MPD2    C2 5617   2.306   0.134  13.304 -0.2426 -0.1706 -0.8104
  372MPD2    C3 5618   2.171   0.121  13.326  0.0419 -0.4568 -0.6624
  372MPD2    C4 5619   2.082   0.152  13.231 -0.5778 -0.2187  0.6843
  372MPD2    C5 5620   2.126   0.207  13.110 -0.9630  0.4741 -0.2535
  372MPD2     H 5621   2.373   0.111  13.386 -0.4581 -0.6926 -0.7816
  372MPD2    H1 5622   1.975   0.159  13.249 -0.4917  1.3976  0.5696
  372MPD2    H2 5623   2.296   0.257  12.990 -0.1565 -1.4750 -0.6349
  372MPD2    H3 5624   2.061   0.223  13.024 -1.4156  2.8100  0.5074
  372MPD2     N 5625   2.135   0.059  13.448  0.1494 -0.7520  0.3250
  372MPD2    H5 5626   2.214   0.030  13.504 -0.2396 -0.6892  0.9004
  372MPD2    N1 5627   2.500   0.211  13.180 -0.3195  0.1845 -0.1790
  372MPD2    H7 5628   2.557   0.176  13.256  0.1470 -1.6010 -1.3570
  373TMC3    C1 5629   2.002   4.727  13.642 -0.0192  0.7939 -0.5006
  373TMC3    C2 5630   1.914   0.056  13.721  0.8707 -0.3710 -0.2797
  373TMC3    C3 5631   1.852   4.719  13.818  0.4821 -1.0460 -0.0281
  373TMC3    C4 5632   2.032   4.594  13.663 -0.4474  0.0760  0.2257
  373TMC3    C5 5633   1.963   4.530  13.764 -0.5945  0.4344 -0.3615
  373TMC3    C6 5634   1.880   4.591  13.848 -0.3894  0.7649 -0.0434
  373TMC3     C 5635   2.010   0.053  13.507 -0.1575  0.4004  0.3096
  373TMC3     O 5636   1.903   0.098  13.473  0.1281 -0.1217  0.2183
  373TMC3     H 5637   1.896   0.163  13.717 -5.7083 -1.4695  0.9482
  373TMC3    H1 5638   2.099   4.535  13.602 -0.2991  1.7054 -1.1984
  373TMC3    H2 5639   1.841   4.547  13.940  0.7293 -0.2552 -0.0634
  373TMC3    C7 5640   1.949   4.383  13.735 -0.0562  0.2261 -0.2397
  373TMC3    C8 5641   1.833   0.057  13.935  0.5985  0.5863  0.1853
  373TMC3    O1 5642   2.029   4.330  13.656 -0.4784 -0.2013  0.0294
  373TMC3    O2 5643   1.762   0.019  14.023  0.1549 -0.3163 -0.2944
  374TMC3    C1 5644   2.259   0.363   9.631 -0.3244 -0.3094  0.7732
  374TMC3    C2 5645   2.373   0.449   9.653 -0.6308 -0.4046 -0.0314
  374TMC3    C3 5646   2.434   0.511   9.546  0.0951  0.6739 -0.3626
  374TMC3    C4 5647   2.207   0.353   9.506 -0.6692  0.3134 -0.0192
  374TMC3    C5 5648   2.272   0.414   9.400  0.3239  0.2560  0.6067
  374TMC3    C6 5649   2.386   0.489   9.416 -0.5315 -0.0307  0.5043
  374TMC3     C 5650   2.213   0.270   9.728  0.3366 -0.7398  0.3707
  374TMC3     O 5651   2.156   0.166   9.693 -0.1211 -0.5412  0.2607
  374TMC3     H 5652   2.414   0.463   9.752 -1.3409  0.7351  0.0921
  374TMC3    H1 5653   2.132   0.275   9.491 -1.0647  0.6436  0.2368
  374TMC3    H2 5654   2.436   0.517   9.324 -0.1927  0.4109  0.8222
  374TMC3    C7 5655   2.231   0.404   9.260  0.1740  0.2755  0.3767
  374TMC3    C8 5656   2.525   0.628   9.557  0.4196 -0.3062  0.1682
  374TMC3    O1 5657   2.285   0.478   9.180 -0.4452 -0.3903  0.4083
  374TMC3    O2 5658   2.544   0.687   9.451 -0.1904 -0.4183  0.0118
  375MPD2     C 5659   2.107   1.137  17.233  0.0103  0.5246 -0.6524
  375MPD2    C1 5660   2.079   1.222  17.126 -0.4493  0.1722  0.0330
  375MPD2    C2 5661   2.163   1.214  17.019  0.3414 -0.0001  0.7361
  375MPD2    C3 5662   2.266   1.120  17.012 -0.0304 -0.4252 -0.5077
  375MPD2    C4 5663   2.298   1.047  17.120 -0.2572 -0.6510 -0.2991
  375MPD2    C5 5664   2.216   1.055  17.227  0.7410  0.7273 -0.2148
  375MPD2     H 5665   2.153   1.292  16.944 -0.1874 -2.0304 -1.2941
  375MPD2    H1 5666   2.373   0.969  17.125 -1.4657 -1.8525 -0.6901
  375MPD2    H2 5667   2.043   1.125  17.320 -1.0801 -2.3533 -1.8418
  375MPD2    H3 5668   2.235   0.985  17.308  0.8186 -0.8767 -1.6184
  375MPD2     N 5669   2.332   1.090  16.888  0.4447  0.0787  0.1721
  375MPD2    H5 5670   2.394   1.010  16.882  3.0763  2.3720 -2.7297
  375MPD2    N1 5671   1.989   1.331  17.123 -0.2465 -0.0747 -0.1439
  375MPD2    H7 5672   1.993   1.390  17.041 -2.5593  0.3236  0.0235
  376TMC3    C1 5673   2.378   1.072  16.656  1.5308 -0.0246  0.5509
  376TMC3    C2 5674   2.486   0.994  16.673  0.3369  0.1582 -0.4415
  376TMC3    C3 5675   2.536   0.923  16.571  0.1316  0.5467  0.1513
  376TMC3    C4 5676   2.319   1.077  16.537  0.2775 -0.9477  0.2682
  376TMC3    C5 5677   2.379   1.010  16.432 -0.3450  0.0518 -0.3771
  376TMC3    C6 5678   2.490   0.935  16.440  0.2698 -0.5934 -0.5682
  376TMC3     C 5679   2.315   1.157  16.766  0.0577 -0.0115 -0.6389
  376TMC3     O 5680   2.243   1.252  16.732  0.6942  0.3680 -0.4441
  376TMC3     H 5681   2.535   1.002  16.769  1.8072 -1.3362 -1.0542
  376TMC3    H1 5682   2.235   1.143  16.523  2.7291  2.2331  0.4805
  376TMC3    H2 5683   2.548   0.897  16.357 -0.7430 -0.3798 -1.3712
  376TMC3    C7 5684   2.335   1.054  16.303 -0.5034 -0.1720  0.3462
  376TMC3    C8 5685   2.678   0.893  16.580 -1.1480  0.0268 -0.0080
  376TMC3    O1 5686   2.268   1.159  16.309  0.3229  0.0076 -0.1103
  376TMC3    O2 5687   2.735   0.864  16.477 -0.2305  0.0003  0.3411
  377MPD2     C 5688   1.314   0.395  12.902 -0.3185 -0.4749  0.3057
  377MPD2    C1 5689   1.269   0.522  12.918 -0.1181 -0.0671 -0.2133
  377MPD2    C2 5690   1.141   0.544  12.975  1.1441 -0.3154 -1.1600
  377MPD2    C3 5691   1.063   0.438  13.024 -0.4837  0.0273  0.0042
  377MPD2    C4 5692   1.121   0.312  13.011 -0.2267  0.4682 -0.1573
  377MPD2    C5 5693   1.244   0.290  12.953 -0.2815 -0.5405 -0.0241
  377MPD2     H 5694   1.096   0.642  12.974 -0.4833 -1.0655 -0.5248
  377MPD2    H1 5695   1.076   0.229  13.063 -1.3783  0.8927 -0.4467
  377MPD2    H2 5696   1.412   0.382  12.857 -0.4780  0.0729 -0.2052
  377MPD2    H3 5697   1.284   0.190  12.960  1.8837  0.2412 -1.2862
  377MPD2     N 5698   0.939   0.441  13.089 -0.3314  0.2245  0.3581
  377MPD2    H5 5699   0.895   0.353  13.114  1.0002 -0.9508 -1.4720
  377MPD2    N1 5700   1.344   0.620  12.855  0.0933  0.4371  0.3111
  377MPD2    H7 5701   1.415   0.589  12.790 -1.4071 -1.6382 -0.3231
  378TMC3    C1 5702   1.370   0.898  12.514 -0.2923  0.2773 -0.0364
  378TMC3    C2 5703   1.318   0.886  12.640  1.0969 -0.2197 -0.0102
  378TMC3    C3 5704   1.397   0.821  12.740  0.0675 -0.7879  0.5429
  378TMC3    C4 5705   1.492   0.844  12.478  0.5708  0.5400 -0.0040
  378TMC3    C5 5706   1.553   0.772  12.573  0.2266 -0.2747  0.3019
  378TMC3    C6 5707   1.512   0.765  12.701  0.8779  0.1653 -0.2925
  378TMC3     C 5708   1.283   0.907  12.397  0.3480 -0.8927  0.8304
  378TMC3     O 5709   1.327   0.869  12.290 -0.3372  0.0273 -0.1127
  378TMC3     H 5710   1.218   0.919  12.662  0.7878 -0.4565 -1.1008
  378TMC3    H1 5711   1.522   0.851  12.375 -0.6871  1.9759 -0.2736
  378TMC3    H2 5712   1.570   0.720  12.781 -0.5978 -0.4858  0.4288
  378TMC3    C7 5713   1.683   0.719  12.550  0.3099  0.3339 -0.4585
  378TMC3    C8 5714   1.318   0.756  12.843  0.8012  0.0022 -0.5839
  378TMC3    O1 5715   1.765   0.716  12.643  0.2219 -0.1291 -0.4809
  378TMC3    O2 5716   1.241   0.833  12.896  0.0888 -0.4644 -0.2038
  379MPD2     C 5717   1.288   3.769  16.249  0.4487 -0.1613  0.3410
  379MPD2    C1 5718   1.152   3.776  16.268 -0.1249  0.1469 -0.2052
  379MPD2    C2 5719   1.105   3.721  16.383 -0.2735 -0.3199  0.0095
  379MPD2    C3 5720   1.189   3.657  16.473  0.4451  0.0478  0.2511
  379MPD2    C4 5721   1.320   3.659  16.453  0.3357  0.1664 -0.6084
  379MPD2    C5 5722   1.374   3.717  16.341  0.0250  1.0159 -0.4089
  379MPD2     H 5723   0.998   3.722  16.402 -0.7050 -1.5215 -2.4832
  379MPD2    H1 5724   1.390   3.605  16.515  0.4285  1.8824  0.7731
  379MPD2    H2 5725   1.329   3.810  16.157  1.0771 -2.1469 -0.2766
  379MPD2    H3 5726   1.482   3.720  16.326 -0.0396 -0.5306 -1.2584
  379MPD2     N 5727   1.153   3.573  16.582 -0.1571 -0.2445 -0.5078
  379MPD2    H5 5728   1.228   3.529  16.634  0.5049  1.1758 -0.2729
  379MPD2    N1 5729   1.072   3.824  16.161  0.7888  0.1068 -0.3463
  379MPD2    H7 5730   1.127   3.849  16.079  0.4568 -1.6376 -1.0985
  380TMC3    C1 5731   0.897   3.873  16.010  0.0922  0.5527 -0.2996
  380TMC3    C2 5732   0.972   3.854  15.899 -0.1978  0.4088  0.0444
  380TMC3    C3 5733   0.918   3.877  15.779 -0.4683 -0.1573  0.8654
  380TMC3    C4 5734   0.768   3.924  16.002 -0.8661  0.4282 -0.1540
  380TMC3    C5 5735   0.721   3.955  15.879  0.3467  0.5223 -0.4476
  380TMC3    C6 5736   0.791   3.924  15.766 -0.6073  0.4889 -0.3294
  380TMC3     C 5737   0.938   3.834  16.145  0.2556  0.2639  0.0279
  380TMC3     O 5738   0.851   3.825  16.232  0.1742 -0.4271  0.2536
  380TMC3     H 5739   1.068   3.804  15.901  0.0837  0.8052 -3.4663
  380TMC3    H1 5740   0.709   3.948  16.089 -3.5427 -0.4785 -1.7047
  380TMC3    H2 5741   0.751   3.949  15.669 -0.8463 -0.7661 -0.5479
  380TMC3    C7 5742   0.582   3.994  15.873  0.4824  0.2232  0.3270
  380TMC3    C8 5743   1.000   3.881  15.657  0.3488  0.1603  0.1892
  380TMC3    O1 5744   0.533   4.063  15.964  0.0493  0.1889  0.4921
  380TMC3    O2 5745   0.947   3.843  15.555  0.2613  0.0723  0.0954
  381TMC3    C1 5746   0.482   0.465  15.846 -0.3805 -1.0653  0.3325
  381TMC3    C2 5747   0.600   0.485  15.909  0.9934  0.1357  0.0035
  381TMC3    C3 5748   0.608   0.540  16.037 -0.5829 -0.3251  0.0340
  381TMC3    C4 5749   0.363   0.500  15.898  0.1336  0.5589 -0.4224
  381TMC3    C5 5750   0.369   0.561  16.021 -0.3476  0.6577 -0.2228
  381TMC3    C6 5751   0.486   0.582  16.088  0.3101  0.3055 -0.1004
  381TMC3     C 5752   0.488   0.393  15.718 -0.0458  0.0937  0.6409
  381TMC3     O 5753   0.594   0.406  15.654 -0.0721  0.0004  0.0713
  381TMC3     H 5754   0.693   0.469  15.856  0.8456 -1.1106  0.1385
  381TMC3    H1 5755   0.268   0.476  15.851  0.6552 -1.2069 -0.5460
  381TMC3    H2 5756   0.476   0.623  16.188  0.2357  1.8956 -0.7578
  381TMC3    C7 5757   0.242   0.566  16.092 -0.3982 -1.0514  0.2640
  381TMC3    C8 5758   0.731   0.603  16.076 -0.0236  0.5937  0.2967
  381TMC3    O1 5759   0.159   0.480  16.055  0.1126 -0.3238 -0.0646
  381TMC3    O2 5760   0.832   0.572  16.017 -0.3197 -0.0820 -0.3332
  382MPD2     C 5761   4.572   2.604  17.029  0.6053  0.1518  0.4392
  382MPD2    C1 5762   4.580   2.618  17.166 -1.1402  0.2059 -0.3121
  382MPD2    C2 5763   4.539   2.509  17.245 -0.3655 -0.0337  0.2486
  382MPD2    C3 5764   4.490   2.394  17.190 -0.3221  0.1072  0.6292
  382MPD2    C4 5765   4.467   2.392  17.057 -0.0897 -1.2446  0.0231
  382MPD2    C5 5766   4.520   2.488  16.979 -0.3261 -0.4261 -0.3511
  382MPD2     H 5767   4.535   2.522  17.352  1.5841 -1.8287  0.5364
  382MPD2    H1 5768   4.402   2.315  17.017 -0.4611 -1.2381  0.6097
  382MPD2    H2 5769   4.607   2.671  16.952  0.5092 -0.3295 -0.0200
  382MPD2    H3 5770   4.492   2.487  16.874 -1.2323  1.5501 -0.1205
  382MPD2     N 5771   4.461   2.275  17.261 -0.1884 -0.0674 -0.8017
  382MPD2    H5 5772   4.415   2.203  17.207  2.2490 -1.6168 -0.8231
  382MPD2    N1 5773   4.647   2.731  17.229  0.0624 -0.9344  0.5458
  382MPD2    H7 5774   4.660   2.728  17.330 -1.6547 -2.7916  0.7015
  383TMC3    C1 5775   4.442   2.122  17.425  0.0941 -0.5929  0.5080
  383TMC3    C2 5776   4.360   2.038  17.341  0.0219 -0.1851  0.2861
  383TMC3    C3 5777   4.357   1.901  17.366  0.1302 -0.4381  0.4891
  383TMC3    C4 5778   4.502   2.061  17.529 -0.4050  0.1440 -0.2339
  383TMC3    C5 5779   4.480   1.932  17.558  0.7183 -0.0935  0.6791
  383TMC3    C6 5780   4.417   1.847  17.476  0.3313  0.2068  0.0364
  383TMC3     C 5781   4.480   2.253  17.397  0.6732  0.4861  0.1698
  383TMC3     O 5782   4.514   2.332  17.484 -0.2340  0.4394  0.1155
  383TMC3     H 5783   4.292   2.085  17.272  1.8371  1.7605 -0.1866
  383TMC3    H1 5784   4.569   2.127  17.584 -0.7416  0.8322 -0.6417
  383TMC3    H2 5785   4.397   1.744  17.503  2.8863  0.0187  1.1485
  383TMC3    C7 5786   4.563   1.864  17.656  0.0752 -0.3763 -0.5905
  383TMC3    C8 5787   4.270   1.824  17.282  0.0484 -1.0302  0.1193
  383TMC3    O1 5788   4.518   1.756  17.699 -0.1549 -0.1221  0.3565
  383TMC3    O2 5789   4.209   1.884  17.196 -0.2027  0.3681 -0.1800
  384MPD2     C 5790   1.682   3.416  12.065 -0.2096  0.4541 -0.4157
  384MPD2    C1 5791   1.662   3.282  12.031 -0.1119  0.4064  0.3849
  384MPD2    C2 5792   1.753   3.184  12.072  0.0805  0.1466 -0.9554
  384MPD2    C3 5793   1.877   3.225  12.113  0.1144  0.1076 -0.9966
  384MPD2    C4 5794   1.908   3.357  12.122 -0.4428  0.6473  0.0213
  384MPD2    C5 5795   1.808   3.447  12.104  0.0461  0.0327  0.0127
  384MPD2     H 5796   1.723   3.081  12.058  1.7537 -0.7226  1.9535
  384MPD2    H1 5797   1.999   3.405  12.156 -0.1132 -0.4638  0.6986
  384MPD2    H2 5798   1.612   3.499  12.060 -0.5842  0.3027  2.0542
  384MPD2    H3 5799   1.834   3.550  12.123 -1.1652  0.4544 -0.6211
  384MPD2     N 5800   1.965   3.121  12.139  0.8280 -0.0034  0.6169
  384MPD2    H5 5801   1.921   3.030  12.147  0.3294  0.0549 -1.4475
  384MPD2    N1 5802   1.537   3.238  11.994 -0.2221  0.4060  0.9814
  384MPD2    H7 5803   1.525   3.137  11.992 -0.7085  0.4883 -0.4067
  385TMC3    C1 5804   2.157   3.003  12.174  0.4077  0.1766  0.5831
  385TMC3    C2 5805   2.225   2.947  12.070 -0.7343 -0.0322 -0.6509
  385TMC3    C3 5806   2.193   2.820  12.022 -1.2969 -0.0019  0.2087
  385TMC3    C4 5807   2.058   2.929  12.237  0.4361  0.2833  0.3728
  385TMC3    C5 5808   2.031   2.806  12.193 -0.2023  0.7850 -0.1268
  385TMC3    C6 5809   2.098   2.750  12.084  0.4253 -0.4804 -0.2657
  385TMC3     C 5810   2.102   3.133  12.156  0.0530 -0.5612 -0.3342
  385TMC3     O 5811   2.179   3.220  12.125 -0.6114  0.4111 -0.5309
  385TMC3     H 5812   2.308   3.001  12.027  1.1454 -0.2212  2.7888
  385TMC3    H1 5813   2.020   2.967  12.331 -2.0837 -0.1303 -0.4913
  385TMC3    H2 5814   2.065   2.654  12.047  2.1728 -0.7581 -1.0957
  385TMC3    C7 5815   1.893   2.777  12.193 -0.3400 -0.5517  0.2064
  385TMC3    C8 5816   2.273   2.735  11.937 -1.0716  0.1616 -0.2485
  385TMC3    O1 5817   1.838   2.839  12.108 -0.2026 -0.6186  0.5877
  385TMC3    O2 5818   2.394   2.737  11.935 -0.2906  0.0190  0.4303
  386TMC3    C1 5819   2.012   0.758  12.250  0.1706 -0.5750 -0.5199
  386TMC3    C2 5820   1.972   0.697  12.136  0.5692 -0.1367  0.8651
  386TMC3    C3 5821   1.883   0.767  12.066  0.6828 -0.2665 -0.2509
  386TMC3    C4 5822   1.984   0.885  12.278 -0.2088 -0.1439  0.5357
  386TMC3    C5 5823   1.892   0.946  12.211  0.4170 -0.0782 -0.0089
  386TMC3    C6 5824   1.828   0.890  12.106 -0.1186  0.6744  0.1772
  386TMC3     C 5825   2.109   0.688  12.334 -0.1930 -0.3740  0.3265
  386TMC3     O 5826   2.125   0.725  12.452  0.3198 -0.1753 -0.0700
  386TMC3     H 5827   2.004   0.596  12.114 -1.1797 -0.2968 -0.8745
  386TMC3    H1 5828   2.047   0.938  12.349  0.8716  0.7975 -1.1370
  386TMC3    H2 5829   1.757   0.930  12.034  0.1690  0.8673 -0.0012
  386TMC3    C7 5830   1.818   1.048  12.284  0.4405 -0.0221 -0.4503
  386TMC3    C8 5831   1.797   0.689  11.977  0.2461  0.1539  0.2121
  386TMC3    O1 5832   1.849   1.061  12.400 -0.3539 -0.6048  0.0136
  386TMC3    O2 5833   1.688   0.737  11.960 -0.3108  0.0502  0.6536
  387MPD2     C 5834   4.313   0.447   9.558 -0.1613  0.5030 -0.1158
  387MPD2    C1 5835   4.384   0.442   9.678 -0.0193  0.1120  1.0434
  387MPD2    C2 5836   4.408   0.319   9.739 -0.3147 -0.3434 -0.3384
  387MPD2    C3 5837   4.370   0.196   9.688  0.5510 -0.1282  0.5607
  387MPD2    C4 5838   4.302   0.203   9.568 -0.9322 -0.4432  0.0548
  387MPD2    C5 5839   4.272   0.326   9.506 -0.1469  0.7836 -0.1275
  387MPD2     H 5840   4.455   0.314   9.837 -1.4521 -1.2293  0.1749
  387MPD2    H1 5841   4.268   0.113   9.517 -0.1544 -0.3689 -0.5936
  387MPD2    H2 5842   4.309   0.537   9.499 -3.0032  0.3583 -0.1636
  387MPD2    H3 5843   4.213   0.317   9.416 -0.2032 -0.4280  0.0293
  387MPD2     N 5844   4.410   0.076   9.755  0.2872  0.2130 -0.4519
  387MPD2    H5 5845   4.458   0.097   9.842  0.5604 -2.0101 -0.0769
  387MPD2    N1 5846   4.435   0.554   9.745  0.4828  0.4447  0.0713
  387MPD2    H7 5847   4.469   0.533   9.838  1.8596 -0.2329 -0.5921
  388TMC3    C1 5848   4.523   0.758   9.812 -0.0565  0.3861  0.2306
  388TMC3    C2 5849   4.486   0.889   9.836 -0.1427  0.1089  0.3099
  388TMC3    C3 5850   4.500   0.931   9.966  0.5886 -0.0322  0.9238
  388TMC3    C4 5851   4.582   0.680   9.903 -0.5590  0.5884 -0.3744
  388TMC3    C5 5852   4.594   0.730  10.029 -0.2275  0.3385  0.3993
  388TMC3    C6 5853   4.550   0.850  10.070 -0.3342 -0.2224 -0.0467
  388TMC3     C 5854   4.454   0.682   9.703  0.5122 -0.6705 -0.2895
  388TMC3     O 5855   4.414   0.739   9.601  0.1729  0.3278 -0.0696
  388TMC3     H 5856   4.438   0.946   9.757  0.0114  0.0755  0.1914
  388TMC3    H1 5857   4.625   0.584   9.877 -1.2307  0.5627 -1.4058
  388TMC3    H2 5858   4.585   0.885  10.166  0.0815 -1.8213  0.3831
  388TMC3    C7 5859   4.680   0.649  10.112  0.1093  0.3595 -0.0101
  388TMC3    C8 5860   4.485   1.075   9.989  0.2966  0.3207  0.6803
  388TMC3    O1 5861   0.040   0.691  10.171  0.2495 -0.3591 -0.1362
  388TMC3    O2 5862   4.465   1.143   9.889 -0.5888  0.4046 -0.2546
  389MPD2     C 5863   4.031   3.481  10.905 -0.1380  0.1374 -1.0017
  389MPD2    C1 5864   3.920   3.402  10.931  0.1466 -0.3066  0.0226
  389MPD2    C2 5865   3.902   3.368  11.072  0.0519  0.0907 -0.0887
  389MPD2    C3 5866   3.973   3.420  11.171 -0.3067 -0.1215  0.4717
  389MPD2    C4 5867   4.076   3.505  11.143 -0.2437 -0.7420  0.3519
  389MPD2    C5 5868   4.099   3.540  11.014  0.4275 -0.2384  0.5688
  389MPD2     H 5869   3.822   3.296  11.088 -0.9995  1.4816  0.9779
  389MPD2    H1 5870   4.143   3.541  11.221  0.3650  0.2956 -0.6530
  389MPD2    H2 5871   4.077   3.496  10.808  0.0715  3.6770 -0.3273
  389MPD2    H3 5872   4.183   3.605  10.993 -3.0481  3.8204 -0.8012
  389MPD2     N 5873   3.941   3.397  11.311  0.3565 -0.5116  0.1992
  389MPD2    H5 5874   3.991   3.438  11.389  0.1145 -1.5434  0.9069
  389MPD2    N1 5875   3.859   3.342  10.819 -0.4789  0.9487  0.4402
  389MPD2    H7 5876   3.879   3.383  10.728 -1.0022 -1.6874 -0.8442
  390TMC3    C1 5877   3.822   3.357  11.500 -0.1383 -0.7962  0.4629
  390TMC3    C2 5878   3.784   3.255  11.580 -0.3022  0.2500 -0.4521
  390TMC3    C3 5879   3.730   3.280  11.703 -0.1860 -0.7915  0.3550
  390TMC3    C4 5880   3.796   3.483  11.544 -0.3490 -0.1831 -0.4573
  390TMC3    C5 5881   3.760   3.511  11.671  0.8762 -0.3922  0.1977
  390TMC3    C6 5882   3.726   3.408  11.761  0.1883  0.3102  0.0679
  390TMC3     C 5883   3.834   3.333  11.359 -0.2398  0.8557 -0.0675
  390TMC3     O 5884   3.738   3.282  11.306 -0.0896 -0.3249 -0.2815
  390TMC3     H 5885   3.797   3.156  11.538 -0.6572 -0.9537  2.2602
  390TMC3    H1 5886   3.821   3.566  11.479  0.1627  0.2026  0.2335
  390TMC3    H2 5887   3.730   3.417  11.869 -2.9004 -0.2265  0.2095
  390TMC3    C7 5888   3.717   3.643  11.698 -0.6166  0.2290  0.3166
  390TMC3    C8 5889   3.617   3.194  11.727 -0.3397  0.0202 -0.1504
  390TMC3    O1 5890   3.725   3.736  11.619  0.2228  0.2573  0.2463
  390TMC3    O2 5891   3.585   3.100  11.656  0.6999  0.1104 -0.2447
  391MPD2     C 5892   2.547   0.649  11.061  0.3867  0.0281  0.7451
  391MPD2    C1 5893   2.685   0.643  11.051 -0.4644 -0.5216  0.1830
  391MPD2    C2 5894   2.745   0.685  10.936  0.1038 -0.0363 -0.3943
  391MPD2    C3 5895   2.667   0.756  10.843 -0.0686  0.7579 -0.0237
  391MPD2    C4 5896   2.533   0.767  10.861 -0.1061  0.0265  0.1227
  391MPD2    C5 5897   2.470   0.700  10.966 -0.4793  0.3143  0.4564
  391MPD2     H 5898   2.850   0.671  10.913  0.0465  1.6118 -1.7214
  391MPD2    H1 5899   2.469   0.832  10.802  0.6896 -0.2064 -0.9851
  391MPD2    H2 5900   2.506   0.591  11.143  0.8561 -0.2631  0.7734
  391MPD2    H3 5901   2.362   0.703  10.971 -0.2695  2.5928  3.5898
  391MPD2     N 5902   2.725   0.806  10.722  0.1856  0.4155  0.9077
  391MPD2    H5 5903   2.826   0.811  10.717  0.2898 -2.8074 -0.0804
  391MPD2    N1 5904   2.760   0.589  11.162  0.2426  0.1310  0.2910
  391MPD2    H7 5905   2.706   0.536  11.230  0.3424 -1.1442 -0.6187
  392TMC3    C1 5906   2.727   0.880  10.495  0.3897 -0.6463  0.4714
  392TMC3    C2 5907   2.697   0.827  10.378 -0.4796  0.1600  0.2687
  392TMC3    C3 5908   2.780   0.836  10.269  0.4036  0.0833  0.7961
  392TMC3    C4 5909   2.849   0.941  10.516 -0.5250 -0.3083 -0.1750
  392TMC3    C5 5910   2.930   0.961  10.407 -0.0076 -0.8923  0.4400
  392TMC3    C6 5911   2.901   0.908  10.281 -0.6140  0.0407  0.1749
  392TMC3     C 5912   2.652   0.832  10.604  0.4950 -0.9297 -0.3703
  392TMC3     O 5913   2.534   0.797  10.582 -0.4269  0.0988  0.0579
  392TMC3     H 5914   2.609   0.764  10.369 -0.4830 -0.3765  3.8429
  392TMC3    H1 5915   2.863   0.991  10.611  0.1186 -1.0862  0.1327
  392TMC3    H2 5916   2.968   0.916  10.196 -0.0486 -2.3764  0.3879
  392TMC3    C7 5917   3.064   1.006  10.438  0.2190 -0.0761  0.5422
  392TMC3    C8 5918   2.730   0.791  10.143 -0.1128 -0.0867  0.3928
  392TMC3    O1 5919   3.107   0.973  10.550 -0.4547 -0.6244  0.8375
  392TMC3    O2 5920   2.638   0.714  10.149 -0.6074 -0.3118  0.3492
  393TMC3    C1 5921   1.868   3.130  10.735 -1.2176 -0.5000 -0.0648
  393TMC3    C2 5922   1.736   3.105  10.774 -0.0066  0.6388  0.0888
  393TMC3    C3 5923   1.702   2.975  10.808 -0.0315  0.6876  0.0627
  393TMC3    C4 5924   1.963   3.036  10.728 -0.4256  0.0334 -0.2524
  393TMC3    C5 5925   1.921   2.906  10.760 -0.2019 -0.4093 -0.4357
  393TMC3    C6 5926   1.790   2.869  10.794  0.1469 -0.0400  0.8704
  393TMC3     C 5927   1.882   3.263  10.683 -0.0272  0.3580 -0.2392
  393TMC3     O 5928   1.776   3.324  10.666  0.4698  0.7271  0.7664
  393TMC3     H 5929   1.658   3.180  10.777 -0.3521  0.2836 -0.1475
  393TMC3    H1 5930   2.056   3.043  10.673  0.1827 -1.9390  0.5211
  393TMC3    H2 5931   1.772   2.765  10.820  0.4106 -0.4324 -0.5276
  393TMC3    C7 5932   2.023   2.801  10.758  0.1758 -0.0758  0.0268
  393TMC3    C8 5933   1.570   2.961  10.864 -0.0805 -0.0098 -0.5097
  393TMC3    O1 5934   1.997   2.682  10.748 -0.2202  0.7438 -0.1099
  393TMC3    O2 5935   1.523   3.052  10.931  0.1784  0.5329 -0.0858
  394TMC3    C1 5936   3.702   3.228  10.687  0.5692 -0.2729  0.1329
  394TMC3    C2 5937   3.570   3.216  10.681  0.4973 -0.4871  0.3418
  394TMC3    C3 5938   3.508   3.243  10.562 -0.8292 -0.1831 -0.3532
  394TMC3    C4 5939   3.779   3.258  10.579  0.8188  0.1788 -0.0488
  394TMC3    C5 5940   3.713   3.280  10.453  0.0596 -0.2184 -0.0203
  394TMC3    C6 5941   3.577   3.290  10.453 -0.7936  0.3452 -0.6332
  394TMC3     C 5942   3.756   3.250  10.817  0.3998 -0.6186 -0.3996
  394TMC3     O 5943   3.691   3.205  10.911 -0.1377  0.3663  0.1460
  394TMC3     H 5944   3.504   3.206  10.767 -1.1083 -2.8335 -1.1590
  394TMC3    H1 5945   3.883   3.287  10.584  0.0983  2.5262  1.1935
  394TMC3    H2 5946   3.518   3.321  10.368 -0.0372  0.9524 -0.9333
  394TMC3    C7 5947   3.779   3.381  10.375  0.5680  0.1961  0.5242
  394TMC3    C8 5948   3.365   3.278  10.582 -0.0986 -0.9749 -0.2212
  394TMC3    O1 5949   3.716   3.482  10.340 -0.4566  0.1625  0.0055
  394TMC3    O2 5950   3.349   3.386  10.522 -0.0512 -0.3532 -0.1572
  395TMC3    C1 5951   3.285   0.661  15.383  0.2693 -0.5003  0.0640
  395TMC3    C2 5952   3.247   0.566  15.297 -0.2185 -0.2621 -0.0640
  395TMC3    C3 5953   3.303   0.565  15.168 -0.0207 -0.2072  0.0075
  395TMC3    C4 5954   3.383   0.749  15.355  0.0546  0.0170  0.0553
  395TMC3    C5 5955   3.431   0.751  15.225  0.3416  0.5830  0.6712
  395TMC3    C6 5956   3.392   0.659  15.127 -0.0030  0.4121  0.2808
  395TMC3     C 5957   3.209   0.696  15.500 -0.4073 -0.0159 -0.5074
  395TMC3     O 5958   3.244   0.802  15.551  0.6043  0.6949 -0.0772
  395TMC3     H 5959   3.171   0.492  15.319 -0.9583 -0.2479 -2.5943
  395TMC3    H1 5960   3.414   0.826  15.425 -0.0847 -0.3618  0.5250
  395TMC3    H2 5961   3.451   0.654  15.036  1.0834  1.0554  0.9500
  395TMC3    C7 5962   3.500   0.879  15.196 -0.4319 -0.2803  0.5793
  395TMC3    C8 5963   3.288   0.443  15.079  0.5101 -0.4050  0.4591
  395TMC3    O1 5964   3.485   0.972  15.275  0.0865 -0.8004 -0.5387
  395TMC3    O2 5965   3.300   0.329  15.131  0.1981 -0.8633 -0.0226
  396MPD2     C 5966   2.505   1.987  17.003  0.1292 -0.0922 -0.7505
  396MPD2    C1 5967   2.622   2.031  17.059 -0.4474  0.1206 -0.4906
  396MPD2    C2 5968   2.680   2.153  17.014  0.7854  0.0893  0.3322
  396MPD2    C3 5969   2.614   2.232  16.925 -0.0974 -0.0774  0.9470
  396MPD2    C4 5970   2.500   2.184  16.872  0.3027  0.0269  0.2816
  396MPD2    C5 5971   2.443   2.057  16.906  0.5737  0.4633 -0.3610
  396MPD2     H 5972   2.780   2.182  17.044  0.7767 -0.5348  0.9506
  396MPD2    H1 5973   2.441   2.230  16.793 -1.1695  1.5113  2.2680
  396MPD2    H2 5974   2.461   1.891  17.030  0.4539 -0.5508 -1.8717
  396MPD2    H3 5975   2.355   2.025  16.851 -1.0203 -0.6219  2.8259
  396MPD2     N 5976   2.686   2.349  16.877 -0.6182 -0.1076  0.3406
  396MPD2    H5 5977   2.785   2.362  16.898 -1.1836  1.1624  2.2619
  396MPD2    N1 5978   2.679   1.949  17.157  0.0467  0.2743  0.1596
  396MPD2    H7 5979   2.647   1.854  17.171  1.3543  0.2549  2.9623
  397TMC3    C1 5980   2.867   1.856  17.254  0.6503 -0.0263 -0.0421
  397TMC3    C2 5981   2.969   1.839  17.168  0.7819  0.0208 -0.5274
  397TMC3    C3 5982   3.005   1.717  17.108 -0.2099  0.2442 -0.3024
  397TMC3    C4 5983   2.797   1.741  17.281 -0.8991 -0.0586  0.2493
  397TMC3    C5 5984   2.830   1.618  17.219  0.3741  0.1499  0.2108
  397TMC3    C6 5985   2.922   1.609  17.123 -0.5007 -0.2078  0.3619
  397TMC3     C 5986   2.801   1.979  17.223 -0.1465  0.1989 -0.0842
  397TMC3     O 5987   2.859   2.089  17.234  0.5395 -0.3086  0.4009
  397TMC3     H 5988   3.003   1.932  17.124  0.6386  0.2620 -0.1230
  397TMC3    H1 5989   2.710   1.757  17.344  0.3726  2.8071  1.3187
  397TMC3    H2 5990   2.929   1.517  17.066 -2.2969  1.0628 -1.9406
  397TMC3    C7 5991   2.759   1.505  17.270  0.8179  0.2390  0.2862
  397TMC3    C8 5992   3.071   1.732  16.975  0.1254 -0.0997 -0.1089
  397TMC3    O1 5993   2.742   1.401  17.203  0.6756 -0.0136  0.2357
  397TMC3    O2 5994   2.992   1.711  16.881  0.5165 -0.3756  0.0109
  398MPD2     C 5995   1.387   4.389   0.552 -0.2880  0.5150 -0.0417
  398MPD2    C1 5996   1.445   4.271   0.580  0.1496 -0.7144  0.5540
  398MPD2    C2 5997   1.577   4.264   0.610  0.2945 -0.6027 -0.4582
  398MPD2    C3 5998   1.651   4.384   0.627 -0.4390  0.3417  0.5612
  398MPD2    C4 5999   1.587   4.504   0.602 -0.1582 -0.2753 -0.4717
  398MPD2    C5 6000   1.453   4.506   0.561 -0.5528  0.2058  0.4434
  398MPD2     H 6001   1.619   4.164   0.620 -1.2282 -1.0544  1.4955
  398MPD2    H1 6002   1.635   4.601   0.609  1.5170 -0.9551 -2.4118
  398MPD2    H2 6003   1.280   4.387   0.536 -0.1544  0.0279 -0.8790
  398MPD2    H3 6004   1.406   4.604   0.553  0.0843  0.3260 -1.9167
  398MPD2     N 6005   1.788   4.364   0.640  0.6167 -0.1896  0.1219
  398MPD2    H5 6006   1.822   4.269   0.652 -1.4397 -1.0664 -1.0129
  398MPD2    N1 6007   1.376   4.143   0.577  0.5699  0.5530 -0.6054
  398MPD2    H7 6008   1.432   4.070   0.618 -1.8180 -1.5080 -0.9725
  399TMC3    C1 6009   1.218   3.974   0.522  0.0539 -0.1192  0.0132
  399TMC3    C2 6010   1.325   3.885   0.514 -0.2524  0.3234  0.2185
  399TMC3    C3 6011   1.303   3.751   0.515  0.5197 -0.5628  0.7994
  399TMC3    C4 6012   1.088   3.927   0.536 -0.3739 -0.5225 -0.2760
  399TMC3    C5 6013   1.073   3.793   0.552 -0.5976  0.3096  0.3471
  399TMC3    C6 6014   1.178   3.703   0.548 -0.0203 -0.6618  0.1461
  399TMC3     C 6015   1.244   4.114   0.541 -0.5510 -0.4762  1.3787
  399TMC3     O 6016   1.161   4.191   0.495  0.6019 -0.6980 -0.0814
  399TMC3     H 6017   1.426   3.919   0.492 -0.5652  0.7498 -0.5444
  399TMC3    H1 6018   1.004   3.995   0.535 -0.9964 -1.3064 -1.1953
  399TMC3    H2 6019   1.159   3.597   0.536  0.1090 -0.7251  0.5218
  399TMC3    C7 6020   0.946   3.736   0.529  0.3424  0.3355  0.2243
  399TMC3    C8 6021   1.412   3.677   0.569  0.3164 -0.0111  0.4507
  399TMC3    O1 6022   0.902   3.668   0.622 -0.5396 -0.0399 -0.3728
  399TMC3    O2 6023   1.382   3.587   0.645 -0.1808 -0.4606  0.0461
  400TMC3    C1 6024   4.365   1.611  16.928 -0.1630 -0.3266  0.8895
  400TMC3    C2 6025   4.284   1.524  16.862  0.8833  0.4228 -0.2199
  400TMC3    C3 6026   4.182   1.576  16.793 -0.4729 -0.2900  0.1996
  400TMC3    C4 6027   4.344   1.747  16.926  0.0246  0.5314  0.4428
  400TMC3    C5 6028   4.242   1.794  16.855  0.6281  0.0672  0.5463
  400TMC3    C6 6029   4.160   1.707  16.782 -0.1510 -0.6672 -0.0232
  400TMC3     C 6030   4.425   1.560  17.050  0.2169 -0.0951  0.6416
  400TMC3     O 6031   4.398   1.446  17.080  0.7445  0.3385  0.0351
  400TMC3     H 6032   4.285   1.417  16.880  1.0618  0.5040  0.2367
  400TMC3    H1 6033   4.402   1.819  16.982  0.6634  1.3206 -1.2362
  400TMC3    H2 6034   4.080   1.746  16.719 -2.0294  0.6954  3.1450
  400TMC3    C7 6035   4.217   1.937  16.860 -0.3930  0.1243 -0.2344
  400TMC3    C8 6036   4.080   1.484  16.740  0.3847  0.4610  0.6311
  400TMC3    O1 6037   4.273   1.998  16.951  0.3321  0.4950 -0.2668
  400TMC3    O2 6038   3.967   1.526  16.713 -0.3374  0.1525  0.3663
  401MPD2     C 6039   3.656   0.614   1.305  0.4286 -0.2501  0.0983
  401MPD2    C1 6040   3.736   0.655   1.200  0.7335 -0.0543  0.2326
  401MPD2    C2 6041   3.716   0.594   1.080 -0.4991  0.4730 -0.4480
  401MPD2    C3 6042   3.629   0.494   1.063 -0.5885  0.8599  0.0628
  401MPD2    C4 6043   3.539   0.462   1.164 -0.3284 -0.3522  0.0583
  401MPD2    C5 6044   3.556   0.523   1.290  0.1418 -0.5991  0.6674
  401MPD2     H 6045   3.772   0.633   0.995 -0.7271 -0.7311 -1.1387
  401MPD2    H1 6046   3.457   0.391   1.161 -0.0377 -0.6514 -0.8935
  401MPD2    H2 6047   3.650   0.672   1.397  0.5642 -0.1770  0.0609
  401MPD2    H3 6048   3.481   0.489   1.360 -0.2590  0.1963  0.6269
  401MPD2     N 6049   3.616   0.429   0.931 -0.2515 -0.0637  0.3383
  401MPD2    H5 6050   3.660   0.480   0.855 -1.9077  0.0381 -0.5481
  401MPD2    N1 6051   3.832   0.750   1.200 -0.2467  0.0568 -0.0706
  401MPD2    H7 6052   3.881   0.765   1.113 -0.3343  0.6688 -0.0164
  402TMC3    C1 6053   3.576   0.261   0.771  0.2230  0.1283 -0.0178
  402TMC3    C2 6054   3.597   0.127   0.757  0.1901 -0.1696 -0.0330
  402TMC3    C3 6055   3.560   0.074   0.638  0.5013  0.5269 -0.4992
  402TMC3    C4 6056   3.522   0.334   0.668  0.5892 -0.2399  0.3704
  402TMC3    C5 6057   3.498   0.270   0.549 -0.2850 -0.4330 -0.4521
  402TMC3    C6 6058   3.523   0.139   0.523  0.5690 -0.1740 -0.5476
  402TMC3     C 6059   3.558   0.307   0.911 -0.0782 -0.0386 -0.1800
  402TMC3     O 6060   3.532   0.222   0.994 -0.2494  0.2002 -0.3823
  402TMC3     H 6061   3.651   0.069   0.832 -1.8641 -1.7114  0.2702
  402TMC3    H1 6062   3.492   0.437   0.683 -3.2875 -1.5120  1.3353
  402TMC3    H2 6063   3.490   0.090   0.432 -2.0600  0.5416  0.0140
  402TMC3    C7 6064   3.403   0.335   0.460  0.1984 -0.1184  0.4030
  402TMC3    C8 6065   3.570   4.663   0.634 -0.0267  0.4665 -0.4103
  402TMC3    O1 6066   3.380   0.452   0.482  0.2071  0.0411  0.2462
  402TMC3    O2 6067   3.587   4.609   0.742 -0.1471 -0.0368  0.3242
  403MPD2     C 6068   1.557   2.974  13.035  0.6656 -0.1137 -0.4022
  403MPD2    C1 6069   1.474   3.024  13.126  0.1426 -0.9783 -0.4864
  403MPD2    C2 6070   1.521   3.079  13.243 -0.4030 -0.6178  0.0646
  403MPD2    C3 6071   1.656   3.060  13.274  0.2030 -0.1045  0.1863
  403MPD2    C4 6072   1.740   3.019  13.175 -0.6978 -0.3159 -0.2152
  403MPD2    C5 6073   1.688   2.961  13.061  0.3917  0.2885  0.1501
  403MPD2     H 6074   1.453   3.122  13.316  2.0343  2.4932  0.5054
  403MPD2    H1 6075   1.847   3.010  13.189 -0.7765 -1.9209 -0.6264
  403MPD2    H2 6076   1.521   2.949  12.936  0.1215  0.0054 -0.2344
  403MPD2    H3 6077   1.757   2.920  12.987  2.3703 -0.5956  2.4956
  403MPD2     N 6078   1.699   3.097  13.404  0.3508  0.2454  0.1291
  403MPD2    H5 6079   1.640   3.147  13.470 -1.0830 -2.3492  0.8158
  403MPD2    N1 6080   1.335   3.028  13.101  0.0385  0.4829 -0.5217
  403MPD2    H7 6081   1.302   2.969  13.025 -0.6280  1.1914 -0.7786
  404TMC3    C1 6082   1.109   3.028  13.166 -0.3657  0.7268 -0.0527
  404TMC3    C2 6083   1.067   2.981  13.286  0.3982  1.0447  0.2471
  404TMC3    C3 6084   1.032   2.850  13.298  0.6040  0.2827 -0.2872
  404TMC3    C4 6085   1.086   2.958  13.054  0.1786 -0.1064 -0.0189
  404TMC3    C5 6086   1.043   2.824  13.062  0.9148 -0.2368 -0.2704
  404TMC3    C6 6087   1.035   2.766  13.185 -0.2105 -0.0845  0.0530
  404TMC3     C 6088   1.240   3.096  13.177 -0.3741 -0.0564  0.5404
  404TMC3     O 6089   1.244   3.184  13.262 -0.2280  0.3809  0.1131
  404TMC3     H 6090   1.092   3.034  13.377 -2.7177  1.5209  0.8487
  404TMC3    H1 6091   1.118   2.984  12.953  0.1583 -2.7010 -0.6904
  404TMC3    H2 6092   1.010   2.660  13.189 -3.1648  0.6292  0.5890
  404TMC3    C7 6093   1.111   2.757  12.951  0.1305  0.3476  0.4682
  404TMC3    C8 6094   1.108   2.786  13.400 -0.2210  0.5302 -0.8033
  404TMC3    O1 6095   1.227   2.783  12.936  0.4651 -0.3100  0.1698
  404TMC3    O2 6096   1.195   2.705  13.366  0.2624  0.2914  0.2411
  405MPD2     C 6097   1.356   4.039  14.478  1.1790  0.0408 -0.5671
  405MPD2    C1 6098   1.330   3.951  14.376 -0.3795 -0.0865  0.2198
  405MPD2    C2 6099   1.245   3.999  14.273 -0.1207 -0.0146 -0.0958
  405MPD2    C3 6100   1.179   4.118  14.285  0.4999  0.1639 -0.1536
  405MPD2    C4 6101   1.211   4.200  14.393  0.6141  0.4733 -0.0370
  405MPD2    C5 6102   1.297   4.160  14.488  0.1220  0.1470 -0.4340
  405MPD2     H 6103   1.207   3.931  14.197  1.2134 -1.1997  0.2963
  405MPD2    H1 6104   1.167   4.299  14.404  0.7505  0.4191  0.9893
  405MPD2    H2 6105   1.425   4.019  14.560  1.5366  2.5661 -0.2380
  405MPD2    H3 6106   1.325   4.227  14.569 -0.2484 -1.3558  0.9398
  405MPD2     N 6107   1.091   4.150  14.181  0.3282  0.5096 -0.1363
  405MPD2    H5 6108   1.064   4.074  14.119  0.7676  0.2923 -0.0615
  405MPD2    N1 6109   1.373   3.817  14.380 -0.1689 -0.0355  0.1645
  405MPD2    H7 6110   1.419   3.791  14.467 -1.9029  2.4031  1.8007
  406TMC3    C1 6111   0.662   4.230  14.064 -0.2437 -0.0395 -0.3998
  406TMC3    C2 6112   0.672   4.142  13.958 -0.5308 -0.4480  0.0764
  406TMC3    C3 6113   0.795   4.094  13.927  0.2729 -0.4252 -0.8186
  406TMC3    C4 6114   0.768   4.257  14.145  0.4607 -0.4301  0.3102
  406TMC3    C5 6115   0.892   4.227  14.103  0.3556  0.2793 -0.0725
  406TMC3    C6 6116   0.907   4.140  13.993 -0.4753  1.0249 -0.0363
  406TMC3     C 6117   0.531   4.238  14.119 -0.1712 -0.1303  0.0822
  406TMC3     O 6118   0.444   4.224  14.037  0.7058 -0.2958 -0.1521
  406TMC3     H 6119   0.591   4.098  13.902 -0.1383 -0.7242 -0.2764
  406TMC3    H1 6120   0.759   4.315  14.236  1.2233 -0.8424  0.6437
  406TMC3    H2 6121   1.002   4.122  13.943 -1.7825  0.4385 -2.2768
  406TMC3    C7 6122   1.003   4.254  14.195  0.0393  0.6104 -0.9515
  406TMC3    C8 6123   0.809   3.964  13.858 -0.9623  0.4416 -0.0109
  406TMC3    O1 6124   0.983   4.342  14.279 -0.3427  0.4530  0.2560
  406TMC3    O2 6125   0.713   3.906  13.807  0.5266 -0.1605 -0.1073
  407MPD2     C 6126   3.949   0.846   9.463 -0.6090 -0.4385  0.0933
  407MPD2    C1 6127   4.075   0.825   9.513  0.4796  0.2721  0.4411
  407MPD2    C2 6128   4.103   0.845   9.643  0.1824  0.1997 -0.0217
  407MPD2    C3 6129   4.004   0.872   9.735  0.2287 -0.5207 -0.1761
  407MPD2    C4 6130   3.880   0.901   9.687  0.7150 -0.0977 -0.6160
  407MPD2    C5 6131   3.851   0.883   9.556  0.6478  0.3912 -0.4665
  407MPD2     H 6132   4.203   0.825   9.680  0.9535 -0.7543 -2.6475
  407MPD2    H1 6133   3.809   0.949   9.753 -1.2100 -3.7537 -0.0700
  407MPD2    H2 6134   3.915   0.833   9.361  0.5333 -1.2702 -0.1814
  407MPD2    H3 6135   3.751   0.905   9.522  0.6906  0.5812 -0.4679
  407MPD2     N 6136   4.018   0.900   9.875  0.8395  0.2956 -0.6920
  407MPD2    H5 6137   3.943   0.949   9.924  1.8884  1.0460  0.1444
  407MPD2    N1 6138   4.182   0.795   9.429  0.7125  0.1197  0.2406
  407MPD2    H7 6139   4.278   0.792   9.464  0.2534 -0.7039  1.4239
  408TMC3    C1 6140   4.310   0.723   9.253 -0.1360 -0.0742  0.7981
  408TMC3    C2 6141   4.331   0.594   9.219 -0.0639 -0.4568  0.5658
  408TMC3    C3 6142   4.468   0.556   9.226 -0.6635  0.2553  0.4694
  408TMC3    C4 6143   4.407   0.812   9.294  0.6317 -0.7192 -0.4124
  408TMC3    C5 6144   4.535   0.773   9.281  0.5563  0.9095 -0.2461
  408TMC3    C6 6145   4.571   0.643   9.255 -0.0942  0.6454 -0.5922
  408TMC3     C 6146   4.178   0.749   9.303 -0.3502 -0.4348  1.1154
  408TMC3     O 6147   4.087   0.721   9.227  0.1062  0.3361 -0.1433
  408TMC3     H 6148   4.257   0.518   9.195 -1.3156  0.9124  0.0829
  408TMC3    H1 6149   4.381   0.914   9.323  2.5941  0.3762 -2.5436
  408TMC3    H2 6150   4.673   0.609   9.266 -0.3670 -0.5075 -1.6422
  408TMC3    C7 6151   4.632   0.858   9.348 -0.1423  0.5267 -0.3132
  408TMC3    C8 6152   4.490   0.414   9.243  0.0059 -0.1521 -0.3746
  408TMC3    O1 6153   4.594   0.949   9.423 -0.4708 -0.2972 -0.5440
  408TMC3    O2 6154   4.419   0.344   9.175  0.7133 -0.1376 -0.6302
  409MPD2     C 6155   2.963   1.237  16.902  0.0972  0.2583 -0.7002
  409MPD2    C1 6156   3.070   1.234  16.989  0.4365  0.3769 -0.3886
  409MPD2    C2 6157   3.185   1.312  16.979 -0.6344  0.5189  0.4598
  409MPD2    C3 6158   3.191   1.404  16.872  0.2676 -0.2164  0.6484
  409MPD2    C4 6159   3.075   1.411  16.786  0.2680  0.3044  0.2095
  409MPD2    C5 6160   2.968   1.324  16.794  0.0207  0.0293 -0.2826
  409MPD2     H 6161   3.263   1.304  17.054  0.4305  1.9292 -0.4960
  409MPD2    H1 6162   3.073   1.483  16.704  0.6364  2.0526  1.7178
  409MPD2    H2 6163   2.878   1.169  16.900 -0.5379  1.0097  0.5099
  409MPD2    H3 6164   2.889   1.334  16.721 -0.1120  1.3981  0.0508
  409MPD2     N 6165   3.293   1.499  16.849 -0.2562 -0.6037 -0.0617
  409MPD2    H5 6166   3.296   1.551  16.762  1.6434 -1.6008 -0.5962
  409MPD2    N1 6167   3.062   1.158  17.110 -0.1668  0.0012 -0.2902
  409MPD2    H7 6168   3.141   1.162  17.173 -0.2668  1.0450 -0.2348
  410TMC3    C1 6169   3.505   1.598  16.884 -0.3443  0.3963 -0.0855
  410TMC3    C2 6170   3.626   1.574  16.934  0.0511  0.2304  0.0767
  410TMC3    C3 6171   3.735   1.654  16.883 -0.3421  0.6259 -0.1382
  410TMC3    C4 6172   3.482   1.691  16.789 -0.0545  0.4571 -0.5801
  410TMC3    C5 6173   3.582   1.772  16.745 -0.0944 -0.4133  0.7645
  410TMC3    C6 6174   3.712   1.754  16.789  0.8730 -0.1720  1.0570
  410TMC3     C 6175   3.395   1.520  16.939 -0.2677  0.0566 -0.3928
  410TMC3     O 6176   3.407   1.475  17.054 -0.3379  0.0687  0.2103
  410TMC3     H 6177   3.638   1.500  17.012 -2.5226  1.5257  1.7101
  410TMC3    H1 6178   3.384   1.710  16.748 -0.0891  2.4507  0.4157
  410TMC3    H2 6179   3.790   1.819  16.750 -0.1252  0.8305  0.7226
  410TMC3    C7 6180   3.569   1.816  16.601  0.2486  0.2692  0.5381
  410TMC3    C8 6181   3.855   1.658  16.962  0.3046  1.2117 -0.1892
  410TMC3    O1 6182   3.501   1.737  16.540 -0.0723 -0.2013 -0.6784
  410TMC3    O2 6183   3.927   1.756  16.951  0.1856  0.0386 -0.0805
  411MPD2     C 6184   3.636   1.592  14.695  0.3744 -0.6136  0.4930
  411MPD2    C1 6185   3.518   1.657  14.725 -0.0026  0.2917  0.5904
  411MPD2    C2 6186   3.403   1.583  14.723 -0.5514 -1.1578 -0.9316
  411MPD2    C3 6187   3.408   1.442  14.713  0.1235  0.1222 -0.4829
  411MPD2    C4 6188   3.531   1.378  14.688 -0.2906 -0.4862  0.3476
  411MPD2    C5 6189   3.640   1.457  14.682  0.5529  0.5002  0.5274
  411MPD2     H 6190   3.312   1.642  14.730  0.5437  0.5740 -1.4066
  411MPD2    H1 6191   3.532   1.274  14.657 -0.7788  0.0927 -1.6622
  411MPD2    H2 6192   3.731   1.635  14.666  0.8411 -1.3026  1.0297
  411MPD2    H3 6193   3.735   1.423  14.640  1.5693  2.4980  1.1705
  411MPD2     N 6194   3.290   1.363  14.694  0.1100  0.1691  0.1464
  411MPD2    H5 6195   3.306   1.273  14.650 -1.4328  0.6575 -1.4074
  411MPD2    N1 6196   3.514   1.791  14.725 -0.4695 -0.0382 -0.7813
  411MPD2    H7 6197   3.423   1.834  14.711 -0.1849 -0.0433 -2.5660
  412TMC3    C1 6198   3.059   1.327  14.689 -0.2981 -0.9193  0.2957
  412TMC3    C2 6199   2.927   1.372  14.721 -0.2639 -0.5855 -0.9150
  412TMC3    C3 6200   2.820   1.372  14.631 -0.1871  0.5619 -0.3775
  412TMC3    C4 6201   3.069   1.276  14.560  0.4039 -0.8565 -0.5700
  412TMC3    C5 6202   2.962   1.260  14.481 -0.1164  0.0802  1.5109
  412TMC3    C6 6203   2.831   1.295  14.516  0.6671 -0.1002 -0.6463
  412TMC3     C 6204   3.167   1.409  14.724 -0.1153  0.2676 -0.0006
  412TMC3     O 6205   3.138   1.499  14.795  0.0678 -0.1292 -0.6293
  412TMC3     H 6206   2.909   1.448  14.796 -0.0461 -0.4082 -1.0409
  412TMC3    H1 6207   3.163   1.241  14.517  0.6449  0.6436 -1.2776
  412TMC3    H2 6208   2.753   1.286  14.442 -0.2141  0.1750  0.2509
  412TMC3    C7 6209   2.985   1.259  14.341 -0.8619 -0.0287 -0.6149
  412TMC3    C8 6210   2.751   1.494  14.609 -0.5558 -0.5161 -0.1476
  412TMC3    O1 6211   2.912   1.332  14.274  0.3492 -0.4780  0.3271
  412TMC3    O2 6212   2.715   1.553  14.710 -0.3189  0.9283  0.1770
  413MPD2     C 6213   0.871   0.282  15.571 -0.2863 -0.2811 -0.0635
  413MPD2    C1 6214   0.843   0.301  15.437 -0.1181 -0.4445  0.5218
  413MPD2    C2 6215   0.926   0.250  15.343  0.0370 -0.2648 -0.6337
  413MPD2    C3 6216   1.038   0.179  15.384  0.3415 -0.2148  0.2765
  413MPD2    C4 6217   1.072   0.159  15.515  0.1136  0.0751  0.3613
  413MPD2    C5 6218   0.991   0.216  15.609  0.4264 -0.0848 -0.6728
  413MPD2     H 6219   0.915   0.274  15.237  1.0766  1.5590 -0.3184
  413MPD2    H1 6220   1.158   0.099  15.541  0.7333  1.2971  1.1323
  413MPD2    H2 6221   0.796   0.322  15.638  0.3544  1.6624 -0.5013
  413MPD2    H3 6222   1.011   0.194  15.713  0.5187  0.3294 -0.6041
  413MPD2     N 6223   1.111   0.114  15.282  0.2523  1.2473  0.3019
  413MPD2    H5 6224   1.092   0.143  15.187  2.4415 -0.6378 -0.6846
  413MPD2    N1 6225   0.728   0.372  15.409 -0.1992 -0.1451 -0.9500
  413MPD2    H7 6226   0.681   0.409  15.491 -0.3136 -1.8255 -0.2503
  414TMC3    C1 6227   1.276   0.015  15.168  0.1070  0.3920  0.5578
  414TMC3    C2 6228   1.313   4.620  15.142 -0.1150 -0.5340 -0.2990
  414TMC3    C3 6229   1.385   4.598  15.029 -0.6135  0.1234 -0.5141
  414TMC3    C4 6230   1.328   0.123  15.101  0.5562 -0.4190  0.3113
  414TMC3    C5 6231   1.402   0.091  14.996  0.7509 -0.0057  0.1251
  414TMC3    C6 6232   1.422   4.698  14.944  0.4646 -0.4583 -0.2545
  414TMC3     C 6233   1.223   0.039  15.301 -0.0137 -0.1569 -0.0456
  414TMC3     O 6234   1.280   4.720  15.394  0.0943 -0.0603  0.7469
  414TMC3     H 6235   1.268   4.538  15.197  0.0166 -0.3982  0.0068
  414TMC3    H1 6236   1.308   0.224  15.133 -1.1340 -0.4480 -0.6197
  414TMC3    H2 6237   1.489   4.685  14.860 -0.3127 -0.4973 -0.8595
  414TMC3    C7 6238   1.451   0.207  14.929 -0.9136 -0.4282  0.5612
  414TMC3    C8 6239   1.395   4.461  14.985  1.1264  0.6978  0.8536
  414TMC3    O1 6240   1.479   0.299  15.004  0.1578  0.0449 -0.0916
  414TMC3    O2 6241   1.314   4.383  15.031  0.0612  0.1080  0.1993
  415TMC3    C1 6242   1.438   2.475  10.175 -0.1916  0.2607  0.2408
  415TMC3    C2 6243   1.557   2.506  10.117 -0.0552  0.1436 -0.4869
  415TMC3    C3 6244   1.570   2.504   9.987  0.0767  0.6131 -0.1307
  415TMC3    C4 6245   1.337   2.420  10.102  0.1889  0.3809 -0.4447
  415TMC3    C5 6246   1.362   2.405   9.970 -0.0826  0.0717 -0.1319
  415TMC3    C6 6247   1.474   2.447   9.903 -0.4927 -0.0883  0.5918
  415TMC3     C 6248   1.430   2.436  10.316  0.3187  0.0865  0.3039
  415TMC3     O 6249   1.326   2.393  10.362  0.0074  0.0424 -0.7581
  415TMC3     H 6250   1.637   2.558  10.169 -0.7437  0.3240  0.3960
  415TMC3    H1 6251   1.249   2.382  10.153  0.8158 -2.0342 -1.1756
  415TMC3    H2 6252   1.484   2.442   9.795  0.9223 -0.4259  0.7415
  415TMC3    C7 6253   1.265   2.327   9.894  0.3493 -0.2133 -0.3938
  415TMC3    C8 6254   1.703   2.510   9.923  0.2672 -0.4665  0.1868
  415TMC3    O1 6255   1.255   2.354   9.775 -0.0392  0.0301 -0.4093
  415TMC3    O2 6256   1.720   2.448   9.822 -0.0292  0.0689 -0.3792
  416MPD2     C 6257   2.545   1.466  12.071 -0.6470 -0.3762  0.1380
  416MPD2    C1 6258   2.537   1.530  11.948  0.0173  0.2168 -0.3492
  416MPD2    C2 6259   2.588   1.467  11.832 -0.0439  0.3348 -0.1675
  416MPD2    C3 6260   2.637   1.334  11.844 -0.2770  0.1218  0.6159
  416MPD2    C4 6261   2.632   1.277  11.966  0.3962  0.6378 -0.1166
  416MPD2    C5 6262   2.577   1.335  12.075  0.3293  1.1279 -0.3981
  416MPD2     H 6263   2.590   1.519  11.736 -1.9302  3.0346  1.2542
  416MPD2    H1 6264   2.646   1.170  11.973  0.8290  0.8504  2.2364
  416MPD2    H2 6265   2.515   1.504  12.168  0.9220 -0.9123  0.8290
  416MPD2    H3 6266   2.580   1.278  12.167  1.7861  1.0079 -0.5237
  416MPD2     N 6267   2.687   1.255  11.739 -0.1382  0.2203  0.0786
  416MPD2    H5 6268   2.704   1.156  11.750  0.5197  0.3411  0.1540
  416MPD2    N1 6269   2.496   1.661  11.948  0.2910  0.2264 -0.3313
  416MPD2    H7 6270   2.486   1.708  12.037  0.6141 -2.2431  1.0046
  417TMC3    C1 6271   2.481   1.876  11.859  0.5031 -0.4260 -0.1169
  417TMC3    C2 6272   2.595   1.911  11.934  0.4161 -0.5483  0.4518
  417TMC3    C3 6273   2.657   2.028  11.895 -0.3415 -0.1607  0.2133
  417TMC3    C4 6274   2.448   1.943  11.747  0.6557  0.2513 -0.2533
  417TMC3    C5 6275   2.528   2.054  11.703 -0.2365  0.0134  0.4422
  417TMC3    C6 6276   2.626   2.101  11.783 -0.6378  0.0649 -0.3051
  417TMC3     C 6277   2.457   1.734  11.836  0.1757  0.1544  0.0350
  417TMC3     O 6278   2.439   1.692  11.724 -0.0586  0.1492 -0.9593
  417TMC3     H 6279   2.624   1.863  12.026  0.6023  0.4849  0.9275
  417TMC3    H1 6280   2.360   1.903  11.700  1.4529  0.6098 -2.0362
  417TMC3    H2 6281   2.689   2.186  11.757  2.9057 -2.2518  0.7563
  417TMC3    C7 6282   2.510   2.118  11.578 -0.4225  0.2159  0.9056
  417TMC3    C8 6283   2.767   2.069  11.989  0.2815  0.9756 -1.0127
  417TMC3    O1 6284   2.580   2.214  11.558  0.7509  0.6754  0.7665
  417TMC3    O2 6285   2.773   2.186  12.012  0.1848  0.3005 -0.5250
  418TMC3    C1 6286   2.166   4.292   0.507 -0.4879 -0.3944  0.6341
  418TMC3    C2 6287   2.103   4.402   0.551 -0.8110 -0.0750 -0.1600
  418TMC3    C3 6288   2.016   4.403   0.657  0.4106 -0.0567  0.4682
  418TMC3    C4 6289   2.156   4.181   0.582  0.9223 -0.0883  0.4828
  418TMC3    C5 6290   2.078   4.185   0.698 -0.4156  0.3518 -0.2065
  418TMC3    C6 6291   2.006   4.291   0.733  0.7657  1.0142 -0.5083
  418TMC3     C 6292   2.182   4.282   0.362 -0.0207 -0.2439 -0.3915
  418TMC3     O 6293   2.244   4.372   0.302 -0.1762 -0.1214 -0.2887
  418TMC3     H 6294   2.096   4.484   0.481  1.9422  0.7186  0.4753
  418TMC3    H1 6295   2.192   4.088   0.541  0.3964  0.3231 -0.9061
  418TMC3    H2 6296   1.936   4.290   0.816  1.6717  1.9214  0.2664
  418TMC3    C7 6297   2.026   4.067   0.758  0.4064 -0.4591  0.1839
  418TMC3    C8 6298   1.886   4.462   0.629  0.2833 -0.1368  0.5773
  418TMC3    O1 6299   1.916   4.067   0.815 -0.6891  0.1751  0.3820
  418TMC3    O2 6300   1.880   4.568   0.572 -0.0965 -0.6406 -0.2673
  419MPD2     C 6301   0.599   1.164  12.408  0.1415 -0.0548  0.3437
  419MPD2    C1 6302   0.486   1.240  12.392  0.2156  0.2034 -0.6565
  419MPD2    C2 6303   0.439   1.310  12.501  1.1744 -0.0405 -0.4256
  419MPD2    C3 6304   0.489   1.296  12.626  0.3404  1.1484  0.5554
  419MPD2    C4 6305   0.599   1.216  12.642 -0.0130 -0.0866 -0.2265
  419MPD2    C5 6306   0.653   1.150  12.531 -0.3944 -0.3039 -0.1734
  419MPD2     H 6307   0.347   1.366  12.491 -0.0479 -1.7045  1.5221
  419MPD2    H1 6308   0.657   1.215  12.733  0.3191  0.2350 -0.4304
  419MPD2    H2 6309   0.651   1.102  12.336  1.5586 -1.1726  2.3513
  419MPD2    H3 6310   0.749   1.101  12.541  0.0313  0.4950 -0.3171
  419MPD2     N 6311   0.445   1.382  12.725  0.0290  0.4498 -0.5150
  419MPD2    H5 6312   0.381   1.453  12.692 -2.2932 -1.0655  0.7160
  419MPD2    N1 6313   0.422   1.253  12.269 -0.0764 -0.2203  0.2072
  419MPD2    H7 6314   0.353   1.327  12.259  0.1417  0.1919  1.7855
  420TMC3    C1 6315   0.439   1.507  12.914  0.9793 -0.2333 -0.8180
  420TMC3    C2 6316   0.335   1.569  12.851 -0.9452  0.4741  0.3986
  420TMC3    C3 6317   0.306   1.697  12.899 -0.1915 -0.1913  0.2031
  420TMC3    C4 6318   0.513   1.556  13.021 -0.3136  0.5711  0.1275
  420TMC3    C5 6319   0.479   1.680  13.061  0.8935 -0.1147 -0.3578
  420TMC3    C6 6320   0.369   1.748  13.005  0.1924 -0.5034 -0.0478
  420TMC3     C 6321   0.496   1.392  12.854 -0.1749  0.7724 -0.1121
  420TMC3     O 6322   0.589   1.329  12.905 -0.5716 -0.0710  0.3587
  420TMC3     H 6323   0.267   1.525  12.779  0.5551 -2.2319  0.6661
  420TMC3    H1 6324   0.600   1.501  13.057 -0.0717  0.7950 -0.1113
  420TMC3    H2 6325   0.342   1.846  13.044 -0.9959  0.3437 -3.0057
  420TMC3    C7 6326   0.521   1.717  13.189 -0.3219 -0.1434  0.2707
  420TMC3    C8 6327   0.199   1.769  12.829 -0.1136  0.1291  0.3582
  420TMC3    O1 6328   0.636   1.693  13.218  0.8492 -0.3663  0.5555
  420TMC3    O2 6329   0.117   1.706  12.769  0.2628  0.5018 -1.0724
  421TMC3    C1 6330   1.819   3.065  13.603  0.4115 -0.2358 -0.5692
  421TMC3    C2 6331   1.757   3.174  13.665 -0.9733 -0.0402 -0.3165
  421TMC3    C3 6332   1.794   3.189  13.798  0.5899  0.2393 -0.4727
  421TMC3    C4 6333   1.881   2.968  13.680 -0.4828  1.1200  0.3948
  421TMC3    C5 6334   1.877   2.975  13.818 -0.3226  0.4527 -0.3816
  421TMC3    C6 6335   1.833   3.090  13.878  0.3200 -0.0790  0.3254
  421TMC3     C 6336   1.821   3.047  13.462 -0.2560  1.0241  0.4891
  421TMC3     O 6337   1.892   2.967  13.417  0.5293  0.3869 -0.3019
  421TMC3     H 6338   1.721   3.252  13.600 -1.5525 -0.0584 -0.0198
  421TMC3    H1 6339   1.918   2.875  13.639 -0.0274  1.1214  0.7941
  421TMC3    H2 6340   1.849   3.095  13.985 -1.5021 -2.4682  0.7067
  421TMC3    C7 6341   1.980   2.901  13.886  0.9100  0.1589 -0.1498
  421TMC3    C8 6342   1.761   3.324  13.856 -0.4752  0.0508  0.0526
  421TMC3    O1 6343   2.034   2.951  13.986  0.0256  0.5742 -0.3110
  421TMC3    O2 6344   1.751   3.424  13.787 -0.0132 -0.5330  0.3939
  422TMC3    C1 6345   3.838   4.695  12.572  0.4288 -0.2638 -0.2856
  422TMC3    C2 6346   3.887   0.034  12.673  0.1154  0.1692 -0.5189
  422TMC3    C3 6347   3.839   4.734  12.799 -0.0806 -0.0186  0.7772
  422TMC3    C4 6348   3.756   4.589  12.587  0.0440  0.2957  0.7348
  422TMC3    C5 6349   3.719   4.552  12.715  0.7838  0.2049 -0.0254
  422TMC3    C6 6350   3.761   4.627  12.820  0.2628 -0.8958  0.0851
  422TMC3     C 6351   3.839   0.005  12.434  0.3815 -0.3756  0.3189
  422TMC3     O 6352   3.738   4.726  12.362  0.5122  0.1053  0.5247
  422TMC3     H 6353   3.943   0.127  12.665 -0.4813  0.4171 -1.7948
  422TMC3    H1 6354   3.708   4.544  12.501 -0.0349 -2.0114  1.9643
  422TMC3    H2 6355   3.764   4.590  12.922 -1.2074 -0.7149  0.1964
  422TMC3    C7 6356   3.642   4.426  12.723  0.2271  0.5321 -0.4765
  422TMC3    C8 6357   3.860   0.087  12.913 -0.0449  0.5943  0.2382
  422TMC3    O1 6358   3.656   4.354  12.623 -0.0971  0.2575  0.3593
  422TMC3    O2 6359   3.972   0.142  12.927  0.7809  0.2531  0.4214
  423MPD2     C 6360   0.604   1.656   0.472 -0.5739 -0.0768 -0.1120
  423MPD2    C1 6361   0.635   1.532   0.515 -0.0941 -0.3893  0.0096
  423MPD2    C2 6362   0.605   1.427   0.424 -0.2506 -0.4839  0.4084
  423MPD2    C3 6363   0.558   1.451   0.295  0.1799 -0.5900 -0.3416
  423MPD2    C4 6364   0.531   1.578   0.260  0.0117 -0.3595 -0.4251
  423MPD2    C5 6365   0.557   1.676   0.346 -0.1754  0.5581 -0.1721
  423MPD2     H 6366   0.612   1.322   0.451 -1.8378 -0.9106 -0.8514
  423MPD2    H1 6367   0.505   1.602   0.158  1.8136 -0.3153 -0.8735
  423MPD2    H2 6368   0.618   1.741   0.537 -0.0203  0.5270 -1.0166
  423MPD2    H3 6369   0.542   1.776   0.306 -3.1325  1.0550  2.1338
  423MPD2     N 6370   0.530   1.356   0.197 -0.3217  0.2341  0.0738
  423MPD2    H5 6371   0.482   1.391   0.114 -0.4873  1.0224  0.5027
  423MPD2    N1 6372   0.690   1.498   0.643  0.2886  0.1866 -0.7506
  423MPD2    H7 6373   0.710   1.400   0.657  1.0043  0.3552 -0.5682
  424TMC3    C1 6374   0.711   1.486   0.868 -0.2645  0.1417  0.3039
  424TMC3    C2 6375   0.815   1.394   0.850  0.5546 -0.0018 -0.2591
  424TMC3    C3 6376   0.835   1.315   0.960 -0.3815 -0.2952  0.5683
  424TMC3    C4 6377   0.625   1.495   0.971 -1.0083 -1.0019 -0.0399
  424TMC3    C5 6378   0.643   1.401   1.068 -0.4858  0.0213  0.0386
  424TMC3    C6 6379   0.748   1.312   1.066 -0.0212  0.4650  0.3990
  424TMC3     C 6380   0.683   1.570   0.757 -0.2596 -0.1444  0.0926
  424TMC3     O 6381   0.645   1.684   0.772  0.1170 -0.2755  0.3330
  424TMC3     H 6382   0.881   1.401   0.765 -0.6765 -1.2383 -1.3120
  424TMC3    H1 6383   0.563   1.583   0.985 -0.1105 -0.5012  0.7988
  424TMC3    H2 6384   0.759   1.252   1.156 -2.2305  0.3787  0.6021
  424TMC3    C7 6385   0.554   1.416   1.183  0.2232  0.1366 -0.3546
  424TMC3    C8 6386   0.947   1.225   0.968  0.4250  0.0812 -0.3174
  424TMC3    O1 6387   0.595   1.393   1.297 -0.0686 -0.0393  0.0593
  424TMC3    O2 6388   0.956   1.161   1.075  0.0539  0.1783  0.5383
  425MPD2     C 6389   4.054   0.205  17.237  0.4044 -0.7423 -0.4627
  425MPD2    C1 6390   3.962   0.109  17.265  0.4461  0.0125  0.5124
  425MPD2    C2 6391   3.837   0.139  17.323  0.1626  0.0151  0.5664
  425MPD2    C3 6392   3.819   0.257  17.382  1.1749  0.1642 -0.2920
  425MPD2    C4 6393   3.933   0.339  17.393  0.0938  0.9325  0.6656
  425MPD2    C5 6394   4.039   0.319  17.312 -0.4432  0.0150  0.1203
  425MPD2     H 6395   3.755   0.069  17.320  0.6402 -0.5098 -0.6364
  425MPD2    H1 6396   3.918   0.440  17.429 -1.2251  0.9324  0.1046
  425MPD2    H2 6397   4.143   0.186  17.180  1.5469  1.3137  0.6475
  425MPD2    H3 6398   4.109   0.401  17.307 -0.9214  0.3322 -1.3171
  425MPD2     N 6399   3.698   0.283  17.437  0.3230  0.2320  0.2108
  425MPD2    H5 6400   3.630   0.208  17.427  1.4867 -1.0702  2.1731
  425MPD2    N1 6401   3.995   4.712  17.219 -0.2247  0.4836  0.0161
  425MPD2    H7 6402   4.075   4.710  17.156  0.5989  2.7900  0.9569
  426TMC3    C1 6403   3.988   4.477  17.207 -0.3134  0.7623  0.4005
  426TMC3    C2 6404   4.079   4.472  17.101  0.4734  0.2809  0.3172
  426TMC3    C3 6405   4.130   4.345  17.077 -0.0557 -0.1147 -0.0353
  426TMC3    C4 6406   3.950   4.365  17.272 -0.0257  0.3777 -0.7136
  426TMC3    C5 6407   4.002   4.248  17.243 -1.1694 -0.2785 -0.1385
  426TMC3    C6 6408   4.093   4.235  17.142  0.2124 -0.1857 -0.0187
  426TMC3     C 6409   3.922   4.602  17.251 -0.4545 -0.0529 -0.5723
  426TMC3     O 6410   3.821   4.594  17.320 -0.0894  0.1049 -0.1751
  426TMC3     H 6411   4.101   4.554  17.033  0.3882  0.0023 -0.0491
  426TMC3    H1 6412   3.858   4.368  17.330  0.4153  0.4650 -0.0216
  426TMC3    H2 6413   4.133   4.136  17.122  1.5626  0.5775 -1.0821
  426TMC3    C7 6414   3.975   4.135  17.326 -0.0098  0.0111 -0.3391
  426TMC3    C8 6415   4.211   4.313  16.961 -0.2405 -1.0702 -0.0225
  426TMC3    O1 6416   4.000   4.030  17.274  0.2988 -0.5068 -0.0664
  426TMC3    O2 6417   4.228   4.197  16.933  0.1854  0.1610  0.0269
  427MPD2     C 6418   2.842   2.121  14.784 -0.0709 -0.1272 -0.6979
  427MPD2    C1 6419   2.826   2.176  14.917 -0.1473 -0.1535  0.1857
  427MPD2    C2 6420   2.714   2.254  14.933 -0.1628 -0.0773 -0.2992
  427MPD2    C3 6421   2.624   2.283  14.834 -0.2781 -0.0796 -0.6597
  427MPD2    C4 6422   2.637   2.225  14.714  0.0335  0.3476 -0.3001
  427MPD2    C5 6423   2.748   2.154  14.685  0.0764 -0.2146  0.1396
  427MPD2     H 6424   2.699   2.297  15.032  2.8030  0.7402 -0.2104
  427MPD2    H1 6425   2.561   2.236  14.638  1.7554  0.9585 -1.9398
  427MPD2    H2 6426   2.924   2.053  14.761  0.2989 -0.1941  0.8018
  427MPD2    H3 6427   2.754   2.104  14.590  2.5778 -1.8372  1.1530
  427MPD2     N 6428   2.508   2.361  14.849  0.8219 -0.3990 -0.0796
  427MPD2    H5 6429   2.441   2.365  14.774  0.2687  1.5439  0.4984
  427MPD2    N1 6430   2.893   2.134  15.032 -0.3859 -0.0028 -0.1434
  427MPD2    H7 6431   2.854   2.156  15.123 -0.7000  0.0091 -0.2824
  428TMC3    C1 6432   3.037   2.012  15.174  0.0899  0.2205  0.6678
  428TMC3    C2 6433   2.935   1.989  15.263  0.3286 -0.6620 -0.2835
  428TMC3    C3 6434   2.964   1.917  15.376  0.1459  0.0022 -0.3979
  428TMC3    C4 6435   3.159   1.961  15.201 -0.2953  0.1276  0.2065
  428TMC3    C5 6436   3.187   1.890  15.316  0.4288 -0.2190 -0.1942
  428TMC3    C6 6437   3.087   1.877  15.412 -0.0166  0.1101 -0.3359
  428TMC3     C 6438   3.008   2.063  15.038 -0.3505  0.3579 -0.2198
  428TMC3     O 6439   3.092   2.047  14.949  0.2388 -1.1990  0.2037
  428TMC3     H 6440   2.831   2.005  15.237  0.2979  1.6799  1.2961
  428TMC3    H1 6441   3.246   1.974  15.138  0.8863  2.1048  2.2577
  428TMC3    H2 6442   3.107   1.840  15.512  0.2477 -0.2919 -0.5385
  428TMC3    C7 6443   3.320   1.903  15.371 -0.8845  0.1094 -0.0587
  428TMC3    C8 6444   2.862   1.922  15.482  0.3175 -0.5509  0.0714
  428TMC3    O1 6445   3.311   1.933  15.489  0.3162  0.5223 -0.4337
  428TMC3    O2 6446   2.794   2.021  15.508  0.5788  0.0741 -0.6861
  429MPD2     C 6447   3.474   2.310  17.548 -0.6135  0.1409  0.5989
  429MPD2    C1 6448   3.557   2.227  17.478 -0.0816 -0.0492  0.5549
  429MPD2    C2 6449   3.659   2.291  17.405 -0.4229  0.3184 -0.1183
  429MPD2    C3 6450   3.688   2.425  17.413  1.1283 -0.9603  0.1021
  429MPD2    C4 6451   3.607   2.500  17.491 -0.2479  0.9059  1.2320
  429MPD2    C5 6452   3.505   2.440  17.555  0.5690 -0.3928  0.2853
  429MPD2     H 6453   3.718   2.231  17.337  0.2639 -0.3217  1.0436
  429MPD2    H1 6454   3.610   2.608  17.494 -1.0819  1.0810 -3.4026
  429MPD2    H2 6455   3.386   2.269  17.596 -1.8304  0.5615 -1.2758
  429MPD2    H3 6456   3.440   2.502  17.616 -2.5209 -1.5487 -1.7889
  429MPD2     N 6457   3.796   2.481  17.339 -0.3152 -0.2893 -0.8584
  429MPD2    H5 6458   3.844   2.424  17.270  0.3662  1.6122 -1.9451
  429MPD2    N1 6459   3.553   2.088  17.468 -0.3053  0.2573 -0.0749
  429MPD2    H7 6460   3.631   2.046  17.418 -0.2390  1.2850 -0.8369
  430TMC3    C1 6461   3.951   2.634  17.247 -0.7926 -0.5108  0.2569
  430TMC3    C2 6462   3.960   2.747  17.169  0.0950 -0.4950  0.4919
  430TMC3    C3 6463   4.068   2.763  17.084  0.0927  0.2412 -0.3956
  430TMC3    C4 6464   4.041   2.531  17.237 -0.6629 -0.5663  0.0944
  430TMC3    C5 6465   4.139   2.543  17.144  0.4393 -0.1855 -0.2624
  430TMC3    C6 6466   4.155   2.651  17.068 -0.2555 -0.6508  0.6783
  430TMC3     C 6467   3.833   2.613  17.333  0.3818 -0.4367 -0.1768
  430TMC3     O 6468   3.771   2.715  17.367  0.0014 -0.9139  0.0850
  430TMC3     H 6469   3.887   2.825  17.184 -0.9627 -1.3426 -0.2797
  430TMC3    H1 6470   4.033   2.441  17.296  0.6981 -0.7088  0.0606
  430TMC3    H2 6471   4.238   2.643  16.998 -0.3159 -0.6492  0.6074
  430TMC3    C7 6472   4.134   2.425  17.067  0.1626  0.5889  0.1676
  430TMC3    C8 6473   4.047   2.821  16.950 -0.0689 -0.2111  0.6229
  430TMC3    O1 6474   4.133   2.315  17.128  0.3061 -0.8817  0.1969
  430TMC3    O2 6475   4.085   2.750  16.860  0.8772 -0.2887  0.4398
  431MPD2     C 6476   0.133   1.979  12.339  0.4797 -0.0313 -0.8445
  431MPD2    C1 6477   0.234   1.980  12.241 -0.4737 -0.2722  0.5202
  431MPD2    C2 6478   0.252   1.866  12.167 -0.0960  0.0522  0.2519
  431MPD2    C3 6479   0.174   1.748  12.187 -0.5853 -0.6081 -0.3747
  431MPD2    C4 6480   0.074   1.750  12.283 -0.5846  0.0755  1.4112
  431MPD2    C5 6481   0.061   1.865  12.359  0.5009 -0.8073 -0.2559
  431MPD2     H 6482   0.326   1.863  12.088  0.6071  4.3818  0.7366
  431MPD2    H1 6483   0.007   1.667  12.302 -0.4276 -0.3939 -0.0756
  431MPD2    H2 6484   0.107   2.064  12.400 -1.0295 -0.7706 -0.4441
  431MPD2    H3 6485   4.721   1.867  12.437  0.2997 -1.9298 -0.4129
  431MPD2     N 6486   0.209   1.622  12.130  0.2877 -0.0003  0.3198
  431MPD2    H5 6487   0.161   1.545  12.175  2.0413 -1.7498 -0.8242
  431MPD2    N1 6488   0.328   2.088  12.241 -0.4665  0.4196 -0.0101
  431MPD2    H7 6489   0.397   2.093  12.167 -0.3600  0.2296  0.0756
  432TMC3    C1 6490   0.329   1.458  11.988 -0.0555  0.1667 -0.4272
  432TMC3    C2 6491   0.414   1.450  11.879 -0.2596 -0.4554  0.1610
  432TMC3    C3 6492   0.465   1.324  11.850 -0.2664 -0.6489 -0.3536
  432TMC3    C4 6493   0.308   1.348  12.065 -1.3903  0.0674  0.6181
  432TMC3    C5 6494   0.380   1.231  12.044 -0.2794  0.6606 -0.0399
  432TMC3    C6 6495   0.451   1.212  11.931  0.5992  0.1787 -0.3733
  432TMC3     C 6496   0.293   1.598  12.021  0.8177  0.1613 -0.1940
  432TMC3     O 6497   0.343   1.682  11.942  0.0189  0.4904 -0.0199
  432TMC3     H 6498   0.415   1.529  11.805 -2.2102  0.2549  0.8992
  432TMC3    H1 6499   0.227   1.356  12.137 -1.2287  0.4894  0.7547
  432TMC3    H2 6500   0.521   1.131  11.915 -0.8678 -1.6429  2.6081
  432TMC3    C7 6501   0.448   1.179  12.158 -0.5919  0.6259 -0.3585
  432TMC3    C8 6502   0.576   1.327  11.762  0.0157  0.7395  0.5379
  432TMC3    O1 6503   0.519   1.081  12.140  0.2812 -0.1646 -0.2485
  432TMC3    O2 6504   0.601   1.239  11.688 -0.8731  0.4245 -0.5235
  433MPD2     C 6505   3.846   0.234  10.398  0.1985  0.1068 -0.2672
  433MPD2    C1 6506   3.952   0.195  10.477 -1.1266  0.0060  0.1873
  433MPD2    C2 6507   4.001   0.277  10.576 -0.4408  0.1991  0.4349
  433MPD2    C3 6508   3.953   0.399  10.593  0.5156  0.0866  0.1067
  433MPD2    C4 6509   3.851   0.444  10.515  0.6630  0.4035  0.6694
  433MPD2    C5 6510   3.796   0.359  10.424  0.4528 -0.2009  1.0097
  433MPD2     H 6511   4.071   0.245  10.651  0.8865 -0.6471 -1.1556
  433MPD2    H1 6512   3.808   0.543  10.522 -1.5786 -0.6894  2.3222
  433MPD2    H2 6513   3.802   0.172  10.321  0.8666 -0.3377 -0.2916
  433MPD2    H3 6514   3.725   0.394  10.349  0.0306 -0.8716  1.0932
  433MPD2     N 6515   4.002   0.473  10.701 -0.1922 -0.4050  0.0005
  433MPD2    H5 6516   4.084   0.437  10.749 -0.5946  0.0413  1.0339
  433MPD2    N1 6517   3.988   0.056  10.472 -0.5494 -0.6773  0.2366
  433MPD2    H7 6518   3.949   0.008  10.392 -1.1648  0.5947 -0.2304
  434TMC3    C1 6519   4.072   4.577  10.557  0.1673  0.1981 -0.6269
  434TMC3    C2 6520   4.166   4.526  10.638  0.5770 -0.2645 -0.0638
  434TMC3    C3 6521   4.149   4.403  10.693  0.3111  0.0985  0.3510
  434TMC3    C4 6522   3.955   4.511  10.525  0.1102 -0.7400 -1.0516
  434TMC3    C5 6523   3.955   4.381  10.571 -0.5231  0.1356 -0.0652
  434TMC3    C6 6524   4.047   4.325  10.654 -0.1526  0.3862 -0.3747
  434TMC3     C 6525   4.059   4.724  10.570  0.2223  0.1691 -0.1910
  434TMC3     O 6526   4.097   0.025  10.681 -0.3036 -0.5176 -0.4577
  434TMC3     H 6527   4.249   4.577  10.687  0.9022 -1.3941  0.5577
  434TMC3    H1 6528   3.879   4.562  10.466  2.4402  2.1829 -1.5604
  434TMC3    H2 6529   4.038   4.225  10.693  1.1416  0.5113  0.2569
  434TMC3    C7 6530   3.849   4.294  10.507  0.4103 -0.4179 -0.6765
  434TMC3    C8 6531   4.235   4.371  10.813  0.0311 -0.0621  0.0392
  434TMC3    O1 6532   3.755   4.345  10.451 -0.2672 -0.1258  0.1502
  434TMC3    O2 6533   4.351   4.406  10.804 -0.7003  0.5892  0.3853
  435MPD2     C 6534   1.201   1.437  15.502 -0.2993 -0.0046 -0.4386
  435MPD2    C1 6535   1.157   1.435  15.636  0.4350 -0.5344 -0.2080
  435MPD2    C2 6536   1.216   1.355  15.731 -0.2675  0.2896  0.5418
  435MPD2    C3 6537   1.323   1.279  15.689 -0.1932 -0.0429 -0.6614
  435MPD2    C4 6538   1.360   1.269  15.555  0.3062  0.0450 -0.7155
  435MPD2    C5 6539   1.305   1.358  15.466 -0.4147  0.6917  0.7188
  435MPD2     H 6540   1.179   1.350  15.833 -0.9642  0.9553  0.3228
  435MPD2    H1 6541   1.442   1.205  15.523  1.9611  0.7768  2.0770
  435MPD2    H2 6542   1.168   1.510  15.429  0.4041  0.5275 -0.2201
  435MPD2    H3 6543   1.352   1.363  15.368 -0.5667 -0.5512  0.5765
  435MPD2     N 6544   1.368   1.188  15.794 -0.3898 -0.2359 -0.2764
  435MPD2    H5 6545   1.318   1.196  15.882  1.3224 -1.2752  0.7901
  435MPD2    N1 6546   1.047   1.512  15.674 -0.1094 -0.4270  0.5475
  435MPD2    H7 6547   1.015   1.482  15.766  1.6847 -1.1543  0.9352
  436TMC3    C1 6548   0.736   1.687  15.858 -0.1275 -0.0127  0.1651
  436TMC3    C2 6549   0.841   1.630  15.801  0.2005 -0.5059 -0.0749
  436TMC3    C3 6550   0.869   1.665  15.670  0.4283  0.4031 -0.3821
  436TMC3    C4 6551   0.650   1.775  15.794 -0.3335  0.3287  0.1802
  436TMC3    C5 6552   0.677   1.799  15.662 -0.3911 -0.5428 -0.2051
  436TMC3    C6 6553   0.777   1.742  15.595  0.5665 -0.1924 -0.2656
  436TMC3     C 6554   0.765   1.711  16.001  0.5596 -0.3129  0.0845
  436TMC3     O 6555   0.884   1.715  16.029  0.1349 -0.4964  0.2023
  436TMC3     H 6556   0.918   1.579  15.857  0.4450  0.3689  0.3968
  436TMC3    H1 6557   0.572   1.827  15.849 -1.3097 -0.0458 -0.8493
  436TMC3    H2 6558   0.791   1.759  15.489  2.0121 -4.5278 -0.7595
  436TMC3    C7 6559   0.601   1.908  15.609  0.2525 -0.3887  0.2011
  436TMC3    C8 6560   0.980   1.607  15.597  0.6656  0.5830 -0.3911
  436TMC3    O1 6561   0.480   1.908  15.594  0.7393 -0.2972 -0.0992
  436TMC3    O2 6562   0.998   1.653  15.485  0.2373 -0.5979 -0.0337
  437TMC3    C1 6563   4.059   2.892  12.683 -0.5495 -0.6727 -0.5560
  437TMC3    C2 6564   3.935   2.888  12.620  0.2936 -0.2372  0.7993
  437TMC3    C3 6565   3.882   2.997  12.551 -0.2909 -0.6456 -0.2407
  437TMC3    C4 6566   4.138   3.008  12.675  0.5985 -0.4535  0.1276
  437TMC3    C5 6567   4.092   3.110  12.598  0.0710  0.3738 -0.2843
  437TMC3    C6 6568   3.969   3.106  12.533  0.0218  0.6283  0.2842
  437TMC3     C 6569   4.093   2.787  12.775  0.2783 -0.2020  0.4077
  437TMC3     O 6570   4.005   2.707  12.811  0.6054  0.7693  0.7574
  437TMC3     H 6571   3.873   2.801  12.634 -0.5829  0.0859 -1.1300
  437TMC3    H1 6572   4.228   3.007  12.735  0.1781 -1.2624  0.7526
  437TMC3    H2 6573   3.948   3.186  12.463  1.7497 -0.3390 -1.3535
  437TMC3    C7 6574   4.190   3.207  12.554  0.4293  0.0335 -0.4534
  437TMC3    C8 6575   3.750   2.993  12.480 -0.0145 -0.8812 -0.5170
  437TMC3    O1 6576   4.139   3.316  12.523  0.0066 -1.1253  0.0029
  437TMC3    O2 6577   3.727   2.893  12.415  0.0918  0.6083  0.4317
  438MPD2     C 6578   1.190   3.716  16.999 -0.4689 -0.0332  0.2437
  438MPD2    C1 6579   1.305   3.688  17.062 -0.1686 -1.2207 -0.4981
  438MPD2    C2 6580   1.313   3.720  17.194 -0.0752  0.3977  0.1890
  438MPD2    C3 6581   1.206   3.767  17.265  0.2311  0.0968 -0.8152
  438MPD2    C4 6582   1.087   3.793  17.194 -0.1074 -0.4773  0.7045
  438MPD2    C5 6583   1.079   3.769  17.064 -0.5068 -0.0399 -0.4086
  438MPD2     H 6584   1.407   3.697  17.243 -0.3467  1.6529  1.2998
  438MPD2    H1 6585   1.002   3.842  17.242 -0.3355 -1.4149  1.2579
  438MPD2    H2 6586   1.176   3.703  16.892  1.3218  2.5310 -0.2946
  438MPD2    H3 6587   0.996   3.798  17.000 -1.1090  2.4827  1.5026
  438MPD2     N 6588   1.212   3.802  17.400  0.3028  0.0125 -0.0407
  438MPD2    H5 6589   1.122   3.814  17.445 -0.0951 -2.3946 -0.1826
  438MPD2    N1 6590   1.412   3.626  17.009 -0.6660 -0.1932 -0.4986
  438MPD2    H7 6591   1.494   3.618  17.069 -0.6131 -2.1099 -0.8518
  439TMC3    C1 6592   1.569   3.511  16.878 -0.3938  0.4502 -0.1343
  439TMC3    C2 6593   1.626   3.519  16.756 -0.5753 -0.4176  0.3966
  439TMC3    C3 6594   1.767   3.508  16.750  0.2646  0.5313 -0.3951
  439TMC3    C4 6595   1.635   3.485  16.999  0.8022 -0.2807 -0.2694
  439TMC3    C5 6596   1.764   3.452  16.985  0.7213  0.4613 -0.2465
  439TMC3    C6 6597   1.833   3.464  16.863  0.3671 -0.4601  0.3553
  439TMC3     C 6598   1.434   3.574  16.885 -0.2461 -0.5258  0.2791
  439TMC3     O 6599   1.354   3.582  16.797 -0.3860  0.3393  0.2142
  439TMC3     H 6600   1.564   3.562  16.678  0.9969 -0.6492 -0.9814
  439TMC3    H1 6601   1.579   3.468  17.091 -1.1753  0.1989 -1.3892
  439TMC3    H2 6602   1.933   3.424  16.860 -0.1707 -1.7726 -0.1003
  439TMC3    C7 6603   1.817   3.398  17.112 -0.7235  0.3281 -0.2682
  439TMC3    C8 6604   1.855   3.532  16.635 -0.4359 -0.6039 -0.2961
  439TMC3    O1 6605   1.737   3.368  17.199 -0.2913 -1.2073 -0.5219
  439TMC3    O2 6606   1.971   3.521  16.667  0.8852 -0.2522  0.3867
  440MPD2     C 6607   0.830   4.035  14.455 -0.6512  0.1835  0.0626
  440MPD2    C1 6608   0.866   4.069  14.579 -0.3430  0.0403  0.0687
  440MPD2    C2 6609   0.937   3.973  14.658 -0.5801  0.1317 -1.2398
  440MPD2    C3 6610   0.964   3.844  14.606  0.4432 -0.4984  0.1521
  440MPD2    C4 6611   0.925   3.818  14.474  0.2684 -0.5022  0.0296
  440MPD2    C5 6612   0.861   3.916  14.401 -0.0052  0.5359 -0.3958
  440MPD2     H 6613   0.972   3.998  14.757  1.4644 -1.8496 -1.4703
  440MPD2    H1 6614   0.963   3.734  14.419  0.5894  1.4692 -2.7456
  440MPD2    H2 6615   0.779   4.101  14.386  1.3221  0.1970 -1.3940
  440MPD2    H3 6616   0.840   3.893  14.297 -0.4309  2.0517 -0.6599
  440MPD2     N 6617   1.034   3.740  14.682 -0.0003  0.1532  0.0107
  440MPD2    H5 6618   1.062   3.655  14.634  0.8630  1.0279 -1.0353
  440MPD2    N1 6619   0.841   4.197  14.631  0.1561 -0.3277  0.2990
  440MPD2    H7 6620   0.886   4.221  14.719  1.1959  0.4872 -0.4492
  441TMC3    C1 6621   1.162   3.675  14.866  0.8522 -0.0424 -0.1211
  441TMC3    C2 6622   1.270   3.713  14.792  0.1244 -0.0709  0.0254
  441TMC3    C3 6623   1.375   3.761  14.863 -0.1240 -0.7259  0.3114
  441TMC3    C4 6624   1.159   3.671  14.999 -0.1525 -0.5669  0.3968
  441TMC3    C5 6625   1.274   3.707  15.069 -0.0211 -0.2469  0.0348
  441TMC3    C6 6626   1.378   3.759  14.998  0.0178  0.5198  0.0464
  441TMC3     C 6627   1.040   3.738  14.818  0.2529  0.3885  0.2232
  441TMC3     O 6628   0.955   3.784  14.897  0.2776 -0.3366 -0.0847
  441TMC3     H 6629   1.264   3.749  14.690  2.3953  1.2165  0.3471
  441TMC3    H1 6630   1.073   3.635  15.054  0.4213 -0.1724  1.5623
  441TMC3    H2 6631   1.468   3.792  15.050  1.2051 -0.0475 -1.6738
  441TMC3    C7 6632   1.260   3.725  15.217 -0.1925  0.1564  0.5603
  441TMC3    C8 6633   1.471   3.842  14.797  0.5274 -1.5555 -0.1394
  441TMC3    O1 6634   1.144   3.708  15.258 -0.4211  0.0385  0.2644
  441TMC3    O2 6635   1.497   3.797  14.686  0.0448 -0.1623 -0.0101
  442MPD2     C 6636   3.872   4.610  16.635 -0.3510 -0.0100 -0.1580
  442MPD2    C1 6637   3.742   4.559  16.614  0.4352 -0.2474  0.0417
  442MPD2    C2 6638   3.730   4.428  16.562 -0.3141  0.2854 -0.0487
  442MPD2    C3 6639   3.840   4.351  16.529  0.7676 -0.3627 -0.0679
  442MPD2    C4 6640   3.965   4.412  16.539 -0.1838 -0.0473 -0.7733
  442MPD2    C5 6641   3.981   4.538  16.590 -0.0765  0.2402 -0.1920
  442MPD2     H 6642   3.628   4.391  16.559  0.1500 -1.0772  1.0248
  442MPD2    H1 6643   4.051   4.349  16.520 -0.5640 -0.6038 -0.6518
  442MPD2    H2 6644   3.894   4.707  16.678  1.0032 -0.3183 -0.1579
  442MPD2    H3 6645   4.077   4.589  16.588 -0.2176  0.5564  1.2004
  442MPD2     N 6646   3.826   4.218  16.491  0.4283  0.1837  0.1234
  442MPD2    H5 6647   3.732   4.180  16.499 -0.4443  2.4376  0.5034
  442MPD2    N1 6648   3.628   4.632  16.652 -0.1455 -0.1194 -1.1669
  442MPD2    H7 6649   3.534   4.596  16.638 -0.9082  1.3660 -0.0029
  443TMC3    C1 6650   3.504   0.093  16.731  0.8882  0.2053 -0.3148
  443TMC3    C2 6651   3.504   0.214  16.689  0.1237  0.3229 -0.5396
  443TMC3    C3 6652   3.385   0.280  16.708  0.2920  0.7858 -0.5824
  443TMC3    C4 6653   3.396   0.028  16.797  0.1301  0.0731 -0.3083
  443TMC3    C5 6654   3.289   0.107  16.823  0.1122  0.0225 -0.8348
  443TMC3    C6 6655   3.280   0.234  16.772 -0.8184 -0.5706 -0.9624
  443TMC3     C 6656   3.628   0.026  16.706  0.5370 -0.2347  0.5525
  443TMC3     O 6657   3.720   0.096  16.736  0.2986  0.5065 -0.1316
  443TMC3     H 6658   3.585   0.264  16.638  0.5448 -1.8804 -2.0034
  443TMC3    H1 6659   3.405   4.672  16.854 -1.2019  1.9195  2.8645
  443TMC3    H2 6660   3.195   0.298  16.792 -0.8126 -1.4352  1.9704
  443TMC3    C7 6661   3.168   0.039  16.870  0.3345  0.1042 -1.3338
  443TMC3    C8 6662   3.369   0.418  16.679 -0.2086 -0.3898 -0.2153
  443TMC3    O1 6663   3.166   4.652  16.872 -0.1427 -0.4234  0.4486
  443TMC3    O2 6664   3.314   0.489  16.760 -0.0746  0.2815  0.3422
  444MPD2     C 6665   3.580   4.309  16.908  0.2689 -0.1654 -0.7716
  444MPD2    C1 6666   3.507   4.191  16.923 -0.8458 -0.4137 -0.2502
  444MPD2    C2 6667   3.573   4.075  16.887  0.0487  0.5439 -0.2613
  444MPD2    C3 6668   3.708   4.077  16.854 -0.0925  0.6055  0.0368
  444MPD2    C4 6669   3.778   4.192  16.850 -0.4856 -0.7804  0.3504
  444MPD2    C5 6670   3.709   4.309  16.875  0.2517  0.0183  0.1268
  444MPD2     H 6671   3.512   3.986  16.883 -1.1710  1.3092  1.1967
  444MPD2    H1 6672   3.884   4.194  16.828 -0.5076  0.3953  0.3287
  444MPD2    H2 6673   3.546   4.410  16.930  0.0440 -0.2565 -0.6936
  444MPD2    H3 6674   3.772   4.397  16.868  0.5682 -0.1799  0.4562
  444MPD2     N 6675   3.772   3.949  16.824 -0.0958  0.5697  0.0290
  444MPD2    H5 6676   3.715   3.865  16.825  0.6508  0.0657 -0.2664
  444MPD2    N1 6677   3.369   4.181  16.956  0.1918  0.8005 -0.5605
  444MPD2    H7 6678   3.332   4.086  16.961  2.6736 -0.1131  0.0526
  445TMC3    C1 6679   3.948   3.794  16.804 -0.2039  0.3998 -0.4464
  445TMC3    C2 6680   3.875   3.690  16.749 -0.2536 -0.4035 -0.2788
  445TMC3    C3 6681   3.931   3.571  16.728 -0.0480 -0.3135  0.2996
  445TMC3    C4 6682   4.082   3.781  16.831 -0.1212  0.1286  0.3679
  445TMC3    C5 6683   4.136   3.659  16.806 -0.2036  0.3817 -0.7002
  445TMC3    C6 6684   4.064   3.553  16.747 -0.8212 -0.5371 -0.2981
  445TMC3     C 6685   3.905   3.931  16.789  0.2516  0.5678  1.0309
  445TMC3     O 6686   3.993   4.015  16.762  1.2355  0.6085  0.0945
  445TMC3     H 6687   3.778   3.707  16.704 -0.6472  1.4112  1.2735
  445TMC3    H1 6688   4.134   3.863  16.879 -1.1976  1.8534 -1.4343
  445TMC3    H2 6689   4.111   3.458  16.725  1.0555  0.1491  0.6301
  445TMC3    C7 6690   4.286   3.654  16.794 -0.1340  0.3645  0.6093
  445TMC3    C8 6691   3.886   3.511  16.611 -0.7147  0.5621  0.2752
  445TMC3    O1 6692   4.348   3.760  16.786  0.6544  0.3344  0.2980
  445TMC3    O2 6693   3.763   3.501  16.596  0.0794 -0.7171 -0.0387
  446MPD2     C 6694   3.783   4.517  11.165  0.5443 -0.1749  0.6954
  446MPD2    C1 6695   3.769   4.575  11.041 -0.4998 -0.5346 -0.3970
  446MPD2    C2 6696   3.880   4.636  10.978  0.4355  0.0382 -0.0278
  446MPD2    C3 6697   3.999   4.653  11.051 -0.2340  0.7730  0.2663
  446MPD2    C4 6698   4.011   4.602  11.177 -0.8507 -0.2391 -0.0226
  446MPD2    C5 6699   3.908   4.532  11.234  0.6098 -0.4708  0.9160
  446MPD2     H 6700   3.873   4.668  10.874  0.1378  0.1750  0.0339
  446MPD2    H1 6701   4.100   4.620  11.237 -1.0802 -1.3404  0.6458
  446MPD2    H2 6702   3.706   4.467  11.223 -0.0591 -1.3470 -1.1243
  446MPD2    H3 6703   3.918   4.496  11.336  0.1124  1.2583  1.5757
  446MPD2     N 6704   4.105   4.701  10.973 -0.0892  0.7000 -0.0041
  446MPD2    H5 6705   4.073   4.730  10.881  1.2911  0.9750 -0.3917
  446MPD2    N1 6706   3.649   4.584  10.966 -0.3512  0.4192 -0.0850
  446MPD2    H7 6707   3.646   4.608  10.868  1.3806 -1.8159 -0.6970
  447TMC3    C1 6708   4.332   0.031  10.928  0.1869  0.8142 -0.0258
  447TMC3    C2 6709   4.324   0.140  10.853  0.6224  0.0207 -0.2261
  447TMC3    C3 6710   4.418   0.178  10.769 -0.2526 -0.0337 -0.1069
  447TMC3    C4 6711   4.454   4.700  10.928  0.1271  0.0102  0.8891
  447TMC3    C5 6712   4.557   0.018  10.853  0.0181 -0.1028  0.5492
  447TMC3    C6 6713   4.544   0.121  10.775  0.2889 -0.2950  0.1881
  447TMC3     C 6714   4.232   4.725  11.025 -0.0027  0.5377  0.2613
  447TMC3     O 6715   4.282   4.685  11.129  0.0860 -0.0931  0.0557
  447TMC3     H 6716   4.228   0.191  10.855  0.6570  0.0794 -0.0346
  447TMC3    H1 6717   4.469   4.605  10.977  3.1707  0.0490  0.0476
  447TMC3    H2 6718   4.623   0.158  10.710  0.3277  0.0930  0.4600
  447TMC3    C7 6719   4.652   4.653  10.802  0.2172 -0.1615  0.4123
  447TMC3    C8 6720   4.392   0.291  10.686 -0.2226  0.6038  1.1996
  447TMC3    O1 6721   0.026   4.699  10.792 -0.4698  0.5273 -0.0409
  447TMC3    O2 6722   4.284   0.347  10.702 -0.6128  0.5405  0.2470
  448TMC3    C1 6723   1.400   0.169  17.240  0.3260  0.2888 -0.2356
  448TMC3    C2 6724   1.415   0.076  17.141  0.7197 -0.2522  0.0611
  448TMC3    C3 6725   1.518   4.720  17.161  0.0699  0.3903  0.4028
  448TMC3    C4 6726   1.465   0.169  17.357 -0.2901 -0.1237  0.0116
  448TMC3    C5 6727   1.562   0.073  17.373  0.5897 -0.0200 -0.9697
  448TMC3    C6 6728   1.597   4.719  17.274  0.5225  0.1975  0.5462
  448TMC3     C 6729   1.301   0.269  17.214  0.7374 -0.1307 -0.3080
  448TMC3     O 6730   1.222   0.245  17.125 -0.8765  0.2882  0.3919
  448TMC3     H 6731   1.355   0.074  17.051 -0.3526 -1.7793  0.8015
  448TMC3    H1 6732   1.439   0.239  17.436  1.2155  0.5474 -0.0798
  448TMC3    H2 6733   1.681   4.651  17.268  1.2519  1.2376 -1.1048
  448TMC3    C7 6734   1.647   0.076  17.490  0.1624 -0.0487 -0.4051
  448TMC3    C8 6735   1.528   4.618  17.066 -0.0794 -0.0212 -0.4045
  448TMC3    O1 6736   1.640   0.180  17.556  0.1420 -0.0946  0.4485
  448TMC3    O2 6737   1.610   4.529  17.083 -0.6083 -0.2681 -0.1965
  449MPD2     C 6738   3.726   3.467  14.438 -0.2244 -0.0553 -0.5814
  449MPD2    C1 6739   3.628   3.386  14.381 -0.0238 -0.1175  0.1259
  449MPD2    C2 6740   3.613   3.253  14.408  0.0100 -0.5694  0.2803
  449MPD2    C3 6741   3.681   3.205  14.514 -0.7875 -0.4012  0.1934
  449MPD2    C4 6742   3.775   3.282  14.578 -0.5796 -0.6320 -0.1692
  449MPD2    C5 6743   3.799   3.408  14.536  0.0140  0.2619  0.5916
  449MPD2     H 6744   3.547   3.205  14.337  1.2045 -0.4932 -0.8869
  449MPD2    H1 6745   3.838   3.244  14.657  0.5240 -0.5979 -1.0303
  449MPD2    H2 6746   3.758   3.564  14.402  1.6279 -1.0646 -1.6748
  449MPD2    H3 6747   3.873   3.468  14.589 -0.1805  1.0864 -0.0689
  449MPD2     N 6748   3.644   3.079  14.543 -0.7762  0.6139  1.0887
  449MPD2    H5 6749   3.579   3.039  14.476  0.7100  1.2043 -0.7289
  449MPD2    N1 6750   3.551   3.433  14.268  0.3393  1.0761 -0.8993
  449MPD2    H7 6751   3.471   3.382  14.234  0.5105  0.7295 -0.7784
  450TMC3    C1 6752   3.475   3.549  14.078 -0.6524  0.6102 -0.2552
  450TMC3    C2 6753   3.522   3.554  13.949 -0.0131  0.1477 -0.2674
  450TMC3    C3 6754   3.463   3.478  13.854 -0.2145 -0.1553 -0.0665
  450TMC3    C4 6755   3.354   3.486  14.103  0.9321  0.1553  0.0153
  450TMC3    C5 6756   3.299   3.407  14.005  0.7108  0.4867  0.6188
  450TMC3    C6 6757   3.350   3.404  13.882  0.2761 -0.5340  0.0375
  450TMC3     C 6758   3.576   3.538  14.188 -0.7839  0.1833 -0.4551
  450TMC3     O 6759   3.691   3.578  14.162 -0.3650 -0.0297 -0.4370
  450TMC3     H 6760   3.603   3.620  13.923  0.0753  0.4832  0.8580
  450TMC3    H1 6761   3.314   3.494  14.203  1.5435 -1.0468  0.3443
  450TMC3    H2 6762   3.314   3.335  13.807  1.8263  1.1803 -2.2962
  450TMC3    C7 6763   3.277   3.286  14.068 -0.5453  0.2015  0.0849
  450TMC3    C8 6764   3.466   3.536  13.721 -0.1411 -0.4953 -0.4497
  450TMC3    O1 6765   3.332   3.279  14.176  0.0005  0.2169  0.6652
  450TMC3    O2 6766   3.363   3.576  13.673  0.3936  0.2780 -0.3779
  451MPD2     C 6767   4.461   1.825   1.164 -0.2165 -0.1221 -0.3591
  451MPD2    C1 6768   4.441   1.910   1.066  0.3402  0.1949 -0.5734
  451MPD2    C2 6769   4.548   1.985   1.017 -0.3456 -0.2464 -0.5676
  451MPD2    C3 6770   4.679   1.950   1.049  0.2609  0.3775 -0.0920
  451MPD2    C4 6771   4.699   1.848   1.139  0.2399  0.6015 -0.7023
  451MPD2    C5 6772   4.582   1.802   1.206  0.7635 -0.3781 -0.1882
  451MPD2     H 6773   4.530   2.072   0.954  3.3671  0.2262 -0.9951
  451MPD2    H1 6774   0.064   1.814   1.160  0.2614  1.1117  0.0354
  451MPD2    H2 6775   4.373   1.783   1.211 -1.2563  1.6674 -0.6895
  451MPD2    H3 6776   4.583   1.734   1.291 -0.8985  2.4885  2.1196
  451MPD2     N 6777   0.059   2.011   1.007 -0.1183  0.1795  0.0298
  451MPD2    H5 6778   0.145   1.982   1.054 -0.7307 -0.7039  0.5916
  451MPD2    N1 6779   4.300   1.933   1.028  0.2139  0.6523  0.6024
  451MPD2    H7 6780   4.230   1.883   1.083 -1.1653  0.5850 -1.1815
  452TMC3    C1 6781   0.193   2.208   0.948 -0.3872 -0.0333  0.8706
  452TMC3    C2 6782   0.299   2.130   0.978  0.1855  0.8950  0.3091
  452TMC3    C3 6783   0.420   2.153   0.909  0.0579  0.0742 -0.6116
  452TMC3    C4 6784   0.211   2.314   0.865  0.1618  0.5128  0.4002
  452TMC3    C5 6785   0.333   2.338   0.806 -0.2266  0.4577  0.3112
  452TMC3    C6 6786   0.442   2.259   0.825  0.6940  0.4977 -0.2691
  452TMC3     C 6787   0.070   2.132   0.944  0.0312 -0.1478 -0.4228
  452TMC3     O 6788   4.712   2.188   0.881  0.6167 -0.0609  0.1175
  452TMC3     H 6789   0.304   2.057   1.058  1.6439  1.0180  0.3307
  452TMC3    H1 6790   0.130   2.378   0.831 -1.1020 -1.4112 -0.2287
  452TMC3    H2 6791   0.534   2.271   0.768 -0.0046  0.1426 -1.4681
  452TMC3    C7 6792   0.354   2.478   0.768 -0.4044  0.2945 -0.1701
  452TMC3    C8 6793   0.532   2.051   0.926 -0.2272 -0.0024 -0.0361
  452TMC3    O1 6794   0.261   2.532   0.709 -0.2861 -0.0541  0.5200
  452TMC3    O2 6795   0.643   2.103   0.934 -0.1811  0.2065  0.1779
  453TMC3    C1 6796   1.574   3.942  11.617  0.3180 -0.3487 -0.5395
  453TMC3    C2 6797   1.468   3.861  11.646 -0.2077 -0.4595  0.3040
  453TMC3    C3 6798   1.371   3.857  11.548 -0.0081 -0.4690  0.0948
  453TMC3    C4 6799   1.581   4.020  11.503  0.4441  0.0524  0.3978
  453TMC3    C5 6800   1.477   4.012  11.413  0.5817  0.2751  0.1240
  453TMC3    C6 6801   1.370   3.928  11.435 -0.0366  0.0340 -0.1602
  453TMC3     C 6802   1.695   3.947  11.698 -0.9717 -0.3351  0.0335
  453TMC3     O 6803   1.777   4.029  11.660 -0.3132  0.0622 -0.3028
  453TMC3     H 6804   1.449   3.828  11.748 -2.9462 -0.2645 -0.1268
  453TMC3    H1 6805   1.662   4.089  11.481 -0.7200  0.8861 -1.3352
  453TMC3    H2 6806   1.293   3.916  11.359 -0.8141  2.0499  0.3016
  453TMC3    C7 6807   1.516   4.030  11.273  0.1858  0.0380 -0.0869
  453TMC3    C8 6808   1.272   3.752  11.558 -0.3473 -0.0311  0.1428
  453TMC3    O1 6809   1.624   4.084  11.260 -0.8261 -0.0740 -0.1833
  453TMC3    O2 6810   1.157   3.771  11.517 -0.0851  0.1722 -0.3068
  454MPD2     C 6811   4.462   4.022  15.490 -0.1991  0.1649 -0.0180
  454MPD2    C1 6812   4.501   3.912  15.562  0.6642  0.4075 -0.1358
  454MPD2    C2 6813   4.535   3.934  15.695 -0.3363 -0.3530  0.3273
  454MPD2    C3 6814   4.539   4.061  15.754  0.0437  0.3273 -0.1517
  454MPD2    C4 6815   4.509   4.173  15.675  0.2744 -0.2428 -0.1050
  454MPD2    C5 6816   4.471   4.150  15.547 -0.4462 -0.7096  0.1950
  454MPD2     H 6817   4.546   3.847  15.758 -1.1607 -1.7208 -1.4297
  454MPD2    H1 6818   4.522   4.272  15.716 -0.5245 -0.5634  0.9241
  454MPD2    H2 6819   4.433   4.028  15.386 -0.0634 -0.4694 -0.0873
  454MPD2    H3 6820   4.445   4.223  15.471 -1.8321  0.7552  2.0635
  454MPD2     N 6821   4.566   4.068  15.888 -0.0517 -0.3430 -0.4836
  454MPD2    H5 6822   4.536   4.151  15.939 -0.6726 -1.6734  1.2733
  454MPD2    N1 6823   4.481   3.779  15.518 -0.1111 -0.1728  0.3946
  454MPD2    H7 6824   4.532   3.708  15.569  2.6424  0.8688 -0.8627
  455TMC3    C1 6825   4.590   3.990  16.101  0.1952  0.1337  0.7590
  455TMC3    C2 6826   4.548   4.108  16.162 -0.0918  0.5380 -0.0628
  455TMC3    C3 6827   4.489   4.110  16.281 -0.2642  0.7630 -0.2242
  455TMC3    C4 6828   4.579   3.867  16.163 -0.4494 -0.5530  0.6777
  455TMC3    C5 6829   4.506   3.875  16.279 -0.1541  0.5788  0.0873
  455TMC3    C6 6830   4.470   3.992  16.347 -0.4933 -0.4248  0.3012
  455TMC3     C 6831   4.629   3.973  15.964  0.1103  0.2522 -0.1541
  455TMC3     O 6832   4.682   3.868  15.933  0.1295 -0.2507 -0.6254
  455TMC3     H 6833   4.582   4.199  16.115  1.3368  0.7798  1.4377
  455TMC3    H1 6834   4.606   3.771  16.120 -3.5181 -0.2228 -1.9442
  455TMC3    H2 6835   4.412   3.975  16.437 -2.6819 -1.5562 -1.3143
  455TMC3    C7 6836   4.460   3.752  16.340  0.8271 -0.5941 -0.3237
  455TMC3    C8 6837   4.446   4.242  16.328 -0.1371  0.4819  0.1677
  455TMC3    O1 6838   4.440   3.753  16.463 -0.0339 -0.0845 -0.2256
  455TMC3    O2 6839   4.461   4.340  16.255  0.1090  0.1794 -0.3978
  456MPD2     C 6840   2.201   3.915  16.066 -0.1304 -0.3063 -0.0925
  456MPD2    C1 6841   2.270   3.879  16.180 -0.6966  0.2622  0.0989
  456MPD2    C2 6842   2.201   3.883  16.300  0.2270  0.7838 -0.6077
  456MPD2    C3 6843   2.065   3.907  16.302 -0.2855  0.2846  0.0538
  456MPD2    C4 6844   2.003   3.957  16.192 -1.3551 -0.4215  0.2854
  456MPD2    C5 6845   2.070   3.958  16.074  0.5383 -0.3645 -0.3154
  456MPD2     H 6846   2.252   3.865  16.394 -1.0183  0.8223  0.0729
  456MPD2    H1 6847   1.901   3.995  16.193 -0.6836  1.4289 -2.4342
  456MPD2    H2 6848   2.250   3.905  15.970  0.1039  1.4463 -0.1445
  456MPD2    H3 6849   2.019   3.985  15.982 -0.5937 -1.3738  0.0102
  456MPD2     N 6850   1.997   3.893  16.428  0.6859 -0.4361 -0.0561
  456MPD2    H5 6851   2.039   3.837  16.501  0.2605 -0.6984 -0.0096
  456MPD2    N1 6852   2.405   3.842  16.161  0.0264 -0.3968 -0.1848
  456MPD2    H7 6853   2.435   3.844  16.064 -1.6305 -0.0402 -0.6774
  457TMC3    C1 6854   1.857   3.952  16.598 -0.4052 -0.3149 -0.0903
  457TMC3    C2 6855   1.762   4.043  16.644 -1.0111  0.3831 -0.1555
  457TMC3    C3 6856   1.724   4.044  16.773  0.2611  0.0496  0.8351
  457TMC3    C4 6857   1.911   3.857  16.684  0.7814 -0.9744  0.7095
  457TMC3    C5 6858   1.864   3.866  16.815 -0.2338  0.4873  0.1010
  457TMC3    C6 6859   1.779   3.962  16.864 -0.3211 -0.4815 -0.3622
  457TMC3     C 6860   1.873   3.944  16.456  0.1935 -0.1452  0.6068
  457TMC3     O 6861   1.792   4.000  16.387 -0.3265  0.2302  0.1270
  457TMC3     H 6862   1.735   4.124  16.577 -1.0442  0.1947 -0.3690
  457TMC3    H1 6863   1.979   3.781  16.649 -0.8622 -2.9548  1.7708
  457TMC3    H2 6864   1.748   3.960  16.968 -0.2567  2.2993 -0.2781
  457TMC3    C7 6865   1.937   3.797  16.920 -0.4382  0.6026 -0.1592
  457TMC3    C8 6866   1.630   4.144  16.823 -0.3938 -0.0470  0.3089
  457TMC3    O1 6867   1.903   3.800  17.034  0.1619 -0.1283  0.5628
  457TMC3    O2 6868   1.626   4.150  16.946 -0.4846  0.5933 -0.5450
  458MPD2     C 6869   4.678   3.381  12.502  0.4285  0.5636  0.6053
  458MPD2    C1 6870   4.678   3.253  12.544  0.1586  0.4754 -0.7793
  458MPD2    C2 6871   4.558   3.180  12.561  0.4129 -0.7595 -0.1269
  458MPD2    C3 6872   4.436   3.244  12.534  0.7803 -0.3679 -1.0104
  458MPD2    C4 6873   4.439   3.377  12.496  0.2956  0.5429 -0.2531
  458MPD2    C5 6874   4.556   3.443  12.481  0.2565 -0.0616 -0.1225
  458MPD2     H 6875   4.562   3.077  12.595 -1.5063 -1.6387 -2.5222
  458MPD2    H1 6876   4.346   3.429  12.478 -1.0168 -1.3157  1.2812
  458MPD2    H2 6877   0.032   3.442  12.501 -0.0486  1.2190 -1.2461
  458MPD2    H3 6878   4.561   3.546  12.447  2.0102  0.3463  1.3814
  458MPD2     N 6879   4.321   3.162  12.562  0.2578  0.9218  0.1389
  458MPD2    H5 6880   4.339   3.070  12.599 -1.1906 -0.1637 -1.8827
  458MPD2    N1 6881   0.077   3.197  12.561 -0.1985 -0.5351  0.0885
  458MPD2    H7 6882   0.158   3.255  12.545 -0.6939  0.1722  0.1396
  459TMC3    C1 6883   0.235   3.047  12.632 -0.0200 -0.7597 -0.0070
  459TMC3    C2 6884   0.334   3.073  12.537 -0.4228  0.5290 -1.1890
  459TMC3    C3 6885   0.461   3.055  12.592  1.1005  0.1486  0.1666
  459TMC3    C4 6886   0.254   3.005  12.763 -0.0433  0.1188  0.6213
  459TMC3    C5 6887   0.385   2.984  12.805  0.6781  0.1435 -0.7844
  459TMC3    C6 6888   0.489   3.016  12.721 -0.4402 -1.1277  0.2286
  459TMC3     C 6889   0.098   3.069  12.604 -0.6439  0.0970  0.1001
  459TMC3     O 6890   0.021   2.992  12.663  0.2372  0.1873 -0.0619
  459TMC3     H 6891   0.311   3.090  12.433 -0.4491  0.8469 -1.1313
  459TMC3    H1 6892   0.170   3.005  12.832 -1.6709 -0.6199 -1.3630
  459TMC3    H2 6893   0.588   3.013  12.766 -0.3240  0.7206  0.1066
  459TMC3    C7 6894   0.408   2.911  12.929  0.1120  0.4265  0.2763
  459TMC3    C8 6895   0.579   3.111  12.525  0.1113 -0.1035 -0.1912
  459TMC3    O1 6896   0.524   2.902  12.966 -0.2723 -0.8199 -0.3293
  459TMC3    O2 6897   0.690   3.075  12.553  1.3389  0.0259  0.1124
  460MPD2     C 6898   4.640   0.493  10.515  1.0612 -0.4708 -0.3821
  460MPD2    C1 6899   4.510   0.459  10.547  0.2184  1.0315  1.1639
  460MPD2    C2 6900   4.407   0.554  10.524  0.3799  0.3129 -0.2154
  460MPD2    C3 6901   4.434   0.676  10.464  0.0705 -0.1543  0.5707
  460MPD2    C4 6902   4.565   0.708  10.440  0.6609  0.5355 -0.5730
  460MPD2    C5 6903   4.661   0.616  10.463 -0.3229 -0.5264 -0.0340
  460MPD2     H 6904   4.306   0.522  10.549  0.7717 -0.2387  0.6816
  460MPD2    H1 6905   4.599   0.794  10.383  2.2248 -1.3517 -2.5277
  460MPD2    H2 6906   4.724   0.424  10.519 -0.3465 -2.2500 -1.7910
  460MPD2    H3 6907   0.028   0.633  10.431  0.0367 -2.7625 -0.1140
  460MPD2     N 6908   4.320   0.754  10.425  0.5401 -0.6088 -0.1886
  460MPD2    H5 6909   4.226   0.718  10.436  0.4773 -0.7238 -1.0749
  460MPD2    N1 6910   4.500   0.333  10.611  0.6560  0.7329  0.5499
  460MPD2    H7 6911   4.573   0.266  10.590  0.2320  0.9057 -1.4444
  461TMC3    C1 6912   4.212   0.926  10.311  0.6788 -0.4160  0.3810
  461TMC3    C2 6913   4.180   0.862  10.195  0.3437 -0.6669 -0.8829
  461TMC3    C3 6914   4.116   0.936  10.094  0.1460 -0.0836 -0.3372
  461TMC3    C4 6915   4.185   1.058  10.324  0.9778 -0.6007 -0.5914
  461TMC3    C5 6916   4.113   1.123  10.222 -0.2188  0.7757  0.8206
  461TMC3    C6 6917   4.080   1.062  10.109 -0.8484  0.0384  0.2593
  461TMC3     C 6918   4.335   0.877  10.370  0.6408 -0.2077 -0.8163
  461TMC3     O 6919   4.440   0.944  10.351 -0.3349  0.6920  0.5807
  461TMC3     H 6920   4.217   0.760  10.189  2.2604 -0.0933  1.3506
  461TMC3    H1 6921   4.206   1.111  10.416 -1.2439 -3.1361  1.3613
  461TMC3    H2 6922   4.043   1.121  10.025  1.5301 -1.2088 -1.6575
  461TMC3    C7 6923   4.035   1.240  10.250 -0.2891  0.0366  0.3728
  461TMC3    C8 6924   4.128   0.881   9.956  0.6012 -0.0003 -0.4738
  461TMC3    O1 6925   4.020   1.314  10.154 -0.1177 -0.0350 -0.0915
  461TMC3    O2 6926   4.218   0.801   9.931  0.2719  0.1213  0.0234
  462TMC3    C1 6927   4.113   2.416   0.013 -0.0929 -0.7797 -0.1742
  462TMC3    C2 6928   4.213   2.337  17.698 -0.0049 -0.4352  0.0093
  462TMC3    C3 6929   4.244   2.218   0.023 -0.3093  0.2557 -0.1272
  462TMC3    C4 6930   4.038   2.372   0.117  0.8072 -0.2505  0.0569
  462TMC3    C5 6931   4.081   2.260   0.184  0.3129 -0.2759 -0.3433
  462TMC3    C6 6932   4.192   2.186   0.144  0.9787  0.0326  0.7421
  462TMC3     C 6933   4.074   2.541  17.698 -0.1090 -0.5589  0.4154
  462TMC3     O 6934   3.970   2.596  17.728 -0.3423 -0.0234 -0.5435
  462TMC3     H 6935   4.251   2.351  17.597 -0.4621  0.5047 -0.0299
  462TMC3    H1 6936   3.952   2.430   0.149  0.4326 -1.5050  1.3072
  462TMC3    H2 6937   4.203   2.093   0.198 -1.5862 -0.0054  1.2104
  462TMC3    C7 6938   3.991   2.169   0.254  0.1868  0.7882 -0.5453
  462TMC3    C8 6939   4.213   2.111  17.674  0.3148  0.2345  0.2972
  462TMC3    O1 6940   4.036   2.079   0.326  0.1093  0.2019 -0.1341
  462TMC3    O2 6941   4.159   2.139  17.569  0.1591  0.1094  0.3631
  463MPD2     C 6942   1.014   0.392   1.282  0.3566  0.5693  0.0212
  463MPD2    C1 6943   0.908   0.448   1.348 -0.1013 -0.9975 -0.1628
  463MPD2    C2 6944   0.941   0.545   1.440  0.8051 -0.3572  0.2614
  463MPD2    C3 6945   1.073   0.587   1.452  0.1155 -0.1724  0.3539
  463MPD2    C4 6946   1.177   0.529   1.389 -0.0842 -0.0254  0.4876
  463MPD2    C5 6947   1.145   0.425   1.305 -0.1784  0.0099  0.9050
  463MPD2     H 6948   0.859   0.587   1.496  0.9755 -0.9014  0.9160
  463MPD2    H1 6949   1.281   0.559   1.396 -0.0517  0.3048 -1.5822
  463MPD2    H2 6950   0.994   0.317   1.206 -0.4116  1.1581 -0.3550
  463MPD2    H3 6951   1.221   0.379   1.242 -0.4527  0.6460  0.1050
  463MPD2     N 6952   1.114   0.680   1.549 -0.7001  1.2742 -0.0074
  463MPD2    H5 6953   1.210   0.712   1.547 -0.5398  0.8172  0.3293
  463MPD2    N1 6954   0.773   0.410   1.326  0.1454 -1.0408  0.4710
  463MPD2    H7 6955   0.703   0.478   1.353  1.6684 -0.2929  2.5321
  464TMC3    C1 6956   0.597   0.275   1.292 -0.5050  0.1708  0.2000
  464TMC3    C2 6957   0.505   0.373   1.270  0.2125  0.1079 -0.2559
  464TMC3    C3 6958   0.369   0.346   1.268 -0.0792 -0.1065 -0.5632
  464TMC3    C4 6959   0.553   0.143   1.292 -0.2702 -0.3846  0.4312
  464TMC3    C5 6960   0.424   0.123   1.269 -0.3826 -0.3228 -0.0682
  464TMC3    C6 6961   0.327   0.218   1.266  0.0714  0.6576 -0.1141
  464TMC3     C 6962   0.736   0.293   1.272  0.1560 -0.3169  0.2714
  464TMC3     O 6963   0.800   0.196   1.228  0.3007  0.3298  0.0405
  464TMC3     H 6964   0.543   0.474   1.263  0.4554  0.1117  1.1165
  464TMC3    H1 6965   0.624   0.064   1.313 -0.4517 -0.8885 -0.8849
  464TMC3    H2 6966   0.226   0.187   1.288  0.1370  0.5925  0.0980
  464TMC3    C7 6967   0.388   4.727   1.240 -0.0873 -0.1939  0.5104
  464TMC3    C8 6968   0.257   0.432   1.246 -0.0498  0.5285  1.3885
  464TMC3    O1 6969   0.467   4.641   1.261 -0.4628  0.3854 -0.1392
  464TMC3    O2 6970   0.143   0.391   1.224  0.1347  0.2386 -0.0894
  465MPD2     C 6971   1.331   3.973  16.837 -0.2574 -0.3030 -0.0888
  465MPD2    C1 6972   1.261   4.087  16.862 -0.1274 -0.2309 -0.2115
  465MPD2    C2 6973   1.183   4.146  16.761  0.1316 -0.0783  0.6037
  465MPD2    C3 6974   1.202   4.094  16.636 -0.4380 -0.1427 -0.4453
  465MPD2    C4 6975   1.260   3.969  16.619  0.3821 -0.8299  0.2972
  465MPD2    C5 6976   1.329   3.911  16.721  0.0592 -0.1290 -0.2330
  465MPD2     H 6977   1.124   4.237  16.761 -0.8250 -0.6997  0.4177
  465MPD2    H1 6978   1.257   3.925  16.521  1.4446  0.1267 -0.1739
  465MPD2    H2 6979   1.383   3.922  16.917  0.1968  0.8405  0.3532
  465MPD2    H3 6980   1.380   3.815  16.718 -0.0727 -0.1563 -1.8205
  465MPD2     N 6981   1.132   4.159  16.530  0.5405  0.3172  0.0325
  465MPD2    H5 6982   1.061   4.227  16.553  0.0257  0.5650 -2.2948
  465MPD2    N1 6983   1.283   4.154  16.982 -0.2306  0.0903 -0.3847
  465MPD2    H7 6984   1.356   4.115  17.041 -2.7510 -0.8830  2.1154
  466TMC3    C1 6985   0.820   4.160  16.319 -0.6019  0.7244  0.5717
  466TMC3    C2 6986   0.808   4.270  16.241 -0.2639 -0.1530  0.6382
  466TMC3    C3 6987   0.926   4.326  16.199  0.2005 -0.3538 -0.3138
  466TMC3    C4 6988   0.936   4.096  16.357 -0.0201 -0.1610  0.4001
  466TMC3    C5 6989   1.048   4.151  16.307 -0.0884  0.3616 -0.9503
  466TMC3    C6 6990   1.043   4.264  16.226  0.1283 -0.2138 -0.2087
  466TMC3     C 6991   0.706   4.110  16.390  0.2779 -0.4706  0.2035
  466TMC3     O 6992   0.633   4.195  16.436 -0.1992 -0.4075 -0.2827
  466TMC3     H 6993   0.707   4.298  16.214  0.1149  1.1810  0.5892
  466TMC3    H1 6994   0.942   4.019  16.433 -2.8998  0.0715  0.8868
  466TMC3    H2 6995   1.143   4.298  16.204  0.4851 -0.4837  0.9941
  466TMC3    C7 6996   1.167   4.137  16.393 -0.4141  0.1565 -0.6349
  466TMC3    C8 6997   0.937   4.466  16.158  0.4575 -0.0939  0.4041
  466TMC3    O1 6998   1.272   4.088  16.352 -0.2917 -0.3283  0.4702
  466TMC3    O2 6999   1.034   4.501  16.091  0.4262  0.0651 -0.2782
  467TMC3    C1 7000   2.066   1.954  13.469  0.2981 -0.6987  0.6724
  467TMC3    C2 7001   1.982   2.044  13.406 -0.7892  0.4815 -0.2780
  467TMC3    C3 7002   1.913   2.137  13.477 -0.8764 -0.2075  0.5396
  467TMC3    C4 7003   2.070   1.950  13.609  0.7243  0.1522  0.6135
  467TMC3    C5 7004   1.986   2.037  13.679  0.1660 -0.0595 -0.0198
  467TMC3    C6 7005   1.906   2.133  13.615  0.2536 -0.5575 -0.3700
  467TMC3     C 7006   2.209   1.976  13.424 -0.0392  0.1263  0.2041
  467TMC3     O 7007   2.294   1.979  13.512  0.1746  0.2359 -0.1348
  467TMC3     H 7008   1.985   2.052  13.298  1.7143 -0.1521 -0.2493
  467TMC3    H1 7009   2.141   1.889  13.664  1.6337 -0.1840 -0.9222
  467TMC3    H2 7010   1.859   2.217  13.665 -1.6406 -1.6798 -0.2941
  467TMC3    C7 7011   1.992   2.036  13.826 -0.5113 -0.0328  0.4440
  467TMC3    C8 7012   1.941   2.272  13.427  0.6199 -0.1602  0.0166
  467TMC3    O1 7013   2.094   1.993  13.873 -0.2764 -0.3846 -0.3832
  467TMC3    O2 7014   1.958   2.360  13.512 -0.1029  0.9882 -0.1861
  468MPD2     C 7015   0.943   0.430  11.029 -0.0558  0.1655  0.2137
  468MPD2    C1 7016   1.085   0.419  11.015  0.3462  0.3423 -0.0383
  468MPD2    C2 7017   1.135   0.306  10.954  0.2709 -0.0463  0.6246
  468MPD2    C3 7018   1.051   0.205  10.912 -0.0407 -0.4663  0.6296
  468MPD2    C4 7019   0.913   0.212  10.929  0.0198  0.4622  0.6422
  468MPD2    C5 7020   0.862   0.327  10.982 -0.4414 -0.4473 -0.4618
  468MPD2     H 7021   1.242   0.290  10.956  0.6322  2.3147 -0.3332
  468MPD2    H1 7022   0.840   0.139  10.897  2.0466 -1.4547  0.3830
  468MPD2    H2 7023   0.894   0.521  11.062 -1.0686 -0.3450  0.0988
  468MPD2    H3 7024   0.756   0.337  11.002 -0.3557 -2.1912  0.8667
  468MPD2     N 7025   1.107   0.088  10.865 -0.3799  0.1708  0.0511
  468MPD2    H5 7026   1.042   0.024  10.821 -0.3939  0.5196 -0.4401
  468MPD2    N1 7027   1.177   0.508  11.065  0.3731 -0.5662  0.0686
  468MPD2    H7 7028   1.276   0.488  11.053  0.6748  0.2739  1.1193
  469TMC3    C1 7029   1.245   0.686  11.195 -0.3897  0.1015 -0.1856
  469TMC3    C2 7030   1.349   0.611  11.237  0.6297 -0.1470  0.2837
  469TMC3    C3 7031   1.430   0.666  11.334  0.0025 -0.1562  0.0663
  469TMC3    C4 7032   1.210   0.808  11.254  0.1643  0.0991  0.3895
  469TMC3    C5 7033   1.295   0.859  11.343  0.5510 -0.1289 -0.2128
  469TMC3    C6 7034   1.408   0.795  11.387  0.1624 -0.5034  0.0685
  469TMC3     C 7035   1.141   0.633  11.116  0.2616  0.2125 -0.2525
  469TMC3     O 7036   1.033   0.690  11.128 -0.1705 -0.2489  0.2834
  469TMC3     H 7037   1.373   0.509  11.206 -1.5509  0.4575 -3.4586
  469TMC3    H1 7038   1.129   0.875  11.225  0.9890  0.0958 -1.8913
  469TMC3    H2 7039   1.468   0.837  11.466  1.3261  2.2942 -2.3051
  469TMC3    C7 7040   1.254   0.962  11.435  0.1226 -0.8725 -0.1069
  469TMC3    C8 7041   1.545   0.588  11.384  0.4361  0.4781 -0.3312
  469TMC3    O1 7042   1.330   1.050  11.474 -0.3497  0.0442  0.5836
  469TMC3    O2 7043   1.584   0.497  11.306 -1.0146  0.0781  0.0877
  470TMC3    C1 7044   3.028   1.400   0.416  0.0850  0.1205 -0.3974
  470TMC3    C2 7045   2.983   1.528   0.434 -0.2535  0.0930 -0.8777
  470TMC3    C3 7046   3.078   1.631   0.446 -0.5481  1.1802 -0.4788
  470TMC3    C4 7047   3.159   1.371   0.404  0.0532 -0.3194  0.0020
  470TMC3    C5 7048   3.251   1.472   0.425 -0.2325  0.2887 -0.4839
  470TMC3    C6 7049   3.212   1.598   0.444 -0.0063  0.1938  0.1080
  470TMC3     C 7050   2.919   1.299   0.403 -0.3234 -0.2257 -0.0618
  470TMC3     O 7051   2.806   1.351   0.403  0.6984 -0.0473 -1.0085
  470TMC3     H 7052   2.876   1.548   0.426 -0.8085 -1.7010  1.9832
  470TMC3    H1 7053   3.198   1.271   0.386 -1.2295 -0.7790 -0.2833
  470TMC3    H2 7054   3.289   1.671   0.469 -0.7789  0.4834  1.6750
  470TMC3    C7 7055   3.386   1.428   0.461 -0.1169 -0.7788 -0.0546
  470TMC3    C8 7056   3.052   1.767   0.463  0.2570 -0.7209  0.1933
  470TMC3    O1 7057   3.423   1.321   0.408 -0.1783 -0.0170  0.2512
  470TMC3    O2 7058   3.133   1.840   0.516 -0.2216 -0.9455 -0.4735
  471MPD2     C 7059   3.692   3.074  16.654 -0.1127 -0.1850 -0.3228
  471MPD2    C1 7060   3.784   2.974  16.628  0.2391  0.5929  0.3471
  471MPD2    C2 7061   3.867   2.917  16.725 -0.1591  0.2846  0.3199
  471MPD2    C3 7062   3.879   2.987  16.846 -0.9395  0.2073  0.2509
  471MPD2    C4 7063   3.803   3.107  16.866 -0.3491  0.4206  0.7760
  471MPD2    C5 7064   3.708   3.147  16.775  0.0755  0.0518 -0.9311
  471MPD2     H 7065   3.943   2.842  16.707 -2.0909 -1.6593  0.3593
  471MPD2    H1 7066   3.804   3.170  16.955 -1.3239  0.4358  0.7744
  471MPD2    H2 7067   3.628   3.109  16.573 -3.0711  1.0045  2.5108
  471MPD2    H3 7068   3.661   3.244  16.783  2.2636  1.0330 -0.2776
  471MPD2     N 7069   3.957   2.931  16.957  0.3335  0.0794  0.1310
  471MPD2    H5 7070   3.949   2.974  17.048  0.3165  3.0545 -1.2910
  471MPD2    N1 7071   3.780   2.898  16.505  0.0594  0.0660 -0.1156
  471MPD2    H7 7072   3.839   2.817  16.491 -1.0423 -0.8486  0.4714
  472TMC3    C1 7073   3.690   2.795  16.317 -0.3578 -0.2288  0.9209
  472TMC3    C2 7074   3.643   2.818  16.192  0.7138  0.0978 -0.0626
  472TMC3    C3 7075   3.625   2.708  16.115 -0.2757 -0.3069 -0.0366
  472TMC3    C4 7076   3.728   2.673  16.363  0.5888 -0.4396 -0.1555
  472TMC3    C5 7077   3.713   2.562  16.282 -0.8147 -0.5992  0.0943
  472TMC3    C6 7078   3.661   2.573  16.154 -0.2117  1.1648 -0.4399
  472TMC3     C 7079   3.687   2.911  16.402  0.0595 -0.4305 -0.1361
  472TMC3     O 7080   3.622   3.012  16.375  0.3110  0.2064  0.7245
  472TMC3     H 7081   3.585   2.908  16.177 -0.7911 -0.7493  0.7178
  472TMC3    H1 7082   3.745   2.661  16.470 -1.1654  1.6161  0.3542
  472TMC3    H2 7083   3.639   2.493  16.084  1.5601 -1.4452  2.0009
  472TMC3    C7 7084   3.696   2.431  16.356 -0.2996 -0.7035  0.2206
  472TMC3    C8 7085   3.508   2.725  16.024 -0.3469 -0.3319 -0.0365
  472TMC3    O1 7086   3.715   2.435  16.477 -0.4112 -1.1507 -0.4605
  472TMC3    O2 7087   3.490   2.828  15.961 -0.6829 -0.2907 -0.0980
  473MPD2     C 7088   3.618   4.696  14.148 -0.1443 -0.3561  0.0790
  473MPD2    C1 7089   3.683   0.069  14.083  0.3435 -1.6173  1.0169
  473MPD2    C2 7090   3.719   0.183  14.155  0.5470  0.8166 -0.1046
  473MPD2    C3 7091   3.707   0.197  14.290  0.0178 -0.6677  0.3188
  473MPD2    C4 7092   3.641   0.094  14.351 -0.1490 -0.0748  0.0610
  473MPD2    C5 7093   3.608   4.715  14.284  0.9040  0.1027 -0.3825
  473MPD2     H 7094   3.774   0.260  14.102  0.6345  1.5367  1.0371
  473MPD2    H1 7095   3.639   0.083  14.459  1.2964 -2.4898 -0.1505
  473MPD2    H2 7096   3.600   4.600  14.102 -1.4163  0.1201 -0.4020
  473MPD2    H3 7097   3.572   4.636  14.348  1.7037  1.5078  1.8022
  473MPD2     N 7098   3.762   0.297  14.367  0.2607 -0.1771  0.4456
  473MPD2    H5 7099   3.735   0.284  14.464 -0.0441  2.4088  0.7179
  473MPD2    N1 7100   3.712   0.066  13.945 -0.5487  0.4005 -0.0747
  473MPD2    H7 7101   3.767   0.141  13.904  2.2049 -3.1708 -2.9582
  474TMC3    C1 7102   3.892   0.490  14.420  0.2859  0.3006 -0.1713
  474TMC3    C2 7103   3.793   0.574  14.452 -0.0857 -0.4514 -0.0558
  474TMC3    C3 7104   3.832   0.700  14.498  0.1533 -0.4768  0.0135
  474TMC3    C4 7105   4.021   0.533  14.408  0.2164 -0.2211 -0.1020
  474TMC3    C5 7106   4.058   0.652  14.462  0.0405 -0.1941 -0.3565
  474TMC3    C6 7107   3.964   0.733  14.518  0.7108  0.1110  0.4173
  474TMC3     C 7108   3.846   0.395  14.323 -0.2925 -0.1165  0.4945
  474TMC3     O 7109   3.911   0.397  14.219  0.2822  0.3528 -0.9381
  474TMC3     H 7110   3.688   0.549  14.445 -1.0184  2.2341  3.9976
  474TMC3    H1 7111   4.093   0.463  14.367  1.5777  0.0539  1.8420
  474TMC3    H2 7112   3.996   0.836  14.529  2.5318 -0.2661 -1.3905
  474TMC3    C7 7113   4.198   0.693  14.455 -0.0315 -0.7689  0.5052
  474TMC3    C8 7114   3.723   0.797  14.504 -0.0547 -0.7081  0.3189
  474TMC3    O1 7115   4.252   0.650  14.357 -0.1285 -0.2878 -0.4827
  474TMC3    O2 7116   3.612   0.745  14.520  0.5418 -0.0185 -0.1300
  475MPD2     C 7117   2.518   2.684  10.701 -0.5096 -0.5276  0.6359
  475MPD2    C1 7118   2.510   2.814  10.745  0.9614 -0.3866 -0.1704
  475MPD2    C2 7119   2.385   2.863  10.778  0.3775 -0.0947  0.0096
  475MPD2    C3 7120   2.270   2.792  10.756 -0.3884 -0.3260  0.4338
  475MPD2    C4 7121   2.273   2.663  10.708  0.0718 -0.1024 -0.3403
  475MPD2    C5 7122   2.403   2.608  10.683  0.2301  0.3286 -0.2525
  475MPD2     H 7123   2.374   2.964  10.817 -1.1202 -0.5580  0.7849
  475MPD2    H1 7124   2.181   2.609  10.687 -1.6701  2.0199  1.8788
  475MPD2    H2 7125   2.615   2.637  10.688  0.0040  0.3071  1.4661
  475MPD2    H3 7126   2.420   2.507  10.648 -0.7398 -0.3662  1.2706
  475MPD2     N 7127   2.150   2.857  10.778  0.0960 -0.1385 -0.4947
  475MPD2    H5 7128   2.160   2.957  10.796 -1.4941 -0.0030 -0.4134
  475MPD2    N1 7129   2.631   2.883  10.773 -0.0628 -0.4192  0.1016
  475MPD2    H7 7130   2.623   2.964  10.834  2.2791  1.1315 -1.6695
  476TMC3    C1 7131   2.828   2.986  10.735 -0.5823  0.4418 -0.1298
  476TMC3    C2 7132   2.797   3.073  10.636 -0.1910  0.1294 -0.3621
  476TMC3    C3 7133   2.740   3.194  10.663  0.2107  0.3280  0.6501
  476TMC3    C4 7134   2.837   3.020  10.869  0.2090 -0.1824  0.0259
  476TMC3    C5 7135   2.790   3.143  10.894  0.6254  0.1954 -0.3009
  476TMC3    C6 7136   2.739   3.232  10.795  0.5049 -0.5505 -0.8867
  476TMC3     C 7137   2.756   2.862  10.719  0.3513 -0.2283 -0.2174
  476TMC3     O 7138   2.782   2.779  10.630  0.6303 -0.3311  0.0914
  476TMC3     H 7139   2.789   3.035  10.535  0.4858 -1.4023  0.1590
  476TMC3    H1 7140   2.865   2.957  10.952 -1.2713 -0.8423  0.0212
  476TMC3    H2 7141   2.683   3.322  10.819  2.6583  0.6262 -0.3158
  476TMC3    C7 7142   2.734   3.142  11.026 -0.6452  0.5852 -0.3753
  476TMC3    C8 7143   2.602   3.208  10.609  0.0908  0.5385  0.1310
  476TMC3    O1 7144   2.679   3.034  11.044 -0.4255 -0.2512 -0.2076
  476TMC3    O2 7145   2.547   3.316  10.612  0.2437 -0.2325 -0.1715
  477MPD2     C 7146   0.492   4.670  11.738  0.3372 -0.7265  0.1846
  477MPD2    C1 7147   0.362   4.638  11.777 -0.1854  0.4971  0.3408
  477MPD2    C2 7148   0.345   4.583  11.906  0.0772  0.7099  0.1333
  477MPD2    C3 7149   0.453   4.587  11.998 -0.1662  0.0642 -0.3200
  477MPD2    C4 7150   0.580   4.621  11.955  0.4383 -0.2865  0.1270
  477MPD2    C5 7151   0.598   4.659  11.819 -0.3773  0.4565  0.2503
  477MPD2     H 7152   0.252   4.535  11.935  0.8797  0.1426  1.7445
  477MPD2    H1 7153   0.663   4.631  12.024 -0.6308  3.0189  0.9566
  477MPD2    H2 7154   0.507   4.709  11.638  0.2571  2.3474  1.3792
  477MPD2    H3 7155   0.700   4.688  11.801  0.2267 -1.1493  1.1435
  477MPD2     N 7156   0.438   4.539  12.135  0.2244 -0.2735 -0.2332
  477MPD2    H5 7157   0.525   4.518  12.183 -0.8620 -0.9763  1.3985
  477MPD2    N1 7158   0.260   4.636  11.679  0.0291 -0.1838 -0.5252
  477MPD2    H7 7159   0.289   4.654  11.584 -0.6369 -0.4064 -0.7641
  478TMC3    C1 7160   0.053   4.619  11.571 -0.3225  0.5542 -0.3791
  478TMC3    C2 7161   0.086   4.708  11.479 -1.2028  0.4393 -0.2320
  478TMC3    C3 7162   0.011   4.713  11.369 -0.3921  0.9766  0.4152
  478TMC3    C4 7163   4.688   4.529  11.552 -0.1647 -0.5223  0.2308
  478TMC3    C5 7164   4.618   4.531  11.432 -0.7804 -0.1970  0.6474
  478TMC3    C6 7165   4.646   4.627  11.335  0.3522  0.2972 -0.2779
  478TMC3     C 7166   0.125   4.613  11.702 -0.1422 -0.1463  0.3508
  478TMC3     O 7167   0.066   4.595  11.803  0.4271 -0.5117  0.3115
  478TMC3     H 7168   0.172   0.038  11.491 -0.0335 -1.2579  0.5579
  478TMC3    H1 7169   4.654   4.465  11.633  0.9058 -3.1301 -1.3591
  478TMC3    H2 7170   4.595   4.642  11.240 -1.1514  0.4946  0.5513
  478TMC3    C7 7171   4.516   4.429  11.408  0.0874  0.1524  0.0617
  478TMC3    C8 7172   0.057   0.075  11.266  0.4990 -0.1741  0.0970
  478TMC3    O1 7173   4.493   4.351  11.497 -0.3001  0.6207  0.2205
  478TMC3    O2 7174   0.179   0.095  11.249 -0.5242 -0.6606 -0.0972
  479MPD2     C 7175   3.620   1.969  15.175  0.5722  0.1536  0.7524
  479MPD2    C1 7176   3.546   1.947  15.293 -0.4348  0.6612  0.0080
  479MPD2    C2 7177   3.590   2.003  15.413  0.6112  0.5882 -0.8068
  479MPD2    C3 7178   3.711   2.074  15.409 -0.6891  0.7926  0.0596
  479MPD2    C4 7179   3.781   2.084  15.292 -0.9262 -0.5602  0.3423
  479MPD2    C5 7180   3.736   2.035  15.177 -0.8385 -0.3818 -0.0369
  479MPD2     H 7181   3.534   1.993  15.506 -1.7398 -0.0250 -2.2741
  479MPD2    H1 7182   3.885   2.116  15.289 -0.6878 -1.2850  0.8696
  479MPD2    H2 7183   3.594   1.928  15.078  0.1513  2.0498  0.0699
  479MPD2    H3 7184   3.794   2.046  15.087 -1.4824 -2.7112 -0.7519
  479MPD2     N 7185   3.778   2.135  15.523  0.3753 -0.7116  0.8068
  479MPD2    H5 7186   3.868   2.180  15.507 -0.2117  0.8756  1.9523
  479MPD2    N1 7187   3.418   1.900  15.270  0.4695 -0.2667 -0.0802
  479MPD2    H7 7188   3.398   1.868  15.176  0.4913 -1.2933  0.2637
  480TMC3    C1 7189   3.414   2.078  15.814 -0.8090 -0.1824  0.3462
  480TMC3    C2 7190   3.330   2.171  15.748 -0.3596  1.1909  0.4030
  480TMC3    C3 7191   3.388   2.242  15.643  0.0217 -0.3654 -0.7949
  480TMC3    C4 7192   3.543   2.064  15.779 -0.5517  0.2956 -0.3914
  480TMC3    C5 7193   3.591   2.141  15.679  0.0944  0.1466 -0.2630
  480TMC3    C6 7194   3.517   2.234  15.615 -0.6211  0.5326 -0.0372
  480TMC3     C 7195   3.355   1.969  15.881 -0.3401  0.0848 -1.0642
  480TMC3     O 7196   3.432   1.889  15.918 -0.1619 -0.1539  0.1821
  480TMC3     H 7197   3.226   2.186  15.775  0.1107  0.5703  2.5234
  480TMC3    H1 7198   3.604   1.988  15.826  1.2671  1.1657 -1.3588
  480TMC3    H2 7199   3.547   2.301  15.535  2.8250  2.3051  2.7350
  480TMC3    C7 7200   3.732   2.142  15.659  0.2890 -0.1296  0.0454
  480TMC3    C8 7201   3.295   2.282  15.539 -0.2297  0.3221 -0.1127
  480TMC3    O1 7202   3.802   2.152  15.761  0.5447  0.0341 -1.0302
  480TMC3    O2 7203   3.189   2.323  15.584  0.1511  0.8567  0.4343
  481MPD2     C 7204   0.927   2.124  14.341 -0.5987 -0.9471  0.0423
  481MPD2    C1 7205   0.855   2.004  14.342  0.1292  0.4667 -0.6639
  481MPD2    C2 7206   0.770   1.980  14.447  0.5065  1.0027 -0.2472
  481MPD2    C3 7207   0.753   2.068  14.545 -0.2455 -0.4407 -0.2524
  481MPD2    C4 7208   0.839   2.177  14.553 -0.1574  0.1062 -0.7437
  481MPD2    C5 7209   0.930   2.201  14.453  0.4088 -1.0984 -0.6969
  481MPD2     H 7210   0.701   1.898  14.431  1.5115 -0.0290  0.6938
  481MPD2    H1 7211   0.835   2.253  14.630  0.8477 -1.1931  0.5904
  481MPD2    H2 7212   1.001   2.132  14.262 -0.5911 -1.4546  0.0001
  481MPD2    H3 7213   0.997   2.286  14.460  0.2923 -1.0013 -0.7647
  481MPD2     N 7214   0.667   2.053  14.653  0.7080 -0.5025 -0.2045
  481MPD2    H5 7215   0.670   2.126  14.723 -0.7004 -1.7838  1.1974
  481MPD2    N1 7216   0.863   1.922  14.229 -0.0771 -0.6603 -0.1970
  481MPD2    H7 7217   0.918   1.957  14.151 -1.4588  1.7088 -0.0868
  482TMC3    C1 7218   0.823   1.741  14.089  0.2985 -0.4109 -0.0021
  482TMC3    C2 7219   0.791   1.610  14.071 -0.0321 -0.1580  0.0302
  482TMC3    C3 7220   0.751   1.571  13.944  0.3562 -0.9499 -0.5809
  482TMC3    C4 7221   0.821   1.829  13.982  0.9452 -0.3447 -0.4163
  482TMC3    C5 7222   0.790   1.782  13.856  0.5491  0.4218 -0.1649
  482TMC3    C6 7223   0.765   1.654  13.827  0.0816 -0.6734  0.7173
  482TMC3     C 7224   0.809   1.801  14.222  0.7753 -0.0662 -0.9088
  482TMC3     O 7225   0.757   1.734  14.308  0.7116  0.1684 -0.0085
  482TMC3     H 7226   0.786   1.541  14.155  1.3483  1.3491  1.3410
  482TMC3    H1 7227   0.821   1.935  14.006 -1.7174 -0.1058 -1.4918
  482TMC3    H2 7228   0.747   1.609  13.730 -0.7286 -0.6341  0.8474
  482TMC3    C7 7229   0.676   1.860  13.804  0.6460 -0.8418 -0.9059
  482TMC3    C8 7230   0.641   1.479  13.946  0.8193  0.9582  0.0731
  482TMC3    O1 7231   0.606   1.923  13.882 -0.0439 -0.7505  0.4947
  482TMC3    O2 7232   0.626   1.402  14.038 -0.4361  0.5156 -0.1205
  483TMC3    C1 7233   3.958   0.936   1.259 -0.4445  0.8779 -0.6369
  483TMC3    C2 7234   3.956   0.981   1.126 -0.1048  0.4708  0.1780
  483TMC3    C3 7235   4.067   1.022   1.065  0.3156  0.2367 -0.3569
  483TMC3    C4 7236   4.069   0.951   1.330  0.1376 -0.3339  0.2287
  483TMC3    C5 7237   4.186   0.996   1.267 -0.6967 -0.0359  0.4155
  483TMC3    C6 7238   4.182   1.028   1.136 -0.0945  0.7103  0.7018
  483TMC3     C 7239   3.870   0.832   1.305 -0.5945 -0.5087  0.6484
  483TMC3     O 7240   3.861   0.808   1.428  0.7182 -0.1947  0.1014
  483TMC3     H 7241   3.868   0.987   1.063 -0.0250  1.3055  0.1403
  483TMC3    H1 7242   4.075   0.921   1.433  1.2549 -1.8358 -0.2768
  483TMC3    H2 7243   4.277   1.044   1.086 -0.6911  1.0435 -0.3267
  483TMC3    C7 7244   4.307   0.926   1.310 -0.0634  0.3501 -0.3317
  483TMC3    C8 7245   4.049   1.090   0.937  0.5281 -0.0921 -0.5433
  483TMC3    O1 7246   4.389   0.915   1.219  0.0435  0.4605 -0.0880
  483TMC3    O2 7247   3.945   1.089   0.879  0.3348  0.2676  0.0488
  484MPD2     C 7248   0.551   3.379  12.264 -0.0568 -0.7808  0.0997
  484MPD2    C1 7249   0.618   3.267  12.329  0.4574 -0.3238 -0.1424
  484MPD2    C2 7250   0.745   3.222  12.294 -0.2954 -0.2209  0.0995
  484MPD2    C3 7251   0.806   3.308  12.199  0.8184 -0.1839  0.4936
  484MPD2    C4 7252   0.733   3.395  12.121  0.1071  0.2710 -0.1097
  484MPD2    C5 7253   0.605   3.432  12.152  0.1464 -0.0010 -0.2745
  484MPD2     H 7254   0.791   3.135  12.339 -0.1259  0.8610  2.0367
  484MPD2    H1 7255   0.784   3.437  12.035  0.2434  0.4771  0.0726
  484MPD2    H2 7256   0.449   3.405  12.290  0.2876  2.3303 -1.6734
  484MPD2    H3 7257   0.547   3.495  12.086  2.6289  2.2712 -0.2712
  484MPD2     N 7258   0.939   3.284  12.159  0.1864 -0.1778  0.7459
  484MPD2    H5 7259   0.975   3.338  12.081 -4.4583  4.0803  1.5166
  484MPD2    N1 7260   0.539   3.205  12.427  0.3391 -0.0683  0.1424
  484MPD2    H7 7261   0.441   3.231  12.426  0.8485  1.9082  2.1908
  485TMC3    C1 7262   1.152   3.179  12.145 -0.9147  0.7256  0.0461
  485TMC3    C2 7263   1.199   3.053  12.138 -0.1538  0.1768  0.0928
  485TMC3    C3 7264   1.288   3.012  12.039  0.4277  0.1600  0.8834
  485TMC3    C4 7265   1.210   3.272  12.057 -0.0785  0.0601 -0.2723
  485TMC3    C5 7266   1.304   3.233  11.967 -0.7407 -0.4890  0.4221
  485TMC3    C6 7267   1.334   3.102  11.945 -0.7161 -0.3830  0.6404
  485TMC3     C 7268   1.023   3.188  12.216 -0.6843  0.1410 -0.1345
  485TMC3     O 7269   1.009   3.117  12.313 -0.2596  0.5899  0.1108
  485TMC3     H 7270   1.163   2.981  12.211 -0.4242 -0.0210 -0.2380
  485TMC3    H1 7271   1.217   3.376  12.088  0.2115  0.4510 -1.6358
  485TMC3    H2 7272   1.415   3.076  11.876  0.5302  0.2339  1.8695
  485TMC3    C7 7273   1.420   3.315  11.985  0.5194  0.0126  0.7587
  485TMC3    C8 7274   1.401   2.933  12.100  0.3580 -0.1860 -0.3634
  485TMC3    O1 7275   1.411   3.436  11.989 -0.0910 -0.2116  0.9896
  485TMC3    O2 7276   1.508   2.956  12.048  0.5631 -0.2164  0.1868
  486MPD2     C 7277   3.492   2.034  12.917  0.5869  0.5640 -0.2359
  486MPD2    C1 7278   3.384   2.036  12.836  0.3539 -0.1414  0.7460
  486MPD2    C2 7279   3.313   2.152  12.812 -0.0689  0.2202 -0.0902
  486MPD2    C3 7280   3.359   2.274  12.868 -0.2057 -0.1379 -0.5208
  486MPD2    C4 7281   3.470   2.264  12.954  0.4533  0.3566 -0.5537
  486MPD2    C5 7282   3.531   2.147  12.986  0.2060  0.2644  0.7184
  486MPD2     H 7283   3.231   2.166  12.742 -0.8498 -2.6967  0.2243
  486MPD2    H1 7284   3.510   2.342  13.018 -0.0856 -0.0335  0.2642
  486MPD2    H2 7285   3.540   1.941  12.945 -1.9645 -0.2128  1.5959
  486MPD2    H3 7286   3.612   2.140  13.058  1.3425 -0.6749 -0.6347
  486MPD2     N 7287   3.297   2.393  12.824  0.2799  0.3520  0.3554
  486MPD2    H5 7288   3.244   2.396  12.737  0.4652 -0.1771  0.2222
  486MPD2    N1 7289   3.347   1.907  12.789 -0.3758 -0.1449  0.1876
  486MPD2    H7 7290   3.400   1.829  12.825 -0.3662  0.1550  0.8151
  487TMC3    C1 7291   3.187   1.752  12.765  0.1529  0.9025 -0.5411
  487TMC3    C2 7292   3.096   1.684  12.683  0.1151  0.4624 -0.1074
  487TMC3    C3 7293   3.078   1.547  12.716  0.6858 -0.0464 -0.3313
  487TMC3    C4 7294   3.226   1.708  12.889 -0.5581  0.1669  0.4094
  487TMC3    C5 7295   3.201   1.581  12.922 -0.3654 -0.4684  0.4867
  487TMC3    C6 7296   3.135   1.504  12.832  0.5783 -0.1995  0.5358
  487TMC3     C 7297   3.219   1.884  12.739 -0.4258  0.5269 -0.5951
  487TMC3     O 7298   3.138   1.960  12.684  0.2265  0.5100  0.4934
  487TMC3     H 7299   3.055   1.731  12.594 -0.0973  0.7432  0.1381
  487TMC3    H1 7300   3.253   1.774  12.971  2.0119  0.7488 -0.8864
  487TMC3    H2 7301   3.121   1.403  12.870  2.6526 -0.7371 -0.1307
  487TMC3    C7 7302   3.185   1.559  13.063 -0.2042  0.8923  0.0538
  487TMC3    C8 7303   2.955   1.485  12.690  0.1519  0.2302 -0.2995
  487TMC3    O1 7304   3.246   1.622  13.146  0.3076  0.5216 -0.1822
  487TMC3    O2 7305   2.966   1.371  12.643 -0.0626  0.2992  0.2788
  488MPD2     C 7306   3.330   4.088  16.606  0.2723 -0.9442  0.3003
  488MPD2    C1 7307   3.254   4.193  16.555 -0.2275  0.5552  1.0415
  488MPD2    C2 7308   3.121   4.214  16.585 -0.1994  0.1380 -0.9124
  488MPD2    C3 7309   3.059   4.125  16.676 -0.0662  0.0693  0.8519
  488MPD2    C4 7310   3.130   4.018  16.725  0.8871  0.6733 -0.1339
  488MPD2    C5 7311   3.264   4.005  16.690  0.0514 -0.3550 -0.1720
  488MPD2     H 7312   3.064   4.297  16.546  1.0750  0.0028 -3.0704
  488MPD2    H1 7313   3.090   3.944  16.794  1.6211  1.6403  1.3328
  488MPD2    H2 7314   3.437   4.077  16.594  0.4638  0.4917  0.6667
  488MPD2    H3 7315   3.319   3.925  16.739  1.1025 -0.5829 -1.7220
  488MPD2     N 7316   2.928   4.153  16.714  0.3728 -0.2259  0.0266
  488MPD2    H5 7317   2.886   4.238  16.677 -2.5785 -1.2313  1.1034
  488MPD2    N1 7318   3.305   4.285  16.464 -0.2453 -0.1055 -0.1899
  488MPD2    H7 7319   3.236   4.340  16.415  0.5767  1.9140  0.9049
  489TMC3    C1 7320   2.740   4.152  16.841 -0.8197 -0.4230 -0.4288
  489TMC3    C2 7321   2.698   4.267  16.774  0.4755 -0.0193 -0.1423
  489TMC3    C3 7322   2.627   4.359  16.836 -0.3818 -0.1965  0.7685
  489TMC3    C4 7323   2.673   4.120  16.955 -0.1242 -0.1944 -0.3897
  489TMC3    C5 7324   2.573   4.202  16.998 -0.4930  0.3917  0.9240
  489TMC3    C6 7325   2.549   4.326  16.940 -0.7952 -0.2630  0.0197
  489TMC3     C 7326   2.861   4.079  16.805 -0.0182 -0.3814  0.4823
  489TMC3     O 7327   2.886   3.972  16.864 -0.0322  0.1143  0.1949
  489TMC3     H 7328   2.717   4.292  16.671 -0.0282  0.4179 -0.1272
  489TMC3    H1 7329   2.710   4.032  17.007  0.8632 -0.2635 -1.2037
  489TMC3    H2 7330   2.483   4.400  16.984 -1.4670 -1.4075  0.9310
  489TMC3    C7 7331   2.553   4.197  17.142 -0.0610 -0.7117  0.6518
  489TMC3    C8 7332   2.721   4.470  16.851 -0.1142  0.6159 -0.3128
  489TMC3    O1 7333   2.534   4.308  17.197  0.2572  0.3154 -0.0352
  489TMC3    O2 7334   2.831   4.449  16.802  0.5251 -0.1768  0.1671
  490MPD2     C 7335   3.653   3.627  17.133 -0.2661 -0.9992 -0.3662
  490MPD2    C1 7336   3.746   3.528  17.139 -0.2352  0.5859 -0.5486
  490MPD2    C2 7337   3.880   3.565  17.147 -0.3125 -0.0880 -0.0886
  490MPD2    C3 7338   3.915   3.703  17.154  0.1482 -0.4937  0.7088
  490MPD2    C4 7339   3.818   3.806  17.131  0.6313 -0.0307  0.0819
  490MPD2    C5 7340   3.683   3.763  17.126  0.6545  0.3625 -0.6079
  490MPD2     H 7341   3.949   3.482  17.153  0.9415  0.9104 -0.6477
  490MPD2    H1 7342   3.851   3.909  17.133 -2.0948  0.8341  0.3035
  490MPD2    H2 7343   3.546   3.610  17.128 -0.9008  1.8951  2.9044
  490MPD2    H3 7344   3.607   3.840  17.114 -0.6777 -0.3497  3.2348
  490MPD2     N 7345   4.046   3.738  17.168  0.0814  0.1469 -0.7271
  490MPD2    H5 7346   4.061   3.836  17.190  0.2016 -0.2589  1.0011
  490MPD2    N1 7347   3.704   3.390  17.141  0.1950  0.5994  0.5812
  490MPD2    H7 7348   3.777   3.326  17.170  1.9770  1.1445 -2.7511
  491TMC3    C1 7349   3.595   3.199  17.160 -0.6771 -0.8656 -0.3234
  491TMC3    C2 7350   3.620   3.196  17.288 -0.3677 -0.5998 -0.2906
  491TMC3    C3 7351   3.635   3.065  17.333  0.4301 -0.4367  0.7511
  491TMC3    C4 7352   3.560   3.090  17.083 -0.3654  0.6355  0.1504
  491TMC3    C5 7353   3.550   2.965  17.144  0.1854  0.0040  0.1906
  491TMC3    C6 7354   3.610   2.951  17.262 -0.2945 -0.1905 -0.9371
  491TMC3     C 7355   3.585   3.331  17.103 -0.7349  0.4057 -0.6259
  491TMC3     O 7356   3.484   3.372  17.045  0.4151 -0.4393  0.1017
  491TMC3     H 7357   3.625   3.289  17.344 -1.1830 -2.6009  3.1146
  491TMC3    H1 7358   3.518   3.113  16.986  2.7055  0.3111 -1.2704
  491TMC3    H2 7359   3.595   2.865  17.327 -1.0732 -0.7706 -1.8801
  491TMC3    C7 7360   3.454   2.871  17.087  0.2472 -0.1157 -0.1272
  491TMC3    C8 7361   3.636   3.061  17.481 -0.4405 -0.6167  0.2898
  491TMC3    O1 7362   3.378   2.917  17.002 -0.4977 -0.8908 -0.0967
  491TMC3    O2 7363   3.585   3.158  17.534  0.5098 -0.2360  0.6439
  492MPD2     C 7364   4.486   3.362  11.895  0.2473 -0.4487 -0.4209
  492MPD2    C1 7365   4.405   3.287  11.816  0.3682 -0.0148 -0.8728
  492MPD2    C2 7366   4.330   3.178  11.871 -0.6016  0.2991 -0.0593
  492MPD2    C3 7367   4.331   3.152  12.004 -0.7445  0.5722 -0.2921
  492MPD2    C4 7368   4.412   3.236  12.079 -0.5789 -0.1080  0.2799
  492MPD2    C5 7369   4.487   3.334  12.029 -0.1062 -0.2451  0.2524
  492MPD2     H 7370   4.265   3.126  11.802 -1.0180 -0.4305  0.8702
  492MPD2    H1 7371   4.425   3.223  12.186 -2.1450 -0.4639  0.4215
  492MPD2    H2 7372   4.547   3.437  11.847  1.2565 -1.7732 -1.2275
  492MPD2    H3 7373   4.553   3.380  12.102  1.0630 -1.1864 -0.2100
  492MPD2     N 7374   4.259   3.038  12.054  0.1388  0.1044 -0.2342
  492MPD2    H5 7375   4.213   2.978  11.987 -2.9782  3.6890 -1.3247
  492MPD2    N1 7376   4.405   3.327  11.682 -0.4348  0.1134  0.0390
  492MPD2    H7 7377   4.458   3.413  11.673  2.7589 -2.1170 -2.3651
  493TMC3    C1 7378   4.357   3.350  11.451 -0.1997  0.5817  0.0211
  493TMC3    C2 7379   4.437   3.457  11.444  0.1175 -0.5364  0.7954
  493TMC3    C3 7380   4.497   3.485  11.324 -0.3547  0.3753  0.1762
  493TMC3    C4 7381   4.331   3.270  11.342 -0.2962 -0.4544  0.3086
  493TMC3    C5 7382   4.388   3.303  11.224  1.2783 -0.5770  0.3658
  493TMC3    C6 7383   4.474   3.407  11.216  0.8600  0.2054 -0.4170
  493TMC3     C 7384   4.324   3.285  11.579  0.1481  0.2155 -0.0882
  493TMC3     O 7385   4.237   3.202  11.579 -0.1974  0.2202  0.0298
  493TMC3     H 7386   4.453   3.522  11.529  1.2473  0.0412  0.1423
  493TMC3    H1 7387   4.265   3.186  11.357  0.9022 -1.5014 -0.3445
  493TMC3    H2 7388   4.534   3.409  11.126  0.6118 -0.3146 -0.5947
  493TMC3    C7 7389   4.327   3.245  11.108  0.3136  0.2008  0.4463
  493TMC3    C8 7390   4.605   3.573  11.317 -0.0929  0.1653 -1.1817
  493TMC3    O1 7391   4.259   3.150  11.134 -0.1642  0.2744  0.4546
  493TMC3    O2 7392   4.665   3.599  11.424 -0.7454  0.3476  0.1339
  494TMC3    C1 7393   4.531   0.671   0.016  0.4006 -0.5986  0.7596
  494TMC3    C2 7394   4.550   0.537   0.038 -0.8261 -0.7476 -1.0210
  494TMC3    C3 7395   4.676   0.489   0.026  0.3052  0.4504  0.2295
  494TMC3    C4 7396   4.630   0.751  17.716  0.6829  0.0529 -0.0918
  494TMC3    C5 7397   0.022   0.707  17.710 -0.6955 -0.1044 -0.3584
  494TMC3    C6 7398   0.043   0.570  17.719  0.2937 -0.7031 -0.0681
  494TMC3     C 7399   4.447   0.734   0.120 -0.4068 -0.0661  0.5067
  494TMC3     O 7400   4.501   0.827   0.184 -0.5054  0.0630  0.1218
  494TMC3     H 7401   4.482   0.479   0.099 -0.9954 -1.7427 -2.1581
  494TMC3    H1 7402   4.599   0.855  17.706 -3.5684 -1.0746  1.2935
  494TMC3    H2 7403   0.143   0.534  17.701  0.8172  1.0961 -0.7967
  494TMC3    C7 7404   0.107   0.796  17.625 -0.6722  0.3757 -0.4370
  494TMC3    C8 7405   4.715   0.371   0.099  0.3108  0.4235 -0.1254
  494TMC3    O1 7406   0.159   0.751  17.525  0.0131 -0.0743  0.5724
  494TMC3    O2 7407   0.081   0.399   0.168  0.1986  0.1148 -0.0847
  495TMC3    C1 7408   3.579   2.015  14.701 -0.6765 -0.5719 -0.4543
  495TMC3    C2 7409   3.485   2.033  14.604 -0.5408  0.3648  0.1514
  495TMC3    C3 7410   3.434   2.160  14.605  0.4244  0.4696 -0.5660
  495TMC3    C4 7411   3.611   2.105  14.804 -0.0305 -0.0022 -0.2558
  495TMC3    C5 7412   3.541   2.223  14.803 -1.0793  0.6055 -0.3897
  495TMC3    C6 7413   3.451   2.248  14.708 -0.0652  0.6286  0.2026
  495TMC3     C 7414   3.620   1.878  14.732 -0.5642 -0.7429 -0.2939
  495TMC3     O 7415   3.740   1.852  14.759 -0.1247 -0.0684  0.2315
  495TMC3     H 7416   3.474   1.960  14.524 -1.6242  0.9764 -0.2590
  495TMC3    H1 7417   3.676   2.067  14.883  2.7894  2.8677 -1.2285
  495TMC3    H2 7418   3.420   2.351  14.698  1.3701  0.7192 -3.5012
  495TMC3    C7 7419   3.513   2.277  14.929 -0.1793  0.0105  0.0169
  495TMC3    C8 7420   3.336   2.199  14.506 -0.7286 -0.4058  0.3931
  495TMC3    O1 7421   3.601   2.253  15.013 -0.4697  0.8584 -0.4131
  495TMC3    O2 7422   3.253   2.277  14.548  0.1248 -0.2454 -0.9649
  496MPD2     C 7423   0.632   2.999  15.398 -1.0418 -0.1876 -0.1479
  496MPD2    C1 7424   0.701   2.893  15.443  0.4818 -0.3224 -0.7733
  496MPD2    C2 7425   0.633   2.789  15.507 -0.0460 -0.9152  0.2845
  496MPD2    C3 7426   0.492   2.792  15.511 -0.7779  0.5516 -0.4689
  496MPD2    C4 7427   0.424   2.895  15.453  0.2886  0.4261  0.3472
  496MPD2    C5 7428   0.497   3.002  15.405 -0.7674 -0.0909  0.6178
  496MPD2     H 7429   0.678   2.698  15.546  1.7600 -0.8011 -1.5357
  496MPD2    H1 7430   0.317   2.911  15.451  0.3496  0.9154  1.2068
  496MPD2    H2 7431   0.685   3.082  15.352 -1.3897 -0.2082 -0.5910
  496MPD2    H3 7432   0.448   3.090  15.364 -0.2160 -0.3802 -0.6741
  496MPD2     N 7433   0.422   2.678  15.546  0.1035 -0.0836 -0.0627
  496MPD2    H5 7434   0.477   2.613  15.602  1.8175  0.2568 -1.3497
  496MPD2    N1 7435   0.841   2.887  15.422 -0.3691 -0.1028 -0.2248
  496MPD2    H7 7436   0.880   2.963  15.367  0.1741 -0.3977 -0.2497
  497TMC3    C1 7437   0.243   2.525  15.567  0.0787  0.1058  0.1533
  497TMC3    C2 7438   0.193   2.421  15.499 -1.0522 -0.1330 -0.0660
  497TMC3    C3 7439   0.146   2.313  15.570 -0.5570  0.6184  0.1158
  497TMC3    C4 7440   0.252   2.523  15.703  0.5584 -0.2283 -0.1454
  497TMC3    C5 7441   0.199   2.417  15.768 -0.0358  0.4607  0.8147
  497TMC3    C6 7442   0.154   2.309  15.703  0.3811 -0.5364 -0.7039
  497TMC3     C 7443   0.294   2.641  15.495 -0.1659 -0.3798  0.0686
  497TMC3     O 7444   0.240   2.687  15.391 -1.1431 -0.8135  0.6812
  497TMC3     H 7445   0.215   2.415  15.393 -0.1807  0.0558  0.1014
  497TMC3    H1 7446   0.293   2.603  15.764  0.5797 -0.1400 -0.2754
  497TMC3    H2 7447   0.125   2.221  15.759  1.0847  0.7239  1.6328
  497TMC3    C7 7448   0.209   2.408  15.906  0.7011 -0.1331 -0.7950
  497TMC3    C8 7449   0.155   2.182  15.514  0.4765  0.2476  0.5401
  497TMC3    O1 7450   0.100   2.389  15.959  0.3663  0.5083  1.0215
  497TMC3    O2 7451   0.202   2.183  15.399  0.7502  0.3547 -0.4831
  498MPD2     C 7452   2.163   2.736   9.855  1.4649 -0.5956  0.3142
  498MPD2    C1 7453   2.094   2.802   9.950 -0.9260 -0.0639  0.3799
  498MPD2    C2 7454   1.968   2.763   9.984 -0.0732  0.4685  0.0197
  498MPD2    C3 7455   1.912   2.644   9.935  0.0707 -0.4474 -0.2380
  498MPD2    C4 7456   1.983   2.572   9.845 -0.0191  0.0554 -0.2982
  498MPD2    C5 7457   2.105   2.614   9.806  0.1292  0.5297  0.0102
  498MPD2     H 7458   1.921   2.811  10.069  1.6705 -1.5790  2.1554
  498MPD2    H1 7459   1.943   2.482   9.799  2.7628 -2.1740  1.6395
  498MPD2    H2 7460   2.267   2.759   9.834  0.3407  2.8093 -1.5197
  498MPD2    H3 7461   2.168   2.556   9.739 -1.2531  0.2686 -1.0609
  498MPD2     N 7462   1.785   2.607   9.981  0.3467  0.3916  0.5190
  498MPD2    H5 7463   1.744   2.661  10.057 -0.1553 -0.2359  0.6934
  498MPD2    N1 7464   2.145   2.923  10.012 -0.0581  0.7695 -0.0738
  498MPD2    H7 7465   2.092   2.972  10.083 -0.8240  0.7240 -0.6229
  499TMC3    C1 7466   2.327   3.077  10.065 -0.2188  0.7320  0.0135
  499TMC3    C2 7467   2.455   3.083  10.124 -0.6379  0.4703 -0.0194
  499TMC3    C3 7468   2.503   3.208  10.153  0.7981 -0.3173 -0.8784
  499TMC3    C4 7469   2.245   3.189  10.041 -0.2538  0.3978  0.3121
  499TMC3    C5 7470   2.299   3.309  10.082 -0.6833  0.0769 -0.6837
  499TMC3    C6 7471   2.428   3.320  10.134  0.4023 -0.0063 -0.9859
  499TMC3     C 7472   2.284   2.952  10.012 -0.7134  0.3280  0.1143
  499TMC3     O 7473   2.369   2.863  10.004 -0.5030  0.2103  1.1153
  499TMC3     H 7474   2.506   2.993  10.158 -0.1525 -0.1626 -2.4104
  499TMC3    H1 7475   2.147   3.180   9.996  0.1559  0.2901 -0.5607
  499TMC3    H2 7476   2.451   3.416  10.178 -1.1279  0.0198 -0.2303
  499TMC3    C7 7477   2.227   3.428  10.062 -0.3040 -0.2624  0.2434
  499TMC3    C8 7478   2.635   3.224  10.223  0.3725 -0.7918  0.0687
  499TMC3    O1 7479   2.290   3.533  10.060 -0.4448  0.4598  0.1989
  499TMC3    O2 7480   2.658   3.334  10.274 -0.1674 -0.1923 -0.2098
  500MPD2     C 7481   3.471   4.186  10.671  0.2604  0.1938  0.8412
  500MPD2    C1 7482   3.428   4.056  10.696  0.5350 -0.1996 -0.5618
  500MPD2    C2 7483   3.301   4.019  10.643  0.2365 -0.2705  0.3402
  500MPD2    C3 7484   3.223   4.109  10.574 -0.2547  0.1376 -0.4993
  500MPD2    C4 7485   3.279   4.236  10.559  0.1673  0.1442  0.0999
  500MPD2    C5 7486   3.398   4.270  10.594 -0.5142  0.4429 -0.0445
  500MPD2     H 7487   3.261   3.926  10.682 -0.2519 -0.0465  0.3691
  500MPD2    H1 7488   3.220   4.308  10.503 -0.3228  0.3301  0.8546
  500MPD2    H2 7489   3.565   4.226  10.709 -0.2632  1.6582  0.6070
  500MPD2    H3 7490   3.425   4.375  10.591  0.8095  0.1431  0.9380
  500MPD2     N 7491   3.097   4.083  10.521 -0.7371  0.3331  0.1021
  500MPD2    H5 7492   3.059   4.162  10.470 -1.8967 -0.0260  0.4051
  500MPD2    N1 7493   3.509   3.964  10.770 -0.0956 -0.6093  0.0390
  500MPD2    H7 7494   3.486   3.865  10.770 -0.0256 -0.6257  0.0811
  501TMC3    C1 7495   3.713   3.891  10.853 -0.3112 -0.0968  0.0532
  501TMC3    C2 7496   3.722   3.802  10.747  0.0108 -0.1294  0.5174
  501TMC3    C3 7497   3.843   3.754  10.720  0.0723 -0.2421 -0.0053
  501TMC3    C4 7498   3.821   3.921  10.934 -0.5453  0.0409 -0.7824
  501TMC3    C5 7499   3.941   3.868  10.897  0.4318  0.3321 -0.9277
  501TMC3    C6 7500   3.957   3.779  10.793  0.3308  0.1044 -0.6276
  501TMC3     C 7501   3.614   3.996  10.845  0.1665 -0.6021  0.5050
  501TMC3     O 7502   3.634   4.104  10.895  0.5089 -0.4359  0.3669
  501TMC3     H 7503   3.634   3.775  10.690 -0.8410 -0.0276  1.7599
  501TMC3    H1 7504   3.816   3.996  11.012  1.4879  0.7011 -1.2949
  501TMC3    H2 7505   4.049   3.732  10.760  0.2020  0.0809 -0.9559
  501TMC3    C7 7506   4.060   3.903  10.967  0.2147  0.7124  0.1398
  501TMC3    C8 7507   3.857   3.656  10.616 -0.0301  0.2744  0.3727
  501TMC3    O1 7508   4.046   3.952  11.076  0.0802 -0.0488  0.8517
  501TMC3    O2 7509   3.886   3.545  10.656  0.1083 -0.1419  0.3525
  502TMC3    C1 7510   2.679   4.177  15.491 -0.8249  0.5313  0.5599
  502TMC3    C2 7511   2.768   4.273  15.446 -0.5694 -0.1225  1.2171
  502TMC3    C3 7512   2.720   4.385  15.389 -0.4920  0.1632 -0.7040
  502TMC3    C4 7513   2.545   4.209  15.492 -0.8111 -0.2464  0.0057
  502TMC3    C5 7514   2.506   4.319  15.430  0.1781 -0.1158 -0.2605
  502TMC3    C6 7515   2.592   4.411  15.373 -0.2013 -0.4513  0.1246
  502TMC3     C 7516   2.725   4.038  15.483  0.2584 -0.2758  0.9864
  502TMC3     O 7517   2.806   4.011  15.395  0.3763  0.3349 -0.1301
  502TMC3     H 7518   2.873   4.246  15.437 -0.1403  1.8212  0.5417
  502TMC3    H1 7519   2.467   4.151  15.540 -0.1410  0.1533  1.5604
  502TMC3    H2 7520   2.555   4.493  15.314 -2.2113  0.1823  2.2761
  502TMC3    C7 7521   2.365   4.326  15.383 -0.3564 -0.7063  0.7168
  502TMC3    C8 7522   2.814   4.438  15.291  0.2879 -0.5630  0.0043
  502TMC3    O1 7523   2.310   4.432  15.422 -0.0532 -0.1692  0.2255
  502TMC3    O2 7524   2.930   4.447  15.328 -0.1451 -0.2830 -0.1991
  503MPD2     C 7525   0.071   4.305  17.252  0.2897  0.2035 -0.9030
  503MPD2    C1 7526   0.174   4.383  17.299 -0.1494  0.4269  0.1057
  503MPD2    C2 7527   0.282   4.317  17.350  0.2104  0.3892  0.6984
  503MPD2    C3 7528   0.289   4.183  17.365 -0.6884 -0.8350  0.2985
  503MPD2    C4 7529   0.185   4.102  17.317 -0.5042 -0.2376  0.5484
  503MPD2    C5 7530   0.073   4.169  17.273 -0.0347  0.2278 -0.4642
  503MPD2     H 7531   0.368   4.378  17.377  1.6676 -1.1898 -0.3855
  503MPD2    H1 7532   0.193   3.994  17.315  0.8851 -0.1042 -0.9446
  503MPD2    H2 7533   4.716   4.347  17.209 -0.8352  0.6379  1.8958
  503MPD2    H3 7534   4.725   4.113  17.232 -0.0233 -0.3523  0.3083
  503MPD2     N 7535   0.406   4.130  17.425  0.1178 -0.1263  0.3806
  503MPD2    H5 7536   0.474   4.201  17.452  1.1867  0.1720 -3.2110
  503MPD2    N1 7537   0.173   4.526  17.285  0.0735  0.2775 -0.8563
  503MPD2    H7 7538   0.266   4.566  17.298  0.0225  0.2404 -0.4005
  504TMC3    C1 7539   0.571   3.980  17.490  0.6159 -0.0510 -0.1446
  504TMC3    C2 7540   0.604   4.075  17.585  0.3673  0.0522 -0.3876
  504TMC3    C3 7541   0.726   4.058  17.640  0.0171  0.0932 -0.3411
  504TMC3    C4 7542   0.655   3.881  17.451 -0.4221 -0.8098 -0.2762
  504TMC3    C5 7543   0.779   3.873  17.506 -0.1122  0.2059  0.1853
  504TMC3    C6 7544   0.818   3.956  17.610  0.4322 -0.4650  0.1107
  504TMC3     C 7545   0.446   3.998  17.413  0.3248  0.2830  0.2506
  504TMC3     O 7546   0.396   3.903  17.356 -0.9422  0.0398 -0.1381
  504TMC3     H 7547   0.526   4.126  17.641 -0.0756 -0.2751 -0.7050
  504TMC3    H1 7548   0.620   3.813  17.374  0.6180 -2.2084  0.4850
  504TMC3    H2 7549   0.917   3.951  17.654  0.7607  2.4360 -0.3119
  504TMC3    C7 7550   0.853   3.750  17.496 -0.5553 -0.4766 -0.7812
  504TMC3    C8 7551   0.750   4.130   0.023  0.3821 -0.3679  0.3304
  504TMC3    O1 7552   0.943   3.741  17.578  0.1515 -0.2120  0.1127
  504TMC3    O2 7553   0.850   4.200   0.038  0.3442 -0.9861  0.0323
  505MPD2     C 7554   0.470   2.197  10.504  0.1108  0.4046  0.2078
  505MPD2    C1 7555   0.557   2.089  10.531 -0.0314 -0.5594  0.3299
  505MPD2    C2 7556   0.656   2.111  10.628  0.2317  0.4467  0.0855
  505MPD2    C3 7557   0.655   2.224  10.706  0.5711 -0.4245 -0.6480
  505MPD2    C4 7558   0.573   2.334  10.669 -0.6977 -0.4910 -0.6138
  505MPD2    C5 7559   0.479   2.317  10.572 -0.0356 -0.2841  0.4511
  505MPD2     H 7560   0.724   2.027  10.641 -0.0162  0.2455  0.0951
  505MPD2    H1 7561   0.571   2.431  10.717  1.6777 -0.5872 -0.3248
  505MPD2    H2 7562   0.394   2.195  10.427  0.2180  2.0641  0.0533
  505MPD2    H3 7563   0.406   2.394  10.550  0.0795 -0.4517 -0.5363
  505MPD2     N 7564   0.753   2.267  10.802  0.1081  0.6966  0.0077
  505MPD2    H5 7565   0.777   2.360  10.832 -1.0687  0.7915  0.6319
  505MPD2    N1 7566   0.528   1.963  10.468 -0.9719  0.3856 -0.0051
  505MPD2    H7 7567   0.451   1.957  10.402 -0.9146 -0.3246 -0.0039
  506TMC3    C1 7568   0.583   1.752  10.383  0.8015  0.3539 -0.0991
  506TMC3    C2 7569   0.615   1.810  10.263 -0.8221  0.0655  0.3405
  506TMC3    C3 7570   0.722   1.763  10.186 -0.0245  0.2581  0.7377
  506TMC3    C4 7571   0.658   1.639  10.420 -0.4509  0.5671  0.2894
  506TMC3    C5 7572   0.775   1.620  10.351  1.1128 -0.3721 -0.0105
  506TMC3    C6 7573   0.813   1.676  10.229 -0.6181  0.1976  0.1570
  506TMC3     C 7574   0.592   1.848  10.489 -0.1724 -0.4067 -0.2869
  506TMC3     O 7575   0.663   1.822  10.581 -0.0023 -0.0844 -0.1239
  506TMC3     H 7576   0.550   1.887  10.225 -1.4843 -0.1709  0.9845
  506TMC3    H1 7577   0.637   1.606  10.521 -0.1552 -0.5070 -0.0055
  506TMC3    H2 7578   0.903   1.663  10.170 -2.4711 -0.4402 -2.5027
  506TMC3    C7 7579   0.890   1.602  10.433 -0.1447  0.2531 -0.1086
  506TMC3    C8 7580   0.753   1.838  10.064  0.4236  0.0360  0.1036
  506TMC3    O1 7581   0.992   1.552  10.387 -0.2935 -0.4058 -0.3462
  506TMC3    O2 7582   0.664   1.847   9.983 -0.0338 -0.0195 -0.2029
  507TMC3    C1 7583   1.275   3.413  14.372 -0.2119  0.1801 -0.2836
  507TMC3    C2 7584   1.293   3.344  14.258  0.1525  0.2204 -0.3178
  507TMC3    C3 7585   1.344   3.414  14.145 -0.2286 -0.4949  1.0589
  507TMC3    C4 7586   1.324   3.539  14.393 -0.4734  0.7219 -0.5770
  507TMC3    C5 7587   1.394   3.595  14.287 -0.2325 -1.0406  0.0656
  507TMC3    C6 7588   1.408   3.538  14.159 -0.0725  0.2522  0.0701
  507TMC3     C 7589   1.134   3.419  14.417 -0.1172 -0.4437 -0.4172
  507TMC3     O 7590   1.110   3.490  14.509 -0.1315 -0.8271 -0.6234
  507TMC3     H 7591   1.265   3.240  14.243  1.9568 -0.2556 -0.3383
  507TMC3    H1 7592   1.308   3.591  14.487  0.6417 -0.7271  0.4301
  507TMC3    H2 7593   1.451   3.590  14.074  1.6979  0.9614  1.4042
  507TMC3    C7 7594   1.382   3.738  14.265 -0.1024  0.4554  0.4762
  507TMC3    C8 7595   1.247   3.413  14.042  0.7064  0.3022 -0.6397
  507TMC3    O1 7596   1.362   3.773  14.150  0.0158  0.3345 -0.2640
  507TMC3    O2 7597   1.165   3.321  14.050  0.8777 -0.1089  0.4904
  508MPD2     C 7598   2.430   0.918  15.969 -1.0098 -0.7032  0.0975
  508MPD2    C1 7599   2.384   1.012  16.063  0.3656  0.4740  0.0671
  508MPD2    C2 7600   2.350   1.139  16.019  0.1522 -0.2399  0.4254
  508MPD2    C3 7601   2.353   1.164  15.886 -0.7690  0.0066  0.1090
  508MPD2    C4 7602   2.387   1.067  15.790  0.1957  0.0471  0.2410
  508MPD2    C5 7603   2.436   0.944  15.833 -0.3489 -0.0145 -0.5142
  508MPD2     H 7604   2.296   1.209  16.082  1.0488  0.6191  0.2410
  508MPD2    H1 7605   2.376   1.078  15.683  0.0572  2.3437  0.4791
  508MPD2    H2 7606   2.439   0.815  16.002 -0.4629 -1.9300 -3.8300
  508MPD2    H3 7607   2.450   0.862  15.764  2.0481 -0.2544  0.2512
  508MPD2     N 7608   2.308   1.291  15.841  0.0128  0.4479  0.4068
  508MPD2    H5 7609   2.272   1.349  15.916 -0.1769 -0.1951  0.8054
  508MPD2    N1 7610   2.383   0.976  16.200  0.5258 -0.4882 -0.1719
  508MPD2    H7 7611   2.404   0.878  16.218  0.7341 -0.5932 -0.9864
  509TMC3    C1 7612   2.212   1.680  15.596 -0.2197 -0.0621 -0.3346
  509TMC3    C2 7613   2.243   1.754  15.704 -0.2077  0.1459 -0.1661
  509TMC3    C3 7614   2.286   1.696  15.821  0.3251 -0.4177  0.2326
  509TMC3    C4 7615   2.213   1.546  15.613 -0.6672  0.9280 -0.0358
  509TMC3    C5 7616   2.264   1.488  15.724 -0.6038  0.2004  0.2513
  509TMC3    C6 7617   2.302   1.559  15.831 -0.4011  0.0566  0.6950
  509TMC3     C 7618   2.085   1.728  15.539 -0.6130 -0.6395 -0.7275
  509TMC3     O 7619   1.987   1.676  15.590  0.6327  0.4788  0.8405
  509TMC3     H 7620   2.208   1.857  15.699 -1.6905 -0.3868 -0.6287
  509TMC3    H1 7621   2.175   1.477  15.540  0.5719  0.3308 -0.1223
  509TMC3    H2 7622   2.354   1.520  15.918  1.7521 -0.4018 -0.7962
  509TMC3    C7 7623   2.302   1.346  15.713 -0.3341  0.3143 -0.3769
  509TMC3    C8 7624   2.280   1.767  15.941 -0.2039  0.2916  0.9668
  509TMC3    O1 7625   2.330   1.296  15.606 -0.4734  0.3506 -0.5095
  509TMC3    O2 7626   2.294   1.708  16.047 -0.0408 -0.1822 -0.0037
  510MPD2     C 7627   0.129   2.698  14.330  0.3579  0.7138 -0.3379
  510MPD2    C1 7628   0.204   2.682  14.445 -0.5210 -0.5393 -0.3826
  510MPD2    C2 7629   0.337   2.729  14.453 -0.4413 -0.2524  0.9067
  510MPD2    C3 7630   0.395   2.781  14.334 -0.5400 -0.2809  0.7662
  510MPD2    C4 7631   0.317   2.794  14.220 -0.1381 -0.0616 -0.1084
  510MPD2    C5 7632   0.184   2.763  14.220 -0.5555 -0.8370 -0.0553
  510MPD2     H 7633   0.403   2.726  14.539  1.1664 -1.2966 -0.3488
  510MPD2    H1 7634   0.356   2.837  14.129 -1.8980  0.5441 -0.5847
  510MPD2    H2 7635   0.024   2.675  14.337  0.4993  0.1511 -0.0805
  510MPD2    H3 7636   0.132   2.782  14.126 -1.6235 -4.2282 -0.1533
  510MPD2     N 7637   0.528   2.824  14.342 -0.2343 -1.3048 -0.9731
  510MPD2    H5 7638   0.568   2.824  14.435 -0.1500  1.2557 -1.0136
  510MPD2    N1 7639   0.137   2.638  14.558 -0.5782  0.2529 -0.1258
  510MPD2    H7 7640   0.043   2.601  14.546 -0.3452 -0.9956  1.9562
  511TMC3    C1 7641   0.102   2.562  14.779  0.3269 -0.0655  0.0801
  511TMC3    C2 7642   0.091   2.589  14.912  0.4478  0.0807 -0.1992
  511TMC3    C3 7643   0.015   2.507  14.994  0.1351  0.0151 -0.3916
  511TMC3    C4 7644   0.035   2.458  14.721  0.9851  0.9927 -0.1931
  511TMC3    C5 7645   4.705   2.376  14.805  0.3634  0.3964 -0.3167
  511TMC3    C6 7646   4.689   2.397  14.943 -0.6967  0.5648 -0.1184
  511TMC3     C 7647   0.175   2.653  14.689  0.6286  0.3076 -0.4366
  511TMC3     O 7648   0.269   2.713  14.744  0.2407 -0.0995  0.1309
  511TMC3     H 7649   0.153   2.670  14.948 -1.4742  0.7743  1.5056
  511TMC3    H1 7650   0.056   2.426  14.619 -2.0809  0.9074 -0.7970
  511TMC3    H2 7651   4.626   2.342  15.012  0.9456 -2.0261 -0.6644
  511TMC3    C7 7652   4.622   2.272  14.749  0.2061 -0.3978  0.6367
  511TMC3    C8 7653   4.706   2.565  15.129  0.1809 -0.4705 -0.6101
  511TMC3    O1 7654   4.599   2.286  14.633 -0.4111  0.1655  0.0996
  511TMC3    O2 7655   4.695   2.688  15.139 -0.2087  0.2762 -0.5596
  512TMC3    C1 7656   4.191   1.603  13.959 -0.2186 -0.0364 -0.7119
  512TMC3    C2 7657   4.112   1.711  13.958 -0.6083  0.7627 -0.4060
  512TMC3    C3 7658   3.980   1.687  13.967 -0.4526 -0.1189  0.5991
  512TMC3    C4 7659   4.144   1.474  13.967  0.1703  0.5293 -0.4065
  512TMC3    C5 7660   4.010   1.460  13.974 -0.5759 -0.2220 -1.0503
  512TMC3    C6 7661   3.928   1.566  13.974 -0.4431 -0.1855 -0.0711
  512TMC3     C 7662   4.332   1.628  13.957  0.7098  0.0709 -0.4833
  512TMC3     O 7663   4.395   1.525  13.969 -0.4411  0.2304 -0.3963
  512TMC3     H 7664   4.147   1.813  13.960 -1.7485  1.1255  1.8665
  512TMC3    H1 7665   4.213   1.394  13.992  1.5140  1.2109 -1.9356
  512TMC3    H2 7666   3.823   1.549  13.994  0.0077 -1.6870  1.0524
  512TMC3    C7 7667   3.943   1.334  13.991  0.4998 -0.5632 -0.4717
  512TMC3    C8 7668   3.886   1.795  13.990 -0.4920  0.0658  0.0443
  512TMC3    O1 7669   3.844   1.334  14.059  0.0878 -0.6610  0.3073
  512TMC3    O2 7670   3.782   1.765  14.050 -0.1986  0.3574 -0.0071
  513MPD2     C 7671   0.635   2.167  13.561  0.0549  1.3321  0.2297
  513MPD2    C1 7672   0.758   2.164  13.501  0.4968  0.6028 -0.1154
  513MPD2    C2 7673   0.875   2.169  13.572  0.3327 -0.0779  0.6150
  513MPD2    C3 7674   0.871   2.175  13.709 -0.6545  0.3577  0.1535
  513MPD2    C4 7675   0.748   2.178  13.774 -0.0702  0.6344 -0.2387
  513MPD2    C5 7676   0.628   2.177  13.702  0.1662 -0.0747 -0.4988
  513MPD2     H 7677   0.968   2.169  13.517 -0.3940  2.3194 -0.6271
  513MPD2    H1 7678   0.739   2.203  13.879 -1.0297 -1.0323  0.0769
  513MPD2    H2 7679   0.549   2.143  13.500  1.0505 -0.8621 -0.3320
  513MPD2    H3 7680   0.535   2.183  13.757  1.1513 -0.0609  1.1664
  513MPD2     N 7681   0.992   2.189  13.777  0.2546 -0.0312  0.2422
  513MPD2    H5 7682   1.076   2.198  13.721  0.4200 -0.0798  0.4814
  513MPD2    N1 7683   0.782   2.133  13.363  0.6130 -0.0131  0.3955
  513MPD2    H7 7684   0.879   2.117  13.340  0.6246 -0.9587  1.0869
  514TMC3    C1 7685   0.770   2.085  13.142  0.5499 -0.4341  0.3695
  514TMC3    C2 7686   0.772   2.175  13.040  0.4805  0.9410 -0.1650
  514TMC3    C3 7687   0.866   2.161  12.951 -0.1388 -0.3012 -0.2982
  514TMC3    C4 7688   0.868   1.998  13.169  0.2882  0.2683  0.3128
  514TMC3    C5 7689   0.981   2.003  13.089  0.1325  0.7131  0.5828
  514TMC3    C6 7690   0.970   2.072  12.974  0.2876 -0.4207 -0.5431
  514TMC3     C 7691   0.696   2.125  13.260  0.2356  0.1701  1.1270
  514TMC3     O 7692   0.578   2.148  13.262 -0.1271  0.0278 -0.1839
  514TMC3     H 7693   0.696   2.251  13.022 -0.9518 -0.1117  1.5294
  514TMC3    H1 7694   0.861   1.936  13.257  1.4199  0.9167  0.8474
  514TMC3    H2 7695   1.065   2.096  12.926  0.3423 -0.3463 -0.3980
  514TMC3    C7 7696   1.092   2.023  13.184  0.0901  0.1369  0.1694
  514TMC3    C8 7697   0.802   2.159  12.820 -0.0304  0.1544 -0.4301
  514TMC3    O1 7698   1.052   2.058  13.293 -0.2762  0.2322 -0.2257
  514TMC3    O2 7699   0.677   2.169  12.818  0.7207  0.2890  0.6559
  515MPD2     C 7700   3.786   3.888  15.136 -0.0574 -0.0224 -0.2590
  515MPD2    C1 7701   3.775   3.918  14.995  0.0100 -0.6149 -0.7213
  515MPD2    C2 7702   3.802   4.039  14.953 -0.4547 -0.1288 -0.3586
  515MPD2    C3 7703   3.844   4.142  15.040 -0.3188 -0.1159  0.0324
  515MPD2    C4 7704   3.840   4.119  15.180  0.1533  0.7299 -0.2630
  515MPD2    C5 7705   3.812   3.992  15.222 -0.2034  0.3805 -0.0881
  515MPD2     H 7706   3.804   4.054  14.846  1.2695 -0.9673 -0.4562
  515MPD2    H1 7707   3.875   4.195  15.250 -1.5338  2.1036 -0.9118
  515MPD2    H2 7708   3.783   3.786  15.172  1.3843 -0.2588 -0.8211
  515MPD2    H3 7709   3.819   3.971  15.328 -1.3301  2.0510  0.3162
  515MPD2     N 7710   3.895   4.266  14.994  0.2906 -0.5242 -0.4244
  515MPD2    H5 7711   3.928   4.325  15.070 -2.2833  1.6110 -0.9446
  515MPD2    N1 7712   3.746   3.818  14.902 -0.0992  0.0515  0.2728
  515MPD2    H7 7713   3.759   3.853  14.807  0.5435  0.1794  0.4058
  516TMC3    C1 7714   3.629   3.631  14.830 -0.0046  0.4272  0.6082
  516TMC3    C2 7715   3.582   3.712  14.724 -0.1963  0.1450 -0.4385
  516TMC3    C3 7716   3.485   3.650  14.645 -0.1942  0.4914 -0.2428
  516TMC3    C4 7717   3.594   3.502  14.847 -0.1889  0.4713  0.1739
  516TMC3    C5 7718   3.495   3.449  14.770  0.4425 -0.4060  0.1211
  516TMC3    C6 7719   3.445   3.516  14.660 -0.2564 -0.1731 -0.3219
  516TMC3     C 7720   3.683   3.699  14.941 -0.4915 -0.4950  0.3383
  516TMC3     O 7721   3.674   3.641  15.052 -0.2327  0.1906 -0.0352
  516TMC3     H 7722   3.600   3.819  14.719  1.7588 -0.1427  0.6734
  516TMC3    H1 7723   3.634   3.445  14.931 -0.5580  0.2614  0.2091
  516TMC3    H2 7724   3.366   3.469  14.602 -0.0573 -2.0162  0.8938
  516TMC3    C7 7725   3.450   3.318  14.806  0.3098 -0.0935 -0.1496
  516TMC3    C8 7726   3.442   3.719  14.525  0.2687  0.3361  0.5625
  516TMC3    O1 7727   3.504   3.270  14.905 -0.4063 -0.5449  0.3164
  516TMC3    O2 7728   3.335   3.679  14.478 -0.1505  0.1948  0.6609
  517MPD2     C 7729   3.191   0.890   0.101  0.1419 -0.7839 -0.0388
  517MPD2    C1 7730   3.319   0.846   0.084  0.0193  0.5647 -0.2299
  517MPD2    C2 7731   3.427   0.924   0.123  0.0945  0.9658  0.2163
  517MPD2    C3 7732   3.410   1.054   0.171  0.5514  0.4044  0.5161
  517MPD2    C4 7733   3.282   1.104   0.181  0.8761  0.8416  0.4543
  517MPD2    C5 7734   3.175   1.020   0.143  0.5743  0.0353  0.1477
  517MPD2     H 7735   3.526   0.879   0.120 -1.5073 -2.4281 -1.2970
  517MPD2    H1 7736   3.260   1.205   0.214 -0.4405 -0.0474  2.3591
  517MPD2    H2 7737   3.105   0.829   0.078 -0.4498  0.0639 -0.0922
  517MPD2    H3 7738   3.073   1.057   0.143  0.9609  1.1575 -2.1536
  517MPD2     N 7739   3.513   1.148   0.213  0.2638 -0.0415  0.3187
  517MPD2    H5 7740   3.473   1.237   0.243 -2.4572 -0.7930 -1.0669
  517MPD2    N1 7741   3.351   0.718   0.031  0.7029  0.2733 -0.4020
  517MPD2    H7 7742   3.440   0.680   0.062 -0.6957 -2.0161  0.7515
  518TMC3    C1 7743   3.335   0.516  17.663  0.0404  0.4540  0.2831
  518TMC3    C2 7744   3.254   0.409  17.627  0.2932 -0.7709  0.3540
  518TMC3    C3 7745   3.317   0.289  17.575 -0.6757  0.0709 -0.0064
  518TMC3    C4 7746   3.467   0.512  17.625  0.0531  0.5160  0.2401
  518TMC3    C5 7747   3.523   0.395  17.569 -0.6993  0.6711  0.6194
  518TMC3    C6 7748   3.452   0.282  17.545  1.1697 -0.1992  0.0641
  518TMC3     C 7749   3.267   0.637  17.705 -0.1819 -0.4809 -0.5205
  518TMC3     O 7750   3.145   0.653  17.686 -0.6017  0.1339  0.0804
  518TMC3     H 7751   3.147   0.406  17.648  0.2191 -0.5314  0.0160
  518TMC3    H1 7752   3.534   0.597  17.634  0.5514  0.0934  0.5399
  518TMC3    H2 7753   3.490   0.189  17.504  3.2776  1.1240 -0.9725
  518TMC3    C7 7754   3.660   0.396  17.521  0.4127  0.7835 -0.9952
  518TMC3    C8 7755   3.241   0.183  17.507 -0.2064 -0.6115 -1.0505
  518TMC3    O1 7756   3.734   0.488  17.560  0.1040 -0.4128 -0.0832
  518TMC3    O2 7757   3.292   0.073  17.496 -0.5124 -0.2920 -0.3505
  519MPD2     C 7758   0.584   3.794  14.175  0.7598 -0.0624  0.0903
  519MPD2    C1 7759   0.487   3.790  14.076 -0.7802  0.1703  0.0077
  519MPD2    C2 7760   0.473   3.676  13.996  0.3439 -0.7540  0.2631
  519MPD2    C3 7761   0.559   3.574  14.016 -0.4510 -0.1704 -0.8725
  519MPD2    C4 7762   0.664   3.580  14.101  0.2335 -1.1381  0.0604
  519MPD2    C5 7763   0.672   3.688  14.182  0.2487  0.4954  0.2005
  519MPD2     H 7764   0.384   3.667  13.935 -0.0587  1.3258  0.5392
  519MPD2    H1 7765   0.741   3.503  14.106  1.7259  0.2142 -2.5189
  519MPD2    H2 7766   0.605   3.881  14.236 -0.0123  0.7492 -0.8033
  519MPD2    H3 7767   0.756   3.697  14.250 -0.3529 -0.6598  1.0939
  519MPD2     N 7768   0.560   3.456  13.944  0.4020  0.2680 -0.2385
  519MPD2    H5 7769   0.631   3.388  13.969 -2.0459 -1.1590  2.8172
  519MPD2    N1 7770   0.394   3.893  14.084 -0.2237 -0.5935 -0.6085
  519MPD2    H7 7771   0.401   3.945  14.171  1.1120 -0.4527 -0.7915
  520TMC3    C1 7772   0.501   3.292  13.792  0.1690 -0.5528 -0.4840
  520TMC3    C2 7773   0.402   3.202  13.811 -0.3021  0.7012  0.0942
  520TMC3    C3 7774   0.436   3.072  13.833  0.4852 -0.0963  0.2427
  520TMC3    C4 7775   0.631   3.255  13.788  0.6006  0.3760  0.7811
  520TMC3    C5 7776   0.665   3.121  13.805  0.2766  0.0065  0.1346
  520TMC3    C6 7777   0.565   3.027  13.830 -0.3752 -0.1335  0.0376
  520TMC3     C 7778   0.461   3.415  13.857  0.1727  0.7003 -0.1320
  520TMC3     O 7779   0.348   3.456  13.845 -0.5597  0.0638  0.3254
  520TMC3     H 7780   0.299   3.235  13.812 -0.7722 -0.8039  0.5514
  520TMC3    H1 7781   0.709   3.330  13.793  1.6174 -0.5949 -0.7364
  520TMC3    H2 7782   0.591   2.922  13.840 -1.1660 -0.5076 -1.6961
  520TMC3    C7 7783   0.803   3.089  13.837  0.1895 -0.2876 -0.2141
  520TMC3    C8 7784   0.336   2.967  13.839  0.4484 -0.3238  0.1878
  520TMC3    O1 7785   0.828   3.009  13.925  0.3502 -0.5641  0.4962
  520TMC3    O2 7786   0.377   2.864  13.784 -0.1476 -0.2165 -0.3699
  521MPD2     C 7787   1.251   2.000  17.523  0.7572  0.4500  0.7651
  521MPD2    C1 7788   1.205   1.911  17.429 -0.0767 -0.4435 -0.0993
  521MPD2    C2 7789   1.290   1.814  17.385 -0.1835 -0.2582 -0.7154
  521MPD2    C3 7790   1.424   1.821  17.424 -0.0123 -0.3383 -0.3440
  521MPD2    C4 7791   1.471   1.916  17.521 -0.1235 -0.1847 -0.0682
  521MPD2    C5 7792   1.382   2.008  17.562  0.2928  0.8923  0.0914
  521MPD2     H 7793   1.255   1.742  17.312  2.1837 -1.2557 -0.8812
  521MPD2    H1 7794   1.576   1.927  17.544 -0.5799  1.3703  1.2233
  521MPD2    H2 7795   1.184   2.078  17.558  0.5259  1.1896 -1.3616
  521MPD2    H3 7796   1.418   2.090  17.623  2.0857  0.9025 -0.9949
  521MPD2     N 7797   1.517   1.744  17.347 -0.7838  0.5856 -0.3129
  521MPD2    H5 7798   1.484   1.674  17.281 -0.0864  1.2319 -1.3352
  521MPD2    N1 7799   1.077   1.939  17.373 -0.1208 -0.2039 -0.5088
  521MPD2    H7 7800   1.020   2.016  17.407 -1.9847 -2.0347  0.5114
  522TMC3    C1 7801   1.697   1.660  17.252 -0.1503 -0.1280 -0.2934
  522TMC3    C2 7802   1.792   1.570  17.276  0.6766  0.0402 -0.7160
  522TMC3    C3 7803   1.820   1.474  17.184 -0.5040  0.0846 -0.2035
  522TMC3    C4 7804   1.634   1.656  17.127 -0.3881  0.4341 -1.1695
  522TMC3    C5 7805   1.654   1.557  17.037 -0.1784  0.1176  0.8080
  522TMC3    C6 7806   1.741   1.461  17.071 -0.4279  0.4205 -0.3264
  522TMC3     C 7807   1.652   1.758  17.344  0.4333 -0.7004  0.6165
  522TMC3     O 7808   1.729   1.807  17.424 -0.5636 -0.0043 -0.4013
  522TMC3     H 7809   1.861   1.568  17.359 -0.7295 -1.6618  0.4247
  522TMC3    H1 7810   1.571   1.741  17.103 -0.3093  0.3312 -1.7477
  522TMC3    H2 7811   1.761   1.385  16.997  1.6381 -0.2443  0.9155
  522TMC3    C7 7812   1.536   1.520  16.957 -0.2844 -0.6443 -0.4587
  522TMC3    C8 7813   1.909   1.368  17.225 -0.5262  0.3064 -0.2841
  522TMC3    O1 7814   1.506   1.398  16.968 -0.0669 -0.2573  0.6849
  522TMC3    O2 7815   1.914   1.334  17.345  0.5431  0.6715  0.4782
  523MPD2     C 7816   3.788   1.299  10.501 -0.2169 -0.2795 -0.1179
  523MPD2    C1 7817   3.870   1.329  10.396  0.0732 -0.0609  0.3333
  523MPD2    C2 7818   3.836   1.443  10.317 -0.0593 -0.3246  0.4673
  523MPD2    C3 7819   3.736   1.533  10.363 -0.6650  0.3949  0.0063
  523MPD2    C4 7820   3.655   1.494  10.463  0.5220  0.7387  0.3629
  523MPD2    C5 7821   3.678   1.373  10.523 -0.6639  0.4604  0.2450
  523MPD2     H 7822   3.888   1.482  10.231 -1.3993 -1.8510 -1.0358
  523MPD2    H1 7823   3.570   1.545  10.508 -1.0170 -1.0884 -0.4480
  523MPD2    H2 7824   3.802   1.206  10.554  1.0008 -1.3270 -2.2651
  523MPD2    H3 7825   3.613   1.332  10.600 -2.9557  0.5038 -1.6915
  523MPD2     N 7826   3.702   1.658  10.306  0.0705  0.1742  0.7365
  523MPD2    H5 7827   3.615   1.695  10.342  0.5374  1.0723  0.9415
  523MPD2    N1 7828   3.989   1.252  10.376 -0.2701 -0.5659 -0.1541
  523MPD2    H7 7829   4.013   1.187  10.450  0.6099  1.6609  1.5064
  524TMC3    C1 7830   3.738   1.880  10.204  0.0473 -0.7215  0.0198
  524TMC3    C2 7831   3.825   1.971  10.166  0.0961  0.6412  0.0924
  524TMC3    C3 7832   3.773   2.093  10.128 -0.1931 -0.2088 -0.1604
  524TMC3    C4 7833   3.604   1.902  10.208 -0.1668  0.3011  0.1670
  524TMC3    C5 7834   3.552   2.024  10.173  0.6444 -0.3340 -0.5416
  524TMC3    C6 7835   3.641   2.128  10.143  0.1637 -0.3486 -0.0250
  524TMC3     C 7836   3.788   1.739  10.233 -0.1855  0.3052 -0.4168
  524TMC3     O 7837   3.906   1.717  10.206 -0.2818 -0.0875 -0.0385
  524TMC3     H 7838   3.927   1.952  10.199  0.2122  0.4459 -0.3803
  524TMC3    H1 7839   3.540   1.820  10.239 -0.4578  0.2593 -0.5312
  524TMC3    H2 7840   3.620   2.234  10.126 -0.5284 -0.2030  1.6930
  524TMC3    C7 7841   3.416   2.048  10.201  0.4538  0.0787  0.4686
  524TMC3    C8 7842   3.869   2.195  10.094  0.7274  0.4722  0.6497
  524TMC3    O1 7843   3.359   1.967  10.274  0.0635 -0.1826  0.1265
  524TMC3    O2 7844   3.831   2.310  10.095  0.1180  0.2204 -0.2796
  525MPD2     C 7845   1.988   3.201  14.312 -0.6843 -0.2783  0.8539
  525MPD2    C1 7846   2.081   3.169  14.411  0.8246 -0.3955  0.1047
  525MPD2    C2 7847   2.219   3.201  14.392  0.2975 -0.2611  0.6169
  525MPD2    C3 7848   2.254   3.278  14.283 -0.9773 -0.2760 -0.7822
  525MPD2    C4 7849   2.165   3.316  14.192 -0.5165  0.6407 -0.6973
  525MPD2    C5 7850   2.039   3.265  14.199 -0.1269  0.0754  0.0605
  525MPD2     H 7851   2.290   3.176  14.470  0.1887  1.8876  1.4054
  525MPD2    H1 7852   2.189   3.374  14.103 -0.9380  1.5756 -0.2074
  525MPD2    H2 7853   1.883   3.175  14.313 -0.8137  0.3199  4.8141
  525MPD2    H3 7854   1.979   3.283  14.111  0.2819 -0.8121 -0.4048
  525MPD2     N 7855   2.379   3.340  14.271 -0.0268  0.3770 -0.1469
  525MPD2    H5 7856   2.384   3.413  14.201  2.1976  0.5817  0.2274
  525MPD2    N1 7857   2.047   3.101  14.538  0.4284  0.6826 -0.2417
  525MPD2    H7 7858   2.119   3.099  14.609  1.0719  1.7008 -0.8638
  526TMC3    C1 7859   1.918   3.008  14.696 -0.0994 -0.1000 -0.1344
  526TMC3    C2 7860   1.843   3.074  14.782 -0.1900  0.3690  0.0056
  526TMC3    C3 7861   1.879   3.071  14.910  0.2555 -0.0343  0.0179
  526TMC3    C4 7862   2.026   2.935  14.733  0.1931  0.4297 -0.6283
  526TMC3    C5 7863   2.062   2.942  14.866  0.6793 -0.3628 -0.7232
  526TMC3    C6 7864   1.988   3.009  14.961  0.1411 -0.5821  0.0769
  526TMC3     C 7865   1.922   3.057  14.568  0.6299  0.3185  0.7185
  526TMC3     O 7866   1.820   3.068  14.508  0.0257  0.3395  0.1228
  526TMC3     H 7867   1.759   3.130  14.743 -0.6433 -0.3064  0.0007
  526TMC3    H1 7868   2.075   2.883  14.651  2.3323 -0.6193  1.3079
  526TMC3    H2 7869   2.004   3.013  15.069 -0.6944 -0.6570  0.2071
  526TMC3    C7 7870   2.199   2.919  14.899 -0.2036  0.6216  0.3770
  526TMC3    C8 7871   1.810   3.155  15.010 -0.9293  0.5603 -0.3094
  526TMC3    O1 7872   2.251   2.966  15.000  0.9746  0.4303  0.4585
  526TMC3    O2 7873   1.855   3.169  15.119  0.2509 -0.0324 -0.1445
  527MPD2     C 7874   0.079   1.527   1.361 -0.0804  0.3676  0.1716
  527MPD2    C1 7875   0.065   1.468   1.243 -0.4656  0.7096 -0.0691
  527MPD2    C2 7876   0.185   1.443   1.172 -0.5543  0.1029 -0.0261
  527MPD2    C3 7877   0.312   1.463   1.221  0.0461  0.1315 -0.2079
  527MPD2    C4 7878   0.322   1.511   1.348 -0.3001 -0.2046 -0.1171
  527MPD2    C5 7879   0.208   1.549   1.407 -0.3181  0.5856 -0.7307
  527MPD2     H 7880   0.181   1.406   1.070 -2.0062  0.6993 -0.1880
  527MPD2    H1 7881   0.414   1.535   1.400  0.4307 -1.7654 -0.6954
  527MPD2    H2 7882   0.003   1.569   1.426 -0.7140  0.0528 -0.3675
  527MPD2    H3 7883   0.220   1.600   1.502  1.2893 -1.4873  0.1691
  527MPD2     N 7884   0.423   1.426   1.137 -0.1055 -0.8728  0.1129
  527MPD2    H5 7885   0.413   1.400   1.039  1.0595  1.5717 -0.6730
  527MPD2    N1 7886   4.674   1.447   1.183  0.0814 -0.4490  0.4465
  527MPD2    H7 7887   4.682   1.407   1.090 -0.1773 -0.8602  0.6001
  528TMC3    C1 7888   4.442   1.473   1.139  0.3383 -0.2320  0.0555
  528TMC3    C2 7889   4.457   1.536   1.022 -0.0798 -0.2310 -0.3523
  528TMC3    C3 7890   4.360   1.528   0.935 -0.1944  0.4621  0.5241
  528TMC3    C4 7891   4.319   1.449   1.191 -0.7015  0.6667  0.2781
  528TMC3    C5 7892   4.220   1.437   1.100 -0.2254  0.0623 -0.4880
  528TMC3    C6 7893   4.242   1.478   0.972  0.2942  0.1361 -0.4808
  528TMC3     C 7894   4.549   1.464   1.237 -0.1658 -0.1045  0.6958
  528TMC3     O 7895   4.518   1.495   1.353 -0.3328 -0.1517 -0.3197
  528TMC3     H 7896   4.556   1.560   0.986  0.1700 -0.7044  0.0128
  528TMC3    H1 7897   4.299   1.411   1.291  0.5743 -0.1305  0.2305
  528TMC3    H2 7898   4.162   1.455   0.902 -1.1916  2.0601  0.6062
  528TMC3    C7 7899   4.076   1.410   1.124  0.2432 -0.5410  0.3077
  528TMC3    C8 7900   4.376   1.587   0.801 -0.3543  0.2872  0.0283
  528TMC3    O1 7901   3.993   1.465   1.056 -0.1068 -0.4276  0.3251
  528TMC3    O2 7902   4.494   1.578   0.755  0.1498  0.0410 -0.1951
  529MPD2     C 7903   2.095   4.447   1.078  0.6355  0.4926 -0.2250
  529MPD2    C1 7904   2.180   4.453   0.969 -0.0036  0.5146  0.1627
  529MPD2    C2 7905   2.181   4.569   0.892  0.1945 -0.1417 -0.3117
  529MPD2    C3 7906   2.094   4.675   0.913  0.2669  0.1609 -0.3884
  529MPD2    C4 7907   2.000   4.660   1.015 -0.1154 -0.1261 -0.2622
  529MPD2    C5 7908   1.998   4.547   1.091  0.3296 -0.2727  0.7659
  529MPD2     H 7909   2.255   4.579   0.813 -0.7862 -0.7074 -1.3126
  529MPD2    H1 7910   1.919   4.732   1.026  1.1872  0.8185  3.1678
  529MPD2    H2 7911   2.077   4.369   1.151  1.2916 -0.4370 -1.0459
  529MPD2    H3 7912   1.924   4.533   1.169  0.7035  3.1938  1.7195
  529MPD2     N 7913   2.079   0.048   0.826 -0.3226 -0.1550 -0.3456
  529MPD2    H5 7914   2.028   0.123   0.874 -0.9658 -0.3274 -0.7561
  529MPD2    N1 7915   2.278   4.354   0.939 -0.2773  0.1662  0.0877
  529MPD2    H7 7916   2.337   4.376   0.859  0.9771 -0.3725  0.8704
  530TMC3    C1 7917   2.398   4.151   0.953  1.1535  0.6808 -0.3900
  530TMC3    C2 7918   2.525   4.206   0.937 -0.1934 -0.1988 -0.3263
  530TMC3    C3 7919   2.635   4.122   0.926 -0.1075  0.3771  0.5991
  530TMC3    C4 7920   2.389   4.016   0.974 -1.0982  0.7953 -0.1980
  530TMC3    C5 7921   2.501   3.933   0.983 -0.5223 -0.4829 -0.1155
  530TMC3    C6 7922   2.624   3.989   0.945 -0.0784 -1.0961  0.6489
  530TMC3     C 7923   2.287   4.234   1.005  0.6133  0.5068 -0.2571
  530TMC3     O 7924   2.209   4.173   1.076  0.2353  0.1048 -0.0438
  530TMC3     H 7925   2.547   4.312   0.932 -2.8687  0.3203 -1.1308
  530TMC3    H1 7926   2.290   3.972   0.987 -0.2258 -1.1056  0.0428
  530TMC3    H2 7927   2.713   3.927   0.939  0.9800  0.4819  0.0165
  530TMC3    C7 7928   2.498   3.795   1.022 -0.3749  0.1088 -0.2603
  530TMC3    C8 7929   2.768   4.188   0.917  0.2430  0.3775 -0.3067
  530TMC3    O1 7930   2.603   3.735   1.012  0.2526 -0.0379 -0.2895
  530TMC3    O2 7931   2.775   4.308   0.896  0.6764 -0.1480  0.0737
  531MPD2     C 7932   1.561   2.045  13.384 -0.2477 -0.7676 -0.2439
  531MPD2    C1 7933   1.440   2.075  13.443  0.4040 -0.5632  0.0932
  531MPD2    C2 7934   1.332   2.070  13.358  0.2786  0.1085 -0.2795
  531MPD2    C3 7935   1.340   2.026  13.220  0.7537 -0.3762 -0.7332
  531MPD2    C4 7936   1.462   2.000  13.168 -0.2411  0.1785 -0.3263
  531MPD2    C5 7937   1.572   2.021  13.252 -0.4187 -0.4107 -0.1124
  531MPD2     H 7938   1.237   2.103  13.398  0.7631  2.1326 -0.7488
  531MPD2    H1 7939   1.485   1.962  13.069 -0.1865  1.7419 -0.9165
  531MPD2    H2 7940   1.658   2.045  13.432 -0.0181  1.8869 -0.6978
  531MPD2    H3 7941   1.672   1.991  13.222 -0.5689  0.1486 -1.1522
  531MPD2     N 7942   1.221   2.006  13.139  0.4167  0.5716  0.3892
  531MPD2    H5 7943   1.228   1.976  13.043  0.9097 -0.3146  0.7023
  531MPD2    N1 7944   1.436   2.124  13.580  0.0225 -0.1680 -0.1563
  531MPD2    H7 7945   1.521   2.115  13.634 -0.6330 -0.0956  0.9056
  532TMC3    C1 7946   1.340   2.214  13.779  0.1615  0.1591 -0.4317
  532TMC3    C2 7947   1.214   2.262  13.813  0.0544 -0.2183 -0.0803
  532TMC3    C3 7948   1.152   2.232  13.928  0.7649  0.0039 -0.1835
  532TMC3    C4 7949   1.401   2.130  13.870 -0.2004 -0.4307  1.2159
  532TMC3    C5 7950   1.331   2.100  13.983 -0.3661 -0.2500 -0.6176
  532TMC3    C6 7951   1.211   2.150  14.020 -0.2987  0.7088 -0.0965
  532TMC3     C 7952   1.319   2.156  13.647 -0.7998  0.2538 -0.5836
  532TMC3     O 7953   1.207   2.167  13.602 -0.2757  0.0637 -0.0094
  532TMC3     H 7954   1.173   2.344  13.755 -1.5404  0.4578  2.0249
  532TMC3    H1 7955   1.498   2.093  13.840 -0.5568  0.4351 -0.9793
  532TMC3    H2 7956   1.146   2.118  14.101 -0.0358 -0.4287 -0.3276
  532TMC3    C7 7957   1.401   2.019  14.081 -0.2007 -0.4457 -1.1234
  532TMC3    C8 7958   1.009   2.201  13.910  0.3635  0.6135 -0.1412
  532TMC3    O1 7959   1.378   2.049  14.197  1.0186 -0.0953  0.0033
  532TMC3    O2 7960   0.942   2.163  14.005  0.6023 -0.1801  0.2706
  533TMC3    C1 7961   2.597   3.405  14.291 -0.2699 -0.0734  0.2337
  533TMC3    C2 7962   2.675   3.464  14.387  0.1823  0.2402 -0.2121
  533TMC3    C3 7963   2.747   3.578  14.353  0.3162  0.3596  0.2785
  533TMC3    C4 7964   2.578   3.466  14.169 -0.1062 -0.3649  0.4485
  533TMC3    C5 7965   2.628   3.592  14.157 -0.9465  0.2379 -0.5680
  533TMC3    C6 7966   2.716   3.654  14.250  0.1158 -0.8566  0.8330
  533TMC3     C 7967   2.491   3.321  14.347  0.0197  0.7094  0.6655
  533TMC3     O 7968   2.513   3.251  14.443  0.3975  0.2475 -0.0974
  533TMC3     H 7969   2.661   3.419  14.485  0.1053 -0.6194 -0.6135
  533TMC3    H1 7970   2.528   3.405  14.095  1.4863  0.0431 -0.9498
  533TMC3    H2 7971   2.774   3.745  14.234 -0.3593 -0.7613 -0.3559
  533TMC3    C7 7972   2.512   3.673  14.153 -0.3720  0.0286 -0.3127
  533TMC3    C8 7973   2.852   3.623  14.436 -0.7623  0.7603  0.1195
  533TMC3    O1 7974   2.405   3.611  14.154 -0.2773 -0.5407 -0.3171
  533TMC3    O2 7975   2.902   3.730  14.415  0.5311 -0.0934  0.3212
  534MPD2     C 7976   0.234   4.468   1.204 -0.2178  0.3420 -0.7625
  534MPD2    C1 7977   0.198   4.586   1.150 -0.2833  0.7161 -0.3866
  534MPD2    C2 7978   0.093   4.587   1.057 -0.6029  0.2627  0.2794
  534MPD2    C3 7979   0.038   4.468   1.010 -0.2946  0.2144 -0.3631
  534MPD2    C4 7980   0.071   4.354   1.069  0.3891 -0.1972  0.5734
  534MPD2    C5 7981   0.164   4.357   1.169  0.1515  0.1701  0.5129
  534MPD2     H 7982   0.050   4.679   1.022  1.0833  0.6346 -0.8225
  534MPD2    H1 7983   0.037   4.261   1.026  1.0339 -1.0604  1.9434
  534MPD2    H2 7984   0.295   4.463   1.293  0.5800 -1.9363 -1.4562
  534MPD2    H3 7985   0.192   4.270   1.227 -1.1446 -1.3489 -1.1466
  534MPD2     N 7986   4.673   4.457   0.909  0.3146 -0.0634 -0.3132
  534MPD2    H5 7987   4.658   4.363   0.874 -1.6891  0.1901 -0.1814
  534MPD2    N1 7988   0.261   4.711   1.183  0.4630 -0.3967  0.5613
  534MPD2    H7 7989   0.216   0.062   1.155  2.0234 -0.3540 -1.7913
  535TMC3    C1 7990   4.483   4.504   0.771  0.2527  0.2748  0.0370
  535TMC3    C2 7991   4.431   4.372   0.782 -0.3931 -0.1604  0.7621
  535TMC3    C3 7992   4.328   4.336   0.699 -0.1836 -0.0375  0.1478
  535TMC3    C4 7993   4.431   4.584   0.674 -0.3906  0.1211  0.3554
  535TMC3    C5 7994   4.333   4.535   0.586  0.4556  0.1043  0.6755
  535TMC3    C6 7995   4.289   4.408   0.593  0.3315 -0.2047 -1.1797
  535TMC3     C 7996   4.590   4.559   0.865 -0.6051  0.2485 -0.1729
  535TMC3     O 7997   4.596   4.675   0.881 -0.3709 -0.2799 -0.0959
  535TMC3     H 7998   4.476   4.306   0.854  0.1287 -0.7181 -0.0794
  535TMC3    H1 7999   4.456   4.689   0.663 -3.7512  0.9788  0.6996
  535TMC3    H2 8000   4.223   4.373   0.514 -1.3610 -1.2721  0.7058
  535TMC3    C7 8001   4.306   4.613   0.465 -0.4879 -0.5659  0.6303
  535TMC3    C8 8002   4.264   4.207   0.720 -0.1495 -0.0818  0.9168
  535TMC3    O1 8003   4.247   4.549   0.377 -0.1799  0.8343  0.7212
  535TMC3    O2 8004   4.193   4.168   0.629 -0.0586  0.3718  0.4681
  536MPD2     C 8005   3.003   2.836  16.181 -0.0864 -0.9505 -0.1296
  536MPD2    C1 8006   2.901   2.854  16.270 -0.5038  0.3699 -0.4088
  536MPD2    C2 8007   2.823   2.968  16.267  0.0161 -0.4734  0.6947
  536MPD2    C3 8008   2.851   3.074  16.176  0.3207  0.1483 -0.1171
  536MPD2    C4 8009   2.960   3.056  16.091 -0.2915  0.4749  0.0023
  536MPD2    C5 8010   3.033   2.933  16.089  0.4692 -0.3158 -0.2989
  536MPD2     H 8011   2.727   2.975  16.316  0.5282 -0.7389  1.7440
  536MPD2    H1 8012   2.985   3.134  16.020  0.4804 -0.5580 -0.8560
  536MPD2    H2 8013   3.077   2.757  16.184  0.3516 -0.5389  0.0153
  536MPD2    H3 8014   3.121   2.940  16.025 -0.0735 -0.0936 -1.0184
  536MPD2     N 8015   2.766   3.187  16.146  0.4512  0.4372 -0.2911
  536MPD2    H5 8016   2.796   3.248  16.071 -1.1536  1.3878 -0.1593
  536MPD2    N1 8017   2.885   2.755  16.370  0.1112 -0.0545  0.6845
  536MPD2    H7 8018   2.959   2.685  16.371 -2.1785 -2.5000 -1.2039
  537TMC3    C1 8019   2.808   2.649  16.561 -0.7808 -0.5076 -0.2794
  537TMC3    C2 8020   2.926   2.668  16.619  0.0736  0.3008  0.2906
  537TMC3    C3 8021   2.943   2.616  16.740  0.0235 -1.3701 -0.0781
  537TMC3    C4 8022   2.708   2.596  16.625 -0.2478  0.9835  0.0518
  537TMC3    C5 8023   2.733   2.537  16.744 -0.1648 -0.4614 -0.2809
  537TMC3    C6 8024   2.853   2.539  16.811  0.2385  0.1125  0.2085
  537TMC3     C 8025   2.779   2.749  16.460  0.0582 -0.3775  0.0271
  537TMC3     O 8026   2.670   2.810  16.468  0.4133  0.6290 -0.1695
  537TMC3     H 8027   3.008   2.727  16.580  1.2678 -1.4221  0.2395
  537TMC3    H1 8028   2.609   2.596  16.581 -0.4629  3.4084  0.5406
  537TMC3    H2 8029   2.870   2.519  16.916 -3.3753  1.5399  1.0663
  537TMC3    C7 8030   2.630   2.448  16.790  0.1108  0.6539 -0.2415
  537TMC3    C8 8031   3.066   2.636  16.811 -0.9143  0.1342  0.0124
  537TMC3    O1 8032   2.514   2.468  16.770  0.1901  0.4481  0.9177
  537TMC3    O2 8033   3.113   2.747  16.793 -0.0090 -0.2812  0.4106
  538TMC3    C1 8034   0.030   0.624  11.297  0.3778 -1.4369  0.3122
  538TMC3    C2 8035   0.145   0.583  11.234  0.0826  0.6456 -0.3097
  538TMC3    C3 8036   0.163   0.616  11.104  0.2923 -0.5128  0.5699
  538TMC3    C4 8037   4.665   0.689  11.234  0.6974  0.2418  0.0416
  538TMC3    C5 8038   4.689   0.723  11.103  0.4248  0.8817  0.1930
  538TMC3    C6 8039   0.069   0.695  11.040  0.5001 -0.3782  0.3847
  538TMC3     C 8040   0.029   0.616  11.440 -0.5932 -0.0316  0.1972
  538TMC3     O 8041   4.658   0.634  11.500 -0.0180 -0.1895  0.5140
  538TMC3     H 8042   0.208   0.510  11.283 -1.0159  1.5489  2.4306
  538TMC3    H1 8043   4.578   0.716  11.292 -0.4736 -1.7682 -0.7860
  538TMC3    H2 8044   0.085   0.719  10.935 -2.6418  0.1512  0.0189
  538TMC3    C7 8045   4.573   0.790  11.037 -0.4687 -0.1709 -0.6826
  538TMC3    C8 8046   0.291   0.574  11.044 -0.0019 -0.6744 -0.1227
  538TMC3    O1 8047   4.479   0.796  11.116 -0.0382  0.4145 -0.0609
  538TMC3    O2 8048   0.358   0.479  11.088 -0.5785  0.0831 -0.3723
  539MPD2     C 8049   0.046   0.254  11.026  0.3106  0.1845 -0.6995
  539MPD2    C1 8050   4.677   0.231  11.108 -0.3976 -0.6817 -0.7212
  539MPD2    C2 8051   4.556   0.305  11.092 -0.5556  0.2908 -0.9384
  539MPD2    C3 8052   4.546   0.408  10.996  0.1482  0.5880 -0.8508
  539MPD2    C4 8053   4.657   0.429  10.914 -0.2412  0.1837 -0.1458
  539MPD2    C5 8054   0.030   0.342  10.922 -0.6276 -0.0529  0.0659
  539MPD2     H 8055   4.469   0.285  11.153  0.4453  1.6253  0.9059
  539MPD2    H1 8056   4.664   0.511  10.843  0.1729  0.6131  0.3931
  539MPD2    H2 8057   0.138   0.197  11.027  0.9872  1.2954 -0.1682
  539MPD2    H3 8058   0.120   0.354  10.862  0.8341 -0.7984  2.1011
  539MPD2     N 8059   4.435   0.492  10.974 -0.3019 -0.2677 -0.2406
  539MPD2    H5 8060   4.424   0.554  10.894  0.1710 -1.0619 -0.9300
  539MPD2    N1 8061   4.682   0.135  11.212  0.4503  0.9063 -0.2670
  539MPD2    H7 8062   4.592   0.117  11.256  0.7473  0.2000  0.0418
  540TMC3    C1 8063   4.215   0.577  11.014  0.3953 -0.1215  0.0292
  540TMC3    C2 8064   4.164   0.577  10.879 -0.4513  0.5313  0.3288
  540TMC3    C3 8065   4.040   0.632  10.865 -0.3645 -0.0526  0.0630
  540TMC3    C4 8066   4.147   0.625  11.121  1.6316 -0.6312  0.3952
  540TMC3    C5 8067   4.027   0.682  11.097 -0.2191 -0.6213  0.7747
  540TMC3    C6 8068   3.970   0.677  10.976 -0.1146 -0.8296 -0.4958
  540TMC3     C 8069   4.327   0.486  11.057 -0.0881 -0.4885  0.1906
  540TMC3     O 8070   4.322   0.440  11.170  0.1827 -0.0016 -0.0001
  540TMC3     H 8071   4.229   0.540  10.801 -1.2720  0.8743 -0.5233
  540TMC3    H1 8072   4.184   0.612  11.222 -1.4483 -0.0629  1.6120
  540TMC3    H2 8073   3.866   0.702  10.958 -0.2795 -1.2558 -0.1585
  540TMC3    C7 8074   3.952   0.713  11.214  0.2247  0.2191 -0.9071
  540TMC3    C8 8075   3.962   0.596  10.743  0.1498  0.8711 -0.1273
  540TMC3    O1 8076   3.850   0.648  11.216  0.0216 -0.7055  0.3454
  540TMC3    O2 8077   3.886   0.677  10.691  0.0656 -0.3626 -0.8345
  541MPD2     C 8078   2.836   2.043  13.468 -0.0529  0.5221 -0.4092
  541MPD2    C1 8079   2.760   2.004  13.360 -0.0144 -0.8508 -0.6051
  541MPD2    C2 8080   2.787   2.052  13.232  0.3444  0.1156 -0.7273
  541MPD2    C3 8081   2.892   2.137  13.210  0.4748  0.8362  0.1241
  541MPD2    C4 8082   2.976   2.171  13.321 -0.8144  0.3748  0.0028
  541MPD2    C5 8083   2.948   2.121  13.450  0.1597 -0.2111  0.4232
  541MPD2     H 8084   2.721   2.038  13.148  1.4731 -1.0579 -1.4235
  541MPD2    H1 8085   3.067   2.228  13.312  0.4086 -0.9156  4.0733
  541MPD2    H2 8086   2.815   2.009  13.568 -0.1476  4.1242  0.8118
  541MPD2    H3 8087   3.000   2.156  13.538  0.9048  1.6529 -0.7584
  541MPD2     N 8088   2.919   2.192  13.084 -0.1409 -0.0611 -0.0287
  541MPD2    H5 8089   2.990   2.265  13.085  0.0359 -0.2334 -0.0557
  541MPD2    N1 8090   2.662   1.909  13.394  0.3237  0.1401  0.4869
  541MPD2    H7 8091   2.647   1.895  13.493  1.7015 -4.0597  0.0835
  542TMC3    C1 8092   2.902   2.249  12.851  0.6908 -0.2020 -0.4718
  542TMC3    C2 8093   2.904   2.172  12.736  0.2185  0.1225 -0.5157
  542TMC3    C3 8094   2.918   2.248  12.630 -0.2840  0.1742  0.1256
  542TMC3    C4 8095   2.909   2.381  12.861 -0.0698  0.8474  0.1322
  542TMC3    C5 8096   2.927   2.455  12.751  0.0392  0.1927  0.2258
  542TMC3    C6 8097   2.921   2.391  12.636 -0.0731 -0.2237  0.3670
  542TMC3     C 8098   2.854   2.172  12.963 -0.0376  0.0612 -0.5655
  542TMC3     O 8099   2.778   2.079  12.934 -0.2183  0.1274 -0.4462
  542TMC3     H 8100   2.923   2.066  12.730 -0.8066 -0.2497  2.8068
  542TMC3    H1 8101   2.901   2.432  12.957 -1.2767 -0.8237  0.9303
  542TMC3    H2 8102   2.935   2.445  12.543  0.6389 -0.5588  0.2753
  542TMC3    C7 8103   2.882   2.588  12.759 -0.2252 -0.0274  0.5153
  542TMC3    C8 8104   2.892   2.189  12.501  1.1464 -1.0479  0.8722
  542TMC3    O1 8105   2.906   2.652  12.861  0.8523  0.1442  0.5690
  542TMC3    O2 8106   2.851   2.263  12.411 -0.6983  0.0901 -0.3471
  543TMC3    C1 8107   1.295   3.824  17.617  0.0217  0.6555 -0.5205
  543TMC3    C2 8108   1.219   3.722  17.665 -0.2056  0.2914 -0.0400
  543TMC3    C3 8109   1.233   3.695   0.062 -0.1347  0.6272 -0.1286
  543TMC3    C4 8110   1.367   3.905  17.702 -0.5386  1.0466  0.5298
  543TMC3    C5 8111   1.368   3.875   0.094  0.1272 -0.7886 -0.3404
  543TMC3    C6 8112   1.320   3.760   0.147 -0.3606 -0.0563 -0.4853
  543TMC3     C 8113   1.327   3.825  17.474 -0.4517  0.3472 -0.1618
  543TMC3     O 8114   1.446   3.837  17.443  0.2305 -0.2156 -0.6364
  543TMC3     H 8115   1.175   3.649  17.597 -0.6948 -0.1972  0.8000
  543TMC3    H1 8116   1.431   3.983  17.662 -0.2442  0.9495  0.8119
  543TMC3    H2 8117   1.340   3.730   0.250 -0.5426 -1.1918 -0.7833
  543TMC3    C7 8118   1.464   3.947   0.183  0.5047 -0.4594 -0.0639
  543TMC3    C8 8119   1.176   3.575   0.119  0.0587  0.1438 -1.1251
  543TMC3    O1 8120   1.509   3.885   0.276  0.0972 -0.6281 -0.6542
  543TMC3    O2 8121   1.239   3.525   0.208  0.0121  0.3332 -0.2588
  544MPD2     C 8122   0.838   3.206   0.133 -0.0383  0.5081  1.0384
  544MPD2    C1 8123   0.972   3.200   0.153  0.3537 -0.3683 -0.4039
  544MPD2    C2 8124   1.047   3.315   0.134 -0.5587 -0.2520 -1.1761
  544MPD2    C3 8125   0.985   3.433   0.098 -0.1718  0.4844  0.0236
  544MPD2    C4 8126   0.849   3.436   0.081 -0.1105 -0.5144  0.5734
  544MPD2    C5 8127   0.779   3.322   0.101  1.0830  0.0285 -0.2979
  544MPD2     H 8128   1.156   3.309   0.135 -0.4160  2.4326 -0.0117
  544MPD2    H1 8129   0.796   3.527   0.056  2.4341  0.9985  0.7715
  544MPD2    H2 8130   0.773   3.119   0.141  0.3547  0.1688  0.5264
  544MPD2    H3 8131   0.671   3.314   0.091  0.9684  2.8556 -1.3671
  544MPD2     N 8132   1.057   3.547   0.063  0.1100 -0.2960  0.5232
  544MPD2    H5 8133   1.015   3.626   0.014  0.6778 -0.4090 -0.1498
  544MPD2    N1 8134   1.013   3.072   0.185 -0.5570 -1.1845  0.3440
  544MPD2    H7 8135   0.949   2.995   0.169 -0.7239 -1.1699  0.9422
  545TMC3    C1 8136   1.142   2.909   0.271  0.9091  0.0257 -1.3598
  545TMC3    C2 8137   1.225   2.877   0.374  0.6181 -0.1895  0.1598
  545TMC3    C3 8138   1.237   2.749   0.410 -0.5099  0.4228  0.0220
  545TMC3    C4 8139   1.075   2.812   0.201 -0.9028  0.1972  0.1702
  545TMC3    C5 8140   1.092   2.683   0.242  0.0814 -0.3435 -0.3124
  545TMC3    C6 8141   1.170   2.648   0.351  0.0954 -1.2827 -0.3510
  545TMC3     C 8142   1.137   3.046   0.230  0.3446  0.0697  0.2443
  545TMC3     O 8143   1.228   3.118   0.259  0.1111  0.5597 -0.5123
  545TMC3     H 8144   1.284   2.951   0.427  2.0363 -1.3575  0.2316
  545TMC3    H1 8145   1.029   2.836   0.106 -0.6880 -1.1881 -0.2867
  545TMC3    H2 8146   1.172   2.545   0.387 -2.6266 -1.2083 -0.0019
  545TMC3    C7 8147   1.002   2.586   0.177 -0.5184 -0.2269  0.0551
  545TMC3    C8 8148   1.314   2.727   0.527  0.0586 -0.5923 -0.0319
  545TMC3    O1 8149   0.920   2.636   0.102 -0.1094 -0.4850  0.0738
  545TMC3    O2 8150   1.361   2.824   0.592  0.1749  0.2841 -0.0895
  546MPD2     C 8151   2.904   3.666  17.601  0.3298  0.5213 -0.2884
  546MPD2    C1 8152   2.897   3.638  17.462 -0.0320  0.3372  0.4542
  546MPD2    C2 8153   2.914   3.742  17.372 -0.1117 -0.1076 -0.8701
  546MPD2    C3 8154   2.936   3.870  17.418  0.2122 -0.1100  0.2167
  546MPD2    C4 8155   2.934   3.897  17.550 -0.3052 -0.0736  0.0442
  546MPD2    C5 8156   2.918   3.800  17.648  0.2803  0.3380 -0.2126
  546MPD2     H 8157   2.925   3.723  17.266  1.6644 -1.6223 -0.4196
  546MPD2    H1 8158   2.951   3.997  17.590  1.6398 -0.2845 -0.2255
  546MPD2    H2 8159   2.902   3.592  17.680 -2.3254  0.6784 -0.2054
  546MPD2    H3 8160   2.923   3.830   0.011  3.3602 -0.1768 -0.2263
  546MPD2     N 8161   2.968   3.985  17.335 -0.1434 -0.3511  0.4020
  546MPD2    H5 8162   2.969   4.077  17.379 -2.0767  0.7541 -1.8535
  546MPD2    N1 8163   2.882   3.501  17.429 -0.1612 -0.5125 -0.0834
  546MPD2    H7 8164   2.885   3.429  17.500  2.2373  0.1601  0.4850
  547TMC3    C1 8165   2.799   3.323  17.299 -0.2531  1.1423 -0.5618
  547TMC3    C2 8166   2.665   3.306  17.267 -0.2338 -0.2390 -0.0555
  547TMC3    C3 8167   2.617   3.177  17.275 -0.3844 -0.4907  0.3316
  547TMC3    C4 8168   2.872   3.216  17.353  0.6868 -0.4378  0.0749
  547TMC3    C5 8169   2.816   3.086  17.364  0.3162 -0.4316  0.7632
  547TMC3    C6 8170   2.687   3.075  17.322  0.2263 -0.1183  0.3209
  547TMC3     C 8171   2.847   3.461  17.299 -0.8450 -0.5296 -0.0087
  547TMC3     O 8172   2.813   3.538  17.209 -0.4706  0.1042  0.2972
  547TMC3     H 8173   2.605   3.390  17.236 -1.3375 -0.2097  2.2055
  547TMC3    H1 8174   2.972   3.232  17.391  0.7929 -0.4802 -0.1869
  547TMC3    H2 8175   2.637   2.980  17.337  0.6763 -0.1868  1.4077
  547TMC3    C7 8176   2.860   3.004  17.477 -0.4287  0.1231 -0.2600
  547TMC3    C8 8177   2.475   3.167  17.307  0.3349 -0.3173  0.0812
  547TMC3    O1 8178   2.896   3.058  17.581 -0.2643  1.1786  0.1831
  547TMC3    O2 8179   2.453   3.075  17.385 -0.1396 -0.3122  0.6271
  548MPD2     C 8180   3.377   3.847  13.092  0.1039  0.4610  0.2552
  548MPD2    C1 8181   3.300   3.735  13.077  0.6945  0.7258  0.2420
  548MPD2    C2 8182   3.368   3.628  13.026  0.4772 -0.3216 -0.2619
  548MPD2    C3 8183   3.500   3.631  12.998 -0.1528  0.8582  0.5410
  548MPD2    C4 8184   3.572   3.744  13.001  0.4636  0.2565 -0.0774
  548MPD2    C5 8185   3.505   3.855  13.047 -0.6651  0.3671 -0.0374
  548MPD2     H 8186   3.318   3.533  13.015 -0.8651  0.2829  0.5787
  548MPD2    H1 8187   3.669   3.763  12.957 -0.0440  1.0067 -0.8904
  548MPD2    H2 8188   3.327   3.938  13.124 -0.5887  0.8564 -1.9259
  548MPD2    H3 8189   3.552   3.951  13.067  2.1216 -0.7410 -1.3199
  548MPD2     N 8190   3.564   3.511  12.955  0.2251 -0.7958 -0.0344
  548MPD2    H5 8191   3.504   3.430  12.942 -0.3064 -0.3704 -0.2489
  548MPD2    N1 8192   3.164   3.747  13.110  0.1396 -0.4227 -0.7404
  548MPD2    H7 8193   3.131   3.841  13.128  1.5744 -0.1137  0.2168
  549TMC3    C1 8194   2.939   3.686  13.102  0.2212 -0.2026 -0.0605
  549TMC3    C2 8195   2.909   3.775  12.996 -0.8334 -0.1105  0.2803
  549TMC3    C3 8196   2.794   3.749  12.919  0.4051 -0.0422  1.3803
  549TMC3    C4 8197   2.847   3.588  13.133  0.3427  0.5186 -0.0209
  549TMC3    C5 8198   2.745   3.557  13.049  0.4080 -0.4830 -0.8794
  549TMC3    C6 8199   2.723   3.633  12.940 -0.2868  0.5689  0.6285
  549TMC3     C 8200   3.075   3.641  13.113 -0.4386 -0.3515 -0.5407
  549TMC3     O 8201   3.092   3.521  13.109 -0.3807  0.1166 -0.3915
  549TMC3     H 8202   2.972   3.859  12.971 -1.6407  0.9691  1.9158
  549TMC3    H1 8203   2.863   3.523  13.219 -0.3491  3.1208  2.0726
  549TMC3    H2 8204   2.634   3.614  12.882  0.5432  2.0053 -1.1379
  549TMC3    C7 8205   2.696   3.425  13.048 -0.3003 -0.3913 -0.1748
  549TMC3    C8 8206   2.761   3.815  12.786 -0.5176 -0.0318 -0.0731
  549TMC3    O1 8207   2.582   3.420  12.995 -0.3289  0.4327  0.1960
  549TMC3    O2 8208   2.664   3.774  12.722  0.3898  0.4205  0.6512
  550TMC3    C1 8209   2.217   1.314  12.164  0.2651 -1.0245  0.0634
  550TMC3    C2 8210   2.244   1.319  12.295 -0.5955  0.2553  0.6896
  550TMC3    C3 8211   2.274   1.439  12.353 -0.8569  0.2337  0.6189
  550TMC3    C4 8212   2.203   1.427  12.090 -0.7178  0.5825  0.0858
  550TMC3    C5 8213   2.232   1.545  12.150 -0.5779  0.1615  0.4460
  550TMC3    C6 8214   2.279   1.553  12.274 -0.2440  0.4664  0.8299
  550TMC3     C 8215   2.222   1.178  12.109 -0.0304  0.0522  0.7173
  550TMC3     O 8216   2.287   1.089  12.164 -0.0602 -0.0725 -0.3878
  550TMC3     H 8217   2.235   1.221  12.341  0.5055  0.0315  0.4165
  550TMC3    H1 8218   2.170   1.421  11.987 -1.5530 -0.4382  0.4178
  550TMC3    H2 8219   2.286   1.650  12.322 -1.0882  1.6996 -1.5317
  550TMC3    C7 8220   2.193   1.677  12.091 -0.4723 -0.3599  0.6666
  550TMC3    C8 8221   2.216   1.479  12.480 -0.2075  0.1314 -0.0284
  550TMC3    O1 8222   2.278   1.763  12.102  0.9100  0.6441  0.1919
  550TMC3    O2 8223   2.260   1.576  12.535 -0.5278  0.4034  0.0986
  551TMC3    C1 8224   4.571   4.484  13.469  0.1359  0.0915 -0.2125
  551TMC3    C2 8225   4.698   4.432  13.450 -0.1739 -0.5106  0.0762
  551TMC3    C3 8226   0.072   4.502  13.493  0.1504 -0.4640 -0.4947
  551TMC3    C4 8227   4.550   4.603  13.531 -0.1372 -1.2821 -0.1500
  551TMC3    C5 8228   4.661   4.673  13.574  0.9536  0.1482  0.2589
  551TMC3    C6 8229   0.056   4.625  13.552 -1.1144  0.3883  0.7886
  551TMC3     C 8230   4.472   4.439  13.366 -1.0042  0.5204  0.4678
  551TMC3     O 8231   4.485   4.319  13.340  0.0640 -0.0355 -0.2488
  551TMC3     H 8232   4.712   4.340  13.394 -2.7661 -1.6747  1.3369
  551TMC3    H1 8233   4.453   4.640  13.564 -0.0257 -0.8900 -0.2573
  551TMC3    H2 8234   0.132   4.668  13.616  0.6451  0.1833 -1.1951
  551TMC3    C7 8235   4.642   0.014  13.695  0.4796  0.0867 -0.7730
  551TMC3    C8 8236   0.194   4.483  13.410 -0.8661  0.2957  0.0839
  551TMC3    O1 8237   4.553   4.717  13.776 -0.0771 -0.1870 -0.2344
  551TMC3    O2 8238   0.198   4.385  13.344 -0.1307  0.1542  0.1374
  552MPD2     C 8239   1.173   1.859  14.413  0.2582  0.7438 -0.5285
  552MPD2    C1 8240   1.274   1.790  14.355  0.1891 -0.2774  1.0602
  552MPD2    C2 8241   1.370   1.737  14.439 -0.1795  0.1793 -0.2344
  552MPD2    C3 8242   1.382   1.773  14.572 -0.5594  0.5435  0.1842
  552MPD2    C4 8243   1.287   1.856  14.623 -0.5236 -0.4027  1.1159
  552MPD2    C5 8244   1.184   1.900  14.544 -0.0640  0.3720  0.8922
  552MPD2     H 8245   1.451   1.680  14.396 -1.7193 -2.1767  0.0048
  552MPD2    H1 8246   1.295   1.905  14.719 -0.2654  3.9879 -1.1581
  552MPD2    H2 8247   1.092   1.902  14.354 -0.3302  2.0676  1.2373
  552MPD2    H3 8248   1.099   1.945  14.595 -1.5295 -1.8900  0.4182
  552MPD2     N 8249   1.487   1.731  14.655 -0.5144 -0.0224  0.2621
  552MPD2    H5 8250   1.488   1.779  14.744 -0.8034  1.9969 -0.8235
  552MPD2    N1 8251   1.267   1.742  14.223 -0.0136  0.5633 -0.2252
  552MPD2    H7 8252   1.323   1.659  14.204 -1.1630 -0.3076  0.1261
  553TMC3    C1 8253   1.206   1.711  13.997  0.3805 -1.4194 -0.2103
  553TMC3    C2 8254   1.205   1.776  13.880 -0.6392  0.1490  0.1516
  553TMC3    C3 8255   1.233   1.711  13.767  0.2145  0.1965 -0.1183
  553TMC3    C4 8256   1.226   1.574  14.002  1.1474  0.9954  0.0789
  553TMC3    C5 8257   1.255   1.510  13.882  0.5241 -0.6581 -0.7304
  553TMC3    C6 8258   1.247   1.577  13.765 -0.6722  0.1060  0.7694
  553TMC3     C 8259   1.181   1.782  14.125  0.4666  0.0958  0.8927
  553TMC3     O 8260   1.099   1.872  14.122 -0.4419  0.0250  0.4691
  553TMC3     H 8261   1.199   1.884  13.877  0.7996  0.2622  1.3240
  553TMC3    H1 8262   1.222   1.504  14.085  1.2098  1.0858  0.1571
  553TMC3    H2 8263   1.273   1.526  13.673 -0.3699 -0.0432  0.9379
  553TMC3    C7 8264   1.325   1.383  13.879 -0.3971 -0.3681 -0.1527
  553TMC3    C8 8265   1.341   1.769  13.694  0.7743  0.3809  0.2596
  553TMC3    O1 8266   1.320   1.329  13.771 -0.3789  0.2832 -0.7207
  553TMC3    O2 8267   1.431   1.827  13.752 -0.4207 -0.3786  0.5374
  554TMC3    C1 8268   3.041   0.329  11.329 -0.2950 -0.5165 -1.2679
  554TMC3    C2 8269   2.934   0.400  11.282 -0.0774  0.1442  0.6941
  554TMC3    C3 8270   2.963   0.534  11.276  0.2243 -0.1463 -0.4066
  554TMC3    C4 8271   3.163   0.383  11.374 -0.6317 -0.1808 -0.3380
  554TMC3    C5 8272   3.184   0.511  11.362  1.0074  0.5341 -0.1405
  554TMC3    C6 8273   3.077   0.593  11.324 -0.5084 -0.4659  0.4083
  554TMC3     C 8274   3.013   0.192  11.376 -0.6704 -0.5928 -0.2262
  554TMC3     O 8275   2.896   0.162  11.358 -0.4616  0.1196 -0.1032
  554TMC3     H 8276   2.846   0.357  11.236  1.8574 -0.9023 -2.0306
  554TMC3    H1 8277   3.254   0.331  11.397 -0.8011 -1.3160 -2.2856
  554TMC3    H2 8278   3.101   0.698  11.321 -3.1672  0.1722  2.0767
  554TMC3    C7 8279   3.319   0.564  11.335 -0.1881  0.1593  0.0178
  554TMC3    C8 8280   2.892   0.617  11.185 -0.2168  0.0562 -0.9380
  554TMC3    O1 8281   3.372   0.522  11.232 -0.2849 -0.1376 -0.5763
  554TMC3    O2 8282   2.965   0.691  11.124  0.0595 -0.1871 -0.1509
  555TMC3    C1 8283   2.070   0.890  15.784 -0.4558  0.2086 -0.0861
  555TMC3    C2 8284   2.040   0.944  15.900 -0.2430 -0.2029  0.0411
  555TMC3    C3 8285   2.068   0.879  16.017  0.4687 -0.2792  0.0950
  555TMC3    C4 8286   2.145   0.778  15.771  0.1487  0.3126  0.2012
  555TMC3    C5 8287   2.186   0.716  15.888 -0.1407  0.3628 -0.6522
  555TMC3    C6 8288   2.152   0.769  16.013 -0.2091  0.2622 -0.5191
  555TMC3     C 8289   1.988   0.933  15.675  0.0086 -0.1348  1.0066
  555TMC3     O 8290   1.887   1.003  15.704 -0.5546  0.0749 -0.5757
  555TMC3     H 8291   1.975   1.031  15.906  0.9237  0.6186  0.7567
  555TMC3    H1 8292   2.166   0.738  15.672  1.3954  3.1297 -0.6582
  555TMC3    H2 8293   2.206   0.744  16.104  0.5176  2.1867 -0.4119
  555TMC3    C7 8294   2.248   0.586  15.875 -0.5628  0.3622 -0.7841
  555TMC3    C8 8295   2.016   0.930  16.140 -0.1719 -0.0936 -0.6470
  555TMC3    O1 8296   2.270   0.540  15.763 -0.3834  0.4930  0.3057
  555TMC3    O2 8297   2.011   1.051  16.143  0.3003 -0.3694 -0.3213
  556MPD2     C 8298   0.192   1.698  10.742 -0.6198 -0.1684  1.5937
  556MPD2    C1 8299   0.314   1.648  10.795 -0.2628  0.4000 -0.1134
  556MPD2    C2 8300   0.391   1.560  10.722 -0.8653  0.0247 -0.2429
  556MPD2    C3 8301   0.357   1.521  10.590 -0.5516  0.0524  0.1645
  556MPD2    C4 8302   0.247   1.583  10.534 -0.1331  0.1527 -1.5363
  556MPD2    C5 8303   0.164   1.659  10.614  0.0664 -0.2599  0.4930
  556MPD2     H 8304   0.483   1.514  10.756  0.3913  1.8808 -1.0928
  556MPD2    H1 8305   0.211   1.557  10.435 -1.8271 -1.3137 -0.5290
  556MPD2    H2 8306   0.123   1.767  10.790 -0.7225 -0.1729  1.4524
  556MPD2    H3 8307   0.073   1.678  10.559 -0.4861 -2.1462  0.7529
  556MPD2     N 8308   0.433   1.427  10.513  0.4516 -0.2985  0.3171
  556MPD2    H5 8309   0.508   1.382  10.564  0.8475 -0.8463 -0.7686
  556MPD2    N1 8310   0.359   1.695  10.918  0.5185 -0.5639 -0.2773
  556MPD2    H7 8311   0.457   1.682  10.942  0.4926 -1.8891 -0.9330
  557TMC3    C1 8312   0.475   1.249  10.363  0.6417  0.1861 -0.0979
  557TMC3    C2 8313   0.485   1.200  10.234 -0.7619  0.0427  0.5028
  557TMC3    C3 8314   0.498   1.067  10.213 -0.2763  0.1527  0.1226
  557TMC3    C4 8315   0.477   1.161  10.469 -0.5060  0.0888  0.0124
  557TMC3    C5 8316   0.483   1.026  10.436 -0.0241 -0.8216 -0.4086
  557TMC3    C6 8317   0.495   0.974  10.311 -0.3307 -0.0383  0.2644
  557TMC3     C 8318   0.409   1.376  10.387 -0.1953  0.7394  0.8578
  557TMC3     O 8319   0.332   1.417  10.299  0.1463  0.2437  0.0670
  557TMC3     H 8320   0.487   1.270  10.151 -1.1922 -0.3496  0.1585
  557TMC3    H1 8321   0.477   1.205  10.568 -0.8653 -2.0136  0.9523
  557TMC3    H2 8322   0.480   0.867  10.301  1.2173 -0.3315  1.0585
  557TMC3    C7 8323   0.514   0.944  10.551  0.2198  0.1914  0.0879
  557TMC3    C8 8324   0.478   1.019  10.076  0.5654 -0.5416 -0.5098
  557TMC3    O1 8325   0.507   1.001  10.654 -0.7876  0.3719 -0.5980
  557TMC3    O2 8326   0.449   1.095   9.985  0.2103  0.4556 -0.3404
  558TMC3    C1 8327   2.886   3.988  10.484  0.0962  0.1335  0.3590
  558TMC3    C2 8328   2.778   3.936  10.546  0.7662 -0.1886  0.3978
  558TMC3    C3 8329   2.654   3.952  10.489 -0.5371  0.1197  0.1256
  558TMC3    C4 8330   2.880   4.056  10.363  0.3140  0.2254 -0.2932
  558TMC3    C5 8331   2.751   4.082  10.318  0.1344  0.5865  0.4774
  558TMC3    C6 8332   2.640   4.036  10.378  0.6236 -0.0428 -0.2540
  558TMC3     C 8333   3.018   3.968  10.544 -0.5704 -0.4171  0.3876
  558TMC3     O 8334   3.032   3.872  10.618 -0.5452 -0.3722  0.2842
  558TMC3     H 8335   2.794   3.871  10.631  1.1918  0.2092  0.6257
  558TMC3    H1 8336   2.967   4.095  10.312  0.2055  1.7523  0.6983
  558TMC3    H2 8337   2.542   4.061  10.339  0.0178  0.6750  1.7250
  558TMC3    C7 8338   2.739   4.150  10.190 -0.1478 -0.4888 -0.2196
  558TMC3    C8 8339   2.534   3.923  10.559 -0.2519  1.1370  0.0428
  558TMC3    O1 8340   2.843   4.174  10.132 -0.6335  0.0960  0.3599
  558TMC3    O2 8341   2.432   3.891  10.509 -0.4157  0.3952 -0.2102
  559MPD2     C 8342   2.845   0.194  10.479  0.1555  0.3334  0.1389
  559MPD2    C1 8343   2.780   0.094  10.549 -0.5454  0.1873  0.6979
  559MPD2    C2 8344   2.864   0.018  10.630  0.4585 -0.0349 -0.0665
  559MPD2    C3 8345   3.001   0.037  10.633 -0.4166 -0.0749  0.1091
  559MPD2    C4 8346   3.059   0.138  10.553 -0.0356  0.2763  0.3629
  559MPD2    C5 8347   2.978   0.221  10.486  0.0092  0.7205 -0.0436
  559MPD2     H 8348   2.819   4.672  10.687 -0.7327  0.5129 -0.2297
  559MPD2    H1 8349   3.166   0.152  10.544 -0.8428  6.4572 -0.0626
  559MPD2    H2 8350   2.793   0.263  10.413  0.8067 -0.8127 -1.5637
  559MPD2    H3 8351   3.028   0.293  10.423  1.2191  1.1908  1.4356
  559MPD2     N 8352   3.076   4.682  10.706  0.6294  0.1330 -0.4964
  559MPD2    H5 8353   3.014   4.621  10.758 -0.4605  2.7334  1.2227
  559MPD2    N1 8354   2.646   0.075  10.521  0.6379  0.0934  0.3687
  559MPD2    H7 8355   2.601   0.154  10.476 -0.7862 -1.8558 -1.6414
  560TMC3    C1 8356   3.255   4.587  10.809 -0.3325 -0.6431 -0.2504
  560TMC3    C2 8357   3.185   4.469  10.823  0.0203 -0.0307  0.5620
  560TMC3    C3 8358   3.241   4.365  10.890 -0.5042  0.6455  0.1639
  560TMC3    C4 8359   3.385   4.603  10.858  0.9114 -0.1705 -0.5472
  560TMC3    C5 8360   3.435   4.490  10.917 -0.1019  0.3614 -0.0104
  560TMC3    C6 8361   3.373   4.371  10.933  0.5765 -0.0130  0.0257
  560TMC3     C 8362   3.212   4.681  10.715 -0.3067 -0.6553 -0.4809
  560TMC3     O 8363   3.294   0.012  10.653  0.6523 -0.5159 -0.6260
  560TMC3     H 8364   3.085   4.462  10.781 -0.2356  1.2072  0.9643
  560TMC3    H1 8365   3.440   4.696  10.848  2.8358 -1.0940  1.3825
  560TMC3    H2 8366   3.418   4.295  10.996 -2.2981 -0.2781  1.7267
  560TMC3    C7 8367   3.540   4.515  11.013  0.0373  0.4603 -0.1794
  560TMC3    C8 8368   3.150   4.261  10.927 -0.1456 -0.0645 -0.5073
  560TMC3    O1 8369   3.498   4.488  11.125  0.1860 -0.0474 -0.0944
  560TMC3    O2 8370   3.037   4.295  10.949  0.2542  0.5309 -0.2301
  561TMC3    C1 8371   0.789   3.724  11.479  0.5688  0.3976 -0.3355
  561TMC3    C2 8372   0.750   3.710  11.606  0.0226  0.6419  0.3578
  561TMC3    C3 8373   0.735   3.814  11.689  0.1637 -0.2448  0.0679
  561TMC3    C4 8374   0.841   3.844  11.444 -0.2479 -0.3180  0.4261
  561TMC3    C5 8375   0.833   3.949  11.530  0.5984 -0.2403  0.0297
  561TMC3    C6 8376   0.764   3.944  11.650 -0.2917  0.5535 -0.4234
  561TMC3     C 8377   0.832   3.600  11.422 -0.2224 -1.1153  0.2380
  561TMC3     O 8378   0.752   3.509  11.405 -0.2284  0.2385 -0.7082
  561TMC3     H 8379   0.727   3.610  11.641 -1.2579  0.1229 -1.9556
  561TMC3    H1 8380   0.874   3.859  11.342 -1.1972  1.4439  0.3789
  561TMC3    H2 8381   0.771   4.026  11.720 -1.5201 -0.1393  0.4996
  561TMC3    C7 8382   0.906   4.072  11.504  0.1268  0.0948  1.1019
  561TMC3    C8 8383   0.741   3.782  11.829  0.8014 -0.0020 -0.7049
  561TMC3    O1 8384   0.920   4.146  11.600 -0.4203 -0.7859 -0.5436
  561TMC3    O2 8385   0.827   3.705  11.858 -0.2637 -0.4531 -0.3200
  562TMC3    C1 8386   1.599   0.800  16.697 -0.3416  0.4900  0.2263
  562TMC3    C2 8387   1.618   0.939  16.694 -0.6153  0.5684  0.6061
  562TMC3    C3 8388   1.646   1.004  16.574 -0.4530  0.4368  0.2695
  562TMC3    C4 8389   1.614   0.729  16.580 -0.0972  0.0895  0.2585
  562TMC3    C5 8390   1.645   0.798  16.466 -0.0539 -0.3348 -0.5409
  562TMC3    C6 8391   1.658   0.931  16.459  0.0506  0.1682  0.1198
  562TMC3     C 8392   1.593   0.737  16.829 -0.3907 -0.7412 -0.0099
  562TMC3     O 8393   1.592   0.808  16.929  0.4006  0.5510  0.0233
  562TMC3     H 8394   1.606   1.004  16.780  0.7206  1.6311 -0.0107
  562TMC3    H1 8395   1.594   0.622  16.579 -0.9255  0.2398  0.1011
  562TMC3    H2 8396   1.689   0.977  16.366  1.7852 -0.9964  0.1242
  562TMC3    C7 8397   1.689   0.723  16.347  0.7982  0.4749 -0.5838
  562TMC3    C8 8398   1.634   1.146  16.582  0.0187 -0.1949 -0.4823
  562TMC3    O1 8399   1.704   0.788  16.245  0.3316 -0.4907  0.0663
  562TMC3    O2 8400   1.601   1.194  16.689 -0.6977 -0.0449 -0.0907
  563MPD2     C 8401   4.134   2.095  15.764  1.4658  0.4361  0.2672
  563MPD2    C1 8402   4.130   2.105  15.902 -0.2417 -0.3313  0.8972
  563MPD2    C2 8403   4.257   2.111  15.964 -0.0878 -0.3628  0.5610
  563MPD2    C3 8404   4.374   2.127  15.893 -0.8648 -0.5222  0.0073
  563MPD2    C4 8405   4.370   2.121  15.752  0.1234 -0.3665 -0.0727
  563MPD2    C5 8406   4.249   2.097  15.689  0.8211  0.0652  0.3745
  563MPD2     H 8407   4.270   2.106  16.072 -2.2034  0.1367  0.8276
  563MPD2    H1 8408   4.460   2.129  15.693 -0.4228  0.0605 -0.8397
  563MPD2    H2 8409   4.037   2.091  15.716  1.4326 -2.5547  0.5386
  563MPD2    H3 8410   4.237   2.105  15.581  0.6666  3.2641  0.6234
  563MPD2     N 8411   4.499   2.121  15.966 -0.0659  0.3886 -0.3919
  563MPD2    H5 8412   4.493   2.114  16.067 -0.6875 -0.1942 -0.4645
  563MPD2    N1 8413   4.012   2.069  15.971 -0.0712  0.7114 -0.7181
  563MPD2    H7 8414   3.945   2.015  15.917  0.9598 -1.0899 -0.2016
  564TMC3    C1 8415   3.906   1.984  16.170 -0.5171 -0.4283  0.6693
  564TMC3    C2 8416   3.863   1.875  16.099 -0.4876 -0.0907  0.3425
  564TMC3    C3 8417   3.822   1.764  16.171 -0.9929 -0.4477  0.0268
  564TMC3    C4 8418   3.927   1.974  16.302  0.0179 -0.4875  0.2121
  564TMC3    C5 8419   3.893   1.865  16.370 -0.0310 -0.5435 -0.0725
  564TMC3    C6 8420   3.831   1.759  16.309  0.4346  0.1879  0.6200
  564TMC3     C 8421   4.000   2.076  16.107  0.2582  0.6437  0.2792
  564TMC3     O 8422   4.064   2.144  16.184 -0.0833  0.5772  0.0438
  564TMC3     H 8423   3.875   1.869  15.991 -0.4603 -0.4554  0.3650
  564TMC3    H1 8424   3.960   2.061  16.358 -0.2590  0.3324 -0.9025
  564TMC3    H2 8425   3.787   1.675  16.361 -0.2454  0.2188  0.0952
  564TMC3    C7 8426   4.009   1.823  16.443 -0.3351 -0.1664  0.1937
  564TMC3    C8 8427   3.854   1.636  16.119  0.3681  0.2438  0.1854
  564TMC3    O1 8428   4.072   1.896  16.517  0.2495 -0.7593 -0.5487
  564TMC3    O2 8429   3.872   1.552  16.207 -0.3481 -0.2346  0.2574
  565TMC3    C1 8430   0.425   3.025  10.589  0.0744  0.1041  0.5484
  565TMC3    C2 8431   0.465   3.020  10.716  0.4847 -0.0369  0.4284
  565TMC3    C3 8432   0.374   2.970  10.808  0.3363  0.2378 -0.6990
  565TMC3    C4 8433   0.296   3.001  10.551 -0.7688 -0.4112 -0.8510
  565TMC3    C5 8434   0.206   2.966  10.648  0.3299 -0.4000  0.0401
  565TMC3    C6 8435   0.240   2.963  10.778  0.7079 -0.0621 -0.2582
  565TMC3     C 8436   0.522   3.047  10.481  0.2532 -0.6984  0.2083
  565TMC3     O 8437   0.478   3.019  10.371  0.4837 -0.1382 -0.4777
  565TMC3     H 8438   0.570   3.012  10.741  0.9306  1.4833 -0.9887
  565TMC3    H1 8439   0.269   2.993  10.446  0.8839 -0.1645 -1.2948
  565TMC3    H2 8440   0.187   2.914  10.859 -0.0621  4.1362  1.7843
  565TMC3    C7 8441   0.107   2.868  10.614  0.2195  0.0391 -0.5825
  565TMC3    C8 8442   0.431   2.871  10.896 -0.5846 -0.1313  0.1247
  565TMC3    O1 8443   0.087   2.787  10.701  0.3360 -0.2929 -0.0598
  565TMC3    O2 8444   0.543   2.890  10.933  1.0683 -0.2960 -0.1064
  566MPD2     C 8445   1.989   0.395  14.283 -0.6263 -0.4145 -0.9179
  566MPD2    C1 8446   2.090   0.377  14.189  0.9518  1.4185  0.4304
  566MPD2    C2 8447   2.068   0.292  14.088  0.0064 -0.1096 -0.0218
  566MPD2    C3 8448   1.954   0.226  14.067 -0.4411  0.2246  0.4152
  566MPD2    C4 8449   1.852   0.250  14.160  0.2064  0.0790 -0.3334
  566MPD2    C5 8450   1.883   0.317  14.273 -0.3426  0.4063  0.6830
  566MPD2     H 8451   2.151   0.262  14.024  0.2166  2.1466 -0.8299
  566MPD2    H1 8452   1.754   0.209  14.142  0.3761 -0.6630  0.3670
  566MPD2    H2 8453   2.003   0.460  14.368  2.5687  0.0468 -1.8022
  566MPD2    H3 8454   1.808   0.331  14.350  0.5179 -2.2707  1.9922
  566MPD2     N 8455   1.938   0.144  13.955 -0.2260 -0.4169  0.1066
  566MPD2    H5 8456   2.008   0.134  13.882  0.0782  1.0932  0.1933
  566MPD2    N1 8457   2.205   0.447  14.210 -0.1888  0.1286 -0.7756
  566MPD2    H7 8458   2.220   0.499  14.296  0.6204 -0.4280 -0.5804
  567TMC3    C1 8459   2.420   0.529  14.165 -0.2207 -0.1766  0.1497
  567TMC3    C2 8460   2.500   0.574  14.065 -0.5231  0.6901  0.8157
  567TMC3    C3 8461   2.608   0.657  14.103 -0.1864 -0.1230  0.4164
  567TMC3    C4 8462   2.456   0.549  14.298 -0.0460 -0.0081 -0.3998
  567TMC3    C5 8463   2.563   0.635  14.321 -0.1592 -1.2993 -0.0287
  567TMC3    C6 8464   2.642   0.688  14.227 -0.1332  0.1045 -0.6541
  567TMC3     C 8465   2.305   0.452  14.117  0.2679  0.4288 -0.0711
  567TMC3     O 8466   2.292   0.426  13.999 -0.0462  0.3557  0.1712
  567TMC3     H 8467   2.455   0.577  13.966  2.1714 -0.4249 -0.4435
  567TMC3    H1 8468   2.401   0.505  14.381  1.2599 -1.3276 -0.2390
  567TMC3    H2 8469   2.727   0.751  14.250 -0.2461  0.8255 -2.2393
  567TMC3    C7 8470   2.598   0.665  14.455  0.0374 -0.0324  0.0894
  567TMC3    C8 8471   2.695   0.697  13.998  0.6377  0.6872  0.5180
  567TMC3    O1 8472   2.713   0.698  14.473  0.3846 -0.7604 -0.3538
  567TMC3    O2 8473   2.761   0.804  14.020 -0.3069  0.8855  0.0036
  568MPD2     C 8474   3.831   0.194  16.403 -0.1436 -0.0359  0.6480
  568MPD2    C1 8475   3.851   0.311  16.469  0.0528 -0.5724  0.4719
  568MPD2    C2 8476   3.866   0.425  16.399  0.9651 -0.2206 -0.0682
  568MPD2    C3 8477   3.867   0.427  16.260  0.7839  0.4126 -0.7659
  568MPD2    C4 8478   3.847   0.306  16.189 -0.0418  0.0160  0.8023
  568MPD2    C5 8479   3.825   0.193  16.261 -0.4701 -0.8959  0.5157
  568MPD2     H 8480   3.893   0.519  16.445  2.5562 -0.2680 -0.9354
  568MPD2    H1 8481   3.843   0.308  16.080  0.1429 -2.3219  0.7469
  568MPD2    H2 8482   3.809   0.098  16.448 -2.1995  0.3458  0.4161
  568MPD2    H3 8483   3.807   0.102  16.204 -2.7233  0.2707 -0.6029
  568MPD2     N 8484   3.906   0.553  16.206  0.3743 -0.0903 -0.7471
  568MPD2    H5 8485   3.927   0.633  16.265 -0.1579  0.7087 -1.6442
  568MPD2    N1 8486   3.858   0.315  16.610 -1.0094 -0.1688 -0.3753
  568MPD2    H7 8487   3.832   0.225  16.648  0.8215 -0.1556  0.9208
  569TMC3    C1 8488   3.996   0.694  16.063 -0.2983 -0.0317  0.4365
  569TMC3    C2 8489   4.072   0.721  16.176  0.3247  0.1034 -0.3432
  569TMC3    C3 8490   4.097   0.854  16.197 -0.2795 -0.1484  0.7414
  569TMC3    C4 8491   3.951   0.790  15.977 -0.5671  0.0947  0.1645
  569TMC3    C5 8492   3.974   0.921  16.001  0.0668  0.6910  0.2199
  569TMC3    C6 8493   4.055   0.954  16.106  0.2549  0.0972  0.3462
  569TMC3     C 8494   3.901   0.583  16.077 -1.2729 -0.5348 -0.3503
  569TMC3     O 8495   3.871   0.518  15.979 -0.0928  0.3954  0.0149
  569TMC3     H 8496   4.114   0.650  16.246 -0.6197  0.1787  0.3099
  569TMC3    H1 8497   3.865   0.755  15.920 -0.6551  0.1872  0.2401
  569TMC3    H2 8498   4.084   1.056  16.127 -0.0513  0.0926  0.8000
  569TMC3    C7 8499   3.960   1.020  15.894 -0.4251  0.5839 -0.4899
  569TMC3    C8 8500   4.038   0.887  16.323 -0.7537  0.7376 -0.5191
  569TMC3    O1 8501   3.979   0.983  15.782  0.3397  1.0436 -0.3244
  569TMC3    O2 8502   3.955   0.809  16.368 -0.4363  0.0744  0.0072
  570TMC3    C1 8503   3.451   4.407  16.319 -0.6845 -0.2217  0.1951
  570TMC3    C2 8504   3.539   4.395  16.217 -0.5733  0.5373  0.2576
  570TMC3    C3 8505   3.540   4.498  16.123 -0.5009 -0.0653 -0.5937
  570TMC3    C4 8506   3.368   4.509  16.338 -0.1965 -0.2357 -0.2316
  570TMC3    C5 8507   3.367   4.602  16.237  0.1827 -0.0774  0.3090
  570TMC3    C6 8508   3.446   4.594  16.126 -0.4965 -0.5930  0.1403
  570TMC3     C 8509   3.432   4.290  16.411 -0.0609  0.8638 -0.1759
  570TMC3     O 8510   3.521   4.206  16.418  0.2136 -0.2806 -0.0198
  570TMC3     H 8511   3.611   4.314  16.215  0.3993  1.4421 -0.9937
  570TMC3    H1 8512   3.295   4.517  16.418  0.2685 -1.6581  0.3283
  570TMC3    H2 8513   3.438   4.673  16.054  1.3576 -1.3178 -0.8684
  570TMC3    C7 8514   3.350   4.731  16.303  0.1886 -0.7061  0.6142
  570TMC3    C8 8515   3.675   4.552  16.091 -0.2284 -0.7301 -0.1486
  570TMC3    O1 8516   3.307   0.004  16.416 -0.0922 -0.1950  0.2145
  570TMC3    O2 8517   3.691   4.654  16.025 -0.3967 -0.4364 -0.3193
  571MPD2     C 8518   0.696   1.401  17.531  0.2662 -0.4622 -0.5552
  571MPD2    C1 8519   0.786   1.325  17.598  0.2000  0.1980  0.2022
  571MPD2    C2 8520   0.835   1.370  17.720 -0.5185  0.0767  0.3920
  571MPD2    C3 8521   0.804   1.501   0.023  0.5066  0.4165  0.1537
  571MPD2    C4 8522   0.713   1.577  17.691 -0.2861  0.1787 -0.4448
  571MPD2    C5 8523   0.666   1.526  17.574  0.1810 -0.6182 -0.7181
  571MPD2     H 8524   0.886   1.307   0.052  1.6546  0.3112 -0.9356
  571MPD2    H1 8525   0.681   1.676  17.721 -0.9879  0.4239 -2.0394
  571MPD2    H2 8526   0.651   1.372  17.436  0.0124  0.3455 -0.6825
  571MPD2    H3 8527   0.611   1.592  17.508  0.2055  0.9873  0.8573
  571MPD2     N 8528   0.848   1.564   0.147  0.6806  0.2323 -0.0150
  571MPD2    H5 8529   0.808   1.656   0.162 -2.6525 -1.3824  1.0135
  571MPD2    N1 8530   0.800   1.193  17.553  0.7940  0.1976 -0.2193
  571MPD2    H7 8531   0.760   1.166  17.463  0.8963  2.3817 -0.9091
  572TMC3    C1 8532   0.962   1.618   0.349 -0.0033 -0.4715  0.7480
  572TMC3    C2 8533   1.020   1.564   0.461  0.6113 -0.4283  0.2183
  572TMC3    C3 8534   1.026   1.654   0.569 -0.2103 -0.0869 -0.3003
  572TMC3    C4 8535   0.946   1.756   0.329 -0.3170  0.8376  0.3666
  572TMC3    C5 8536   0.977   1.839   0.437 -0.8166 -0.1322 -0.2511
  572TMC3    C6 8537   1.012   1.789   0.558  0.1091 -0.4152 -0.3447
  572TMC3     C 8538   0.946   1.520   0.238 -1.2593  0.2720  0.2537
  572TMC3     O 8539   1.004   1.413   0.247 -0.2220  0.7439  0.3047
  572TMC3     H 8540   1.007   1.458   0.482 -1.6635  0.0829  1.4054
  572TMC3    H1 8541   0.903   1.798   0.239  3.9689  0.2954 -1.9366
  572TMC3    H2 8542   1.022   1.843   0.651 -0.9022  0.2661 -0.6285
  572TMC3    C7 8543   0.909   1.964   0.435  0.2075 -0.3583 -0.4785
  572TMC3    C8 8544   1.048   1.588   0.695  0.1686  0.0480  0.2898
  572TMC3    O1 8545   0.831   1.986   0.348 -0.5704 -0.1335  0.6700
  572TMC3    O2 8546   1.088   1.474   0.701 -0.0450 -0.3440  0.2415
  573MPD2     C 8547   1.901   1.615   0.080 -0.1172  0.1766 -0.3083
  573MPD2    C1 8548   1.811   1.647   0.178  0.2323 -0.1397  0.1090
  573MPD2    C2 8549   1.671   1.661   0.152  0.0246 -0.7573 -0.0906
  573MPD2    C3 8550   1.615   1.638   0.025  0.4222 -0.3949  0.5556
  573MPD2    C4 8551   1.710   1.600  17.667  0.7553 -0.1742 -0.1696
  573MPD2    C5 8552   1.847   1.600  17.690 -0.5366 -0.6475  0.7584
  573MPD2     H 8553   1.608   1.682   0.237  0.2303 -0.0362 -0.1181
  573MPD2    H1 8554   1.673   1.586  17.566 -0.5305  0.7725  0.1602
  573MPD2    H2 8555   2.006   1.595   0.097 -0.0167  0.7210 -0.3141
  573MPD2    H3 8556   1.911   1.582  17.605 -0.7377  0.0432  0.4608
  573MPD2     N 8557   1.476   1.638  17.731 -0.2586 -0.2743 -0.0462
  573MPD2    H5 8558   1.462   1.611  17.634  0.7600  0.3504 -0.3662
  573MPD2    N1 8559   1.865   1.642   0.312 -0.5663 -0.1969 -0.8316
  573MPD2    H7 8560   1.955   1.596   0.316 -0.6794 -0.3004  0.5268
  574TMC3    C1 8561   1.239   1.657   0.014 -0.0306 -0.3550 -1.5894
  574TMC3    C2 8562   1.148   1.747   0.052  0.4768 -0.6003 -0.8251
  574TMC3    C3 8563   1.044   1.769  17.708  0.3993  0.7269  0.9649
  574TMC3    C4 8564   1.231   1.580  17.642 -0.3603 -0.4324 -0.3952
  574TMC3    C5 8565   1.111   1.601  17.569  0.0615  0.3630  0.2415
  574TMC3    C6 8566   1.019   1.696  17.599 -0.2125  0.0204  0.2092
  574TMC3     C 8567   1.366   1.661   0.075 -0.4189 -0.4643 -0.2378
  574TMC3     O 8568   1.372   1.694   0.192  1.1183 -0.0249  0.5688
  574TMC3     H 8569   1.148   1.802   0.145  0.0540  0.4098 -1.4159
  574TMC3    H1 8570   1.306   1.504  17.627  0.0282 -0.1426  0.0660
  574TMC3    H2 8571   0.946   1.735  17.530 -1.0400  2.6351  2.5724
  574TMC3    C7 8572   1.084   1.518  17.451 -0.1374  0.7613  0.6865
  574TMC3    C8 8573   0.949   1.885  17.719  0.9335  0.3066  0.2280
  574TMC3    O1 8574   0.992   1.561  17.387 -0.2946  0.0857 -0.2014
  574TMC3    O2 8575   0.829   1.865  17.691 -0.1821 -0.5314 -0.0764
  575TMC3    C1 8576   1.032   2.423  11.330 -0.1629 -0.6498  0.7027
  575TMC3    C2 8577   1.005   2.296  11.369  0.1583 -0.0306 -0.0228
  575TMC3    C3 8578   0.875   2.252  11.374 -0.1267 -0.1102 -0.1742
  575TMC3    C4 8579   0.935   2.510  11.275 -0.1244  0.1600  0.0438
  575TMC3    C5 8580   0.811   2.460  11.284  0.8170  0.5160 -0.3205
  575TMC3    C6 8581   0.779   2.339  11.332 -0.4719  0.5046  0.6938
  575TMC3     C 8582   1.172   2.454  11.339  0.0395 -0.3681  0.0841
  575TMC3     O 8583   1.232   2.404  11.431  0.1442  0.2064 -0.4345
  575TMC3     H 8584   1.076   2.227  11.412  2.0222  0.8309 -1.7020
  575TMC3    H1 8585   0.958   2.614  11.254  3.1158 -0.2638  1.5260
  575TMC3    H2 8586   0.677   2.305  11.342 -0.0018 -1.6360 -1.6408
  575TMC3    C7 8587   0.718   2.533  11.198 -0.0173  0.0906 -0.0929
  575TMC3    C8 8588   0.854   2.121  11.438 -0.4142  0.2784 -0.0879
  575TMC3    O1 8589   0.737   2.653  11.176 -0.3423 -0.0738 -0.4454
  575TMC3    O2 8590   0.949   2.054  11.457  0.3744 -0.8054 -0.4396
  576MPD2     C 8591   0.151   4.503  12.961  0.3943  0.4195  0.6813
  576MPD2    C1 8592   0.172   4.584  12.854 -0.5930  0.2844  0.6230
  576MPD2    C2 8593   0.166   4.722  12.881 -0.0110  0.7369 -0.5462
  576MPD2    C3 8594   0.140   0.046  13.000 -0.7592  0.2155  0.4501
  576MPD2    C4 8595   0.107   4.693  13.097  0.5264 -0.1598  0.1645
  576MPD2    C5 8596   0.122   4.559  13.073 -0.2885  0.4949 -0.1619
  576MPD2     H 8597   0.204   0.051  12.802  2.3005 -1.1822 -0.9922
  576MPD2    H1 8598   0.072   4.725  13.195  1.6217  0.4611  0.3542
  576MPD2    H2 8599   0.169   4.397  12.947  2.0535  0.7335  0.3894
  576MPD2    H3 8600   0.094   4.499  13.159 -0.2716 -1.2559 -1.3902
  576MPD2     N 8601   0.132   0.189  13.008  0.1302 -0.0477  0.0148
  576MPD2    H5 8602   0.152   0.238  12.921  0.6436 -0.0872  0.1120
  576MPD2    N1 8603   0.215   4.548  12.725 -0.3050 -0.0799 -0.5455
  576MPD2    H7 8604   0.233   4.619  12.655 -1.5845  1.2237  0.4555
  577TMC3    C1 8605   0.304   4.407  12.556  0.1408 -0.4298 -0.1210
  577TMC3    C2 8606   0.395   4.304  12.549  0.2321 -0.2930  0.3051
  577TMC3    C3 8607   0.457   4.278  12.427 -0.2134  0.5821 -0.4596
  577TMC3    C4 8608   0.298   4.496  12.459  0.5119 -0.0570  0.1438
  577TMC3    C5 8609   0.360   4.464  12.338 -0.3480 -0.5703  0.2670
  577TMC3    C6 8610   0.441   4.357  12.324  0.4231  0.5858 -0.4739
  577TMC3     C 8611   0.231   4.421  12.681  0.7387  0.5983  0.4376
  577TMC3     O 8612   0.223   4.315  12.741 -0.1799 -0.0149  0.6892
  577TMC3     H 8613   0.419   4.247  12.638  0.0788  0.3121  0.7342
  577TMC3    H1 8614   0.221   4.572  12.463  2.7049  1.9741  3.0636
  577TMC3    H2 8615   0.481   4.344  12.224  1.6430 -0.8347  0.1982
  577TMC3    C7 8616   0.323   4.530  12.212 -0.3667  1.1265  0.4181
  577TMC3    C8 8617   0.508   4.151  12.418 -0.2484 -0.2550  0.4800
  577TMC3    O1 8618   0.203   4.547  12.190 -0.3085  0.4563 -0.3127
  577TMC3    O2 8619   0.507   4.082  12.517 -0.7525 -0.2639 -0.5594
  578MPD2     C 8620   3.510   4.431   0.353  0.8519 -0.2446 -0.4531
  578MPD2    C1 8621   3.550   4.466   0.481 -0.7475 -0.5277  0.7316
  578MPD2    C2 8622   3.561   4.363   0.574 -0.5316  0.3009  0.1244
  578MPD2    C3 8623   3.536   4.235   0.541 -0.7695 -0.0114 -0.4653
  578MPD2    C4 8624   3.511   4.208   0.411 -0.8646 -0.2000  0.7118
  578MPD2    C5 8625   3.498   4.306   0.316 -0.1775 -0.4203  0.5658
  578MPD2     H 8626   3.577   4.374   0.681  1.0717  0.7916 -0.1532
  578MPD2    H1 8627   3.497   4.107   0.374  1.2879 -0.5845  0.9632
  578MPD2    H2 8628   3.511   4.514   0.284  2.2358 -1.8964 -2.3947
  578MPD2    H3 8629   3.476   4.291   0.211  1.6690 -0.7417  0.2352
  578MPD2     N 8630   3.540   4.132   0.643  0.5114  0.0555 -0.2440
  578MPD2    H5 8631   3.569   4.158   0.737 -2.4434  2.4469  0.0320
  578MPD2    N1 8632   3.559   4.602   0.512 -0.1944 -0.1197 -0.5627
  578MPD2    H7 8633   3.534   4.659   0.431 -1.6591  0.4439  0.2801
  579TMC3    C1 8634   3.512   3.911   0.719 -0.7454  0.2593  0.2507
  579TMC3    C2 8635   3.643   3.905   0.765 -0.6891 -0.0945 -0.8142
  579TMC3    C3 8636   3.666   3.792   0.841 -0.2497  0.5029  0.2014
  579TMC3    C4 8637   3.423   3.804   0.725 -0.4014  0.1258 -0.3882
  579TMC3    C5 8638   3.464   3.687   0.781  0.4660  0.2055 -0.1842
  579TMC3    C6 8639   3.587   3.675   0.845 -0.1556 -0.0261 -0.3175
  579TMC3     C 8640   3.491   4.009   0.617 -0.4580  0.0838 -0.1676
  579TMC3     O 8641   3.438   3.966   0.520  0.1369 -0.6181 -0.2804
  579TMC3     H 8642   3.706   3.993   0.773 -0.7110 -0.3588  2.0205
  579TMC3    H1 8643   3.332   3.820   0.668 -0.8763 -2.7313 -0.4347
  579TMC3    H2 8644   3.620   3.583   0.892  2.7848 -0.3440 -3.0087
  579TMC3    C7 8645   3.398   3.559   0.749 -0.3525  0.9759 -0.3498
  579TMC3    C8 8646   3.796   3.787   0.908 -0.2323  1.0948  0.1365
  579TMC3    O1 8647   3.455   3.454   0.785 -0.2073  0.1844  0.6144
  579TMC3    O2 8648   3.825   3.685   0.970 -0.6461 -0.6872 -0.0829
  580TMC3    C1 8649   2.861   3.716  12.256  0.0265 -0.0517 -0.0578
  580TMC3    C2 8650   2.965   3.793  12.275 -0.0617  0.1145  0.0112
  580TMC3    C3 8651   3.095   3.739  12.259 -0.1058  0.8818  0.5021
  580TMC3    C4 8652   2.875   3.581  12.263 -0.0616  0.1717  0.2439
  580TMC3    C5 8653   3.002   3.527  12.263  0.6288 -0.2890  0.7053
  580TMC3    C6 8654   3.118   3.607  12.263 -0.8417 -0.5244 -0.4966
  580TMC3     C 8655   2.758   3.752  12.168 -0.5891  0.0673 -0.3432
  580TMC3     O 8656   2.660   3.681  12.149 -0.1061 -0.2615  0.2408
  580TMC3     H 8657   2.950   3.900  12.286 -0.3604  0.3227 -2.3963
  580TMC3    H1 8658   2.788   3.517  12.260  0.9749 -1.2658  0.9578
  580TMC3    H2 8659   3.215   3.562  12.249 -1.2590 -1.6872  0.3219
  580TMC3    C7 8660   3.020   3.401  12.324  0.0092  0.4520 -0.3886
  580TMC3    C8 8661   3.166   3.819  12.150 -0.4621 -0.2770  0.2212
  580TMC3    O1 8662   3.100   3.400  12.415  0.3244 -0.6777 -0.1353
  580TMC3    O2 8663   3.108   3.922  12.118  0.1416 -0.1394 -0.1569
  581MPD2     C 8664   0.676   3.669  14.800  0.3708 -0.1270 -0.8029
  581MPD2    C1 8665   0.610   3.706  14.907  0.6350  0.3628 -0.7379
  581MPD2    C2 8666   0.476   3.731  14.900  0.6585  0.5321 -0.7778
  581MPD2    C3 8667   0.402   3.697  14.792 -0.6911 -0.4672 -0.3634
  581MPD2    C4 8668   0.468   3.639  14.687  0.5180 -0.6634  0.4394
  581MPD2    C5 8669   0.608   3.626  14.686  0.1342 -0.1003 -0.1307
  581MPD2     H 8670   0.421   3.775  14.982  0.9469 -1.6558  0.5899
  581MPD2    H1 8671   0.413   3.601  14.602 -0.2112 -2.1432  1.5765
  581MPD2    H2 8672   0.783   3.659  14.804  0.5276  1.8433  0.0228
  581MPD2    H3 8673   0.664   3.598  14.597 -1.7668  0.7171 -1.5717
  581MPD2     N 8674   0.267   3.708  14.783 -0.1603  0.0930  0.1494
  581MPD2    H5 8675   0.226   3.768  14.854 -0.2408  0.5929 -0.3199
  581MPD2    N1 8676   0.691   3.720  15.023  0.2285  0.1286 -0.3456
  581MPD2    H7 8677   0.791   3.708  15.009  0.2994  0.6619 -0.3207
  582TMC3    C1 8678   0.744   3.716  15.250 -0.3670 -0.7830 -0.2115
  582TMC3    C2 8679   0.690   3.729  15.376  0.2160 -0.6765  0.6051
  582TMC3    C3 8680   0.729   3.634  15.467  0.2996 -0.0885  0.1223
  582TMC3    C4 8681   0.836   3.614  15.219 -0.3408  0.7198 -0.3098
  582TMC3    C5 8682   0.848   3.508  15.304  0.2780 -0.1941  0.7852
  582TMC3    C6 8683   0.803   3.519  15.436 -0.2415  0.5074  1.4364
  582TMC3     C 8684   0.646   3.742  15.150 -0.0788  1.1157 -0.5343
  582TMC3     O 8685   0.534   3.773  15.185  0.4251 -0.3689  0.5722
  582TMC3     H 8686   0.612   3.799  15.401  0.5699  0.1889 -0.6970
  582TMC3    H1 8687   0.876   3.588  15.122 -2.9049  0.4069 -1.2844
  582TMC3    H2 8688   0.831   3.443  15.507 -0.2397  0.3142  1.2284
  582TMC3    C7 8689   0.762   3.398  15.257 -0.3660  0.5597  0.1465
  582TMC3    C8 8690   0.681   3.647  15.601 -0.2719  0.3193  0.3774
  582TMC3    O1 8691   0.672   3.370  15.333  0.9228  0.3554  0.4720
  582TMC3    O2 8692   0.591   3.726  15.624 -0.6866 -0.1720 -0.2354
  583MPD2     C 8693   0.027   0.607  16.298 -0.2373  0.3272  0.0123
  583MPD2    C1 8694   0.135   0.684  16.284 -0.3586  0.6059 -0.3384
  583MPD2    C2 8695   0.156   0.789  16.378  0.1581  0.4012  0.4319
  583MPD2    C3 8696   0.063   0.813  16.479  0.8206  0.3318  0.1104
  583MPD2    C4 8697   4.691   0.736  16.489  0.8119  0.9855 -0.0134
  583MPD2    C5 8698   4.671   0.643  16.396  0.4217 -0.6416 -0.3421
  583MPD2     H 8699   0.248   0.846  16.367  0.7518 -0.3002  1.8745
  583MPD2    H1 8700   4.613   0.742  16.564 -0.0323 -0.9035 -0.7503
  583MPD2    H2 8701   0.009   0.528  16.227 -0.2189  0.7054 -0.4106
  583MPD2    H3 8702   4.572   0.600  16.388 -0.5708  1.4190  1.2006
  583MPD2     N 8703   0.091   0.914  16.574  0.0163  0.8623 -0.4066
  583MPD2    H5 8704   0.160   0.981  16.542  1.6101 -0.5984 -0.0466
  583MPD2    N1 8705   0.243   0.660  16.196  0.4405 -0.2938 -0.4813
  583MPD2    H7 8706   0.316   0.729  16.182  0.3309 -0.3955 -1.5761
  584TMC3    C1 8707   0.088   1.011  16.788  0.3361  0.7764 -0.0046
  584TMC3    C2 8708   0.107   1.133  16.731  0.5152 -0.8665 -0.0252
  584TMC3    C3 8709   0.145   1.232  16.816  0.2460 -0.2843  0.3236
  584TMC3    C4 8710   0.071   0.995  16.917 -0.5715 -0.4359  0.6878
  584TMC3    C5 8711   0.117   1.094  17.001  0.0816 -0.2836 -0.1730
  584TMC3    C6 8712   0.161   1.216  16.954  0.2114 -0.2661  0.9001
  584TMC3     C 8713   0.049   0.904  16.701 -0.1190 -0.2205 -0.7671
  584TMC3     O 8714   4.723   0.816  16.760  0.3742  0.0518  0.6761
  584TMC3     H 8715   0.099   1.157  16.625 -0.6594  0.4724  0.3598
  584TMC3    H1 8716   0.064   0.896  16.961 -1.3407 -0.1020  1.3119
  584TMC3    H2 8717   0.190   1.298  17.019  2.2611 -0.7145  0.5532
  584TMC3    C7 8718   0.109   1.061  17.142 -0.5622  0.5160 -0.3897
  584TMC3    C8 8719   0.220   1.340  16.754 -0.7331 -0.3133  0.1390
  584TMC3    O1 8720   0.064   0.951  17.165  0.3071 -0.4648  0.7841
  584TMC3    O2 8721   0.225   1.339  16.631  0.0489 -0.2189  0.1514
  585MPD2     C 8722   4.233   4.264  17.644  0.3280 -0.0006 -0.4161
  585MPD2    C1 8723   4.282   4.321  17.524 -0.2242  0.0759 -0.1268
  585MPD2    C2 8724   4.344   4.238  17.431  0.2046 -0.0344 -0.6887
  585MPD2    C3 8725   4.352   4.101  17.454  0.0436  0.2780 -0.3064
  585MPD2    C4 8726   4.303   4.048  17.573 -0.0148  0.5767  0.8171
  585MPD2    C5 8727   4.241   4.126  17.662 -0.3363 -0.2304  0.1823
  585MPD2     H 8728   4.385   4.286  17.342 -0.2302 -0.9118 -1.3632
  585MPD2    H1 8729   4.305   3.942  17.596 -0.1067  0.4269  0.1545
  585MPD2    H2 8730   4.180   4.317  17.723  2.2013  0.4812  0.5318
  585MPD2    H3 8731   4.210   4.080   0.015 -0.0948  0.8660  0.7986
  585MPD2     N 8732   4.394   4.001  17.355  0.5526 -0.1119  0.0410
  585MPD2    H5 8733   4.410   3.905  17.385  0.5721  0.3659  1.5330
  585MPD2    N1 8734   4.277   4.460  17.514 -0.1380  0.3313 -0.3465
  585MPD2    H7 8735   4.228   4.501  17.594 -0.4027 -0.9336  0.1361
  586TMC3    C1 8736   4.422   3.905  17.151 -0.0204  0.1157  0.0671
  586TMC3    C2 8737   4.533   3.833  17.176 -0.2125 -1.0806 -0.5372
  586TMC3    C3 8738   4.520   3.702  17.216  0.2235  0.1730  0.2861
  586TMC3    C4 8739   4.297   3.848  17.154  0.8275 -0.5111  0.5907
  586TMC3    C5 8740   4.287   3.718  17.185 -0.4060 -0.2432  0.0618
  586TMC3    C6 8741   4.399   3.644  17.217  0.0385  0.2727  0.3346
  586TMC3     C 8742   4.422   4.025  17.223  0.5087  0.3180  0.7727
  586TMC3     O 8743   4.410   4.132  17.167 -0.2526 -0.4319  0.7491
  586TMC3     H 8744   4.637   3.864  17.177 -0.1862 -1.2515  3.1253
  586TMC3    H1 8745   4.213   3.914  17.135  1.0327 -0.3976  0.0929
  586TMC3    H2 8746   4.399   3.537  17.234  0.0883  0.1850 -0.1976
  586TMC3    C7 8747   4.156   3.651  17.184  0.2163  0.8319  0.2433
  586TMC3    C8 8748   4.631   3.621  17.233  1.0567 -0.2553  0.5447
  586TMC3    O1 8749   4.159   3.532  17.205  0.3674 -0.1646 -0.1350
  586TMC3    O2 8750   4.610   3.521  17.302  0.3858 -0.2635  0.1503
  587TMC3    C1 8751   2.029   2.832  16.419 -0.8308  0.4345 -0.2401
  587TMC3    C2 8752   1.957   2.950  16.407 -0.4817 -0.0205 -0.5954
  587TMC3    C3 8753   2.024   3.058  16.354 -0.0346  0.4721  0.6729
  587TMC3    C4 8754   2.160   2.831  16.371  0.2697 -0.4740 -0.0698
  587TMC3    C5 8755   2.227   2.937  16.318  0.3626  0.1701 -0.2851
  587TMC3    C6 8756   2.152   3.056  16.303 -0.5691 -0.1955  0.2866
  587TMC3     C 8757   1.958   2.706  16.401  0.2066 -0.7197  0.2765
  587TMC3     O 8758   2.020   2.602  16.419 -0.9386  0.0983  0.0993
  587TMC3     H 8759   1.856   2.959  16.446  0.4161  0.1588  1.6879
  587TMC3    H1 8760   2.212   2.736  16.374  0.7985 -0.2433 -2.1826
  587TMC3    H2 8761   2.200   3.147  16.268  3.3097 -3.3758 -2.6354
  587TMC3    C7 8762   2.346   2.914  16.227 -0.1651  0.1769  0.6596
  587TMC3    C8 8763   1.938   3.161  16.296  0.6979 -0.6438  0.1286
  587TMC3    O1 8764   2.406   3.007  16.181  1.1947 -0.5458 -0.2710
  587TMC3    O2 8765   1.988   3.234  16.214  0.1811 -0.2757 -0.4865
  588TMC3    C1 8766   4.452   4.591   9.809  0.0542  0.1368 -0.0516
  588TMC3    C2 8767   4.411   4.464   9.838 -0.1025 -0.3971 -0.1281
  588TMC3    C3 8768   4.458   4.396   9.946 -0.4156 -0.1782 -0.4458
  588TMC3    C4 8769   4.560   4.638   9.879 -1.1226  0.1688  0.3345
  588TMC3    C5 8770   4.601   4.577   9.991  0.5081 -0.4551 -0.9078
  588TMC3    C6 8771   4.552   4.459  10.027 -0.0022  0.7242 -0.3310
  588TMC3     C 8772   4.381   4.683   9.721 -0.3623 -0.6406 -0.1891
  588TMC3     O 8773   4.312   4.631   9.633 -0.0069 -0.0673 -0.3742
  588TMC3     H 8774   4.327   4.418   9.787 -0.4627  0.8114 -0.6282
  588TMC3    H1 8775   4.609   4.729   9.846  0.7554 -0.3382  1.7390
  588TMC3    H2 8776   4.588   4.411  10.117 -0.4696 -0.4688 -0.7866
  588TMC3    C7 8777   4.688   4.655  10.075 -0.0986  0.3837 -0.6392
  588TMC3    C8 8778   4.427   4.253   9.943  0.1121  0.1386 -0.4711
  588TMC3    O1 8779   0.068   4.609  10.101 -0.5510  0.1894  0.1588
  588TMC3    O2 8780   4.330   4.223   9.878 -1.1792 -0.7941  0.0715
  589TMC3    C1 8781   2.881   2.541   0.932 -0.3459  0.5056  0.4245
  589TMC3    C2 8782   2.994   2.562   1.008 -0.4573 -0.1113  0.6770
  589TMC3    C3 8783   3.095   2.461   0.991  0.2571 -0.4117 -0.2983
  589TMC3    C4 8784   2.868   2.436   0.849  0.1710  0.4875  0.0260
  589TMC3    C5 8785   2.976   2.348   0.835  0.1547 -0.3918 -0.0471
  589TMC3    C6 8786   3.088   2.358   0.903 -0.2788 -0.1147 -0.2935
  589TMC3     C 8787   2.768   2.627   0.950  0.1633  0.0307  0.8178
  589TMC3     O 8788   2.693   2.637   0.855 -0.5259 -0.4256 -0.4546
  589TMC3     H 8789   3.009   2.640   1.083 -3.6010  0.1671  0.9979
  589TMC3    H1 8790   2.780   2.434   0.785  0.4476 -0.9192 -0.3040
  589TMC3    H2 8791   3.168   2.290   0.874 -0.4732 -0.1255 -0.7999
  589TMC3    C7 8792   2.975   2.240   0.734  0.2382 -0.0251 -0.0115
  589TMC3    C8 8793   3.193   2.467   1.094 -0.1595 -0.1136  0.7026
  589TMC3    O1 8794   3.038   2.137   0.764  0.2230 -0.2873  0.2072
  589TMC3    O2 8795   3.179   2.540   1.189 -0.2852 -0.2993  0.0765
  590MPD2     C 8796   2.930   0.854  16.836  0.6380 -0.1112 -0.5091
  590MPD2    C1 8797   2.874   0.915  16.727 -0.5469  0.0868 -0.1026
  590MPD2    C2 8798   2.944   0.991  16.636 -0.4728  0.3628  0.3192
  590MPD2    C3 8799   3.078   1.022  16.662 -0.3204 -0.4514 -0.7230
  590MPD2    C4 8800   3.137   0.972  16.778  0.1915 -0.4335  0.4048
  590MPD2    C5 8801   3.063   0.884  16.853 -0.4900 -0.0231 -0.4588
  590MPD2     H 8802   2.889   1.054  16.568  0.3314  2.0941  1.2655
  590MPD2    H1 8803   3.238   0.990  16.813  0.7732 -0.5283 -1.1847
  590MPD2    H2 8804   2.880   0.792  16.909  0.4067  1.2555  0.4779
  590MPD2    H3 8805   3.115   0.836  16.936  2.0677  0.7599 -1.6091
  590MPD2     N 8806   3.144   1.114  16.578 -0.7891 -0.4314 -0.0970
  590MPD2    H5 8807   3.085   1.141  16.500 -0.7898 -0.1920 -0.0122
  590MPD2    N1 8808   2.733   0.896  16.704 -0.1204  0.1349 -0.0787
  590MPD2    H7 8809   2.673   0.889  16.785 -1.6507 -0.4702 -1.2593
  591TMC3    C1 8810   3.312   1.240  16.473  0.2943  0.3414 -0.1228
  591TMC3    C2 8811   3.410   1.180  16.396  0.3458 -0.2271 -0.3102
  591TMC3    C3 8812   3.415   1.244  16.279 -0.2108 -0.1843 -0.0155
  591TMC3    C4 8813   3.211   1.319  16.435 -0.3011  0.0162  0.5911
  591TMC3    C5 8814   3.229   1.377  16.308 -0.7461  0.0949 -0.4351
  591TMC3    C6 8815   3.335   1.341  16.230 -0.2919  0.2972 -0.0676
  591TMC3     C 8816   3.276   1.161  16.589 -0.2412 -0.3865 -0.7086
  591TMC3     O 8817   3.367   1.123  16.661  0.3717  0.7322 -0.6190
  591TMC3     H 8818   3.479   1.105  16.433  1.5303  1.7132  1.4046
  591TMC3    H1 8819   3.122   1.343  16.491 -1.1730  0.4850 -0.9788
  591TMC3    H2 8820   3.330   1.362  16.124 -1.4382  0.3038 -0.0122
  591TMC3    C7 8821   3.138   1.482  16.270 -0.3284 -0.1420  0.0192
  591TMC3    C8 8822   3.480   1.162  16.173  0.0425 -0.2319 -0.4586
  591TMC3    O1 8823   3.023   1.460  16.295 -0.1179  0.1525 -0.2063
  591TMC3    O2 8824   3.503   1.048  16.203  0.4746 -0.2952 -0.0649
  592MPD2     C 8825   3.966   3.115  11.896  0.4995  0.1957  0.0678
  592MPD2    C1 8826   3.905   3.163  12.007 -0.7045  0.2186  0.8604
  592MPD2    C2 8827   3.802   3.086  12.057  0.2692  0.0207 -0.2527
  592MPD2    C3 8828   3.754   2.971  11.990  0.9078 -0.0946 -0.0323
  592MPD2    C4 8829   3.809   2.937  11.868  0.8722  0.1012  0.3448
  592MPD2    C5 8830   3.916   3.003  11.825  0.5699 -0.7911  0.1671
  592MPD2     H 8831   3.755   3.111  12.152  0.5582 -0.1219 -0.0701
  592MPD2    H1 8832   3.788   2.844  11.816  1.0187 -0.0330  0.5259
  592MPD2    H2 8833   4.065   3.152  11.872  0.3215 -0.7237 -2.0535
  592MPD2    H3 8834   3.975   2.973  11.739 -0.0755 -0.9677 -0.2203
  592MPD2     N 8835   3.647   2.896  12.041 -0.0998  0.5567 -0.2721
  592MPD2    H5 8836   3.606   2.914  12.133 -1.4716  0.1082 -0.7872
  592MPD2    N1 8837   3.973   3.271  12.072 -0.0155  0.0751 -0.4550
  592MPD2    H7 8838   4.052   3.311  12.022 -0.9602  1.1638 -1.0959
  593TMC3    C1 8839   4.026   3.428  12.234  0.2760 -0.7463  0.5179
  593TMC3    C2 8840   3.978   3.512  12.332 -0.1696 -0.4645 -0.2640
  593TMC3    C3 8841   4.058   3.609  12.371  0.2509  0.1054 -0.0030
  593TMC3    C4 8842   4.151   3.454  12.176 -0.0513  0.3706  0.3035
  593TMC3    C5 8843   4.228   3.556  12.218 -0.2659 -0.1762 -0.0815
  593TMC3    C6 8844   4.188   3.635  12.322  0.1640 -0.2251  0.0109
  593TMC3     C 8845   3.928   3.332  12.183  0.3325 -0.5310  0.1948
  593TMC3     O 8846   3.815   3.331  12.232 -0.1379  0.1742 -0.1237
  593TMC3     H 8847   3.883   3.487  12.377  0.3162 -2.4106 -0.3216
  593TMC3    H1 8848   4.189   3.407  12.086 -0.5576 -2.5693  1.6079
  593TMC3    H2 8849   4.242   3.728  12.330  1.5864 -0.9385 -1.4336
  593TMC3    C7 8850   4.325   3.621  12.132 -0.7392  0.1060 -0.0178
  593TMC3    C8 8851   4.000   3.724  12.436  0.1974  0.1158  0.3888
  593TMC3    O1 8852   4.300   3.622  12.016  0.1475 -0.0379  0.5647
  593TMC3    O2 8853   3.877   3.738  12.428  0.5520 -0.5148  0.0793
  594MPD2     C 8854   2.195   1.658  14.332 -0.6364  0.0455  0.2671
  594MPD2    C1 8855   2.186   1.745  14.444  0.3816  0.5755 -0.7688
  594MPD2    C2 8856   2.246   1.869  14.442 -0.7094 -0.5029  0.3563
  594MPD2    C3 8857   2.322   1.904  14.334 -0.0398 -0.1535 -0.3403
  594MPD2    C4 8858   2.355   1.807  14.239  0.5916  0.5510  0.1535
  594MPD2    C5 8859   2.292   1.688  14.237  0.7890 -0.0744  0.9532
  594MPD2     H 8860   2.215   1.938  14.520 -1.0607  1.1087 -1.2360
  594MPD2    H1 8861   2.418   1.833  14.155 -1.2373  0.4259 -1.2660
  594MPD2    H2 8862   2.162   1.555  14.342 -0.4636  0.0268  0.6626
  594MPD2    H3 8863   2.317   1.616  14.160  0.1234 -0.1884  0.8470
  594MPD2     N 8864   2.365   2.041  14.317  0.0860 -0.3187  0.0628
  594MPD2    H5 8865   2.351   2.100  14.398 -1.3396 -2.8521  1.6645
  594MPD2    N1 8866   2.095   1.693  14.541 -0.4210  0.0489  0.8108
  594MPD2    H7 8867   2.042   1.608  14.527  0.8862 -0.5791 -0.3127
  595TMC3    C1 8868   2.718   2.312  14.287 -0.1768 -0.2311 -0.1114
  595TMC3    C2 8869   2.636   2.224  14.229  0.1402 -0.7320  0.2769
  595TMC3    C3 8870   2.500   2.213  14.258 -0.4486 -0.0744  0.0168
  595TMC3    C4 8871   2.669   2.393  14.383  0.4826 -0.1498  0.0107
  595TMC3    C5 8872   2.537   2.386  14.414  0.2413 -0.7182 -0.7800
  595TMC3    C6 8873   2.450   2.303  14.356 -0.0701 -0.4616  0.6365
  595TMC3     C 8874   2.860   2.286  14.308  0.1406  0.3685 -0.3466
  595TMC3     O 8875   2.888   2.297  14.427  0.1772  0.1472  0.1900
  595TMC3     H 8876   2.673   2.154  14.154  1.2676  0.4641 -0.2878
  595TMC3    H1 8877   2.737   2.462  14.432 -0.1823  0.6586 -0.2168
  595TMC3    H2 8878   2.344   2.318  14.375  0.1333  1.9386 -0.1537
  595TMC3    C7 8879   2.476   2.491  14.493 -0.0631  0.0988 -0.1865
  595TMC3    C8 8880   2.442   2.089  14.219 -0.3467  0.2050  0.2026
  595TMC3    O1 8881   2.356   2.502  14.484 -0.1508 -0.3547 -0.0158
  595TMC3    O2 8882   2.476   2.047  14.111 -0.3475 -0.1498 -0.0704
  596MPD2     C 8883   0.947   0.394  16.535 -0.7014  0.5752  0.4014
  596MPD2    C1 8884   0.967   0.512  16.470  0.4766 -0.5484  1.1197
  596MPD2    C2 8885   1.019   0.511  16.344  0.9266  0.3442  0.2187
  596MPD2    C3 8886   1.060   0.394  16.285 -0.3232 -0.9245  0.5330
  596MPD2    C4 8887   1.022   0.275  16.338  0.0908 -0.0997  0.3386
  596MPD2    C5 8888   0.970   0.276  16.467 -0.4876  0.3421  0.1414
  596MPD2     H 8889   1.035   0.607  16.296  0.0839  1.1347  1.4818
  596MPD2    H1 8890   1.026   0.184  16.280  0.4269 -0.9858  1.7531
  596MPD2    H2 8891   0.907   0.392  16.635 -0.8735 -2.8665  0.2755
  596MPD2    H3 8892   0.937   0.182  16.510 -2.1337  0.7026 -0.3509
  596MPD2     N 8893   1.108   0.411  16.150 -0.7204 -0.1617  0.5558
  596MPD2    H5 8894   1.122   0.504  16.112  3.4368 -0.9189  0.2395
  596MPD2    N1 8895   0.946   0.637  16.526 -0.2213 -0.1345 -0.1276
  596MPD2    H7 8896   0.975   0.711  16.463  2.4811 -0.5353  0.6470
  597TMC3    C1 8897   0.897   0.791  16.689  0.1443 -0.8901  0.3584
  597TMC3    C2 8898   1.005   0.860  16.638  0.3868 -0.0007 -0.8469
  597TMC3    C3 8899   1.031   0.972  16.704 -0.0653 -0.3656  0.3698
  597TMC3    C4 8900   0.810   0.835  16.782 -0.4505 -0.2618 -0.0423
  597TMC3    C5 8901   0.839   0.958  16.835 -0.4485 -0.6301 -0.5423
  597TMC3    C6 8902   0.957   1.025  16.805  0.2724 -0.1375  0.3161
  597TMC3     C 8903   0.864   0.661  16.636 -0.8891 -0.0785  0.0464
  597TMC3     O 8904   0.795   0.588  16.705  0.1636  0.1639  0.9943
  597TMC3     H 8905   1.069   0.828  16.556 -1.6448 -2.9404 -1.2677
  597TMC3    H1 8906   0.723   0.776  16.807 -1.0781  1.1820  1.1681
  597TMC3    H2 8907   0.979   1.124  16.841  0.5638 -0.8080  1.9537
  597TMC3    C7 8908   0.770   0.991  16.955 -0.3241 -0.4517 -0.2109
  597TMC3    C8 8909   1.105   1.067  16.628  0.0270  0.4001  0.3673
  597TMC3    O1 8910   0.736   0.896  17.026 -1.1159  0.3234 -0.1780
  597TMC3    O2 8911   1.086   1.187  16.647  0.3961 -0.4495 -0.5722
  598TMC3    C1 8912   4.273   1.582  15.351  0.6237 -0.5216 -0.2852
  598TMC3    C2 8913   4.210   1.457  15.349  0.1049 -0.0510 -0.8266
  598TMC3    C3 8914   4.158   1.414  15.234  0.2042  0.1395  0.0698
  598TMC3    C4 8915   4.282   1.661  15.239  0.4117 -0.1587 -0.1721
  598TMC3    C5 8916   4.230   1.603  15.121  0.5904 -1.5099  0.1461
  598TMC3    C6 8917   4.173   1.480  15.117  0.2588  0.2839 -0.3037
  598TMC3     C 8918   4.296   1.637  15.480 -0.0910 -0.6824 -0.2851
  598TMC3     O 8919   4.378   1.728  15.482  0.5135 -0.1636  0.3879
  598TMC3     H 8920   4.205   1.387  15.431  0.5326 -1.6748 -2.1882
  598TMC3    H1 8921   4.314   1.765  15.240  1.0687 -0.3558 -1.0998
  598TMC3    H2 8922   4.116   1.453  15.029  0.5664 -2.0734  0.1985
  598TMC3    C7 8923   4.232   1.690  15.007 -0.1316  0.7903 -0.3310
  598TMC3    C8 8924   4.098   1.286  15.237  0.1096 -0.0851 -0.3747
  598TMC3    O1 8925   4.150   1.662  14.923 -0.1575  0.4900 -0.0844
  598TMC3    O2 8926   4.029   1.261  15.336 -0.1952 -0.0351  0.1129
  599MPD2     C 8927   3.848   3.507  15.716 -0.1833 -0.4261 -1.0528
  599MPD2    C1 8928   3.958   3.548  15.778 -0.6919 -0.1551  0.2953
  599MPD2    C2 8929   3.961   3.613  15.900  0.5645  0.3572  0.4217
  599MPD2    C3 8930   3.839   3.635  15.963  0.5559 -0.0529  0.0776
  599MPD2    C4 8931   3.725   3.590  15.903 -0.1270 -0.2610  0.4842
  599MPD2    C5 8932   3.730   3.526  15.780  0.8382 -0.2068  0.1017
  599MPD2     H 8933   4.052   3.641  15.952  1.9305 -0.0822 -1.7274
  599MPD2    H1 8934   3.632   3.597  15.958  0.0895 -1.2722  0.9825
  599MPD2    H2 8935   3.862   3.448  15.625 -0.3303  1.3481 -2.2251
  599MPD2    H3 8936   3.636   3.495  15.736  0.1104  0.5867  1.0691
  599MPD2     N 8937   3.831   3.682  16.099  0.1907 -0.4013 -0.3595
  599MPD2    H5 8938   3.746   3.659  16.150 -0.2014  1.3221 -0.2238
  599MPD2    N1 8939   4.075   3.528  15.704 -0.1734 -0.1247 -0.8859
  599MPD2    H7 8940   4.063   3.502  15.607 -1.8147  0.6629 -0.9082
  600TMC3    C1 8941   3.864   3.818  16.290  0.0732  0.4313 -0.2341
  600TMC3    C2 8942   3.737   3.791  16.327  0.8035 -0.0818 -0.1137
  600TMC3    C3 8943   3.685   3.873  16.416 -0.0805 -0.1709 -0.3362
  600TMC3    C4 8944   3.933   3.921  16.343 -0.2655  0.3677  0.2935
  600TMC3    C5 8945   3.878   3.992  16.444  0.2742 -0.4989  0.2965
  600TMC3    C6 8946   3.755   3.972  16.484  0.1815  0.9844  0.2908
  600TMC3     C 8947   3.922   3.753  16.172 -0.0556  0.5365 -0.5611
  600TMC3     O 8948   4.032   3.792  16.128  0.1476 -0.2172 -0.2365
  600TMC3     H 8949   3.684   3.700  16.302  0.6741  0.3498 -1.4322
  600TMC3    H1 8950   4.037   3.935  16.317  0.3906 -2.0139  1.6150
  600TMC3    H2 8951   3.717   4.026  16.570 -1.0409  1.1250 -0.3377
  600TMC3    C7 8952   3.926   4.130  16.462  0.3817  0.4353 -0.3352
  600TMC3    C8 8953   3.568   3.817  16.490  0.3674 -0.0215  0.1607
  600TMC3    O1 8954   4.046   4.151  16.437 -0.9017 -0.1555 -0.1831
  600TMC3    O2 8955   3.569   3.832  16.613  0.3282 -0.2491 -0.6447
  601MPD2     C 8956   0.891   2.469   0.552  0.6855 -0.1718  0.4004
  601MPD2    C1 8957   0.801   2.392   0.486 -0.2475  0.9983 -0.3707
  601MPD2    C2 8958   0.818   2.252   0.489  0.5452  0.4075 -0.9215
  601MPD2    C3 8959   0.938   2.190   0.524  0.7300  0.3834  0.8187
  601MPD2    C4 8960   1.030   2.279   0.575  0.2307  0.3609  0.4879
  601MPD2    C5 8961   1.015   2.413   0.588  0.5880  0.0194  0.4060
  601MPD2     H 8962   0.735   2.198   0.444 -0.8588  2.5956 -1.0001
  601MPD2    H1 8963   1.120   2.235   0.617 -1.2006 -2.6475  0.4229
  601MPD2    H2 8964   0.881   2.577   0.559  0.7184 -0.0349 -1.6962
  601MPD2    H3 8965   1.084   2.481   0.638  0.7367  1.0900 -1.2562
  601MPD2     N 8966   0.965   2.052   0.523  0.2552  0.5820 -0.0063
  601MPD2    H5 8967   1.049   2.020   0.569 -0.1166 -0.1353  0.1657
  601MPD2    N1 8968   0.680   2.446   0.438  0.3462 -0.6635 -0.1042
  601MPD2    H7 8969   0.610   2.376   0.417  1.1062 -0.5963 -2.8686
  602TMC3    C1 8970   0.535   2.595   0.345  0.2083  0.3150  0.4134
  602TMC3    C2 8971   0.487   2.726   0.340  0.6349 -0.4927 -0.3036
  602TMC3    C3 8972   0.406   2.757   0.235  0.0038 -0.1390  0.1489
  602TMC3    C4 8973   0.497   2.498   0.259  0.1870 -0.0204 -0.4647
  602TMC3    C5 8974   0.403   2.536   0.165 -1.1023  0.0012 -0.2715
  602TMC3    C6 8975   0.351   2.656   0.159 -0.5506  0.4850  0.0194
  602TMC3     C 8976   0.657   2.579   0.415 -0.5432 -0.4963 -0.7196
  602TMC3     O 8977   0.727   2.679   0.426  0.3401 -0.1045 -0.3089
  602TMC3     H 8978   0.542   2.807   0.389 -0.9848 -0.3594  1.2895
  602TMC3    H1 8979   0.540   2.399   0.245 -1.2682 -0.8624  1.0144
  602TMC3    H2 8980   0.303   2.686   0.066 -3.8630 -1.2828  1.1412
  602TMC3    C7 8981   0.434   2.471   0.037 -0.0688  0.6611 -0.4893
  602TMC3    C8 8982   0.464   2.862   0.156  0.6496 -0.8727 -0.2354
  602TMC3    O1 8983   0.405   2.354   0.012  0.3116  0.3965 -0.0699
  602TMC3    O2 8984   0.547   2.830   0.073 -0.4025  0.6965 -0.1685
  603TMC3    C1 8985   0.220   2.210  11.246  0.1390  0.8461 -0.2809
  603TMC3    C2 8986   0.272   2.164  11.364  0.3253  0.3640  0.0148
  603TMC3    C3 8987   0.293   2.250  11.465  0.2850 -0.1821 -0.7349
  603TMC3    C4 8988   0.202   2.341  11.228  0.5733 -0.3779  0.1327
  603TMC3    C5 8989   0.228   2.426  11.332  0.7606  0.6765 -0.9256
  603TMC3    C6 8990   0.272   2.384  11.454 -0.1947 -0.7408  0.6557
  603TMC3     C 8991   0.246   2.140  11.121  0.1382 -0.0244  0.6293
  603TMC3     O 8992   0.353   2.084  11.112 -0.0608 -0.3508  0.2234
  603TMC3     H 8993   0.265   2.058  11.388 -0.6062  0.3851 -0.1625
  603TMC3    H1 8994   0.182   2.371  11.126  0.5320  1.0056  0.5561
  603TMC3    H2 8995   0.269   2.455  11.536 -1.6000 -1.6515  1.3861
  603TMC3    C7 8996   0.233   2.568  11.307 -0.4400 -0.0678 -0.4439
  603TMC3    C8 8997   0.265   2.200  11.599 -0.2978  0.3391  0.4379
  603TMC3    O1 8998   0.295   2.632  11.386  0.5527 -0.1666  0.5907
  603TMC3    O2 8999   0.238   2.081  11.608 -0.0376 -0.0162 -0.0719
  604MPD2     C 9000   0.606   1.869  16.453 -0.5690  0.4875  1.1692
  604MPD2    C1 9001   0.497   1.808  16.388 -0.7148  0.2040  0.7130
  604MPD2    C2 9002   0.516   1.754  16.261  0.2622  0.8149 -0.4365
  604MPD2    C3 9003   0.641   1.764  16.204 -0.1057  0.2068  0.0918
  604MPD2    C4 9004   0.751   1.808  16.277 -0.2738 -0.4429  0.1737
  604MPD2    C5 9005   0.732   1.867  16.398 -0.2562 -0.2789  0.0422
  604MPD2     H 9006   0.434   1.703  16.212 -1.2282  1.8745  0.9211
  604MPD2    H1 9007   0.850   1.820  16.233  0.4902  2.2821  2.6081
  604MPD2    H2 9008   0.585   1.903  16.553  0.5363  2.1103  0.8405
  604MPD2    H3 9009   0.813   1.920  16.447 -1.1182 -0.3554  1.5440
  604MPD2     N 9010   0.652   1.722  16.072  0.0684  0.2804 -0.1875
  604MPD2    H5 9011   0.570   1.704  16.015 -0.9219  0.5959  1.1314
  604MPD2    N1 9012   0.372   1.802  16.460 -0.5076 -0.2489  0.2114
  604MPD2    H7 9013   0.362   1.876  16.529  0.1247 -0.3560  0.4141
  605TMC3    C1 9014   0.160   1.754  16.528 -0.3463 -0.1023  0.0130
  605TMC3    C2 9015   0.205   1.798  16.653  0.7850  0.3151  0.1190
  605TMC3    C3 9016   0.108   1.854  16.734  0.3247 -0.0413 -0.1704
  605TMC3    C4 9017   0.033   1.759  16.483 -0.3154  0.4130  0.2327
  605TMC3    C5 9018   4.679   1.829  16.563  0.6286 -0.6979  0.1561
  605TMC3    C6 9019   4.717   1.879  16.686 -0.2979  0.0769 -0.2122
  605TMC3     C 9020   0.263   1.724  16.436  0.1279 -0.0143  0.3774
  605TMC3     O 9021   0.235   1.670  16.331 -0.2778  0.0089  0.7264
  605TMC3     H 9022   0.305   1.782  16.690  1.3193  1.0094 -1.0339
  605TMC3    H1 9023   0.014   1.732  16.380 -0.5483 -0.2211  0.4405
  605TMC3    H2 9024   4.649   1.933  16.750  2.2693  2.9449  0.1154
  605TMC3    C7 9025   4.535   1.799  16.549 -0.0648  0.3397  0.2678
  605TMC3    C8 9026   0.144   1.926  16.857 -0.1314  0.2045  0.2742
  605TMC3    O1 9027   4.451   1.865  16.609 -0.1015  0.3459 -0.3997
  605TMC3    O2 9028   0.059   1.951  16.942 -0.2979  0.0027  0.1378
  606TMC3    C1 9029   0.887   0.074   0.076 -0.2440 -0.0968 -0.9872
  606TMC3    C2 9030   0.985   0.091   0.169 -0.1211 -0.0934  0.0811
  606TMC3    C3 9031   1.099   0.008   0.169 -0.6085  0.1391  0.5792
  606TMC3    C4 9032   0.889   4.703  17.731 -0.3715  0.2395 -0.0224
  606TMC3    C5 9033   1.003   4.625  17.726 -0.3566  0.2724 -0.8151
  606TMC3    C6 9034   1.108   4.642   0.075  0.2072  0.0602 -0.1426
  606TMC3     C 9035   0.754   0.132   0.109  0.1544 -0.2500 -0.2768
  606TMC3     O 9036   0.662   0.073   0.055 -0.2654  0.9494 -0.5349
  606TMC3     H 9037   0.987   0.176   0.236 -0.2155  0.2675 -0.3791
  606TMC3    H1 9038   0.813   4.703  17.654 -2.6453 -0.8352  2.2201
  606TMC3    H2 9039   1.190   4.571   0.079 -0.0336 -0.2082  0.0349
  606TMC3    C7 9040   1.024   4.521  17.627  0.3969  0.0761  0.1800
  606TMC3    C8 9041   1.220   0.044   0.248 -0.2611  0.3112  0.3695
  606TMC3    O1 9042   1.125   4.456  17.638 -0.6173  0.0654 -0.0378
  606TMC3    O2 9043   1.323   4.729   0.207 -0.2071 -0.1459  0.1000
  607MPD2     C 9044   3.684   2.467  11.965 -0.4080  0.3808 -0.1191
  607MPD2    C1 9045   3.733   2.476  12.096  0.0371  0.6060  0.6768
  607MPD2    C2 9046   3.670   2.399  12.189 -0.5854 -0.7654 -0.4938
  607MPD2    C3 9047   3.565   2.310  12.160 -0.7149  0.5343  0.6682
  607MPD2    C4 9048   3.521   2.306  12.029 -0.4280 -0.0079 -0.2251
  607MPD2    C5 9049   3.575   2.390  11.932  0.4622  0.0499 -0.2514
  607MPD2     H 9050   3.685   2.411  12.296 -2.0020 -1.5071 -0.2050
  607MPD2    H1 9051   3.447   2.234  11.998 -0.2933  0.6715 -2.1214
  607MPD2    H2 9052   3.723   2.534  11.889 -2.1702  1.1096 -0.3939
  607MPD2    H3 9053   3.527   2.380  11.836  2.7979  1.9669 -1.6153
  607MPD2     N 9054   3.523   2.223  12.269 -0.5704 -0.3802  0.4455
  607MPD2    H5 9055   3.561   2.251  12.359  2.6954  0.9472 -1.3312
  607MPD2    N1 9056   3.833   2.569  12.146 -0.2819 -0.3340 -0.6251
  607MPD2    H7 9057   3.843   2.571  12.247 -0.4308 -1.9524 -0.5772
  608TMC3    C1 9058   4.022   2.702  12.154  0.5313 -0.5358 -0.7858
  608TMC3    C2 9059   4.058   2.633  12.267 -0.3950 -0.0981 -0.5268
  608TMC3    C3 9060   4.138   2.695  12.360 -0.1215  0.4381 -0.1276
  608TMC3    C4 9061   4.085   2.822  12.115 -0.5874 -0.7649 -0.1582
  608TMC3    C5 9062   4.184   2.863  12.206 -0.5755 -0.6254 -0.6342
  608TMC3    C6 9063   4.194   2.817  12.335 -0.6504 -0.2657  0.3043
  608TMC3     C 9064   3.933   2.629  12.069 -1.0429  0.0677 -0.7403
  608TMC3     O 9065   3.939   2.641  11.948  0.8105 -0.1297  0.2310
  608TMC3     H 9066   4.028   2.529  12.275 -3.4983  0.6825 -2.0936
  608TMC3    H1 9067   4.060   2.868  12.019  0.0450 -0.0632  0.0132
  608TMC3    H2 9068   4.256   2.865  12.410 -2.4732  1.5407  0.6240
  608TMC3    C7 9069   4.267   2.983  12.178 -0.1203 -0.4734  0.5329
  608TMC3    C8 9070   4.166   2.619  12.480 -0.4568 -0.6044 -0.4843
  608TMC3    O1 9071   4.332   3.022  12.276  0.0178  0.0320 -0.2564
  608TMC3    O2 9072   4.262   2.641  12.549  0.4039 -0.1994  0.1409
  609TMC3    C1 9073   1.515   1.516   9.094 -0.7499  0.0832 -0.0480
  609TMC3    C2 9074   1.450   1.398   9.061  0.5015 -0.5220  0.3800
  609TMC3    C3 9075   1.505   1.329   8.956  0.5203  0.1333 -0.3095
  609TMC3    C4 9076   1.615   1.575   9.020 -1.0933  0.2865 -0.2510
  609TMC3    C5 9077   1.656   1.504   8.905 -0.1935 -0.6038 -0.1763
  609TMC3    C6 9078   1.603   1.383   8.876  0.3667  0.7921  0.0065
  609TMC3     C 9079   1.516   1.546   9.237  0.2005  0.4308  0.5059
  609TMC3     O 9080   1.421   1.526   9.308 -0.0266  0.3919  0.0985
  609TMC3     H 9081   1.384   1.356   9.136 -1.4761  2.5832  0.3476
  609TMC3    H1 9082   1.659   1.674   9.031  1.1807 -1.0125  2.1820
  609TMC3    H2 9083   1.665   1.321   8.812  0.2215  1.3779 -0.7003
  609TMC3    C7 9084   1.802   1.512   8.885  0.0963  0.2331  0.3646
  609TMC3    C8 9085   1.439   1.210   8.904 -0.7628  0.5863 -0.3710
  609TMC3    O1 9086   1.859   1.560   8.982  0.2554  0.1160 -0.1658
  609TMC3    O2 9087   1.487   1.151   8.809 -0.6975  0.0408  0.0605
  610TMC3    C1 9088   4.121   1.845  12.581  1.1437  0.0502 -0.6330
  610TMC3    C2 9089   4.079   1.958  12.526 -0.4039  0.8661 -0.2643
  610TMC3    C3 9090   4.169   2.054  12.483  0.4445  0.4788 -0.6769
  610TMC3    C4 9091   4.251   1.825  12.624 -0.6318 -0.1127 -0.2777
  610TMC3    C5 9092   4.341   1.929  12.590  1.2226  0.4287  0.2048
  610TMC3    C6 9093   4.300   2.041  12.514  0.4786 -0.1354 -0.2100
  610TMC3     C 9094   4.018   1.749  12.619 -0.0938  0.4825 -0.2013
  610TMC3     O 9095   3.911   1.787  12.663 -0.0361  0.2913  0.1906
  610TMC3     H 9096   3.971   1.968  12.521 -0.5649 -1.4182 -1.2708
  610TMC3    H1 9097   4.279   1.751  12.698 -0.9583 -0.1357 -0.1775
  610TMC3    H2 9098   4.379   2.101  12.470  0.0210  1.6061  1.3244
  610TMC3    C7 9099   4.456   1.935  12.666 -0.5010  0.6516 -0.1081
  610TMC3    C8 9100   4.135   2.140  12.364 -0.1169  0.5740 -0.2305
  610TMC3    O1 9101   4.480   1.837  12.728  0.3699 -0.0214  0.0826
  610TMC3    O2 9102   4.225   2.216  12.333  0.6201  0.1209 -0.4944
  611MPD2     C 9103   4.121   2.261  10.873 -0.2629  0.4075 -0.7060
  611MPD2    C1 9104   4.088   2.332  10.761  0.4997 -0.4717 -0.1984
  611MPD2    C2 9105   4.145   2.452  10.736 -0.4885  0.5110 -0.2778
  611MPD2    C3 9106   4.238   2.508  10.812 -0.4179 -0.0432 -0.3150
  611MPD2    C4 9107   4.277   2.438  10.922 -0.2560 -0.1476  0.1176
  611MPD2    C5 9108   4.212   2.323  10.960 -0.1362  0.0662  0.0020
  611MPD2     H 9109   4.101   2.510  10.656  1.5288 -0.7795 -2.3170
  611MPD2    H1 9110   4.362   2.465  10.984 -0.6350  0.9688  0.1578
  611MPD2    H2 9111   4.084   2.161  10.889 -1.4791  0.6491 -1.9759
  611MPD2    H3 9112   4.251   2.264  11.042 -0.4898 -0.0530  0.0837
  611MPD2     N 9113   4.315   2.626  10.787 -0.3118 -0.5006  0.2509
  611MPD2    H5 9114   4.373   2.667  10.860  0.6912 -1.7370  0.1458
  611MPD2    N1 9115   4.001   2.263  10.669  0.2134  0.6916  0.2394
  611MPD2    H7 9116   3.961   2.175  10.700  1.1492  0.0472 -0.3679
  612TMC3    C1 9117   4.380   2.827  10.689  0.7237  0.0560 -0.0986
  612TMC3    C2 9118   4.412   2.875  10.812 -0.0751 -0.5023  0.3601
  612TMC3    C3 9119   4.469   2.995  10.813 -0.2293  0.5741 -0.4994
  612TMC3    C4 9120   4.410   2.888  10.570  0.0480 -0.2528  0.2652
  612TMC3    C5 9121   4.462   3.015  10.573 -0.5729 -0.4294 -0.1872
  612TMC3    C6 9122   4.499   3.063  10.699  0.0134  0.2447 -0.1364
  612TMC3     C 9123   4.304   2.701  10.675  0.0527 -0.2325 -0.0090
  612TMC3     O 9124   4.226   2.684  10.581 -0.2185  0.1101  0.2514
  612TMC3     H 9125   4.348   2.851  10.897  2.0233 -3.5782  1.0682
  612TMC3    H1 9126   4.382   2.843  10.475  0.3313 -1.2733  0.6679
  612TMC3    H2 9127   4.543   3.162  10.689 -1.9424  0.9867 -1.2834
  612TMC3    C7 9128   4.471   3.095  10.451  0.5563  0.1096  0.5191
  612TMC3    C8 9129   4.549   3.026  10.928  0.0373 -0.0757 -0.2128
  612TMC3    O1 9130   4.546   3.188  10.452  0.3625  0.2078  0.3577
  612TMC3    O2 9131   4.601   3.140  10.929  0.4580  0.2777  0.4211
  613MPD2     C 9132   2.037   0.069  17.335 -0.7833  0.3500  0.0265
  613MPD2    C1 9133   2.004   0.160  17.235 -0.2895 -0.3189  0.1029
  613MPD2    C2 9134   1.995   0.105  17.107  1.1177  0.0202 -0.1741
  613MPD2    C3 9135   2.021   4.709  17.076 -0.3614 -0.0871  0.4603
  613MPD2    C4 9136   2.046   4.625  17.183  0.2868  0.0855  0.2526
  613MPD2    C5 9137   2.050   4.672  17.307  0.4431 -0.5967 -0.6108
  613MPD2     H 9138   1.975   0.173  17.025  0.0568 -1.0548 -0.8029
  613MPD2    H1 9139   2.062   4.519  17.171 -1.9337 -0.2220 -0.0656
  613MPD2    H2 9140   2.038   0.096  17.440 -0.3940  0.2417  0.0515
  613MPD2    H3 9141   2.073   4.601  17.385  1.6845  0.9781  0.4670
  613MPD2     N 9142   2.016   4.654  16.949  0.5379 -0.1112 -0.0251
  613MPD2    H5 9143   2.051   4.560  16.932  0.4118 -0.0488 -0.6386
  613MPD2    N1 9144   1.991   0.292  17.276  0.1853 -0.4195 -0.2700
  613MPD2    H7 9145   1.985   0.292  17.377 -0.3540  1.7986 -0.2948
  614TMC3    C1 9146   2.045   0.406  17.080  0.3169  0.4135 -0.0368
  614TMC3    C2 9147   2.172   0.354  17.063 -1.0070 -0.1490  0.2018
  614TMC3    C3 9148   2.250   0.396  16.953 -0.7437  0.8319 -0.8048
  614TMC3    C4 9149   2.005   0.519  17.009 -0.4552 -0.8874  0.1986
  614TMC3    C5 9150   2.074   0.551  16.897  0.0304  0.1222 -0.1100
  614TMC3    C6 9151   2.199   0.493  16.870 -0.1257 -0.3615  0.3232
  614TMC3     C 9152   1.980   0.405  17.201  0.2684 -0.5029 -0.6249
  614TMC3     O 9153   1.929   0.508  17.243  0.2770 -0.6019 -0.2830
  614TMC3     H 9154   2.209   0.273  17.124 -2.4826  0.6378  2.1678
  614TMC3    H1 9155   1.903   0.553  17.026 -1.2575 -2.7239 -1.0204
  614TMC3    H2 9156   2.251   0.514  16.778 -0.5052 -2.2209 -0.3224
  614TMC3    C7 9157   2.039   0.679  16.835 -0.1807 -0.2874 -0.0975
  614TMC3    C8 9158   2.316   0.284  16.889 -0.1561  0.5748  0.4878
  614TMC3    O1 9159   1.972   0.753  16.904 -0.1288  0.3904 -0.6702
  614TMC3    O2 9160   2.296   0.168  16.927 -0.0499  0.2159 -0.0476
  615MPD2     C 9161   1.996   1.491  16.190  0.6864 -0.3398  1.0473
  615MPD2    C1 9162   1.963   1.622  16.215  0.2807 -0.4096  0.6256
  615MPD2    C2 9163   1.922   1.701  16.112  0.0196  0.3313  0.4547
  615MPD2    C3 9164   1.931   1.655  15.984  0.6405  0.6184  0.1743
  615MPD2    C4 9165   1.972   1.526  15.960  0.6960 -0.5034  0.5204
  615MPD2    C5 9166   2.000   1.446  16.063  0.4401  0.0059 -0.0717
  615MPD2     H 9167   1.900   1.803  16.140  2.3419  1.1364 -0.6365
  615MPD2    H1 9168   1.986   1.497  15.857  0.2957 -0.2551  0.3947
  615MPD2    H2 9169   2.026   1.414  16.259 -0.2813 -1.7510 -0.1167
  615MPD2    H3 9170   2.020   1.342  16.036  0.1795 -0.0285 -0.1332
  615MPD2     N 9171   1.923   1.739  15.867  0.8953  0.5488 -0.2335
  615MPD2    H5 9172   1.939   1.693  15.778  1.5909 -0.3835  0.3803
  615MPD2    N1 9173   1.966   1.677  16.350 -0.0140 -0.0723 -0.0171
  615MPD2    H7 9174   1.934   1.772  16.365  0.1314 -0.0193 -0.0364
  616TMC3    C1 9175   2.012   1.697  16.568  0.0851 -0.7792 -0.4805
  616TMC3    C2 9176   2.077   1.815  16.551  0.2936  0.6443  0.3712
  616TMC3    C3 9177   2.100   1.893  16.658 -0.0322 -0.2727 -0.2744
  616TMC3    C4 9178   1.974   1.654  16.691  0.3428  0.0853 -0.5624
  616TMC3    C5 9179   1.997   1.738  16.800 -0.2034 -0.0675 -0.5096
  616TMC3    C6 9180   2.068   1.855  16.784 -0.4074 -0.2452  0.6046
  616TMC3     C 9181   1.995   1.607  16.461 -0.1048  0.0860  0.6324
  616TMC3     O 9182   2.027   1.493  16.474  0.0806 -0.3024 -0.2266
  616TMC3     H 9183   2.091   1.845  16.448  1.8465  2.6709  1.1648
  616TMC3    H1 9184   1.918   1.564  16.712  1.3546 -0.2555  0.6840
  616TMC3    H2 9185   2.081   1.923  16.867  1.1749 -0.9905  0.9721
  616TMC3    C7 9186   1.992   1.674  16.924 -0.0050  0.0230  0.4827
  616TMC3    C8 9187   2.175   2.016  16.643  0.2814 -0.2903 -0.3782
  616TMC3    O1 9188   2.007   1.551  16.929 -0.0176 -0.1874 -1.2239
  616TMC3    O2 9189   2.167   2.102  16.729 -0.2642 -0.1953  0.0208
  617MPD2     C 9190   0.426   4.521  13.954  0.0449  0.5426  0.0718
  617MPD2    C1 9191   0.355   4.460  13.854  0.1096  0.0302 -0.2302
  617MPD2    C2 9192   0.210   4.463  13.850 -0.1592 -0.2588 -0.1455
  617MPD2    C3 9193   0.137   4.515  13.952  0.6652  0.4845 -0.4376
  617MPD2    C4 9194   0.212   4.576  14.049  1.0970 -0.4616  0.1823
  617MPD2    C5 9195   0.353   4.585  14.048 -0.5961 -0.0299 -0.3571
  617MPD2     H 9196   0.159   4.416  13.767 -1.6540  2.3388 -0.6998
  617MPD2    H1 9197   0.167   4.626  14.135  0.6110 -1.8333  0.7354
  617MPD2    H2 9198   0.533   4.533  13.960  0.0326  1.3820 -1.4942
  617MPD2    H3 9199   0.396   4.641  14.130  3.9873  0.8691 -3.3522
  617MPD2     N 9200   4.733   4.513  13.970  0.2875  0.2367  0.6964
  617MPD2    H5 9201   4.693   4.557  14.052 -1.8945 -1.1833  0.3744
  617MPD2    N1 9202   0.429   4.377  13.768 -0.2644  1.0030  0.3133
  617MPD2    H7 9203   0.530   4.385  13.775 -0.4372  1.9492  1.8297
  618TMC3    C1 9204   0.479   4.200  13.628  0.1656 -0.1612 -0.3315
  618TMC3    C2 9205   0.429   4.090  13.562  0.5609 -0.3142 -0.0641
  618TMC3    C3 9206   0.511   4.012  13.495  0.1157  0.0065  0.5917
  618TMC3    C4 9207   0.613   4.222  13.626  0.1245  0.2932 -0.5531
  618TMC3    C5 9208   0.697   4.137  13.561  0.5466  0.0066  0.3037
  618TMC3    C6 9209   0.648   4.028  13.494  0.1214 -0.5692 -0.1893
  618TMC3     C 9210   0.373   4.285  13.685 -0.6017  0.2179 -0.1051
  618TMC3     O 9211   0.260   4.240  13.669  0.6320  0.1246 -0.1432
  618TMC3     H 9212   0.324   4.063  13.561  0.6139 -0.4671 -1.4161
  618TMC3    H1 9213   0.653   4.310  13.675  2.3855 -0.4259 -1.1028
  618TMC3    H2 9214   0.719   3.959  13.450 -0.5719  0.0805 -2.3052
  618TMC3    C7 9215   0.844   4.163  13.552  0.6295  0.2145  0.6200
  618TMC3    C8 9216   0.451   3.912  13.408  0.5185 -0.3454  0.1238
  618TMC3    O1 9217   0.894   4.210  13.655 -0.6841  0.5831  0.8556
  618TMC3    O2 9218   0.332   3.905  13.410 -0.2180 -0.5950 -0.3624
  619MPD2     C 9219   2.061   0.971  13.628  0.1483 -0.2730  0.0325
  619MPD2    C1 9220   1.960   1.068  13.618 -0.3627  0.4798 -0.1510
  619MPD2    C2 9221   1.828   1.027  13.592  0.7076  0.2217 -0.0407
  619MPD2    C3 9222   1.803   0.886  13.588 -0.1791  0.2849  0.1124
  619MPD2    C4 9223   1.906   0.792  13.589  0.1569 -0.1913 -0.2669
  619MPD2    C5 9224   2.033   0.838  13.604 -0.1937 -0.2760 -1.4685
  619MPD2     H 9225   1.753   1.104  13.599  0.9371  0.4844 -0.4266
  619MPD2    H1 9226   1.895   0.685  13.587  1.4623 -0.3151 -0.9494
  619MPD2    H2 9227   2.165   0.983  13.658 -0.6488  2.1818  1.8115
  619MPD2    H3 9228   2.122   0.777  13.610 -0.2697 -0.1176  1.2343
  619MPD2     N 9229   1.668   0.829  13.583 -0.1391  0.0239 -1.1845
  619MPD2    H5 9230   1.664   0.733  13.616 -0.7459  0.3541 -0.3086
  619MPD2    N1 9231   1.983   1.203  13.659 -0.0641 -0.2154  0.0311
  619MPD2    H7 9232   1.902   1.265  13.652 -1.2977 -1.7451  0.7323
  620TMC3    C1 9233   2.061   1.382  13.776 -0.4431 -0.1537  0.5407
  620TMC3    C2 9234   2.014   1.469  13.681  0.0188  0.0489 -0.5281
  620TMC3    C3 9235   2.004   1.604  13.712 -0.1640  0.0844  0.4702
  620TMC3    C4 9236   2.076   1.426  13.904  0.1419  0.4952  0.1866
  620TMC3    C5 9237   2.061   1.555  13.949  0.0957  0.6013 -0.4525
  620TMC3    C6 9238   2.029   1.644  13.846  0.3268  0.3041  0.2598
  620TMC3     C 9239   2.086   1.240  13.742  0.1384 -0.8537  0.2825
  620TMC3     O 9240   2.175   1.175  13.796 -0.7512  0.2098 -0.0551
  620TMC3     H 9241   1.987   1.436  13.581 -1.6765  0.6747 -0.2756
  620TMC3    H1 9242   2.091   1.353  13.983  0.5769  0.0504 -0.3046
  620TMC3    H2 9243   2.024   1.749  13.871  2.5129  0.0943  1.6177
  620TMC3    C7 9244   1.968   1.551  14.054  0.3322 -0.6856 -0.2709
  620TMC3    C8 9245   1.881   1.674  13.662 -0.2206  0.1258 -0.2090
  620TMC3    O1 9246   2.003   1.492  14.156  0.4089  0.5248 -0.0747
  620TMC3    O2 9247   1.812   1.737  13.741  0.2882 -0.3584 -0.1383
  621MPD2     C 9248   1.984   0.442  10.417  0.0248  0.0330 -0.1620
  621MPD2    C1 9249   1.978   0.422  10.284  0.6570 -0.3323  0.1882
  621MPD2    C2 9250   2.003   0.533  10.198 -0.3714  0.2410  0.7717
  621MPD2    C3 9251   2.048   0.654  10.242 -0.5285 -0.1496 -0.3661
  621MPD2    C4 9252   2.056   0.672  10.378 -0.5951  0.6965 -0.1455
  621MPD2    C5 9253   2.020   0.569  10.462  0.0137 -0.1519 -0.5535
  621MPD2     H 9254   1.992   0.514  10.092  1.6135 -2.4829  1.0555
  621MPD2    H1 9255   2.082   0.764  10.429 -1.6590  1.4254 -0.9238
  621MPD2    H2 9256   1.954   0.375  10.497  0.3450  0.3451  0.2164
  621MPD2    H3 9257   2.017   0.591  10.568  0.0749 -0.8688 -0.4060
  621MPD2     N 9258   2.069   0.759  10.147  0.0404  0.9398 -0.0679
  621MPD2    H5 9259   2.069   0.733  10.049  2.2328 -3.4317  1.1040
  621MPD2    N1 9260   1.916   0.307  10.224 -0.0220  0.2596 -0.0354
  621MPD2    H7 9261   1.898   0.312  10.125  0.9481 -1.4042 -0.3053
  622TMC3    C1 9262   1.803   0.106  10.200 -0.1579  0.2065 -1.0045
  622TMC3    C2 9263   1.707   0.032  10.263  0.1993 -0.2491 -0.2460
  622TMC3    C3 9264   1.609   4.719  10.181  0.0527 -0.4869  0.0246
  622TMC3    C4 9265   1.801   0.131  10.062 -0.5942 -0.2930  0.1458
  622TMC3    C5 9266   1.710   0.057   9.987  0.0996 -0.1663  0.0400
  622TMC3    C6 9267   1.606   4.725  10.047 -0.0170  0.8259 -0.7450
  622TMC3     C 9268   1.882   0.193  10.292  0.4589  0.1909 -0.7149
  622TMC3     O 9269   1.878   0.172  10.410  0.0608 -0.2454 -0.7694
  622TMC3     H 9270   1.715   0.015  10.370 -1.0989  1.2478  0.1038
  622TMC3    H1 9271   1.877   0.195  10.017 -0.6606 -1.2354 -1.3091
  622TMC3    H2 9272   1.542   4.656   9.993  0.2172  0.3608 -0.4328
  622TMC3    C7 9273   1.707   0.064   9.842 -0.2610 -0.5222  0.4071
  622TMC3    C8 9274   1.474   4.681  10.237  0.7846  0.4620  0.4777
  622TMC3    O1 9275   1.627   4.725   9.786  0.5268  0.2814 -0.0312
  622TMC3    O2 9276   1.420   4.570  10.220 -0.6888 -0.0828 -0.0465
  623MPD2     C 9277   0.635   2.089  15.993 -0.1160 -0.1056  0.0162
  623MPD2    C1 9278   0.562   2.085  16.111  0.1728 -0.1563 -0.1003
  623MPD2    C2 9279   0.619   2.126  16.225 -0.6093  0.6463  0.1200
  623MPD2    C3 9280   0.749   2.165  16.230  0.7652  0.2094  0.2160
  623MPD2    C4 9281   0.823   2.173  16.115  0.2476  0.1776 -0.2241
  623MPD2    C5 9282   0.761   2.135  15.999 -0.9097 -0.1042 -0.2687
  623MPD2     H 9283   0.566   2.120  16.319 -1.3700  1.1857 -0.2717
  623MPD2    H1 9284   0.929   2.194  16.113  0.4791 -1.0284 -0.3869
  623MPD2    H2 9285   0.596   2.045  15.903 -1.6987  1.7415 -0.2120
  623MPD2    H3 9286   0.822   2.133  15.910  0.3450 -1.5451  0.6107
  623MPD2     N 9287   0.798   2.193  16.360 -0.1733  0.4089 -0.0464
  623MPD2    H5 9288   0.726   2.188  16.431  0.1068 -1.4108  0.0981
  623MPD2    N1 9289   0.424   2.051  16.115 -0.2268  0.1040  0.2656
  623MPD2    H7 9290   0.386   2.048  16.209  0.3402 -0.0794  0.4925
  624TMC3    C1 9291   1.045   2.085  16.674 -0.2811 -0.8356  0.6487
  624TMC3    C2 9292   0.936   2.097  16.754  0.0103 -0.6531  0.3463
  624TMC3    C3 9293   0.850   2.191  16.723 -1.2872  0.6959  0.3880
  624TMC3    C4 9294   1.058   2.145  16.551  0.1036  1.3835 -0.2999
  624TMC3    C5 9295   0.963   2.232  16.519  0.1645 -0.0179 -0.3134
  624TMC3    C6 9296   0.862   2.267  16.610  0.1958  0.5008  0.5495
  624TMC3     C 9297   1.131   1.977  16.705  0.0968 -0.3882 -0.6353
  624TMC3     O 9298   1.250   1.999  16.671 -0.4225  0.0419 -0.6279
  624TMC3     H 9299   0.926   2.046  16.849 -3.0487  2.9574  1.9468
  624TMC3    H1 9300   1.136   2.112  16.483  0.1831  1.1486 -0.0990
  624TMC3    H2 9301   0.784   2.335  16.577 -1.6373 -1.8746  0.0034
  624TMC3    C7 9302   0.930   2.231  16.387 -0.0938 -0.3452 -0.5691
  624TMC3    C8 9303   0.714   2.154  16.750  0.1378  0.1955 -0.1512
  624TMC3    O1 9304   1.024   2.252  16.312 -0.0390 -0.7921  0.2629
  624TMC3    O2 9305   0.651   2.115  16.651  0.7339 -0.0264  0.5706
  625MPD2     C 9306   0.882   3.703   1.141  0.8486  0.3778 -0.3254
  625MPD2    C1 9307   0.870   3.629   1.022  0.9567 -1.1530  0.0034
  625MPD2    C2 9308   0.990   3.576   0.973 -0.1024 -0.1328 -0.0122
  625MPD2    C3 9309   1.106   3.588   1.042 -0.1587 -0.1131 -0.6564
  625MPD2    C4 9310   1.118   3.659   1.163  0.0865  0.2624  0.5809
  625MPD2    C5 9311   1.002   3.718   1.204  0.7117 -0.0513  0.1247
  625MPD2     H 9312   0.994   3.528   0.876 -0.1203 -0.0831 -0.0373
  625MPD2    H1 9313   1.211   3.667   1.219 -0.1555  0.5676  0.9354
  625MPD2    H2 9314   0.795   3.756   1.178  0.0461 -0.3928 -1.0988
  625MPD2    H3 9315   1.004   3.771   1.299  0.0541  0.7763 -0.3181
  625MPD2     N 9316   1.221   3.528   0.979 -0.3106  0.4187  0.0775
  625MPD2    H5 9317   1.194   3.472   0.899  0.5514 -1.1483  0.8886
  625MPD2    N1 9318   0.752   3.616   0.944 -0.7555  0.5763  0.1102
  625MPD2    H7 9319   0.760   3.564   0.858  1.3245  1.2100 -0.0919
  626TMC3    C1 9320   0.533   3.677   0.885  0.1384  0.4806  0.2016
  626TMC3    C2 9321   0.571   3.745   0.770  0.2764  0.7127 -0.7476
  626TMC3    C3 9322   0.467   3.780   0.689 -0.0900  0.1274  0.4502
  626TMC3    C4 9323   0.400   3.670   0.923 -0.2981 -0.3524  0.6075
  626TMC3    C5 9324   0.298   3.706   0.842 -0.0429  0.3206  1.0506
  626TMC3    C6 9325   0.330   3.760   0.723  0.4024  0.1117  0.4257
  626TMC3     C 9326   0.633   3.667   0.986  0.1455 -0.5313 -0.0527
  626TMC3     O 9327   0.590   3.683   1.098  0.4850  0.7754 -0.3136
  626TMC3     H 9328   0.676   3.763   0.751  0.3597  1.1806  0.1775
  626TMC3    H1 9329   0.383   3.629   1.022  0.5660 -0.7701  0.5849
  626TMC3    H2 9330   0.254   3.797   0.656  0.2234  0.9016  1.0700
  626TMC3    C7 9331   0.164   3.659   0.862 -0.2981 -0.1212 -0.5967
  626TMC3    C8 9332   0.497   3.850   0.569  0.5016  0.5415  0.1774
  626TMC3    O1 9333   0.130   3.608   0.971 -0.5721 -0.1323  0.8850
  626TMC3    O2 9334   0.410   3.863   0.483  0.2462 -0.0941  0.0996
  627MPD2     C 9335   4.249   3.444  14.486 -0.0876  0.1569  0.1491
  627MPD2    C1 9336   4.342   3.398  14.580  0.2757  0.5024  0.5897
  627MPD2    C2 9337   4.322   3.265  14.617  0.0298 -0.0249 -0.0086
  627MPD2    C3 9338   4.210   3.194  14.569 -0.4942 -0.5115 -0.4082
  627MPD2    C4 9339   4.118   3.243  14.485 -0.6078 -0.0151  0.0503
  627MPD2    C5 9340   4.144   3.369  14.435 -0.1646  0.2000  0.2614
  627MPD2     H 9341   4.384   3.207  14.684  2.3340  1.5170 -0.8133
  627MPD2    H1 9342   4.035   3.186  14.444 -2.1166  2.4914 -0.3940
  627MPD2    H2 9343   4.259   3.543  14.443 -3.2561  0.3966 -0.0459
  627MPD2    H3 9344   4.090   3.415  14.353  1.5370  0.0561 -0.9332
  627MPD2     N 9345   4.188   3.064  14.629  0.8024 -0.3875 -0.0257
  627MPD2    H5 9346   4.257   3.036  14.698  1.4043  2.1915  0.3880
  627MPD2    N1 9347   4.440   3.477  14.638 -0.6784 -1.0575  0.2515
  627MPD2    H7 9348   4.511   3.423  14.687  1.7664 -0.4822 -2.6352
  628TMC3    C1 9349   4.551   3.678  14.712  0.3947 -0.1134  0.0871
  628TMC3    C2 9350   4.674   3.613  14.704 -0.2939  0.5442  0.4208
  628TMC3    C3 9351   0.047   3.693  14.724 -0.3838  0.7542 -0.4087
  628TMC3    C4 9352   4.542   3.811  14.724 -0.3001 -0.7076 -0.8337
  628TMC3    C5 9353   4.649   3.878  14.763 -0.1659 -0.5787 -0.0280
  628TMC3    C6 9354   0.036   3.826  14.764 -0.1319  0.5781  1.0735
  628TMC3     C 9355   4.429   3.616  14.650 -0.0537  0.0030 -0.2019
  628TMC3     O 9356   4.340   3.689  14.620  0.8796 -0.1796  0.0555
  628TMC3     H 9357   4.682   3.516  14.656 -3.6935 -1.3079  3.5068
  628TMC3    H1 9358   4.445   3.858  14.736 -0.0677 -0.2919 -0.6069
  628TMC3    H2 9359   0.116   3.894  14.737  0.4206 -0.7848 -0.7264
  628TMC3    C7 9360   4.637   4.020  14.759 -0.1280  0.7336  0.4921
  628TMC3    C8 9361   0.182   3.632  14.714 -0.4664 -0.2184  0.1134
  628TMC3    O1 9362   4.719   4.080  14.828  0.1599  0.7131  0.2176
  628TMC3    O2 9363   0.198   3.536  14.641 -0.2610 -0.0851  0.2511
  629MPD2     C 9364   2.529   2.321  16.423 -0.4532  0.1421 -0.7860
  629MPD2    C1 9365   2.540   2.194  16.374 -0.2259  0.6307 -0.3932
  629MPD2    C2 9366   2.443   2.099  16.408  0.2007  0.6537  0.0158
  629MPD2    C3 9367   2.340   2.125  16.494  0.4820  0.4553  0.2302
  629MPD2    C4 9368   2.331   2.253  16.546  0.3092  0.3211  0.3218
  629MPD2    C5 9369   2.417   2.352  16.499 -0.3054 -0.1023  0.5121
  629MPD2     H 9370   2.448   2.001  16.362  1.8971  0.5314  0.4800
  629MPD2    H1 9371   2.255   2.283  16.617 -1.9471 -3.0413 -0.6758
  629MPD2    H2 9372   2.592   2.399  16.382 -0.0027 -0.0931 -0.5540
  629MPD2    H3 9373   2.400   2.454  16.533  0.6681  0.5892 -1.0327
  629MPD2     N 9374   2.252   2.019  16.530  0.2441 -0.4324  0.1398
  629MPD2    H5 9375   2.280   1.929  16.493  0.2084  0.2194 -1.4874
  629MPD2    N1 9376   2.664   2.163  16.305 -0.6893 -0.6761 -0.1567
  629MPD2    H7 9377   2.724   2.243  16.288  0.6757 -2.1362 -2.2981
  630TMC3    C1 9378   2.845   2.040  16.267 -0.2629  0.4018 -0.0405
  630TMC3    C2 9379   2.906   2.139  16.194  0.4372  0.2016 -0.6149
  630TMC3    C3 9380   3.042   2.127  16.186  0.3083  0.4422 -1.1764
  630TMC3    C4 9381   2.913   1.936  16.328  0.4249  0.2113  0.5695
  630TMC3    C5 9382   3.046   1.943  16.339  1.0580 -0.3136 -0.3128
  630TMC3    C6 9383   3.109   2.032  16.261  0.0157  0.5032 -0.4457
  630TMC3     C 9384   2.706   2.037  16.270 -1.0148 -0.2494 -0.2643
  630TMC3     O 9385   2.660   1.920  16.281  0.1219  0.0533  0.2031
  630TMC3     H 9386   2.833   2.197  16.139  2.3610  3.0336 -0.1965
  630TMC3    H1 9387   2.852   1.880  16.398 -3.7221  3.4862 -0.4147
  630TMC3    H2 9388   3.217   2.037  16.261 -0.0117  0.9441  1.0510
  630TMC3    C7 9389   3.097   1.900  16.468 -0.1080 -0.3336 -0.9857
  630TMC3    C8 9390   3.122   2.229  16.120  0.2665  0.2769 -0.0647
  630TMC3    O1 9391   3.035   1.808  16.518 -0.0177  0.8927 -0.7395
  630TMC3    O2 9392   3.241   2.206  16.119  0.5454  0.2739 -0.3930
  631MPD2     C 9393   1.180   2.399  15.668 -1.0079  0.6333  0.2531
  631MPD2    C1 9394   1.293   2.474  15.654 -0.1541  0.0367  0.2728
  631MPD2    C2 9395   1.423   2.414  15.657 -0.1558 -0.0257 -0.4891
  631MPD2    C3 9396   1.438   2.275  15.666  0.3388  0.2655 -0.8958
  631MPD2    C4 9397   1.320   2.206  15.700 -0.4238  0.3647  0.7974
  631MPD2    C5 9398   1.195   2.261  15.691  1.4092 -0.1625 -0.3105
  631MPD2     H 9399   1.509   2.475  15.632  0.1391  0.4484  1.6460
  631MPD2    H1 9400   1.329   2.099  15.712 -1.2439  0.0623 -1.2529
  631MPD2    H2 9401   1.082   2.444  15.657  0.2237  2.1517 -4.4515
  631MPD2    H3 9402   1.117   2.186  15.706  0.3012  0.8538 -0.9729
  631MPD2     N 9403   1.563   2.212  15.653  0.2765  0.4543 -0.2934
  631MPD2    H5 9404   1.632   2.286  15.656  0.4114  0.2264  2.8754
  631MPD2    N1 9405   1.270   2.614  15.641  0.3073 -0.0226 -0.1133
  631MPD2    H7 9406   1.173   2.642  15.643  0.8973  2.0202  0.3015
  632TMC3    C1 9407   1.286   2.828  15.556 -0.0905  0.7691  0.0126
  632TMC3    C2 9408   1.150   2.820  15.581 -0.9108  0.5661 -0.0433
  632TMC3    C3 9409   1.069   2.823  15.472  0.0677  0.2070 -0.0959
  632TMC3    C4 9410   1.323   2.862  15.426 -0.3613  0.7187  0.5917
  632TMC3    C5 9411   1.233   2.872  15.318 -0.3143  0.6799 -0.3111
  632TMC3    C6 9412   1.106   2.856  15.343  0.3962  0.1239 -0.3678
  632TMC3     C 9413   1.360   2.712  15.612  0.6971 -0.1653  0.6305
  632TMC3     O 9414   1.476   2.699  15.577  0.2935  0.3424  0.3012
  632TMC3     H 9415   1.102   2.798  15.676 -0.8681  0.7781  0.0269
  632TMC3    H1 9416   1.430   2.857  15.409 -0.4479  0.2651  0.1967
  632TMC3    H2 9417   1.038   2.865  15.260 -0.2817 -1.9101 -0.0309
  632TMC3    C7 9418   1.275   2.846  15.178 -0.3671  0.2325  0.2622
  632TMC3    C8 9419   0.928   2.816  15.508 -0.1241 -0.1336  0.4410
  632TMC3    O1 9420   1.184   2.794  15.105  0.0754 -0.1737 -0.0235
  632TMC3    O2 9421   0.908   2.758  15.617 -0.3375  0.0784  0.0515
  633MPD2     C 9422   0.005   0.133  16.792 -0.8487 -0.3613 -0.5945
  633MPD2    C1 9423   0.146   0.120  16.808 -0.1296  0.1125 -0.8387
  633MPD2    C2 9424   0.203   0.006  16.852 -0.3332  0.0662 -0.2011
  633MPD2    C3 9425   0.116   4.629  16.868 -1.1248  0.2033 -0.2036
  633MPD2    C4 9426   4.714   4.641  16.848 -0.1649 -0.1704  0.4616
  633MPD2    C5 9427   4.655   0.025  16.826  0.0867 -0.2847 -0.4146
  633MPD2     H 9428   0.308   4.735  16.877 -0.8731  2.0997  2.6004
  633MPD2    H1 9429   4.660   4.551  16.876  0.3732  0.0251  2.1324
  633MPD2    H2 9430   4.684   0.225  16.781 -0.5409  0.1465  1.9616
  633MPD2    H3 9431   4.548   0.026  16.806 -0.2268 -1.7911  1.2310
  633MPD2     N 9432   0.168   4.503  16.909 -0.4166 -0.3260  0.0403
  633MPD2    H5 9433   0.095   4.433  16.914  0.4558 -1.2718 -0.2768
  633MPD2    N1 9434   0.236   0.218  16.764  0.2835 -0.0216  0.2557
  633MPD2    H7 9435   0.334   0.194  16.775  0.3056 -0.0551 -0.0219
  634TMC3    C1 9436   0.293   0.364  16.602 -0.1410 -0.1026  0.4709
  634TMC3    C2 9437   0.371   0.271  16.538  0.5892  0.0301 -0.0318
  634TMC3    C3 9438   0.482   0.311  16.474  0.2082 -0.5058  0.1897
  634TMC3    C4 9439   0.299   0.501  16.572  0.4196  0.2422 -0.1128
  634TMC3    C5 9440   0.425   0.532  16.529 -0.0192  0.9048 -0.6956
  634TMC3    C6 9441   0.513   0.446  16.463  0.3786  0.2005 -0.1010
  634TMC3     C 9442   0.190   0.318  16.688  0.3545 -0.0363  0.4566
  634TMC3     O 9443   0.089   0.387  16.690  0.5447 -0.5151  0.1690
  634TMC3     H 9444   0.330   0.171  16.528  2.0237 -0.5150 -0.4639
  634TMC3    H1 9445   0.229   0.576  16.608  1.4174  1.2380 -0.2141
  634TMC3    H2 9446   0.615   0.479  16.444 -0.2232  1.9248 -0.3132
  634TMC3    C7 9447   0.466   0.669  16.507  0.6376  0.4329 -0.0614
  634TMC3    C8 9448   0.559   0.197  16.407 -0.4186  0.5459 -0.6807
  634TMC3    O1 9449   0.536   0.691  16.408 -0.1187  0.5473 -0.5731
  634TMC3    O2 9450   0.520   0.083  16.434 -0.5254 -0.3556  0.2264
  635TMC3    C1 9451   0.866   0.960  17.556  0.6906  0.3808 -0.1214
  635TMC3    C2 9452   0.788   0.940  17.448  0.2266 -0.4661 -0.3474
  635TMC3    C3 9453   0.774   0.817  17.397  0.3714 -0.3215  0.7679
  635TMC3    C4 9454   0.945   0.863  17.616  0.0218  0.4508 -0.4154
  635TMC3    C5 9455   0.921   0.738  17.563  0.4224  0.2455 -0.4682
  635TMC3    C6 9456   0.839   0.716  17.457  0.5781  0.0529 -0.1537
  635TMC3     C 9457   0.865   1.090  17.620 -0.0458 -0.4532  0.0179
  635TMC3     O 9458   0.952   1.110  17.705  0.0701 -0.1909 -0.3592
  635TMC3     H 9459   0.740   1.018  17.389  0.2384 -1.4384 -1.6246
  635TMC3    H1 9460   0.993   0.881  17.711 -0.9738  2.4905 -0.2972
  635TMC3    H2 9461   0.824   0.619  17.411 -0.5016 -0.1293  0.5797
  635TMC3    C7 9462   1.005   0.624  17.592  0.4853 -0.8216 -0.0782
  635TMC3    C8 9463   0.649   0.793  17.328  0.4501  0.7689  0.1763
  635TMC3    O1 9464   0.943   0.518  17.604 -0.8719 -0.0133  0.0776
  635TMC3    O2 9465   0.556   0.870  17.350  0.1436  0.7030 -0.0215
  636MPD2     C 9466   1.884   0.534  16.207 -0.3580 -0.1614  0.2157
  636MPD2    C1 9467   1.830   0.521  16.335 -0.8309  0.4364  0.0268
  636MPD2    C2 9468   1.859   0.406  16.402 -0.5458 -0.5589  0.1618
  636MPD2    C3 9469   1.927   0.301  16.345  0.4169 -0.9332  0.9750
  636MPD2    C4 9470   1.993   0.322  16.225 -0.2082  0.2031  0.2327
  636MPD2    C5 9471   1.973   0.438  16.158  0.7935  0.2045 -0.6272
  636MPD2     H 9472   1.804   0.385  16.493 -1.4735 -0.4346 -0.3680
  636MPD2    H1 9473   2.060   0.247  16.184  0.8469  1.7450 -0.9021
  636MPD2    H2 9474   1.873   0.614  16.134  0.8923  0.8462  1.1305
  636MPD2    H3 9475   2.027   0.452  16.065  0.5593 -1.7788 -1.0476
  636MPD2     N 9476   1.939   0.176  16.406 -0.2987 -0.0264  0.1217
  636MPD2    H5 9477   1.897   0.171  16.498 -1.1295 -0.1381 -0.2644
  636MPD2    N1 9478   1.737   0.607  16.396  0.2734  0.4793  0.2392
  636MPD2    H7 9479   1.710   0.583  16.491  4.1185 -1.5477  0.8051
  637TMC3    C1 9480   2.040   4.708  16.479 -0.3578  0.6145 -0.1368
  637TMC3    C2 9481   1.965   4.716  16.592 -0.5517 -0.3781  0.1174
  637TMC3    C3 9482   2.019   4.648  16.705 -0.1260  0.0924  0.1717
  637TMC3    C4 9483   2.153   4.629  16.471  0.6076 -0.0448  0.2552
  637TMC3    C5 9484   2.200   4.563  16.584 -0.8174  0.1091  0.5429
  637TMC3    C6 9485   2.131   4.569  16.708 -0.1408  0.1392 -0.8135
  637TMC3     C 9486   2.024   0.070  16.374  0.1718  0.2503 -0.4490
  637TMC3     O 9487   2.090   0.048  16.274  0.0531 -0.0483  0.1829
  637TMC3     H 9488   1.878   0.043  16.608 -0.0511  0.5909 -1.0041
  637TMC3    H1 9489   2.189   4.622  16.369  1.9342  0.0891  0.7086
  637TMC3    H2 9490   2.162   4.517  16.797 -2.3085 -2.1940 -1.4116
  637TMC3    C7 9491   2.338   4.544  16.616  0.3998  0.0920  0.3380
  637TMC3    C8 9492   1.975   4.713  16.832 -0.6104 -0.0611  0.2774
  637TMC3    O1 9493   2.364   4.535  16.733 -0.0208 -0.6362 -0.0370
  637TMC3    O2 9494   1.907   0.078  16.819 -0.3164 -0.0708 -0.8596
  638MPD2     C 9495   2.484   4.028  14.225 -0.4057  0.7530 -0.1887
  638MPD2    C1 9496   2.450   3.895  14.230 -0.4453  0.6671 -0.5023
  638MPD2    C2 9497   2.339   3.857  14.304  0.3192 -0.3575 -0.1279
  638MPD2    C3 9498   2.252   3.946  14.353 -0.0530  0.0939  0.0480
  638MPD2    C4 9499   2.282   4.085  14.340  0.1420  0.0997 -0.8704
  638MPD2    C5 9500   2.400   4.123  14.277  0.0900 -0.6482  0.1212
  638MPD2     H 9501   2.328   3.752  14.327 -0.9093 -0.6446 -2.1010
  638MPD2    H1 9502   2.226   4.168  14.379  1.3244  0.9173 -0.9086
  638MPD2    H2 9503   2.580   4.062  14.187 -0.6991  1.1490 -0.5835
  638MPD2    H3 9504   2.424   4.229  14.270  0.0441 -0.6618 -0.2559
  638MPD2     N 9505   2.150   3.898  14.432  0.6379  0.6712  0.7558
  638MPD2    H5 9506   2.140   3.797  14.445 -0.1765  0.9255  2.1509
  638MPD2    N1 9507   2.537   3.801  14.177 -0.2168 -0.1544 -0.5491
  638MPD2    H7 9508   2.630   3.834  14.153  1.0733 -1.1619  3.0123
  639TMC3    C1 9509   1.987   3.898  14.601  0.0291  0.4222  0.2342
  639TMC3    C2 9510   1.953   3.770  14.578 -0.1053 -0.0409  0.3974
  639TMC3    C3 9511   1.901   3.694  14.676 -0.0206 -0.5785  0.3720
  639TMC3    C4 9512   1.972   3.953  14.723 -0.0347 -0.2800 -0.2787
  639TMC3    C5 9513   1.925   3.873  14.822 -0.4062  0.0425  0.2248
  639TMC3    C6 9514   1.871   3.748  14.803 -0.1301 -0.5598  0.6157
  639TMC3     C 9515   2.067   3.974  14.507 -0.3291 -0.1025  0.0778
  639TMC3     O 9516   2.068   4.094  14.531  0.0843 -0.2330  0.7561
  639TMC3     H 9517   1.960   3.738  14.475 -1.6792 -0.8299  0.5308
  639TMC3    H1 9518   2.014   4.049  14.751  1.7292 -2.0982  3.3798
  639TMC3    H2 9519   1.829   3.690  14.884 -1.0659 -0.4104  0.2335
  639TMC3    C7 9520   1.924   3.923  14.962  0.1840 -0.7760 -0.1421
  639TMC3    C8 9521   1.840   3.567  14.629  0.2834 -0.1563 -0.0866
  639TMC3    O1 9522   1.827   3.913  15.032 -0.7060  0.5270  0.2193
  639TMC3    O2 9523   1.895   3.505  14.544  0.1466 -0.8169 -0.8058
  640MPD2     C 9524   2.778   2.480   9.816  0.6022  0.3522 -0.3056
  640MPD2    C1 9525   2.728   2.378   9.901 -0.7801 -0.5734  0.6228
  640MPD2    C2 9526   2.615   2.394   9.973 -0.0133  0.0479 -0.7312
  640MPD2    C3 9527   2.537   2.509   9.952 -0.5584 -0.0545 -0.3379
  640MPD2    C4 9528   2.586   2.610   9.875 -0.0363  0.5169 -0.4083
  640MPD2    C5 9529   2.706   2.598   9.812 -0.3685  0.2311  0.2032
  640MPD2     H 9530   2.588   2.316  10.044 -0.8000 -0.2411 -1.3349
  640MPD2    H1 9531   2.536   2.706   9.876 -0.2304  0.4086  0.5752
  640MPD2    H2 9532   2.873   2.477   9.764  0.6861 -2.4326 -0.0036
  640MPD2    H3 9533   2.744   2.690   9.768 -2.7237  0.9348 -0.3638
  640MPD2     N 9534   2.421   2.530  10.024  0.0106 -0.0765 -0.3064
  640MPD2    H5 9535   2.390   2.627  10.032 -0.2735 -0.1673 -0.2978
  640MPD2    N1 9536   2.807   2.263   9.910  0.1758 -0.8186  0.8965
  640MPD2    H7 9537   2.890   2.261   9.852  0.0307 -0.3320  0.6811
  641TMC3    C1 9538   2.861   2.033   9.932  0.3281 -0.2511 -0.6823
  641TMC3    C2 9539   2.806   1.916   9.896 -0.3664 -0.0921 -0.2239
  641TMC3    C3 9540   2.888   1.810   9.860 -0.3329 -0.1844 -0.1965
  641TMC3    C4 9541   2.995   2.053   9.943 -0.0190  0.3393 -0.6051
  641TMC3    C5 9542   3.073   1.946   9.906 -0.0118 -1.0106  0.3877
  641TMC3    C6 9543   3.021   1.830   9.860  0.7101  0.7096  0.6612
  641TMC3     C 9544   2.765   2.137   9.959  0.1078 -0.1736  0.2265
  641TMC3     O 9545   2.653   2.101   9.995 -0.2511 -0.4357  0.0005
  641TMC3     H 9546   2.698   1.904   9.904 -0.2447 -2.3869 -2.1514
  641TMC3    H1 9547   3.044   2.148   9.958  1.6248 -0.3617 -1.6269
  641TMC3    H2 9548   3.093   1.767   9.811 -0.8446 -1.0714  0.6563
  641TMC3    C7 9549   3.208   1.980   9.856  0.0991 -0.0168 -0.9070
  641TMC3    C8 9550   2.823   1.719   9.767  0.2977 -0.6484  0.8054
  641TMC3    O1 9551   3.222   2.079   9.786  0.4151 -0.4113 -0.2296
  641TMC3    O2 9552   2.703   1.740   9.740 -0.0245  0.1487 -0.0727
  642TMC3    C1 9553   3.745   3.353  12.928 -0.0379  0.3419 -0.2758
  642TMC3    C2 9554   3.867   3.320  12.975 -0.4436  0.7861 -0.1048
  642TMC3    C3 9555   3.884   3.186  12.999 -0.0523  0.0714 -0.1760
  642TMC3    C4 9556   3.655   3.254  12.895 -0.6542 -0.0859 -0.0445
  642TMC3    C5 9557   3.673   3.121  12.922 -0.4686 -0.1085  0.3696
  642TMC3    C6 9558   3.796   3.083  12.976  0.4824 -0.8572  0.3622
  642TMC3     C 9559   3.703   3.495  12.937 -0.4650  0.0174 -0.5978
  642TMC3     O 9560   3.794   3.570  12.973 -0.3599  0.5923  0.0125
  642TMC3     H 9561   3.933   3.398  13.011 -0.7545  0.9017  0.2112
  642TMC3    H1 9562   3.570   3.274  12.832 -1.7326 -0.3954  1.3143
  642TMC3    H2 9563   3.836   2.982  12.970  0.6448 -0.6993 -1.1959
  642TMC3    C7 9564   3.606   3.022  12.835 -0.5881  0.1969 -0.3079
  642TMC3    C8 9565   4.021   3.134  13.018  0.0667 -0.3267  0.3361
  642TMC3    O1 9566   3.545   3.070  12.739  0.1992 -0.1633 -0.3349
  642TMC3    O2 9567   4.035   3.024  13.069  1.0230  0.2086  0.0149
  643TMC3    C1 9568   2.593   2.934   0.546 -0.0650  0.6739 -0.1212
  643TMC3    C2 9569   2.455   2.921   0.540  0.4269 -0.3057 -0.1106
  643TMC3    C3 9570   2.401   2.849   0.445  0.1761  0.0963 -0.1550
  643TMC3    C4 9571   2.679   2.882   0.456 -0.5667 -0.5286 -0.5821
  643TMC3    C5 9572   2.617   2.810   0.359  0.1298  0.1915  0.0984
  643TMC3    C6 9573   2.483   2.788   0.356 -0.1944 -0.7107 -0.2419
  643TMC3     C 9574   2.647   2.981   0.676 -0.0114  0.2090  0.1755
  643TMC3     O 9575   2.556   3.001   0.761 -0.6369 -0.3733  0.1864
  643TMC3     H 9576   2.393   2.976   0.610  0.6049 -1.7934  1.2095
  643TMC3    H1 9577   2.786   2.896   0.461 -0.4613 -1.7844  0.8325
  643TMC3    H2 9578   2.439   2.715   0.288  0.7510 -0.8258 -0.7374
  643TMC3    C7 9579   2.678   2.834   0.230 -0.0576 -0.0779  0.4926
  643TMC3    C8 9580   2.269   2.891   0.400 -0.3371 -0.3588 -0.3849
  643TMC3    O1 9581   2.739   2.940   0.214  0.2332  0.2584 -0.3218
  643TMC3    O2 9582   2.178   2.811   0.425  0.4565 -0.3976 -0.3479
  644MPD2     C 9583   2.782   3.398   9.950 -0.5851 -0.2536 -0.3985
  644MPD2    C1 9584   2.748   3.276   9.898 -0.1074  1.0663 -0.5688
  644MPD2    C2 9585   2.627   3.259   9.831 -0.1552 -0.0974  0.4765
  644MPD2    C3 9586   2.551   3.369   9.797 -0.7175  0.3792 -0.3180
  644MPD2    C4 9587   2.585   3.492   9.858 -0.2575 -0.3948 -0.0389
  644MPD2    C5 9588   2.699   3.503   9.937  0.7291  0.1453 -1.1335
  644MPD2     H 9589   2.589   3.165   9.794  0.4915 -1.4863  3.3539
  644MPD2    H1 9590   2.514   3.574   9.861 -0.1719 -0.1781 -3.2401
  644MPD2    H2 9591   2.879   3.417   9.995 -0.8395 -0.5879  0.2905
  644MPD2    H3 9592   2.717   3.596   9.990 -2.4234  1.1030 -1.7793
  644MPD2     N 9593   2.430   3.354   9.730 -0.3553  0.0957  0.3284
  644MPD2    H5 9594   2.395   3.260   9.712  0.7009 -0.1716 -0.3472
  644MPD2    N1 9595   2.842   3.171   9.929 -0.2124  0.0930 -0.0861
  644MPD2    H7 9596   2.928   3.202   9.973 -0.7664  0.1330  0.9662
  645TMC3    C1 9597   2.215   3.420   9.648  0.0100 -0.0606  0.1961
  645TMC3    C2 9598   2.144   3.514   9.579  0.2719  0.4650  0.0886
  645TMC3    C3 9599   2.004   3.512   9.585 -0.1452 -0.3714  0.0549
  645TMC3    C4 9600   2.149   3.315   9.708 -0.3972  0.2008 -0.6363
  645TMC3    C5 9601   2.011   3.318   9.715  0.2090  0.3560 -0.0956
  645TMC3    C6 9602   1.940   3.422   9.656  0.4615 -0.2919  0.6439
  645TMC3     C 9603   2.353   3.454   9.678 -0.2743 -0.1414 -0.3590
  645TMC3     O 9604   2.376   3.575   9.674  0.1374  0.1345  0.4456
  645TMC3     H 9605   2.192   3.597   9.528 -1.1359 -0.5962 -2.9793
  645TMC3    H1 9606   2.196   3.233   9.761 -2.1777 -0.5561 -0.2057
  645TMC3    H2 9607   1.832   3.430   9.669  0.6101 -0.7842  2.1353
  645TMC3    C7 9608   1.936   3.200   9.761 -0.3984  0.2294  0.1162
  645TMC3    C8 9609   1.940   3.612   9.503 -0.3217 -0.5533  0.4124
  645TMC3    O1 9610   1.997   3.102   9.799 -0.2821 -0.0325  0.2782
  645TMC3    O2 9611   2.012   3.668   9.424 -0.1571 -0.2279  0.8826
  646MPD2     C 9612   2.079   2.411  14.405 -0.3702  0.4083 -0.4343
  646MPD2    C1 9613   2.021   2.467  14.514 -0.0804 -0.4846  0.0824
  646MPD2    C2 9614   1.938   2.581  14.492 -0.6168 -0.0197 -0.0974
  646MPD2    C3 9615   1.920   2.619  14.362 -0.2495  0.1231  0.3465
  646MPD2    C4 9616   1.974   2.542  14.261  0.2531 -0.2024  0.1933
  646MPD2    C5 9617   2.044   2.429  14.273 -0.3804 -0.3247 -0.5475
  646MPD2     H 9618   1.881   2.625  14.573 -0.3536 -0.2639  0.2191
  646MPD2    H1 9619   1.965   2.581  14.161  0.7491  0.3002  0.3437
  646MPD2    H2 9620   2.160   2.340  14.421 -2.0735 -1.2694  0.7702
  646MPD2    H3 9621   2.078   2.367  14.191  0.7066 -1.0842  0.4794
  646MPD2     N 9622   1.834   2.731  14.338  0.6880 -0.2629  0.0683
  646MPD2    H5 9623   1.789   2.774  14.418  0.5155  1.3111 -0.8681
  646MPD2    N1 9624   2.068   2.429  14.639  0.1000  0.2618  0.4361
  646MPD2    H7 9625   2.116   2.339  14.639  1.9856  1.2645  0.9626
  647TMC3    C1 9626   2.119   2.423  14.869  0.1863 -0.3874  1.1034
  647TMC3    C2 9627   2.052   2.403  14.986  0.9674  0.3004 -0.5598
  647TMC3    C3 9628   2.127   2.387  15.099  0.4092 -0.3836  0.1593
  647TMC3    C4 9629   2.253   2.440  14.854 -0.1741 -0.3117 -0.3354
  647TMC3    C5 9630   2.321   2.439  14.974  0.4432  0.2371  0.1468
  647TMC3    C6 9631   2.262   2.407  15.089 -0.1687  0.3217 -0.0583
  647TMC3     C 9632   2.032   2.475  14.760 -0.5471  0.2163  0.8115
  647TMC3     O 9633   1.950   2.561  14.793 -0.2458  0.0700  0.0750
  647TMC3     H 9634   1.944   2.396  14.987  1.0699 -1.3536 -0.8835
  647TMC3    H1 9635   2.306   2.466  14.763 -0.3504  0.2412 -0.2822
  647TMC3    H2 9636   2.318   2.404  15.182 -1.9391 -0.0570  1.0077
  647TMC3    C7 9637   2.467   2.414  14.969  0.2519  0.1032  0.0354
  647TMC3    C8 9638   2.091   2.298  15.209  0.4767 -1.0370  0.2964
  647TMC3    O1 9639   2.529   2.429  15.072  0.1546  0.4390  0.1395
  647TMC3    O2 9640   2.173   2.292  15.300  0.1429 -0.5353 -0.0968
  648TMC3    C1 9641   1.200   0.355  15.939  0.0883 -0.4970  0.0436
  648TMC3    C2 9642   1.297   0.286  15.869 -0.5071  0.7847  0.6253
  648TMC3    C3 9643   1.351   0.338  15.754 -0.1469  0.3998  1.1491
  648TMC3    C4 9644   1.145   0.465  15.871 -0.2581  0.3347 -0.3657
  648TMC3    C5 9645   1.202   0.513  15.759  0.3133  0.1118  0.1463
  648TMC3    C6 9646   1.312   0.460  15.699  0.1963  0.7608  0.0634
  648TMC3     C 9647   1.148   0.308  16.067  0.5628 -0.1058 -0.7785
  648TMC3     O 9648   1.177   0.192  16.103  0.1413  0.1507 -0.2076
  648TMC3     H 9649   1.315   0.183  15.899 -1.2553  0.6580  0.6552
  648TMC3    H1 9650   1.061   0.511  15.922  0.4927 -0.1132  1.2967
  648TMC3    H2 9651   1.351   0.505  15.608 -0.6244  1.2432 -0.0515
  648TMC3    C7 9652   1.157   0.635  15.699 -0.2512  0.0707  0.1254
  648TMC3    C8 9653   1.474   0.282  15.714 -0.0898 -0.0434  0.2145
  648TMC3    O1 9654   1.198   0.641  15.586  0.2136  1.0535  0.2398
  648TMC3    O2 9655   1.531   0.224  15.809 -0.0719  0.2120  0.8239
  649TMC3    C1 9656   1.002   1.042  12.970 -0.1886  0.7829 -0.6582
  649TMC3    C2 9657   0.993   1.173  12.970  0.4381 -0.8692 -0.5017
  649TMC3    C3 9658   0.935   1.241  13.075 -0.6067 -0.2897 -0.0929
  649TMC3    C4 9659   0.954   0.980  13.081 -0.2857  0.0264 -0.1316
  649TMC3    C5 9660   0.896   1.047  13.190  0.0862 -0.2857 -0.3997
  649TMC3    C6 9661   0.869   1.177  13.185 -0.5173  0.0218  0.1644
  649TMC3     C 9662   0.937   1.000  12.852 -0.2780 -0.2283  0.8238
  649TMC3     O 9663   0.865   1.080  12.793  0.4475  0.1255 -1.1361
  649TMC3     H 9664   1.047   1.225  12.893  0.4159 -2.8453 -1.8639
  649TMC3    H1 9665   0.945   0.872  13.084 -0.5166  0.1051  2.0800
  649TMC3    H2 9666   0.817   1.234  13.262  0.7904  0.7203  0.5310
  649TMC3    C7 9667   0.809   0.971  13.276 -0.3665 -0.3716 -0.1344
  649TMC3    C8 9668   0.905   1.383  13.057  0.0892  0.2097  0.3370
  649TMC3    O1 9669   0.695   1.008  13.285  0.0301 -0.0988  0.6696
  649TMC3    O2 9670   0.907   1.455  13.152  0.4506  0.3002 -0.1064
  650TMC3    C1 9671   3.232   2.627  12.854 -0.4985  0.0235 -0.0500
  650TMC3    C2 9672   3.216   2.731  12.939  0.6765  0.5350 -0.2810
  650TMC3    C3 9673   3.201   2.852  12.886  0.1724  0.1941  0.9157
  650TMC3    C4 9674   3.212   2.642  12.716 -0.5876 -1.0079 -0.0597
  650TMC3    C5 9675   3.208   2.772  12.666  0.1738  0.2992  0.5226
  650TMC3    C6 9676   3.190   2.872  12.753  0.1063 -0.5275  0.3690
  650TMC3     C 9677   3.301   2.512  12.902  0.1700 -0.0079 -0.5278
  650TMC3     O 9678   3.333   2.517  13.019  0.4129  0.1807 -0.1088
  650TMC3     H 9679   3.227   2.715  13.046  2.7268 -2.6575 -0.9499
  650TMC3    H1 9680   3.216   2.559  12.647  0.7706 -0.7365 -0.3059
  650TMC3    H2 9681   3.187   2.977  12.728 -3.3636 -0.9575 -1.0877
  650TMC3    C7 9682   3.155   2.791  12.527  0.1041 -0.5613  0.6422
  650TMC3    C8 9683   3.125   2.944  12.954  0.6303  0.3712  0.0491
  650TMC3    O1 9684   3.149   2.693  12.451 -0.4712  0.1413 -0.6293
  650TMC3    O2 9685   3.168   3.058  12.946  0.3024  0.7496 -0.0077
  651MPD2     C 9686   1.659   4.376  10.421 -0.4322 -0.2537  0.5248
  651MPD2    C1 9687   1.668   4.440  10.540 -0.4168  0.1167 -0.5490
  651MPD2    C2 9688   1.778   4.506  10.576 -0.6089  0.0657 -0.1264
  651MPD2    C3 9689   1.898   4.483  10.515  0.7151  0.0995 -0.2374
  651MPD2    C4 9690   1.895   4.411  10.398 -0.1694  0.3098  0.1128
  651MPD2    C5 9691   1.774   4.367  10.344  0.2107  0.1365  0.4137
  651MPD2     H 9692   1.777   4.561  10.670 -3.0347 -0.7519  0.3295
  651MPD2    H1 9693   1.988   4.394  10.345 -0.2306  3.1968 -0.9431
  651MPD2    H2 9694   1.567   4.338  10.378 -0.6204 -0.8190  1.4343
  651MPD2    H3 9695   1.769   4.303  10.256  1.0646  0.2695  0.2701
  651MPD2     N 9696   2.018   4.541  10.560 -0.3478  0.1066 -0.2818
  651MPD2    H5 9697   2.016   4.600  10.642 -3.3955 -0.2471 -0.1031
  651MPD2    N1 9698   1.556   4.469  10.617  0.8114  0.1762  0.0462
  651MPD2    H7 9699   1.573   4.535  10.692 -0.0910 -2.4562  2.5923
  652TMC3    C1 9700   2.430   4.733  10.553 -0.0979 -0.9486  0.3468
  652TMC3    C2 9701   2.350   4.630  10.519 -0.5804  0.2504  0.0086
  652TMC3    C3 9702   2.220   4.651  10.534  0.6265  0.1182 -0.2798
  652TMC3    C4 9703   2.387   0.114  10.606 -0.3584 -0.1651 -0.4239
  652TMC3    C5 9704   2.257   0.127  10.639 -0.6010  0.1299  0.1882
  652TMC3    C6 9705   2.167   0.033  10.588  0.2903 -0.0211  0.1010
  652TMC3     C 9706   2.571   4.704  10.555 -0.4319  0.1453  0.2011
  652TMC3     O 9707   2.602   4.598  10.603 -0.2557 -0.4139 -0.1839
  652TMC3     H 9708   2.393   4.538  10.481  0.1216  0.4817  0.2416
  652TMC3    H1 9709   2.466   0.170  10.655 -0.8069  0.9445 -0.9782
  652TMC3    H2 9710   2.060   0.045  10.590  0.0472 -1.8591 -1.9150
  652TMC3    C7 9711   2.215   0.225  10.738  0.1927 -0.0599 -0.0716
  652TMC3    C8 9712   2.142   4.539  10.498 -0.0037  1.0117  0.1557
  652TMC3    O1 9713   2.109   0.208  10.798  0.0032  0.6853 -0.6220
  652TMC3    O2 9714   2.191   4.464  10.414 -0.1210 -0.3162 -0.6480
  653MPD2     C 9715   0.609   0.537  17.662  0.5314  0.3779 -0.9310
  653MPD2    C1 9716   0.507   0.604  17.598 -0.5532  0.1818  0.7202
  653MPD2    C2 9717   0.429   0.545  17.497  0.1270  0.3264 -0.6943
  653MPD2    C3 9718   0.439   0.411  17.465 -0.3938  0.9890 -0.7265
  653MPD2    C4 9719   0.536   0.346  17.535  0.1856 -0.0490 -0.6432
  653MPD2    C5 9720   0.618   0.406  17.628  0.3346  0.6766  0.0838
  653MPD2     H 9721   0.360   0.606  17.440  0.2048 -0.0551 -1.1936
  653MPD2    H1 9722   0.555   0.240  17.522 -1.5532 -0.3536 -0.7411
  653MPD2    H2 9723   0.679   0.577  17.736 -0.0227 -1.3320  0.5204
  653MPD2    H3 9724   0.700   0.344  17.665 -0.1314 -0.7543 -1.2807
  653MPD2     N 9725   0.345   0.360  17.372 -0.2526  0.3605 -0.0433
  653MPD2    H5 9726   0.269   0.420  17.341 -0.9140 -0.2383  0.4241
  653MPD2    N1 9727   0.481   0.742  17.627  0.4625 -0.3733 -0.6540
  653MPD2    H7 9728   0.406   0.787  17.574  1.2823  1.4582 -0.2596
  654TMC3    C1 9729   0.240   0.190  17.250 -0.2752 -0.4373 -0.0893
  654TMC3    C2 9730   0.150   0.271  17.206  0.0430 -0.1166  0.0876
  654TMC3    C3 9731   0.028   0.229  17.162  0.5582 -0.9164 -0.1340
  654TMC3    C4 9732   0.218   0.055  17.249 -0.0169  0.4231  0.3967
  654TMC3    C5 9733   0.102   0.004  17.202 -0.3204  0.0308  0.8624
  654TMC3    C6 9734   0.004   0.089  17.160  0.2651  0.1281  0.3588
  654TMC3     C 9735   0.359   0.232  17.320 -0.2672 -0.1226  0.6968
  654TMC3     O 9736   0.447   0.151  17.347 -0.1893 -0.7027 -0.4642
  654TMC3     H 9737   0.165   0.379  17.201  1.6265 -0.4452 -2.2383
  654TMC3    H1 9738   0.293   4.728  17.298  0.5343  0.5215 -0.3320
  654TMC3    H2 9739   4.648   0.049  17.118 -0.3277  3.4496 -1.5634
  654TMC3    C7 9740   0.068   4.606  17.239 -0.4133 -0.0312  0.5527
  654TMC3    C8 9741   4.646   0.308  17.139  0.0238 -0.0566 -1.0397
  654TMC3    O1 9742   4.682   4.584  17.222 -0.0647 -0.3509  0.4047
  654TMC3    O2 9743   4.555   0.249  17.086  0.0582 -0.1072  0.1475
  655MPD2     C 9744   1.878   0.517  15.730 -0.0690 -0.5718  0.0108
  655MPD2    C1 9745   1.801   0.620  15.675  0.9928  0.5148  0.6451
  655MPD2    C2 9746   1.804   0.643  15.537 -0.1774 -0.0171  0.3446
  655MPD2    C3 9747   1.887   0.570  15.454  0.1580  0.8931 -1.0758
  655MPD2    C4 9748   1.971   0.470  15.503  0.5429  0.1092 -0.5453
  655MPD2    C5 9749   1.959   0.445  15.641  0.6515  0.0030 -0.0215
  655MPD2     H 9750   1.734   0.723  15.512 -0.3018 -0.7349 -1.6372
  655MPD2    H1 9751   2.028   0.413  15.432 -0.7478 -1.5194 -0.2655
  655MPD2    H2 9752   1.872   0.501  15.837  1.3713 -0.3362  0.1304
  655MPD2    H3 9753   2.020   0.372  15.692 -0.4324  1.2667  3.0732
  655MPD2     N 9754   1.904   0.611  15.318  0.0701  0.5139 -0.0489
  655MPD2    H5 9755   1.977   0.576  15.258 -0.2639  1.0269 -0.7535
  655MPD2    N1 9756   1.700   0.687  15.746 -0.3225  0.2316 -0.1105
  655MPD2    H7 9757   1.654   0.756  15.687  0.2778 -0.3219 -1.2389
  656TMC3    C1 9758   1.545   0.763  15.897  0.2215 -0.3572 -0.3202
  656TMC3    C2 9759   1.432   0.729  15.971  0.1568 -0.4780 -0.1221
  656TMC3    C3 9760   1.350   0.836  16.007 -0.2664  0.6623 -0.3664
  656TMC3    C4 9761   1.562   0.894  15.857  0.1902 -0.0450 -0.2533
  656TMC3    C5 9762   1.468   0.988  15.884  0.4339  0.5891  0.4212
  656TMC3    C6 9763   1.361   0.962  15.955 -0.0495  0.3247 -0.6080
  656TMC3     C 9764   1.654   0.665  15.871  0.2741 -0.0350  0.0050
  656TMC3     O 9765   1.683   0.571  15.945 -0.4734 -1.0181  0.0531
  656TMC3     H 9766   1.404   0.628  16.000 -1.8718  0.2004  0.2424
  656TMC3    H1 9767   1.653   0.915  15.801  0.0528  0.8986 -0.1134
  656TMC3    H2 9768   1.283   1.036  15.968 -1.0733 -1.1707  1.8421
  656TMC3    C7 9769   1.465   1.093  15.782  0.2733  0.5895  0.1725
  656TMC3    C8 9770   1.227   0.800  16.077  0.2001 -0.0190 -0.9879
  656TMC3    O1 9771   1.555   1.090  15.697 -0.7091  0.0539  0.4583
  656TMC3    O2 9772   1.197   0.679  16.084  0.2608 -0.1336 -0.4457
  657TMC3    C1 9773   0.738   4.415  14.652 -0.1262 -0.1188  0.1827
  657TMC3    C2 9774   0.804   4.432  14.777  0.4341  0.1184 -0.5536
  657TMC3    C3 9775   0.772   4.551  14.844 -0.5626  0.2095  0.2615
  657TMC3    C4 9776   0.677   4.528  14.597  0.1615 -0.0718 -0.1442
  657TMC3    C5 9777   0.671   4.647  14.663 -0.1265 -0.2231 -0.4684
  657TMC3    C6 9778   0.709   4.658  14.787 -0.2349  0.1696  0.4234
  657TMC3     C 9779   0.762   4.299  14.574 -0.0176 -0.2842 -0.1626
  657TMC3     O 9780   0.722   4.311  14.462  0.2036  0.8806 -0.5392
  657TMC3     H 9781   0.830   4.343  14.834  1.4683  0.2226 -0.8601
  657TMC3    H1 9782   0.631   4.527  14.499 -0.2740 -1.4744  0.0612
  657TMC3    H2 9783   0.692   0.017  14.837 -0.6617  0.7178 -0.7617
  657TMC3    C7 9784   0.601   0.020  14.601 -0.2942  0.1408  0.1108
  657TMC3    C8 9785   0.792   4.570  14.987 -0.8190  0.1763  0.0638
  657TMC3    O1 9786   0.537   0.093  14.671  0.0007  0.0143  0.4913
  657TMC3    O2 9787   0.745   4.672  15.039 -0.0074  0.1268  0.5166
  658MPD2     C 9788   2.475   0.700  14.955 -0.0237 -0.4569 -0.5385
  658MPD2    C1 9789   2.359   0.695  14.876 -0.3089 -0.2936 -0.1432
  658MPD2    C2 9790   2.380   0.696  14.742  0.7281  0.5112  0.5331
  658MPD2    C3 9791   2.501   0.696  14.678  0.6543  0.5100  0.1917
  658MPD2    C4 9792   2.612   0.700  14.755 -0.0350 -0.3262 -0.2804
  658MPD2    C5 9793   2.595   0.711  14.892 -0.1488 -0.6832 -0.3739
  658MPD2     H 9794   2.300   0.683  14.670 -0.0339  2.3835  1.0426
  658MPD2    H1 9795   2.710   0.714  14.711 -0.8616  2.5454 -1.1821
  658MPD2    H2 9796   2.462   0.691  15.063  1.6643 -1.4488 -0.4220
  658MPD2    H3 9797   2.689   0.704  14.946 -0.3685  1.3023  0.2650
  658MPD2     N 9798   2.493   0.669  14.539  0.0029 -0.5360  0.1138
  658MPD2    H5 9799   2.405   0.641  14.497 -1.7438  2.2972  1.8841
  658MPD2    N1 9800   2.224   0.691  14.922  0.5284  0.4111  0.2024
  658MPD2    H7 9801   2.202   0.689  15.021 -0.1410  1.1557  0.0745
  659TMC3    C1 9802   1.986   0.717  14.918 -0.3550  0.0439 -0.0642
  659TMC3    C2 9803   1.978   0.699  15.057  0.1178 -0.6136  0.7682
  659TMC3    C3 9804   1.854   0.706  15.110 -0.5065  0.2166 -0.6944
  659TMC3    C4 9805   1.873   0.727  14.838  0.7774  1.1276  0.0142
  659TMC3    C5 9806   1.745   0.731  14.896  0.0415 -0.4465 -0.0857
  659TMC3    C6 9807   1.738   0.731  15.030  1.1377 -0.0900  0.1091
  659TMC3     C 9808   2.109   0.696  14.843 -0.1617  0.1446  0.3014
  659TMC3     O 9809   2.090   0.692  14.721 -0.1878  0.1787  0.1264
  659TMC3     H 9810   2.061   0.684  15.125  1.2248  1.1124 -0.2331
  659TMC3    H1 9811   1.887   0.750  14.733  0.4577  1.2798  0.0049
  659TMC3    H2 9812   1.637   0.742  15.066  0.5318  0.6610 -1.8405
  659TMC3    C7 9813   1.637   0.690  14.807  0.8895  0.3162 -0.2522
  659TMC3    C8 9814   1.829   0.705  15.251  0.8689 -0.4187  0.0672
  659TMC3    O1 9815   1.523   0.701  14.845  0.2079  0.4725  0.0960
  659TMC3    O2 9816   1.716   0.727  15.287  0.3453  0.0050  0.3984
  660MPD2     C 9817   0.097   3.655  12.708  0.6640  0.2520  0.5155
  660MPD2    C1 9818   4.733   3.748  12.746 -0.2354 -0.3583  0.5993
  660MPD2    C2 9819   4.649   3.720  12.850 -0.1178  0.1875 -0.5972
  660MPD2    C3 9820   4.661   3.598  12.915 -0.2023 -0.2499  0.0820
  660MPD2    C4 9821   0.027   3.512  12.882  0.2174 -0.5284  0.8599
  660MPD2    C5 9822   0.118   3.540  12.784 -0.7988 -0.1200  0.5242
  660MPD2     H 9823   4.569   3.783  12.887  0.5889  0.0798  1.1157
  660MPD2    H1 9824   0.054   3.426  12.943  0.7371 -0.6993  0.3924
  660MPD2    H2 9825   0.155   3.666  12.617  0.9947 -2.2278  0.4268
  660MPD2    H3 9826   0.210   3.485  12.768 -0.4902  0.6635 -0.4321
  660MPD2     N 9827   4.571   3.556  13.016  0.4490 -0.4381 -0.1803
  660MPD2    H5 9828   4.583   3.461  13.049  2.0097 -1.1062 -2.6091
  660MPD2    N1 9829   4.726   3.879  12.684  0.3905 -0.0907  0.5804
  660MPD2    H7 9830   0.071   3.906  12.628  0.4563 -1.2365  0.1178
  661TMC3    C1 9831   4.662   4.100  12.649  0.4274  0.1444 -0.4589
  661TMC3    C2 9832   4.722   4.111  12.525  0.4534 -0.1764  0.2463
  661TMC3    C3 9833   4.674   4.207  12.440  0.1857 -0.5866 -0.8543
  661TMC3    C4 9834   4.567   4.193  12.689  0.2134 -0.3976 -0.4511
  661TMC3    C5 9835   4.533   4.296  12.608 -0.3257 -0.5717  0.3662
  661TMC3    C6 9836   4.588   4.308  12.483  0.9078 -0.3636  0.8745
  661TMC3     C 9837   4.637   3.970  12.714  0.1918  0.6564  0.4230
  661TMC3     O 9838   4.523   3.957  12.762 -0.2186 -0.0433  0.0011
  661TMC3     H 9839   0.049   4.030  12.488 -1.4069 -2.0014  1.0954
  661TMC3    H1 9840   4.535   4.170  12.790  0.9664 -1.7585 -0.5212
  661TMC3    H2 9841   4.573   4.396  12.421 -1.7169 -1.9160 -0.7219
  661TMC3    C7 9842   4.392   4.301  12.599 -0.6078 -0.5677 -0.3532
  661TMC3    C8 9843   0.020   4.220  12.320 -0.2673  0.4122  0.3821
  661TMC3    O1 9844   4.337   4.402  12.564  0.2266 -0.2339  0.1809
  661TMC3    O2 9845   0.136   4.196  12.340  0.5528  0.3076 -1.0215
  662MPD2     C 9846   0.270   3.361  17.022 -0.0476 -0.5286 -0.2613
  662MPD2    C1 9847   0.212   3.353  17.145 -0.0794 -0.0968 -0.5553
  662MPD2    C2 9848   0.112   3.439  17.179  0.3631  0.2166  0.0195
  662MPD2    C3 9849   0.078   3.541  17.092 -0.3120 -0.3127 -0.2930
  662MPD2    C4 9850   0.145   3.552  16.975 -0.6308  0.2994  0.2965
  662MPD2    C5 9851   0.234   3.459  16.935  0.6334  0.6855 -0.0481
  662MPD2     H 9852   0.069   3.430  17.278 -1.8600 -0.1039 -0.9914
  662MPD2    H1 9853   0.118   3.629  16.904  1.6306  1.2290  0.4553
  662MPD2    H2 9854   0.353   3.299  16.988 -0.0628 -1.3822  1.2724
  662MPD2    H3 9855   0.289   3.469  16.842  0.2534 -0.0838 -0.3540
  662MPD2     N 9856   4.715   3.632  17.125 -0.7906  0.3179  0.2459
  662MPD2    H5 9857   4.695   3.693  17.046  1.4558 -0.5190 -0.9721
  662MPD2    N1 9858   0.232   3.250  17.236 -0.5131  0.2442 -0.4374
  662MPD2    H7 9859   0.175   3.255  17.320  1.4631 -0.8701  0.9532
  663TMC3    C1 9860   0.250   3.036  17.303  0.4308  0.2282  0.5352
  663TMC3    C2 9861   0.179   3.082  17.407 -0.2725 -0.4978 -0.5230
  663TMC3    C3 9862   0.056   3.030  17.448 -0.3929 -0.3009 -0.9612
  663TMC3    C4 9863   0.189   2.946  17.222  0.1363  0.3822 -0.8931
  663TMC3    C5 9864   0.061   2.902  17.252  0.5236 -1.2993 -0.2932
  663TMC3    C6 9865   4.726   2.934  17.370  0.2576  0.6560 -0.0321
  663TMC3     C 9866   0.302   3.136  17.216 -0.7322  0.6186  0.3589
  663TMC3     O 9867   0.379   3.096  17.131 -0.1478  0.2834  0.4332
  663TMC3     H 9868   0.229   3.148  17.477  0.4135 -1.8347  0.2546
  663TMC3    H1 9869   0.239   2.924  17.128 -0.2116  1.2696 -1.2930
  663TMC3    H2 9870   4.619   2.921  17.378  0.1140  1.3940 -0.6911
  663TMC3    C7 9871   4.729   2.818  17.159  0.5546  0.1678 -0.0780
  663TMC3    C8 9872   4.701   3.139  17.472 -0.3996  0.4584  0.1563
  663TMC3    O1 9873   0.031   2.825  17.041  0.5052 -0.2805 -0.2868
  663TMC3    O2 9874   0.004   3.250  17.448  0.0557 -0.1129  0.1286
  664MPD2     C 9875   2.602   1.313  17.425 -0.1280  0.0839 -0.4731
  664MPD2    C1 9876   2.643   1.436  17.472  0.2311 -0.2592 -0.1249
  664MPD2    C2 9877   2.613   1.468  17.596  0.0188 -0.1905 -0.0929
  664MPD2    C3 9878   2.554   1.383  17.685 -0.5977 -0.0674 -0.0816
  664MPD2    C4 9879   2.513   1.259  17.639 -0.8481  0.2664  0.4130
  664MPD2    C5 9880   2.529   1.227  17.505  0.7258 -0.5793 -0.0227
  664MPD2     H 9881   2.636   1.571  17.623 -0.0304  0.1628 -1.3628
  664MPD2    H1 9882   2.463   1.185  17.700 -0.7217 -1.0710 -1.1119
  664MPD2    H2 9883   2.603   1.280  17.322 -0.2437 -1.0731 -0.1055
  664MPD2    H3 9884   2.490   1.136  17.461  1.5609 -1.2452  0.6161
  664MPD2     N 9885   2.520   1.427   0.074  0.2564  0.6557  0.3207
  664MPD2    H5 9886   2.546   1.521   0.100 -0.3971  1.5032 -2.1290
  664MPD2    N1 9887   2.713   1.528  17.395  0.6319 -0.7886  0.0365
  664MPD2    H7 9888   2.752   1.611  17.438 -2.0579  1.3493 -1.5935
  665TMC3    C1 9889   2.453   1.426   0.297  0.7633 -0.1427  0.2387
  665TMC3    C2 9890   2.493   1.359   0.409  0.2496 -0.0918 -0.4085
  665TMC3    C3 9891   2.451   1.414   0.531 -0.3868  0.5059  0.4137
  665TMC3    C4 9892   2.367   1.526   0.293  0.1756  0.1930 -0.2435
  665TMC3    C5 9893   2.336   1.585   0.412  1.3496  0.4148 -0.0375
  665TMC3    C6 9894   2.378   1.530   0.535 -0.2488 -0.1589 -0.1537
  665TMC3     C 9895   2.476   1.352   0.173 -0.2920 -0.7020 -0.0854
  665TMC3     O 9896   2.446   1.234   0.183  0.1923  0.4632  0.0835
  665TMC3     H 9897   2.559   1.274   0.406  1.7938  1.0771  0.5356
  665TMC3    H1 9898   2.335   1.578   0.203 -0.8680  1.2471  0.7404
  665TMC3    H2 9899   2.349   1.573   0.630  0.9528  0.6049 -0.1352
  665TMC3    C7 9900   2.311   1.720   0.412 -0.1243 -0.1812 -0.7685
  665TMC3    C8 9901   2.504   1.372   0.656 -0.6109  0.3508  0.9916
  665TMC3    O1 9902   2.237   1.767   0.326  0.5395  0.0018  0.7446
  665TMC3    O2 9903   2.449   1.414   0.761  0.0656 -0.0572  0.4894
  666TMC3    C1 9904   2.085   0.973  10.048  0.5175 -0.2943 -0.4590
  666TMC3    C2 9905   2.151   0.920   9.935 -0.6997 -0.4555 -0.6475
  666TMC3    C3 9906   2.190   1.004   9.838  0.2427  0.2910 -0.4131
  666TMC3    C4 9907   2.073   1.108  10.068  0.4387  0.4756 -0.5069
  666TMC3    C5 9908   2.107   1.183   9.960  0.6780 -0.0114 -0.1155
  666TMC3    C6 9909   2.153   1.132   9.839  0.3914  0.3980 -0.2420
  666TMC3     C 9910   2.078   0.895  10.173  0.1905 -0.1657 -0.0863
  666TMC3     O 9911   2.054   0.953  10.279  0.0407  0.8098 -0.4098
  666TMC3     H 9912   2.164   0.815   9.912  0.5496 -0.5289  0.3870
  666TMC3    H1 9913   2.016   1.148  10.151 -1.5626 -1.2793 -1.0569
  666TMC3    H2 9914   2.179   1.208   9.766 -0.0046  0.8816  0.1114
  666TMC3    C7 9915   2.108   1.318   9.991  0.0540 -0.3339  0.3127
  666TMC3    C8 9916   2.305   0.965   9.759  0.1837  0.9005 -0.0072
  666TMC3    O1 9917   2.014   1.346  10.060 -0.4732 -0.5165 -0.0596
  666TMC3    O2 9918   2.292   0.854   9.711 -0.1261  0.0187 -0.0633
  667MPD2     C 9919   3.736   1.223  14.899 -0.4776  0.4115 -0.8214
  667MPD2    C1 9920   3.722   1.214  15.036  0.7406  0.2061 -0.7160
  667MPD2    C2 9921   3.661   1.106  15.097 -0.4775  0.0989  0.5433
  667MPD2    C3 9922   3.631   0.997  15.024 -0.1685 -0.4031  0.5594
  667MPD2    C4 9923   3.649   0.996  14.891 -0.3011 -0.3323  0.1681
  667MPD2    C5 9924   3.704   1.109  14.831  0.2602 -0.0515  0.2402
  667MPD2     H 9925   3.662   1.107  15.206 -1.4592 -0.0218  0.5536
  667MPD2    H1 9926   3.621   0.910  14.832  1.7223 -0.5345 -0.4891
  667MPD2    H2 9927   3.774   1.306  14.842 -0.8293  0.6526 -0.7079
  667MPD2    H3 9928   3.730   1.103  14.726 -1.3532 -1.0291 -0.1065
  667MPD2     N 9929   3.560   0.883  15.074  0.5100  0.5606  0.0317
  667MPD2    H5 9930   3.532   0.806  15.016  0.1288 -1.2134  2.5615
  667MPD2    N1 9931   3.751   1.325  15.113  0.2592 -0.2396 -1.2404
  667MPD2    H7 9932   3.747   1.304  15.212 -0.8179  1.7392 -0.8618
  668TMC3    C1 9933   3.800   1.543  15.194 -0.6057 -0.1558  0.0309
  668TMC3    C2 9934   3.898   1.641  15.213  0.5217 -0.1616  0.1292
  668TMC3    C3 9935   3.897   1.714  15.330 -0.2691  0.2157 -0.2958
  668TMC3    C4 9936   3.710   1.521  15.288  0.0307 -0.2313 -0.5531
  668TMC3    C5 9937   3.708   1.604  15.402  0.1416  0.0855 -0.1054
  668TMC3    C6 9938   3.806   1.696  15.431 -0.4078  0.1439 -0.0847
  668TMC3     C 9939   3.790   1.455  15.074 -0.3890 -0.1369  0.1506
  668TMC3     O 9940   3.834   1.492  14.965  0.1783  0.3572 -0.0992
  668TMC3     H 9941   3.979   1.648  15.140  1.6200  1.3523  1.4949
  668TMC3    H1 9942   3.627   1.457  15.261 -1.4209  0.0465  3.1477
  668TMC3    H2 9943   3.796   1.760  15.518  0.7865  1.5611 -0.9968
  668TMC3    C7 9944   3.581   1.631  15.472 -0.5900  0.1319  0.3250
  668TMC3    C8 9945   3.989   1.822  15.354  0.3716  0.4431 -0.2404
  668TMC3    O1 9946   3.602   1.692  15.577 -0.3167  0.5638 -0.1471
  668TMC3    O2 9947   4.017   1.844  15.472  0.1748  0.0670 -0.0516
  669TMC3    C1 9948   1.820   1.664  14.912 -0.8972  0.3442 -0.1773
  669TMC3    C2 9949   1.700   1.671  14.843  0.2501  0.2091 -0.2361
  669TMC3    C3 9950   1.711   1.682  14.709 -0.5331 -0.3789  0.2693
  669TMC3    C4 9951   1.941   1.664  14.850 -0.2276 -0.5417 -0.6412
  669TMC3    C5 9952   1.946   1.682  14.718 -0.2507  0.7490  0.5710
  669TMC3    C6 9953   1.831   1.693  14.641  0.3660  0.6136 -1.0786
  669TMC3     C 9954   1.816   1.647  15.049 -0.4300  0.0127  0.0840
  669TMC3     O 9955   1.719   1.702  15.098  0.1471  0.0769 -0.4394
  669TMC3     H 9956   1.605   1.664  14.894 -0.0474  3.0955 -0.4237
  669TMC3    H1 9957   2.032   1.663  14.909 -0.7245  0.0535  0.1381
  669TMC3    H2 9958   1.836   1.706  14.533 -1.5490  0.0725 -1.2246
  669TMC3    C7 9959   2.063   1.751  14.666 -0.4644 -0.3395 -0.2115
  669TMC3    C8 9960   1.593   1.653  14.623 -0.2003 -0.3474 -0.3341
  669TMC3    O1 9961   2.105   1.850  14.725  0.6000  0.1533  0.1511
  669TMC3    O2 9962   1.618   1.593  14.517  0.5503 -0.4317  0.0932
  670MPD2     C 9963   4.615   3.992  13.345 -0.0797  0.5050  0.1576
  670MPD2    C1 9964   4.726   4.057  13.365  0.4367 -0.3026 -0.0094
  670MPD2    C2 9965   0.038   4.088  13.493 -0.6148 -0.0924 -0.3776
  670MPD2    C3 9966   4.701   4.060  13.604  0.3124 -0.3376  0.0461
  670MPD2    C4 9967   4.585   3.984  13.588 -1.0782  0.1411  0.0491
  670MPD2    C5 9968   4.543   3.957  13.456 -0.4136  0.2424  0.1780
  670MPD2     H 9969   0.127   4.151  13.500 -1.0802  0.4452  0.8105
  670MPD2    H1 9970   4.523   3.961  13.674 -0.9016 -0.5473 -0.0107
  670MPD2    H2 9971   4.570   3.967  13.249 -0.0999 -1.3563  0.6494
  670MPD2    H3 9972   4.446   3.910  13.448 -1.8733  3.1375  1.2088
  670MPD2     N 9973   0.007   4.105  13.735  0.3015  0.4268  0.2144
  670MPD2    H5 9974   0.097   4.153  13.726 -0.2658  1.7865  1.7943
  670MPD2    N1 9975   0.082   4.087  13.264  0.1373  0.2171 -0.2894
  670MPD2    H7 9976   0.158   4.148  13.293  0.4190 -0.9790  1.5348
  671TMC3    C1 9977   0.008   4.118  13.966  0.4069  1.4277 -0.6094
  671TMC3    C2 9978   0.140   4.080  13.939  0.1130 -0.1221 -0.6569
  671TMC3    C3 9979   0.201   4.007  14.037  0.8578 -0.4570  0.9071
  671TMC3    C4 9980   4.674   4.068  14.076  0.1584 -0.9824  1.3202
  671TMC3    C5 9981   0.003   3.994  14.174  0.1078 -0.2955  0.6786
  671TMC3    C6 9982   0.134   3.959  14.151  0.3819  0.0276  0.2798
  671TMC3     C 9983   4.669   4.100  13.851 -0.0744  0.3082  0.1335
  671TMC3     O 9984   4.564   4.046  13.872  0.2251 -0.6180  0.5503
  671TMC3     H 9985   0.198   4.146  13.876  0.6846 -1.3034 -1.3667
  671TMC3    H1 9986   4.568   4.089  14.085  0.1140 -0.4229 -0.5068
  671TMC3    H2 9987   0.185   3.909  14.233  0.8959  1.5871  0.9043
  671TMC3    C7 9988   4.653   3.890  14.236 -0.1970  0.5557  0.3849
  671TMC3    C8 9989   0.302   3.926  13.982  0.1919  0.5477 -1.0492
  671TMC3    O1 9990   4.532   3.901  14.222  0.6971 -0.2092 -0.1599
  671TMC3    O2 9991   0.282   3.876  13.877  0.2899 -0.0334  0.0554
  672MPD2     C 9992   0.421   0.389   0.897 -0.2537  0.7399  0.5433
  672MPD2    C1 9993   0.502   0.279   0.890 -1.0218 -0.0798 -0.4099
  672MPD2    C2 9994   0.639   0.292   0.914 -0.0705  1.0417 -0.1451
  672MPD2    C3 9995   0.693   0.410   0.944  0.3651 -0.0750  0.8178
  672MPD2    C4 9996   0.614   0.525   0.965  0.5338 -0.0268  0.3998
  672MPD2    C5 9997   0.485   0.507   0.928 -0.4074 -0.5288  0.1559
  672MPD2     H 9998   0.699   0.202   0.913  1.8322  2.3411 -2.2585
  672MPD2    H1 9999   0.651   0.623   0.995  2.1928  0.0506 -1.8827
  672MPD2    H210000   0.317   0.392   0.865 -0.3108 -1.4891  0.5176
  672MPD2    H310001   0.420   0.594   0.930 -1.6352 -1.4800  1.1821
  672MPD2     N10002   0.829   0.427   0.961  0.6836  0.2478  0.2704
  672MPD2    H510003   0.852   0.515   1.005  1.1675  0.4687 -0.4301
  672MPD2    N110004   0.447   0.149   0.867  0.7850  0.3442 -0.2112
  672MPD2    H710005   0.496   0.061   0.878 -1.3861 -0.8688 -0.2228
  673TMC3    C110006   0.290   4.731   0.773 -0.3815 -0.7169  0.0004
  673TMC3    C210007   0.342   4.619   0.842  0.1505  0.4009 -0.4778
  673TMC3    C310008   0.299   4.497   0.789 -0.3572 -0.0855  0.3603
  673TMC3    C410009   0.218   4.729   0.658 -0.3142  0.1530 -0.1211
  673TMC3    C510010   0.188   4.604   0.611  0.2717 -0.3648 -0.6219
  673TMC3    C610011   0.229   4.490   0.673 -0.2811  0.5257  0.3847
  673TMC3     C10012   0.319   0.126   0.820 -0.7020  0.0027 -0.0130
  673TMC3     O10013   0.237   0.212   0.780 -0.2585  0.2006 -0.5809
  673TMC3     H10014   0.400   4.625   0.934  0.7452 -1.1901 -0.7543
  673TMC3    H110015   0.160   0.079   0.626  0.9937  1.6151  1.4206
  673TMC3    H210016   0.209   4.396   0.622  0.0437  0.3233  0.6337
  673TMC3    C710017   0.127   4.583   0.483 -0.3911  0.7564 -0.5579
  673TMC3    C810018   0.332   4.373   0.857 -0.5612 -0.4643 -0.1448
  673TMC3    O110019   0.088   4.470   0.455 -0.3830  0.3773 -0.4650
  673TMC3    O210020   0.259   4.275   0.849 -0.1181 -0.1355 -0.4917
  674MPD2     C10021   0.235   0.066  17.668 -0.4880 -0.6115  0.1440
  674MPD2    C110022   0.158   4.692  17.666  0.0585  0.3408 -0.7816
  674MPD2    C210023   0.041   4.695  17.592  0.3723 -0.2503 -0.4687
  674MPD2    C310024   4.731   0.080  17.539  0.8845 -0.9404 -0.3051
  674MPD2    C410025   0.075   0.199  17.541 -0.7899  0.2988 -0.0784
  674MPD2    C510026   0.195   0.182  17.603  0.0432 -0.0700  0.4494
  674MPD2     H10027   4.713   4.607  17.589  0.7745 -0.5968  1.4042
  674MPD2    H110028   0.046   0.292  17.492  0.5316 -0.2210 -1.8753
  674MPD2    H210029   0.333   0.056  17.713 -1.5824 -0.8400  2.5260
  674MPD2    H310030   0.273   0.258  17.608 -0.1758  0.2517 -0.9790
  674MPD2     N10031   4.604   0.077  17.498 -0.6757  0.6486 -0.1788
  674MPD2    H510032   4.565   4.724  17.468 -0.5999  0.6678 -0.3370
  674MPD2    N110033   0.207   4.571  17.731  0.1201  0.5511 -0.2453
  674MPD2    H710034   0.296   4.585   0.038  0.2816 -0.5121 -0.2465
  675TMC3    C110035   0.226   4.352   0.062 -0.1376  0.0571 -0.3300
  675TMC3    C210036   0.209   4.222   0.037 -0.2434 -0.7734 -0.6794
  675TMC3    C310037   0.278   4.134   0.118 -0.5688 -0.3478 -0.7157
  675TMC3    C410038   0.285   4.400   0.171  0.3396  0.0630 -0.1631
  675TMC3    C510039   0.355   4.314   0.248  0.3202 -0.1607  0.0979
  675TMC3    C610040   0.342   4.176   0.230 -0.1314 -0.4576 -0.2793
  675TMC3     C10041   0.158   4.447  17.712 -0.1885  0.0383 -0.1894
  675TMC3     O10042   0.067   4.398  17.643 -0.6854  0.3175 -0.0340
  675TMC3     H10043   0.179   4.192  17.678 -0.7292  0.3199 -0.8588
  675TMC3    H110044   0.277   4.505   0.196  2.4857 -0.2256  1.7740
  675TMC3    H210045   0.387   4.104   0.297 -1.2465  0.0876  1.0458
  675TMC3    C710046   0.427   4.364   0.361 -0.7046  0.8450 -0.3894
  675TMC3    C810047   0.318   4.001   0.065 -0.8594 -1.1038  0.0738
  675TMC3    O110048   0.425   4.297   0.461  0.1429 -0.8959 -0.2620
  675TMC3    O210049   0.435   3.973   0.045  0.2869  0.3970  0.3684
  676MPD2     C10050   3.145   2.511  11.181  0.4135 -0.4977  0.4214
  676MPD2    C110051   3.056   2.459  11.270 -0.5268  0.0252  0.0593
  676MPD2    C210052   2.981   2.351  11.242  0.0484 -0.1842  0.0675
  676MPD2    C310053   2.997   2.286  11.126 -0.3678 -0.6859  0.4681
  676MPD2    C410054   3.073   2.348  11.028 -0.4552 -0.4668 -0.1562
  676MPD2    C510055   3.144   2.458  11.055 -0.4336  0.0677  0.1034
  676MPD2     H10056   2.908   2.321  11.315 -1.4176  0.4371 -1.1340
  676MPD2    H110057   3.082   2.294  10.935  0.7135 -0.6211  0.0419
  676MPD2    H210058   3.209   2.596  11.200  0.3063 -0.2829 -0.1876
  676MPD2    H310059   3.212   2.493  10.979 -0.3061  2.6832  1.4086
  676MPD2     N10060   2.933   2.168  11.097  0.1971 -0.0786  0.0133
  676MPD2    H510061   2.969   2.132  11.010  0.4388  0.1140  0.0331
  676MPD2    N110062   3.022   2.527  11.388  0.1005 -0.2146 -0.1691
  676MPD2    H710063   2.944   2.483  11.434  1.1199 -1.4317  0.4032
  677TMC3    C110064   3.002   2.693  11.552 -1.1172 -0.4261  0.1909
  677TMC3    C210065   2.885   2.629  11.581  0.2568 -0.3184  0.1315
  677TMC3    C310066   2.808   2.690  11.679 -0.2343  0.5341  0.2807
  677TMC3    C410067   3.064   2.797  11.627  0.0950 -0.5002 -0.2414
  677TMC3    C510068   2.987   2.836  11.736 -0.0938  0.7293  0.1816
  677TMC3    C610069   2.857   2.791  11.754  0.2444 -0.1941  0.4476
  677TMC3     C10070   3.069   2.652  11.429 -0.0084  0.5336 -0.6371
  677TMC3     O10071   3.176   2.707  11.403  0.3186 -0.1075 -0.5610
  677TMC3     H10072   2.831   2.565  11.512 -1.2542  1.1582 -0.0708
  677TMC3    H110073   3.165   2.826  11.602  0.5447 -0.5323  1.5340
  677TMC3    H210074   2.788   2.842  11.821  0.5862  1.0371 -0.1396
  677TMC3    C710075   3.017   2.951  11.814 -0.3484  0.1201  0.6313
  677TMC3    C810076   2.684   2.621  11.718  0.0477 -0.2021 -0.3697
  677TMC3    O110077   2.921   3.021  11.853 -0.7211 -0.1609  0.3326
  677TMC3    O210078   2.605   2.583  11.632 -0.0388 -0.4113 -0.4727
  678MPD2     C10079   3.663   2.296   1.226  0.0577  0.1255 -0.0654
  678MPD2    C110080   3.628   2.244   1.106 -0.7321 -0.7269 -0.1868
  678MPD2    C210081   3.502   2.265   1.056 -0.9450  0.4542  0.2636
  678MPD2    C310082   3.413   2.355   1.124  0.1491 -0.1531  1.2510
  678MPD2    C410083   3.449   2.415   1.238 -0.4919 -0.5453 -0.1293
  678MPD2    C510084   3.577   2.392   1.285  0.1564 -0.1880  0.0602
  678MPD2     H10085   3.475   2.227   0.958 -0.7998 -1.4510  0.9651
  678MPD2    H110086   3.390   2.490   1.290  2.7018  0.8591  1.4656
  678MPD2    H210087   3.763   2.277   1.264  1.6359 -1.3097 -4.9478
  678MPD2    H310088   3.613   2.441   1.375  1.2318  1.4567 -1.2692
  678MPD2     N10089   3.294   2.383   1.054  0.4941 -0.5296 -0.0950
  678MPD2    H510090   3.282   2.340   0.963  0.3253  1.2266 -0.8930
  678MPD2    N110091   3.717   2.179   1.026 -0.1839 -0.3149  0.0331
  678MPD2    H710092   3.700   2.186   0.927 -1.5594  1.1659  0.3630
  679TMC3    C110093   4.123   1.995   0.892  0.1369 -0.8956 -0.1177
  679TMC3    C210094   4.044   2.034   0.999 -0.0279  0.3292 -0.6697
  679TMC3    C310095   3.943   2.121   0.972 -0.3424 -0.2562 -0.1902
  679TMC3    C410096   4.088   2.028   0.766  0.3704  0.1657 -0.1053
  679TMC3    C510097   3.991   2.118   0.739  0.3858 -0.3915  0.3957
  679TMC3    C610098   3.919   2.166   0.840 -0.0066  0.3768 -0.2472
  679TMC3     C10099   4.263   1.999   0.913  0.8250  0.3025  0.6502
  679TMC3     O10100   4.330   2.043   0.820 -0.5047  0.1100 -0.2807
  679TMC3     H10101   4.076   2.009   1.099 -1.6664  0.1763 -0.1991
  679TMC3    H110102   4.135   1.977   0.683 -0.7763 -0.3925 -0.4140
  679TMC3    H210103   3.845   2.241   0.816 -0.7844 -0.6055 -0.9064
  679TMC3    C710104   4.028   2.218   0.640 -0.4830 -0.3711  0.1072
  679TMC3    C810105   3.841   2.130   1.069 -0.5519 -0.3474  0.7040
  679TMC3    O110106   3.962   2.320   0.636  0.2263  0.0360 -0.2578
  679TMC3    O210107   3.870   2.084   1.175 -0.5435  0.0869  0.0895
  680MPD2     C10108   0.205   1.336  13.714 -0.2384 -0.4383  0.0153
  680MPD2    C110109   0.280   1.263  13.803  0.2274  0.3695 -0.2360
  680MPD2    C210110   0.397   1.318  13.853 -0.2206 -0.3996 -0.4683
  680MPD2    C310111   0.428   1.449  13.813  0.1409  0.2494 -0.6328
  680MPD2    C410112   0.346   1.521  13.729 -0.2860  0.2787 -0.8504
  680MPD2    C510113   0.228   1.465  13.682 -0.4407 -0.2277 -0.3557
  680MPD2     H10114   0.467   1.255  13.907 -1.0036 -0.7056  0.1754
  680MPD2    H110115   0.383   1.618  13.697  2.3331 -0.5839 -0.4462
  680MPD2    H210116   0.123   1.293  13.658 -0.5897  1.3032 -0.7960
  680MPD2    H310117   0.169   1.517  13.608  1.8283 -0.2210 -2.1371
  680MPD2     N10118   0.549   1.514  13.847 -0.0703  0.3445 -0.4454
  680MPD2    H510119   0.571   1.603  13.802  1.7312 -0.0330 -0.3243
  680MPD2    N110120   0.257   1.126  13.816  0.5270  0.0271 -0.0372
  680MPD2    H710121   0.332   1.075  13.861  0.7791  0.4097 -0.0173
  681TMC3    C110122   0.186   0.908  13.768  0.0896 -0.0889 -0.1619
  681TMC3    C210123   0.080   0.822  13.781 -0.3745  0.1748  0.4731
  681TMC3    C310124   0.113   0.694  13.800 -0.0355  0.0113 -0.2336
  681TMC3    C410125   0.319   0.867  13.757 -0.0193 -0.2703 -0.3094
  681TMC3    C510126   0.342   0.732  13.772 -0.7843  0.0815  0.0224
  681TMC3    C610127   0.242   0.647  13.800 -0.1549  0.1248  0.3704
  681TMC3     C10128   0.154   1.053  13.775 -0.1448 -0.4624  0.1010
  681TMC3     O10129   0.051   1.082  13.711  0.2994  0.3033  0.4791
  681TMC3     H10130   4.718   0.865  13.801 -0.1887  0.7975  0.0325
  681TMC3    H110131   0.405   0.931  13.746  0.0055  0.1980  2.5797
  681TMC3    H210132   0.266   0.546  13.834  1.2369  0.4852  0.4698
  681TMC3    C710133   0.475   0.674  13.754  0.3950  0.7676 -0.2464
  681TMC3    C810134   0.026   0.626  13.895 -0.3248  0.1019  0.0725
  681TMC3    O110135   0.514   0.583  13.829  0.0156  0.4908 -0.5601
  681TMC3    O210136   4.640   0.647  13.876  0.2609  0.4765 -0.2631
  682MPD2     C10137   2.057   2.354  10.796 -0.0454  0.2563 -0.2586
  682MPD2    C110138   1.977   2.241  10.791  0.2238 -0.1475 -0.4270
  682MPD2    C210139   1.940   2.183  10.914 -0.7707  1.4013 -0.0304
  682MPD2    C310140   2.003   2.235  11.034  0.1223 -0.6421  0.3699
  682MPD2    C410141   2.091   2.339  11.027 -0.1377  0.3132  0.4557
  682MPD2    C510142   2.110   2.401  10.911  0.7526  0.3155 -0.2371
  682MPD2     H10143   1.875   2.097  10.910 -0.3170  1.0550  0.0419
  682MPD2    H110144   2.145   2.374  11.114 -1.1759 -1.2568  1.7288
  682MPD2    H210145   2.088   2.399  10.702 -0.1322  0.8164 -0.0179
  682MPD2    H310146   2.180   2.484  10.912  2.5817 -1.2334  1.7704
  682MPD2     N10147   1.985   2.177  11.165 -0.5897 -0.1735  0.2846
  682MPD2    H510148   2.030   2.220  11.245 -0.7653 -1.5591  1.1248
  682MPD2    N110149   1.936   2.178  10.668 -0.7853 -0.4762 -0.0988
  682MPD2    H710150   1.859   2.114  10.688 -0.7587 -0.4686  0.0309
  683TMC3    C110151   1.952   2.059  11.562 -1.2403 -0.1324  0.6540
  683TMC3    C210152   1.873   1.959  11.599 -0.3683  0.5471  0.0614
  683TMC3    C310153   1.800   1.902  11.501  0.2345  0.0059  0.3545
  683TMC3    C410154   1.972   2.091  11.431 -0.4080 -0.0732 -0.4272
  683TMC3    C510155   1.893   2.034  11.334 -0.3109 -0.4048  0.6003
  683TMC3    C610156   1.801   1.934  11.367  0.2306  0.2297  1.0403
  683TMC3     C10157   2.069   2.092  11.648 -0.3141  0.1668  0.2703
  683TMC3     O10158   2.148   2.004  11.669 -0.0729  0.7162 -0.0298
  683TMC3     H10159   1.863   1.935  11.704  1.0596 -1.7837 -0.3283
  683TMC3    H110160   2.055   2.158  11.412 -0.0717 -0.4884 -0.4211
  683TMC3    H210161   1.731   1.893  11.295  1.4595 -0.6191  0.3341
  683TMC3    C710162   1.904   2.069  11.191  0.0777 -0.0254  0.7578
  683TMC3    C810163   1.705   1.806  11.553 -0.3222  0.2736 -0.4325
  683TMC3    O110164   1.826   2.006  11.120 -0.3285  1.0629  0.0729
  683TMC3    O210165   1.652   1.833  11.662 -0.2241  0.1838 -0.0754
  684MPD2     C10166   0.004   2.286  16.592 -0.4580  0.0610  0.1381
  684MPD2    C110167   4.700   2.330  16.470  0.0540 -0.0541  0.0494
  684MPD2    C210168   4.675   2.466  16.449  0.1566  0.1640 -0.1125
  684MPD2    C310169   4.687   2.556  16.554  0.5421 -0.1312 -0.2730
  684MPD2    C410170   4.711   2.509  16.678 -0.0071 -0.1672 -0.7149
  684MPD2    C510171   0.000   2.374  16.690  0.9174  0.1112  0.1663
  684MPD2     H10172   4.648   2.504  16.351  1.0807 -2.2422 -1.2928
  684MPD2    H110173   4.722   2.571  16.766  1.0603  0.3824 -1.2386
  684MPD2    H210174   0.018   2.179  16.606 -1.1638  0.1846  1.7270
  684MPD2    H310175   0.023   2.334  16.788  0.0404 -1.1680 -0.1481
  684MPD2     N10176   4.686   2.698  16.541  0.2225 -0.1705  0.1693
  684MPD2    H510177   4.717   2.755  16.619 -1.7942 -1.2534  1.7578
  684MPD2    N110178   4.704   2.257  16.354 -0.3021 -0.0583 -0.3625
  684MPD2    H710179   4.669   2.291  16.265  0.1810  1.3209 -0.0215
  685TMC3    C110180   0.065   2.084  16.219  0.3656 -0.2382 -0.2582
  685TMC3    C210181   4.705   2.123  16.132  0.3166  0.5718 -0.0638
  685TMC3    C310182   4.727   2.086  16.001  1.5005 -0.4629  0.0811
  685TMC3    C410183   0.189   2.034  16.186  0.0505  0.6422 -0.9021
  685TMC3    C510184   0.208   2.024  16.049 -0.1877  0.0381  0.3843
  685TMC3    C610185   0.115   2.049  15.956 -0.2495 -0.4891 -0.7046
  685TMC3     C10186   0.047   2.140  16.354  0.7795  0.3995 -0.4465
  685TMC3     O10187   0.136   2.107  16.435  0.6413  0.2455  0.2900
  685TMC3     H10188   4.610   2.164  16.161  1.0881  1.4339  1.2168
  685TMC3    H110189   0.247   1.985  16.262 -0.2337  3.3357  1.0438
  685TMC3    H210190   0.128   2.040  15.849  1.5015 -0.3190 -0.5174
  685TMC3    C710191   0.341   2.034  16.009  0.0865 -0.0611  0.4555
  685TMC3    C810192   4.621   2.116  15.905 -0.9031 -0.1889  0.3018
  685TMC3    O110193   0.357   2.034  15.887 -0.0696  0.2840  0.0070
  685TMC3    O210194   4.653   2.134  15.788 -0.3727 -0.1476  0.4648
  686MPD2     C10195   1.727   2.654  15.793 -0.8327 -0.6611  0.3535
  686MPD2    C110196   1.738   2.520  15.840 -0.2066  0.1794  0.2867
  686MPD2    C210197   1.832   2.433  15.791  0.0928 -0.0039 -0.1437
  686MPD2    C310198   1.921   2.472  15.688 -0.8797 -0.4176  0.6348
  686MPD2    C410199   1.920   2.607  15.648 -0.2069  0.9245 -0.5589
  686MPD2    C510200   1.832   2.692  15.709  0.2628  0.3279  0.0033
  686MPD2     H10201   1.849   2.334  15.832  1.4249  1.0151  1.7368
  686MPD2    H110202   1.977   2.644  15.564 -0.6691 -1.5103 -1.9312
  686MPD2    H210203   1.652   2.724  15.828  0.7541  1.9113 -1.4082
  686MPD2    H310204   1.832   2.797  15.679  0.6306 -0.0989 -1.4868
  686MPD2     N10205   2.017   2.391  15.618  0.0174  0.0767 -0.1645
  686MPD2    H510206   2.085   2.447  15.567 -1.6808  0.6567 -1.7745
  686MPD2    N110207   1.638   2.483  15.935 -0.9271  0.7189 -0.9244
  686MPD2    H710208   1.578   2.553  15.979  0.3447  0.9693  0.4160
  687TMC3    C110209   1.938   2.168  15.675  0.2172 -0.0534  0.3863
  687TMC3    C210210   1.811   2.175  15.619 -0.8751 -0.3478 -0.5715
  687TMC3    C310211   1.729   2.071  15.645 -0.4185 -0.7805  0.2660
  687TMC3    C410212   1.975   2.056  15.739 -0.5295  0.0351 -0.0578
  687TMC3    C510213   1.894   1.952  15.754 -0.0531  0.3718  0.4113
  687TMC3    C610214   1.765   1.963  15.719 -0.7321  0.3570  0.0517
  687TMC3     C10215   2.047   2.258  15.637  0.7689  1.0902 -0.5435
  687TMC3     O10216   2.151   2.202  15.607  0.1311 -0.1807  0.2651
  687TMC3     H10217   1.784   2.251  15.547 -0.7093  0.6518  0.4259
  687TMC3    H110218   2.075   2.057  15.779 -0.7000 -0.9347  0.3957
  687TMC3    H210219   1.694   1.895  15.765  1.7658 -1.0979  1.7302
  687TMC3    C710220   1.903   1.877  15.880  0.3210  0.1512  0.9682
  687TMC3    C810221   1.588   2.080  15.639  0.8305  0.0528  0.3365
  687TMC3    O110222   1.887   1.952  15.977  0.0673 -0.7067 -0.3343
  687TMC3    O210223   1.521   1.983  15.631  0.4243 -0.0637 -0.5091
  688MPD2     C10224   0.519   1.341  17.231 -0.3223 -0.4942 -0.5329
  688MPD2    C110225   0.541   1.207  17.265  0.3900  0.4407  0.1163
  688MPD2    C210226   0.608   1.141  17.172  0.1773 -0.3312 -0.4415
  688MPD2    C310227   0.666   1.193  17.058  0.1126  0.0750 -1.1754
  688MPD2    C410228   0.661   1.325  17.042  0.2587 -0.6650  0.0874
  688MPD2    C510229   0.581   1.394  17.122 -0.5765  0.2279 -0.3156
  688MPD2     H10230   0.632   1.036  17.187 -1.4803 -0.7492 -0.6691
  688MPD2    H110231   0.703   1.369  16.953 -1.3628 -2.6056 -1.6293
  688MPD2    H210232   0.457   1.406  17.292  0.3930  0.3360 -0.6988
  688MPD2    H310233   0.576   1.502  17.110  1.0048  0.3275 -0.1175
  688MPD2     N10234   0.751   1.123  16.967  0.0068  0.5609  0.5232
  688MPD2    H510235   0.784   1.178  16.888  0.1369  4.2576  3.1896
  688MPD2    N110236   0.500   1.141  17.389 -0.1562 -0.6864  0.0156
  688MPD2    H710237   0.509   1.041  17.404  2.4450 -0.4836 -0.0933
  689TMC3    C110238   0.428   1.145  17.613  0.5477  0.3520 -0.6129
  689TMC3    C210239   0.470   1.222  17.721  0.0885  1.0601 -0.3917
  689TMC3    C310240   0.533   1.157   0.083 -0.1995  0.6050 -0.1208
  689TMC3    C410241   0.443   1.009  17.614  0.5048 -0.6693  0.0588
  689TMC3    C510242   0.486   0.946  17.731 -0.3650  0.0520 -0.0098
  689TMC3    C610243   0.535   1.018   0.093  0.3907 -0.5630  0.4151
  689TMC3     C10244   0.435   1.213  17.487 -0.5589 -0.2606  0.3253
  689TMC3     O10245   0.407   1.331  17.482 -0.6397 -0.3855  0.0914
  689TMC3     H10246   0.457   1.329  17.709 -0.9761  0.9113 -0.6372
  689TMC3    H110247   0.412   0.959  17.523 -0.9557  1.7869 -0.7771
  689TMC3    H210248   0.577   0.964   0.177  0.6371  1.0743  1.3461
  689TMC3    C710249   0.552   0.825  17.712  0.3923  0.5286  0.0802
  689TMC3    C810250   0.570   1.227   0.206 -0.2487  0.3120  0.9672
  689TMC3    O110251   0.654   0.810   0.036  0.4907 -0.5644 -0.3975
  689TMC3    O210252   0.640   1.169   0.288 -0.1647 -0.1779 -0.1353
  690MPD2     C10253   2.732   2.974  15.735  0.3193  0.7191 -0.4398
  690MPD2    C110254   2.690   2.857  15.678 -0.1922  0.4122  0.9773
  690MPD2    C210255   2.774   2.792  15.590  0.3953 -0.1449 -0.3915
  690MPD2    C310256   2.904   2.830  15.568 -0.3025  0.1389 -0.0890
  690MPD2    C410257   2.937   2.949  15.626  0.1395 -0.4195 -0.3089
  690MPD2    C510258   2.851   3.027  15.703  0.2187 -0.7163 -0.1125
  690MPD2     H10259   2.735   2.706  15.537 -0.3825 -0.1024  0.1098
  690MPD2    H110260   3.038   2.986  15.615  0.8862 -1.9060  1.6258
  690MPD2    H210261   2.670   3.035  15.800  1.9255 -1.9244  3.5354
  690MPD2    H310262   2.884   3.113  15.762  1.6014 -0.7804 -0.7949
  690MPD2     N10263   2.986   2.746  15.487  0.2938 -0.5292  0.6985
  690MPD2    H510264   2.952   2.662  15.442 -0.9217  0.8286 -0.9204
  690MPD2    N110265   2.557   2.809  15.699 -0.6953  0.2520  0.1707
  690MPD2    H710266   2.535   2.716  15.665  0.3946 -0.0468  0.2575
  691TMC3    C110267   2.340   2.787  15.790 -0.5119 -0.2755  0.1448
  691TMC3    C210268   2.236   2.842  15.857 -0.3635 -0.0568 -0.3082
  691TMC3    C310269   2.146   2.756  15.912  0.1279 -0.2315  0.5344
  691TMC3    C410270   2.360   2.652  15.792 -0.5599  0.5608  0.1793
  691TMC3    C510271   2.267   2.570  15.850  0.5345  0.4472 -0.3866
  691TMC3    C610272   2.156   2.616  15.904 -0.0794 -0.1026 -0.0963
  691TMC3     C10273   2.455   2.875  15.768  0.2321  0.5093  0.1417
  691TMC3     O10274   2.443   2.988  15.816  0.8405  0.0875  0.8323
  691TMC3     H10275   2.236   2.949  15.873 -0.9893  0.0550 -1.0470
  691TMC3    H110276   2.443   2.606  15.739  0.2653 -0.3402  2.2649
  691TMC3    H210277   2.075   2.551  15.935  2.1083 -2.7287  0.0399
  691TMC3    C710278   2.303   2.430  15.874 -0.0705 -0.2107 -0.7650
  691TMC3    C810279   2.033   2.794  15.985  0.9937 -0.4825  0.2868
  691TMC3    O110280   2.364   2.375  15.788 -0.1074 -0.1581 -0.3819
  691TMC3    O210281   1.982   2.715  16.063 -0.3035  0.4605 -0.1816
  692TMC3    C110282   4.295   3.509  15.642  0.4249 -0.7260 -0.8188
  692TMC3    C210283   4.279   3.582  15.529 -0.7122 -0.1152 -0.3649
  692TMC3    C310284   4.375   3.593  15.433 -0.1147  0.3890 -0.6646
  692TMC3    C410285   4.416   3.453  15.669  0.2414 -0.3062 -0.1009
  692TMC3    C510286   4.518   3.469  15.573 -0.1740  0.1514 -0.8723
  692TMC3    C610287   4.492   3.520  15.451  0.4697 -0.2029 -0.2700
  692TMC3     C10288   4.208   3.530  15.753 -0.0675  0.1171  0.0350
  692TMC3     O10289   4.245   3.532  15.870  0.5444  0.1273 -0.2696
  692TMC3     H10290   4.205   3.662  15.534 -0.8175 -0.0930 -2.1480
  692TMC3    H110291   4.430   3.408  15.767  2.3408 -1.3195 -0.8587
  692TMC3    H210292   4.579   3.534  15.388 -0.0693  1.0233 -0.7319
  692TMC3    C710293   4.617   3.361  15.571 -0.0915  0.3963  0.1135
  692TMC3    C810294   4.395   3.729  15.426  1.1265 -0.3948  0.0458
  692TMC3    O110295   4.635   3.306  15.468  0.2256  0.8040  0.4499
  692TMC3    O210296   4.310   3.788  15.360 -0.6097 -0.5120 -0.0303
  693MPD2     C10297   4.332   1.058  10.672 -0.1664 -0.3237 -0.7580
  693MPD2    C110298   4.279   0.979  10.775 -0.1542  0.0338  0.0154
  693MPD2    C210299   4.364   0.911  10.862  0.1343  0.1415  0.6523
  693MPD2    C310300   4.501   0.906  10.835  0.0438  0.1052 -0.0480
  693MPD2    C410301   4.549   0.970  10.724 -0.2263  0.1088 -0.3201
  693MPD2    C510302   4.467   1.047  10.650 -0.3721  0.4697 -0.0707
  693MPD2     H10303   4.331   0.836  10.933 -0.4990 -0.3411 -0.1458
  693MPD2    H110304   4.656   0.960  10.714 -0.3694 -0.7643 -0.9724
  693MPD2    H210305   4.269   1.111  10.602 -0.2095 -1.0882 -1.2939
  693MPD2    H310306   4.515   1.096  10.566  0.3529 -3.1854 -1.8042
  693MPD2     N10307   4.589   0.831  10.905  0.2188  0.4320  0.5381
  693MPD2    H510308   4.681   0.820  10.862  0.0470 -0.5448  0.4275
  693MPD2    N110309   4.136   0.969  10.790 -0.1343  0.6493 -0.1466
  693MPD2    H710310   4.101   0.913  10.867 -0.0606  1.7609  0.6939
  694TMC3    C110311   3.910   0.991  10.759 -0.7908 -0.3669 -0.3293
  694TMC3    C210312   3.807   0.984  10.669  0.8017  0.0050 -0.5900
  694TMC3    C310313   3.682   0.970  10.726 -0.1880  0.0403  0.3502
  694TMC3    C410314   3.896   0.987  10.895  0.0051 -0.3369  0.2448
  694TMC3    C510315   3.767   0.984  10.943 -0.2978 -0.3817  0.8743
  694TMC3    C610316   3.658   0.968  10.861 -0.1052  1.2392 -1.2824
  694TMC3     C10317   4.041   1.010  10.702 -0.6650  0.8407  0.2251
  694TMC3     O10318   4.049   1.056  10.584 -0.2555  0.0285 -0.1256
  694TMC3     H10319   3.829   0.971  10.563 -2.6942  1.2726 -1.4438
  694TMC3    H110320   3.980   1.000  10.962  0.0998  0.5172 -0.0360
  694TMC3    H210321   3.558   0.954  10.900  1.4234 -0.2401  2.1387
  694TMC3    C710322   3.734   0.999  11.078 -0.3332  1.3154 -0.0978
  694TMC3    C810323   3.566   0.975  10.639 -0.7510 -0.1745 -0.7683
  694TMC3    O110324   3.798   1.079  11.145  0.0650 -0.1513 -0.9171
  694TMC3    O210325   3.464   0.926  10.688  0.0834 -0.0893 -0.0115
  695MPD2     C10326   0.085   2.849  13.752  0.1531  0.0362 -0.1033
  695MPD2    C110327   0.091   2.957  13.839  0.5191 -0.4185  0.0552
  695MPD2    C210328   4.715   3.030  13.876  0.3638 -0.0238  0.4200
  695MPD2    C310329   4.596   3.004  13.823 -0.2018 -0.0398  0.2913
  695MPD2    C410330   4.590   2.901  13.734  0.1132  0.4255  0.1036
  695MPD2    C510331   4.699   2.823  13.707 -0.1282 -0.8295  0.7188
  695MPD2     H10332   4.720   3.111  13.947  2.4976 -0.3062  0.5835
  695MPD2    H110333   4.501   2.875  13.678 -0.1108 -0.0668  0.6871
  695MPD2    H210334   0.167   2.786  13.720 -0.3676 -0.9121  0.4284
  695MPD2    H310335   4.682   2.737  13.644 -0.6290  0.2007 -0.5486
  695MPD2     N10336   4.489   3.098  13.851  0.2784 -0.1722 -0.0647
  695MPD2    H510337   4.523   3.186  13.889 -1.5004  0.1588  0.7417
  695MPD2    N110338   0.209   3.008  13.882 -0.3822  0.1980  0.6799
  695MPD2    H710339   0.204   3.101  13.924  0.6904  1.1898 -1.3479
  696TMC3    C110340   4.297   3.223  13.855  0.1917 -0.3204 -0.5432
  696TMC3    C210341   4.328   3.258  13.983 -0.4131 -0.0753 -0.0462
  696TMC3    C310342   4.260   3.365  14.036 -0.9199  0.3253 -0.1827
  696TMC3    C410343   4.203   3.287  13.778 -0.0056 -1.2595 -0.4614
  696TMC3    C510344   4.143   3.395  13.837  0.2726  0.6772  0.1349
  696TMC3    C610345   4.170   3.432  13.965  0.1703  0.4184 -0.0236
  696TMC3     C10346   4.363   3.110  13.800  0.6432  0.3053 -1.0592
  696TMC3     O10347   4.303   3.050  13.715 -0.7607  0.4048 -0.4443
  696TMC3     H10348   4.410   3.216  14.041 -0.9094 -0.7475  0.1556
  696TMC3    H110349   4.183   3.263  13.674 -0.6829  0.3857 -0.6977
  696TMC3    H210350   4.103   3.508  14.006  0.1907 -0.3820  1.4726
  696TMC3    C710351   4.110   3.502  13.748  0.2873 -0.1476  0.4534
  696TMC3    C810352   4.334   3.460  14.115  0.2936  0.2167  0.1612
  696TMC3    O110353   4.081   3.476  13.629  0.2045 -0.7598  0.0774
  696TMC3    O210354   4.313   3.577  14.081  0.0991 -0.2673 -0.1911
  697MPD2     C10355   4.308   0.863  15.857  0.9766 -0.0676  0.1328
  697MPD2    C110356   4.331   0.784  15.742 -0.3652  0.8367 -0.6174
  697MPD2    C210357   4.363   0.837  15.624  0.1951  0.6092 -0.1660
  697MPD2    C310358   4.353   0.973  15.611  0.8978 -0.3125  0.3844
  697MPD2    C410359   4.324   1.056  15.714  0.6353 -0.0736  0.3286
  697MPD2    C510360   4.302   1.000  15.840 -0.4721 -0.3504 -0.3018
  697MPD2     H10361   4.395   0.775  15.541  0.6139  0.3811  0.1682
  697MPD2    H110362   4.334   1.163  15.703 -0.6100 -0.1502 -1.6289
  697MPD2    H210363   4.304   0.817  15.955 -3.9821 -0.3958 -0.2442
  697MPD2    H310364   4.271   1.059  15.926 -1.1589 -1.4872  0.2177
  697MPD2     N10365   4.380   1.020  15.480 -0.6293  0.2811 -0.0437
  697MPD2    H510366   4.384   0.949  15.407  0.5672  0.3189 -0.0112
  697MPD2    N110367   4.340   0.641  15.747  0.1514 -0.4821 -0.2889
  697MPD2    H710368   4.352   0.601  15.655 -0.3996 -3.3305  0.9024
  698TMC3    C110369   4.437   1.166  15.305  0.2613 -0.2181  0.7137
  698TMC3    C210370   4.513   1.282  15.274  0.1695 -0.0937  0.5335
  698TMC3    C310371   4.539   1.303  15.144  0.0335  0.8863 -0.5113
  698TMC3    C410372   4.410   1.068  15.212 -0.3857 -0.3800  0.0192
  698TMC3    C510373   4.451   1.093  15.080  0.1550  0.0952 -0.1281
  698TMC3    C610374   4.515   1.208  15.048 -0.0799  0.0188  0.2694
  698TMC3     C10375   4.418   1.147  15.448 -0.0148 -0.0508 -0.8238
  698TMC3     O10376   4.430   1.249  15.518 -0.1334  0.5655  0.6784
  698TMC3     H10377   4.545   1.352  15.351 -0.1288 -0.9830  1.4599
  698TMC3    H110378   4.340   0.992  15.243 -1.6908 -0.2333 -2.5717
  698TMC3    H210379   4.544   1.220  14.944  0.3640  0.0080  0.3915
  698TMC3    C710380   4.435   0.978  14.986 -0.1612 -0.1890  0.0472
  698TMC3    C810381   4.579   1.436  15.102  0.1022 -0.2300 -0.3739
  698TMC3    O110382   4.349   0.896  15.014 -0.8921  0.2341  0.6093
  698TMC3    O210383   4.636   1.508  15.186  0.1199 -0.4189 -0.5481
  699TMC3    C110384   4.379   3.566  13.173 -0.2856  0.2744  0.6811
  699TMC3    C210385   4.398   3.433  13.210 -0.4143 -0.5078 -0.4773
  699TMC3    C310386   4.295   3.374  13.290 -0.2980 -0.1582 -0.4483
  699TMC3    C410387   4.263   3.644  13.207 -0.2326  0.7947  0.3410
  699TMC3    C510388   4.170   3.583  13.285  0.2946  0.5837 -0.2443
  699TMC3    C610389   4.183   3.446  13.326  0.6420  0.1368  0.8594
  699TMC3     C10390   4.464   3.630  13.069 -0.2567 -0.0934  0.0041
  699TMC3     O10391   4.463   3.750  13.081  0.0413 -0.2169  0.2727
  699TMC3     H10392   4.482   3.372  13.180 -0.1105  1.0429 -2.7838
  699TMC3    H110393   4.235   3.735  13.155  0.4755  1.3594  0.9520
  699TMC3    H210394   4.106   3.394  13.382  1.0938  0.8175  2.1228
  699TMC3    C710395   4.040   3.638  13.293 -0.6005  0.5529  0.0607
  699TMC3    C810396   4.269   3.229  13.286 -0.5268 -0.0349 -0.4798
  699TMC3    O110397   4.017   3.748  13.237  0.5655 -0.4498  0.4921
  699TMC3    O210398   4.153   3.202  13.278 -0.4244  0.2502  0.1959
  700TMC3    C110399   2.991   1.005  17.266  0.1543  0.2643  0.8017
  700TMC3    C210400   3.084   0.907  17.259 -0.2373  0.2832  0.1305
  700TMC3    C310401   3.155   0.875  17.368  0.0603 -0.4531 -0.0047
  700TMC3    C410402   2.978   1.082  17.383 -0.2391  0.9755  0.4063
  700TMC3    C510403   3.060   1.057  17.491  0.9686 -0.0635 -0.0715
  700TMC3    C610404   3.147   0.950  17.484  0.7702  0.2107 -0.2344
  700TMC3     C10405   2.960   1.077  17.153 -0.3965  0.2123 -0.4364
  700TMC3     O10406   2.849   1.064  17.105  0.4103 -0.4569 -0.4327
  700TMC3     H10407   3.089   0.845  17.171 -0.0444  0.7980 -0.2187
  700TMC3    H110408   2.909   1.165  17.386 -0.7346  0.6139 -1.0727
  700TMC3    H210409   3.219   0.933  17.563 -1.0478 -4.7122  0.3435
  700TMC3    C710410   3.111   1.166  17.571 -0.1486  0.1210  0.0031
  700TMC3    C810411   3.244   0.765  17.360  0.0409  0.1157  0.1251
  700TMC3    O110412   3.234   1.164  17.593  0.0763 -0.3145  0.2284
  700TMC3    O210413   3.348   0.774  17.420  0.0901  0.2645  0.5353
  701TMC3    C110414   3.071   4.214  16.099 -0.0334 -0.1286 -0.1135
  701TMC3    C210415   3.154   4.118  16.051 -0.0633  0.1962  0.3686
  701TMC3    C310416   3.235   4.156  15.954 -0.7706  0.1169  0.2517
  701TMC3    C410417   3.075   4.346  16.064  0.3028 -0.0319  0.3999
  701TMC3    C510418   3.157   4.374  15.963  0.3460 -0.7719  0.0330
  701TMC3    C610419   3.241   4.281  15.902 -0.0976  0.3094  0.1979
  701TMC3     C10420   2.969   4.186  16.203 -0.1987  0.7065  0.0569
  701TMC3     O10421   2.887   4.275  16.222 -1.1024 -0.4092 -0.4509
  701TMC3     H10422   3.143   4.014  16.079  0.1216  1.0217  3.4365
  701TMC3    H110423   3.015   4.415  16.122  0.2493  0.9189 -0.7975
  701TMC3    H210424   3.320   4.316  15.837  1.2342 -0.1869  1.5324
  701TMC3    C710425   3.186   4.515  15.935 -0.4431 -0.2575  0.0564
  701TMC3    C810426   3.317   4.050  15.892 -0.4965  0.3384 -1.2996
  701TMC3    O110427   3.260   4.532  15.842  0.3727 -0.0069  0.1387
  701TMC3    O210428   3.345   3.955  15.958  0.1903  0.0400 -0.5062
  702MPD2     C10429   3.247   1.646  10.767  0.3168  0.8246 -0.0105
  702MPD2    C110430   3.204   1.772  10.797  0.2409  0.7243  0.1629
  702MPD2    C210431   3.276   1.887  10.763  0.1788 -0.1349  0.0917
  702MPD2    C310432   3.395   1.865  10.701 -0.2837  0.1363  0.0493
  702MPD2    C410433   3.446   1.737  10.680  0.3833  0.5315  0.0273
  702MPD2    C510434   3.361   1.630  10.698 -0.0802  0.2497 -0.3145
  702MPD2     H10435   3.243   1.990  10.777  0.1886 -0.0668 -0.4082
  702MPD2    H110436   3.539   1.719  10.627 -0.5935 -0.1320 -1.4621
  702MPD2    H210437   3.183   1.560  10.786  0.9922  0.2988 -0.1206
  702MPD2    H310438   3.386   1.530  10.666 -0.0612  0.5174 -1.1393
  702MPD2     N10439   3.459   1.982  10.657  0.3028 -0.1528 -0.4795
  702MPD2    H510440   3.405   2.068  10.666 -0.5280 -0.8724  1.3258
  702MPD2    N110441   3.083   1.801  10.864 -0.1978 -0.1885 -0.4087
  702MPD2    H710442   3.069   1.901  10.879 -2.1726 -0.5141 -0.0442
  703TMC3    C110443   3.635   2.107  10.553  0.0266  0.4895  0.6033
  703TMC3    C210444   3.543   2.197  10.498 -0.1773  0.3047  0.0913
  703TMC3    C310445   3.592   2.312  10.448  0.0708  0.8050 -0.2667
  703TMC3    C410446   3.771   2.138  10.568 -0.0312 -0.0305  0.0167
  703TMC3    C510447   3.804   2.265  10.527  0.1089  0.0383 -0.1856
  703TMC3    C610448   3.722   2.347  10.452  0.4446  0.5219  0.4376
  703TMC3     C10449   3.590   1.983  10.602  0.1203 -0.2825  0.2035
  703TMC3     O10450   3.683   1.899  10.612  0.2720 -1.0230 -0.2290
  703TMC3     H10451   3.441   2.162  10.492 -0.9655  2.3626  1.3074
  703TMC3    H110452   3.843   2.064  10.602 -0.7443 -1.0230 -0.6583
  703TMC3    H210453   3.745   2.448  10.421  1.3771  0.3259  0.4675
  703TMC3    C710454   3.934   2.325  10.561 -0.3560 -0.9643  0.0911
  703TMC3    C810455   3.493   2.399  10.386 -0.1837  0.1998 -0.5729
  703TMC3    O110456   3.959   2.434  10.505  0.6061 -0.2273 -0.3128
  703TMC3    O210457   3.530   2.467  10.293 -0.3546  0.0427 -0.0617
  704TMC3    C110458   0.783   4.573  12.629  0.2045 -0.1041  0.8669
  704TMC3    C210459   0.908   4.609  12.596 -0.3239  0.1327 -0.1978
  704TMC3    C310460   1.005   4.511  12.596 -0.6183 -0.6998  0.4063
  704TMC3    C410461   0.743   4.454  12.670  0.3716 -0.7652 -0.0502
  704TMC3    C510462   0.841   4.356  12.661 -0.0790 -0.0758  0.1195
  704TMC3    C610463   0.972   4.382  12.622 -0.1541 -0.4669  0.1195
  704TMC3     C10464   0.674   4.655  12.583 -0.2486  0.1931  0.1473
  704TMC3     O10465   0.571   4.640  12.651  0.1697  0.0334  0.5296
  704TMC3     H10466   0.930   4.715  12.582 -0.4833  0.3089  0.8971
  704TMC3    H110467   0.641   4.421  12.686 -1.1325  3.4251 -1.1942
  704TMC3    H210468   1.048   4.305  12.626 -1.0348 -1.4084 -1.2082
  704TMC3    C710469   0.799   4.227  12.692  0.2461 -0.5016  0.0071
  704TMC3    C810470   1.111   4.525  12.504 -0.0524  0.0492  0.2899
  704TMC3    O110471   0.696   4.209  12.758  0.2781  0.3782  0.0019
  704TMC3    O210472   1.162   4.423  12.452  0.2389  1.1337  0.1363
  705MPD2     C10473   4.713   3.384  16.745 -0.8394  0.6019  0.8679
  705MPD2    C110474   4.677   3.508  16.695  0.1058 -0.1774 -0.0280
  705MPD2    C210475   4.556   3.562  16.729 -0.5956 -0.5214 -0.0459
  705MPD2    C310476   4.468   3.489  16.802 -0.3330  0.2315 -0.1728
  705MPD2    C410477   4.498   3.361  16.842  0.3517 -1.0549 -0.5806
  705MPD2    C510478   4.625   3.314  16.823  0.1966 -0.0688 -0.2908
  705MPD2     H10479   4.537   3.659  16.684 -1.9932 -1.6465 -1.8738
  705MPD2    H110480   4.433   3.299  16.903  1.4612 -2.5655 -0.9266
  705MPD2    H210481   0.075   3.341  16.723 -0.7174 -0.0728  2.7381
  705MPD2    H310482   4.645   3.210  16.848  0.6496 -0.1822 -1.1102
  705MPD2     N10483   4.330   3.529  16.818 -0.3768 -0.2307  0.0245
  705MPD2    H510484   4.263   3.463  16.856 -1.5432  0.5791 -0.6382
  705MPD2    N110485   0.015   3.580  16.604  0.0067 -0.0794  0.3053
  705MPD2    H710486   4.723   3.676  16.585 -1.6213 -0.4854  0.6227
  706TMC3    C110487   0.389   3.644  16.304  0.1714 -0.3150 -0.3253
  706TMC3    C210488   0.341   3.764  16.272 -0.5663  0.4591  0.2692
  706TMC3    C310489   0.230   3.814  16.340  0.2433  0.0719  1.0182
  706TMC3    C410490   0.318   3.554  16.389  0.5995  0.0493  0.2789
  706TMC3    C510491   0.204   3.609  16.447  0.4087 -0.6016 -1.2756
  706TMC3    C610492   0.157   3.738  16.427  0.1580 -0.1711  0.1622
  706TMC3     C10493   0.497   3.584  16.230 -0.6091 -0.1824 -0.5901
  706TMC3     O10494   0.539   3.481  16.285 -1.0375 -0.0673 -0.0046
  706TMC3     H10495   0.397   3.824  16.201  0.0670  3.0995  3.0054
  706TMC3    H110496   0.349   3.452  16.408 -0.2354 -0.1826  0.3816
  706TMC3    H210497   0.075   3.777  16.486  0.7579  0.4503  0.5923
  706TMC3    C710498   0.135   3.529  16.543 -0.0428 -0.2764 -0.9423
  706TMC3    C810499   0.203   3.950  16.317 -0.5414  0.0561 -0.4645
  706TMC3    O110500   0.198   3.425  16.571  0.2047  0.2764 -0.0289
  706TMC3    O210501   0.222   3.988  16.202  0.5483 -0.2611  0.0319
  707TMC3    C110502   2.204   2.387   1.287  0.5376 -0.0075 -0.0576
  707TMC3    C210503   2.273   2.323   1.382 -0.3145  0.1508  0.4665
  707TMC3    C310504   2.253   2.357   1.512 -0.8883  0.4608  0.4541
  707TMC3    C410505   2.114   2.485   1.315  0.2084  0.3543 -0.4948
  707TMC3    C510506   2.101   2.521   1.448 -0.1255  0.0651 -0.2299
  707TMC3    C610507   2.168   2.455   1.548 -0.3008  0.3474  0.1607
  707TMC3     C10508   2.177   2.318   1.168  0.7550 -0.2009 -0.0998
  707TMC3     O10509   2.170   2.197   1.175  0.6319  0.3908 -0.3682
  707TMC3     H10510   2.345   2.245   1.358 -0.7519  0.8473 -3.0272
  707TMC3    H110511   2.061   2.537   1.236 -2.8332  1.5458  2.3164
  707TMC3    H210512   2.154   2.472   1.654 -0.8285  0.9734 -0.0108
  707TMC3    C710513   1.988   2.602   1.474 -0.6817 -0.3619  0.4049
  707TMC3    C810514   2.325   2.301   1.623 -0.3848 -0.0828 -0.4804
  707TMC3    O110515   1.932   2.647   1.375 -0.0997 -0.3400 -0.4138
  707TMC3    O210516   2.330   2.374   1.724 -0.3148  0.5974  0.1917
  708MPD2     C10517   3.296   1.261  13.936  0.0948  0.4904  0.1989
  708MPD2    C110518   3.224   1.368  13.990 -0.3204  0.7689 -0.2161
  708MPD2    C210519   3.145   1.336  14.096 -0.0792  0.2357  0.3162
  708MPD2    C310520   3.148   1.215  14.168 -0.7622  0.0494 -0.2975
  708MPD2    C410521   3.237   1.122  14.118  0.6506  0.0847  0.7092
  708MPD2    C510522   3.299   1.140  14.000 -0.4486 -0.1234  0.5135
  708MPD2     H10523   3.071   1.406  14.132 -1.3202 -0.1085 -1.5612
  708MPD2    H110524   3.244   1.026  14.167 -0.1976 -0.8193 -0.9559
  708MPD2    H210525   3.349   1.255  13.842 -0.7677  2.1563 -0.3958
  708MPD2    H310526   3.348   1.055  13.955  0.2900  0.6094 -0.0875
  708MPD2     N10527   3.089   1.186  14.295  0.1161  0.1885 -0.3200
  708MPD2    H510528   3.112   1.103  14.349  0.0210  0.9745  0.9368
  708MPD2    N110529   3.237   1.506  13.936  0.0815  0.2701 -0.2068
  708MPD2    H710530   3.269   1.515  13.840 -0.6308 -1.6616 -0.6306
  709TMC3    C110531   3.150   1.730  13.897 -0.0067 -0.1830 -0.2042
  709TMC3    C210532   3.080   1.686  13.791  0.6061  0.5156 -0.6368
  709TMC3    C310533   2.966   1.751  13.751  0.2127 -0.0663  0.8140
  709TMC3    C410534   3.104   1.842  13.962  0.3190 -0.4741 -0.8984
  709TMC3    C510535   2.983   1.901  13.929  0.3476  0.2768 -0.0753
  709TMC3    C610536   2.915   1.854  13.822 -0.5299 -0.2346 -0.5935
  709TMC3     C10537   3.181   1.621  13.990  0.8182 -1.0887  0.0087
  709TMC3     O10538   3.149   1.639  14.108 -0.0981  0.7092 -0.2839
  709TMC3     H10539   3.111   1.589  13.756 -1.8201 -0.1850 -0.8812
  709TMC3    H110540   3.170   1.896  14.029 -0.7892 -1.4236  0.9570
  709TMC3    H210541   2.808   1.869  13.808 -0.5524  0.3850  0.2072
  709TMC3    C710542   2.905   1.930  14.048 -0.2060  0.7130 -0.3287
  709TMC3    C810543   2.892   1.692  13.643 -0.0686 -0.8795  0.5547
  709TMC3    O110544   2.807   2.004  14.033 -0.2816 -0.3725  0.3634
  709TMC3    O210545   2.774   1.723  13.631 -0.1679 -0.2735 -0.3361
  710TMC3    C110546   3.933   3.000   0.350 -0.0533 -0.7911 -0.3200
  710TMC3    C210547   3.990   3.050   0.241 -0.3974  0.2201  0.0452
  710TMC3    C310548   4.056   2.961   0.158 -0.2723 -0.1887  0.4691
  710TMC3    C410549   3.938   2.865   0.383 -0.4535 -0.2474  0.3673
  710TMC3    C510550   4.009   2.782   0.303 -0.2730  0.9512 -0.0475
  710TMC3    C610551   4.068   2.832   0.194 -0.4093  0.0106  0.1386
  710TMC3     C10552   3.902   3.087   0.465 -0.9930  0.1072 -0.2064
  710TMC3     O10553   3.846   3.028   0.557  0.3296  0.0419 -0.2382
  710TMC3     H10554   3.993   3.155   0.211 -2.5242  0.3838  0.4559
  710TMC3    H110555   3.900   2.829   0.477 -1.7939 -0.4875 -0.2744
  710TMC3    H210556   4.127   2.768   0.130  0.7952  0.7152  0.5496
  710TMC3    C710557   4.054   2.655   0.358 -0.4045  0.4099 -0.5222
  710TMC3    C810558   4.174   3.018   0.096 -0.0582 -0.5891  0.6763
  710TMC3    O110559   3.997   2.619   0.459 -0.4712 -0.0219  0.2924
  710TMC3    O210560   4.279   2.955   0.119  0.0402  0.0774 -0.5027
  711TMC3    C110561   4.043   4.391  14.876  0.4777  0.3434  0.1125
  711TMC3    C210562   4.049   4.461  14.990  0.7315 -0.5307  0.0647
  711TMC3    C310563   4.163   4.461  15.069  0.0006  0.1324  0.3492
  711TMC3    C410564   4.155   4.334  14.823  0.8424  0.2341 -1.0011
  711TMC3    C510565   4.266   4.324  14.903  0.2199  0.3008  0.6527
  711TMC3    C610566   4.273   4.389  15.028  0.4471  1.0411 -0.3542
  711TMC3     C10567   3.936   4.301  14.867  0.4534 -0.1807 -0.6332
  711TMC3     O10568   3.936   4.224  14.770 -0.1916 -0.2261 -0.2980
  711TMC3     H10569   3.958   4.514  15.015  0.0077 -1.4713 -0.5919
  711TMC3    H110570   4.156   4.287  14.725  0.8481  0.2567 -1.0120
  711TMC3    H210571   4.353   4.372  15.099  0.4034  3.3347  0.2300
  711TMC3    C710572   4.318   4.186  14.915 -0.4647  0.0526  0.2527
  711TMC3    C810573   4.131   4.468  15.209  0.4364  0.5790  0.6868
  711TMC3    O110574   4.412   4.173  14.988 -0.5966  0.2568  0.3699
  711TMC3    O210575   4.011   4.452  15.230 -0.3861 -0.2644  0.4285
  712MPD2     C10576   1.466   0.045  13.788  0.2573 -0.1458 -0.2313
  712MPD2    C110577   1.352   0.111  13.841  0.5807  0.2010 -0.5934
  712MPD2    C210578   1.344   0.252  13.815  0.0431  0.2530  0.1062
  712MPD2    C310579   1.433   0.319  13.742 -0.8051  0.2854 -0.0047
  712MPD2    C410580   1.539   0.251  13.692 -0.4135  0.7943  0.3651
  712MPD2    C510581   1.558   0.118  13.718 -0.5307  0.1973 -0.1039
  712MPD2     H10582   1.261   0.305  13.860  0.0449  0.8419 -0.5835
  712MPD2    H110583   1.614   0.295  13.627 -1.7167  1.3335 -0.7880
  712MPD2    H210584   1.487   4.674  13.796  2.4062  0.4986  2.8664
  712MPD2    H310585   1.643   0.059  13.684  0.0011  0.9125 -0.0130
  712MPD2     N10586   1.413   0.455  13.719 -0.1575 -0.4629  0.3907
  712MPD2    H510587   1.495   0.499  13.677  0.9727 -1.6947  1.3128
  712MPD2    N110588   1.257   0.054  13.922  0.5855  0.3323 -0.0739
  712MPD2    H710589   1.200   0.116  13.978 -1.7110  0.6725 -2.7603
  713TMC3    C110590   1.309   0.671  13.693 -0.1362 -0.2668 -0.1531
  713TMC3    C210591   1.432   0.718  13.659 -0.1862 -0.3454  0.1503
  713TMC3    C310592   1.433   0.827  13.575 -0.0587  0.5103 -0.2244
  713TMC3    C410593   1.195   0.737  13.660  0.2379 -0.5586  0.3519
  713TMC3    C510594   1.205   0.849  13.578  0.4930 -0.3084 -0.0505
  713TMC3    C610595   1.324   0.898  13.534 -0.4161 -0.0979  0.2054
  713TMC3     C10596   1.300   0.535  13.743  0.1665 -0.4287 -0.4310
  713TMC3     O10597   1.193   0.499  13.787  0.4603 -0.4470  0.2834
  713TMC3     H10598   1.520   0.681  13.708  0.5752 -1.3567 -1.9827
  713TMC3    H110599   1.099   0.704  13.699  0.7801  0.2886  2.3805
  713TMC3    H210600   1.341   0.968  13.454  1.7198  0.2873  0.9874
  713TMC3    C710601   1.097   0.944  13.592  0.0144 -0.6085 -0.3998
  713TMC3    C810602   1.552   0.900  13.555  0.1063  0.3812 -0.0573
  713TMC3    O110603   0.991   0.909  13.646  0.4762 -0.3999 -0.0784
  713TMC3    O210604   1.540   1.016  13.521  0.1270  0.3535 -0.1934
  714MPD2     C10605   3.280   4.190   0.912  0.2834 -0.4398  0.0577
  714MPD2    C110606   3.242   4.083   0.993  0.4722 -0.2563  0.2514
  714MPD2    C210607   3.104   4.057   1.008  0.0347 -0.3953  0.2049
  714MPD2    C310608   3.007   4.143   0.953 -0.6579 -0.4597  0.0875
  714MPD2    C410609   3.054   4.246   0.878  0.2985  0.3474 -0.3958
  714MPD2    C510610   3.190   4.275   0.861 -0.4807 -0.3823  0.1442
  714MPD2     H10611   3.058   3.970   1.055  1.9935 -1.5144  0.0354
  714MPD2    H110612   2.992   4.316   0.822 -1.4164 -0.8007  0.0448
  714MPD2    H210613   3.383   4.220   0.896 -0.3977  1.7991 -0.1162
  714MPD2    H310614   3.223   4.360   0.803  0.3067  0.4481  1.8200
  714MPD2     N10615   2.869   4.104   0.956 -0.0662  0.3011 -0.6711
  714MPD2    H510616   2.844   4.017   1.003  0.7244  0.7856  0.6429
  714MPD2    N110617   3.344   4.002   1.050  0.8262 -1.1327  0.1783
  714MPD2    H710618   3.438   4.039   1.044  1.1251 -2.3526 -2.4961
  715TMC3    C110619   3.440   3.807   1.166 -0.7055 -0.4669  0.1581
  715TMC3    C210620   3.426   3.665   1.181 -0.2606 -0.0267  0.7191
  715TMC3    C310621   3.532   3.595   1.239 -0.2538  0.5191  0.2532
  715TMC3    C410622   3.554   3.874   1.210  0.8426  0.1768  0.5425
  715TMC3    C510623   3.649   3.802   1.278  0.6996  0.1784  0.2706
  715TMC3    C610624   3.645   3.666   1.274 -0.3708  0.6924  0.5492
  715TMC3     C10625   3.327   3.884   1.109 -0.1433  0.0252 -0.6386
  715TMC3     O10626   3.221   3.823   1.116  0.4846  0.1390 -0.8354
  715TMC3     H10627   3.348   3.603   1.139  0.1571 -0.0182 -0.0750
  715TMC3    H110628   3.556   3.982   1.212 -0.2525  0.2418 -2.6468
  715TMC3    H210629   3.729   3.619   1.324  0.1308  1.2045  0.1787
  715TMC3    C710630   3.762   3.867   1.334 -0.3610 -0.4791  0.2108
  715TMC3    C810631   3.544   3.452   1.223 -0.1133 -0.3843  0.0363
  715TMC3    O110632   3.850   3.795   1.390  0.5050 -0.1940  0.0666
  715TMC3    O210633   3.461   3.403   1.149 -0.3767 -0.3877 -0.0776
  716MPD2     C10634   2.933   1.394   9.651 -0.3947  0.0066  0.0728
  716MPD2    C110635   2.862   1.513   9.653  0.5055 -0.6330  0.3313
  716MPD2    C210636   2.761   1.532   9.563  0.3132  0.3226 -0.4192
  716MPD2    C310637   2.750   1.445   9.458 -0.0529 -0.7197 -0.0964
  716MPD2    C410638   2.823   1.326   9.457  0.3350 -0.0782 -0.4583
  716MPD2    C510639   2.911   1.306   9.555  0.1707  0.3167  0.0862
  716MPD2     H10640   2.699   1.620   9.555 -0.2077  0.0476  0.6384
  716MPD2    H110641   2.810   1.249   9.382 -1.6788 -1.2348  1.0712
  716MPD2    H210642   3.004   1.372   9.730 -2.8097 -0.8901  1.9970
  716MPD2    H310643   2.970   1.215   9.559  1.8223  1.1774 -4.1095
  716MPD2     N10644   2.662   1.476   9.354  0.6005 -0.5923  0.3044
  716MPD2    H510645   2.645   1.574   9.336 -1.0841 -1.1099 -0.8317
  716MPD2    N110646   2.893   1.605   9.751  0.6209 -0.3794 -0.2165
  716MPD2    H710647   2.984   1.589   9.793  0.0133 -0.5574  1.0256
  717TMC3    C110648   2.609   1.441   9.133 -0.2951  0.9458 -0.9089
  717TMC3    C210649   2.490   1.422   9.064  0.1118  0.4161 -0.5194
  717TMC3    C310650   2.467   1.502   8.955  0.3926 -0.2306 -0.3132
  717TMC3    C410651   2.694   1.542   9.104  0.2495 -0.3481  0.7703
  717TMC3    C510652   2.673   1.612   8.983  0.3523 -0.9106  0.0593
  717TMC3    C610653   2.556   1.600   8.909 -0.3416 -0.6439  0.4449
  717TMC3     C10654   2.614   1.384   9.265 -0.8436  0.4385 -0.6606
  717TMC3     O10655   2.570   1.269   9.277 -0.4010  0.3482 -0.0327
  717TMC3     H10656   2.425   1.341   9.096  0.5865 -0.1301 -0.9278
  717TMC3    H110657   2.780   1.555   9.168  1.5336  1.7979 -1.3797
  717TMC3    H210658   2.536   1.667   8.826 -1.0161 -1.7521 -0.2791
  717TMC3    C710659   2.782   1.674   8.911 -0.5216  1.3681 -0.1181
  717TMC3    C810660   2.327   1.497   8.909  0.3931 -0.9218 -0.1507
  717TMC3    O110661   2.759   1.725   8.803  0.5929  0.2708 -0.0580
  717TMC3    O210662   2.250   1.435   8.981 -0.0601 -0.3494  0.5953
  718MPD2     C10663   2.937   4.649  13.044 -0.5780  0.8381  0.2522
  718MPD2    C110664   2.863   4.629  12.928  0.4472 -0.7150  0.1234
  718MPD2    C210665   2.725   4.606  12.937 -0.1214 -0.2718  0.1335
  718MPD2    C310666   2.657   4.598  13.054 -0.0630  0.3464 -0.2424
  718MPD2    C410667   2.724   4.638  13.168  0.3175 -0.5332 -0.5492
  718MPD2    C510668   2.865   4.651  13.163  0.3394 -0.2163 -0.2539
  718MPD2     H10669   2.677   4.592  12.841 -0.2941 -1.4095  0.3881
  718MPD2    H110670   2.674   4.624  13.264  0.7342  1.8608  0.0019
  718MPD2    H210671   3.043   4.671  13.038 -0.5835  0.8554  0.2227
  718MPD2    H310672   2.921   4.682  13.251 -0.0583 -0.6114  0.1355
  718MPD2     N10673   2.523   4.562  13.047  0.6951 -0.2521  0.4559
  718MPD2    H510674   2.482   4.574  12.955  1.1506  0.6555  0.3765
  718MPD2    N110675   2.926   4.627  12.803 -0.0484 -0.2858  0.2435
  718MPD2    H710676   3.024   4.651  12.796 -0.1643  0.2372  0.3907
  719TMC3    C110677   2.952   4.588  12.567  0.0783 -1.0512 -0.4398
  719TMC3    C210678   2.880   4.518  12.465  0.7104 -0.3517  0.3318
  719TMC3    C310679   2.872   4.562  12.334  0.3503 -0.3958  0.6070
  719TMC3    C410680   3.003   4.714  12.546 -0.8717  0.1057 -0.6369
  719TMC3    C510681   2.978   0.028  12.422 -0.4069 -0.4010 -0.6693
  719TMC3    C610682   2.918   4.691  12.315  0.8485 -0.0057 -0.7845
  719TMC3     C10683   2.880   4.562  12.688  0.5069 -0.4713  0.0632
  719TMC3     O10684   2.781   4.493  12.662 -0.1898  0.5658 -0.4054
  719TMC3     H10685   2.857   4.412  12.473  0.5987 -0.4677 -1.4577
  719TMC3    H110686   3.035   0.038  12.630 -0.8510 -0.2222 -0.4120
  719TMC3    H210687   2.895   0.003  12.220 -2.0053  1.2675  0.5506
  719TMC3    C710688   3.066   0.137  12.377 -0.0850  0.0220  0.2383
  719TMC3    C810689   2.729   4.551  12.296  0.4344 -0.3410 -1.1732
  719TMC3    O110690   3.061   0.161  12.258 -0.1223  0.2801  0.2066
  719TMC3    O210691   2.696   4.580  12.181  0.0566 -0.2115 -0.2159
  720MPD2     C10692   0.693   2.504  14.116 -0.5627  0.3504  0.1663
  720MPD2    C110693   0.796   2.509  14.021 -0.2547 -0.8278  0.4361
  720MPD2    C210694   0.925   2.497  14.069  0.4216  0.8399  0.5878
  720MPD2    C310695   0.950   2.501  14.206 -0.5276 -0.2164 -0.2351
  720MPD2    C410696   0.843   2.500  14.301  0.5750  1.0476  0.5812
  720MPD2    C510697   0.716   2.491  14.250 -0.6902 -0.5364  0.2507
  720MPD2     H10698   1.009   2.507  14.002  0.2836 -0.2010  0.2446
  720MPD2    H110699   0.854   2.508  14.408 -2.3410 -0.1217  0.9498
  720MPD2    H210700   0.589   2.492  14.086 -0.5642  1.8259 -0.4222
  720MPD2    H310701   0.633   2.472  14.317  0.2385  1.8877  2.0683
  720MPD2     N10702   1.084   2.501  14.244 -0.3584 -0.0753 -0.4145
  720MPD2    H510703   1.148   2.473  14.170 -1.4991  0.0238 -1.4496
  720MPD2    N110704   0.763   2.519  13.880  0.5173  0.1482 -0.0935
  720MPD2    H710705   0.665   2.533  13.858  0.0408 -0.5959  1.4984
  721TMC3    C110706   1.274   2.517  14.374 -0.2653  0.5209 -0.6288
  721TMC3    C210707   1.331   2.571  14.485  0.3072 -0.2094  0.5473
  721TMC3    C310708   1.466   2.587  14.486  0.2108 -0.0304 -0.0470
  721TMC3    C410709   1.353   2.469  14.271  0.1018 -0.3758 -0.1621
  721TMC3    C510710   1.485   2.479  14.284  0.3809  0.2110  0.9426
  721TMC3    C610711   1.545   2.539  14.389  0.2721  0.3723  0.0821
  721TMC3     C10712   1.131   2.520  14.370  0.0843  0.3782  0.1978
  721TMC3     O10713   1.075   2.555  14.473  0.8232 -0.3013  0.3153
  721TMC3     H10714   1.272   2.633  14.552 -2.1677 -0.6053 -1.3177
  721TMC3    H110715   1.314   2.418  14.184 -0.1215 -0.2016 -0.1644
  721TMC3    H210716   1.652   2.534  14.407  0.0607 -1.6659  0.7982
  721TMC3    C710717   1.562   2.394  14.195  0.0736  0.2550  0.5604
  721TMC3    C810718   1.541   2.651  14.591 -0.2656 -0.1184 -0.4204
  721TMC3    O110719   1.526   2.380  14.076  0.2262  0.1518  0.1865
  721TMC3    O210720   1.653   2.681  14.564  0.4745 -0.4467  0.2321
  722MPD2     C10721   0.188   0.657  13.444 -0.2492 -0.2331 -0.3839
  722MPD2    C110722   0.109   0.764  13.412 -0.1368  0.0475 -0.4362
  722MPD2    C210723   4.710   0.749  13.387  0.2229 -0.4090  0.4089
  722MPD2    C310724   4.651   0.625  13.402  0.5338 -0.2820  0.5119
  722MPD2    C410725   4.725   0.516  13.430 -0.6409 -0.6475 -0.3373
  722MPD2    C510726   0.125   0.531  13.445 -0.3413  0.2751 -0.1266
  722MPD2     H10727   4.651   0.840  13.377 -0.8453 -1.1195  0.1738
  722MPD2    H110728   4.680   0.419  13.446  0.0107 -1.1604 -1.6744
  722MPD2    H210729   0.294   0.664  13.462  0.0219 -2.2614 -1.2234
  722MPD2    H310730   0.171   0.439  13.480 -0.0148  0.8131  0.8536
  722MPD2     N10731   4.509   0.627  13.386  0.2293 -0.2195  0.2189
  722MPD2    H510732   4.469   0.716  13.361 -3.0371 -1.9761 -0.8221
  722MPD2    N110733   0.165   0.897  13.405  0.5315 -0.0595  0.1926
  722MPD2    H710734   0.095   0.971  13.406 -0.9156 -1.4202 -0.8478
  723TMC3    C110735   4.298   0.553  13.434  0.8405  0.6299  0.3613
  723TMC3    C210736   4.206   0.451  13.437 -0.3431 -0.0248  0.4814
  723TMC3    C310737   4.091   0.461  13.517 -0.6385  0.3440  0.5397
  723TMC3    C410738   4.281   0.670  13.517  0.2399 -0.1645  0.6842
  723TMC3    C510739   4.167   0.670  13.596 -0.3457 -0.0788  0.3422
  723TMC3    C610740   4.073   0.568  13.593  0.4272  0.4125  0.4191
  723TMC3     C10741   4.430   0.518  13.394 -0.0491 -0.7578 -0.2950
  723TMC3     O10742   4.458   0.401  13.377 -0.3641 -0.0365 -0.0164
  723TMC3     H10743   4.218   0.359  13.382 -1.3953 -0.4037  0.8887
  723TMC3    H110744   4.354   0.749  13.527 -0.4072  0.4707  0.3490
  723TMC3    H210745   3.981   0.571  13.652 -1.2573  1.2879 -2.2648
  723TMC3    C710746   4.122   0.789  13.664 -0.5821  0.3898  0.5631
  723TMC3    C810747   3.972   0.381  13.491  0.6396  0.0138  0.1365
  723TMC3    O110748   4.180   0.894  13.636 -0.2105  0.7054 -0.3159
  723TMC3    O210749   3.910   0.355  13.595  0.1216 -0.0419 -0.3282
  724TMC3    C110750   0.624   3.360   9.818  0.3421  0.1206  0.9671
  724TMC3    C210751   0.567   3.470   9.879  0.1340 -0.2905 -0.0578
  724TMC3    C310752   0.627   3.587   9.849  0.0805  0.2412  0.1492
  724TMC3    C410753   0.746   3.367   9.747 -0.3607  0.0037 -0.0689
  724TMC3    C510754   0.795   3.490   9.714 -0.3130 -0.9740  0.0690
  724TMC3    C610755   0.742   3.601   9.775  0.0825  0.2085 -0.1352
  724TMC3     C10756   0.578   3.233   9.867 -0.5454 -0.9519  0.4488
  724TMC3     O10757   0.670   3.151   9.872  0.4006  0.4500 -0.0928
  724TMC3     H10758   0.462   3.464   9.906 -0.3379 -2.0945 -2.3330
  724TMC3    H110759   0.786   3.277   9.702  1.9636  0.6922  0.6154
  724TMC3    H210760   0.793   3.696   9.761  1.7156 -0.3925  1.7269
  724TMC3    C710761   0.916   3.496   9.635  0.4050  0.2228  0.1742
  724TMC3    C810762   0.561   3.696   9.914 -0.0944  0.1332  0.6061
  724TMC3    O110763   0.983   3.398   9.629  0.4049 -0.3503 -0.4875
  724TMC3    O210764   0.476   3.662   9.998  0.6212 -0.7241  0.5909
  725TMC3    C110765   1.977   2.320  12.394 -0.2803 -0.4047  0.3668
  725TMC3    C210766   1.852   2.345  12.340 -0.3812 -0.0271  0.0259
  725TMC3    C310767   1.777   2.236  12.313  0.0839 -0.1085  0.3991
  725TMC3    C410768   2.021   2.193  12.405  0.1636  0.4240  0.3497
  725TMC3    C510769   1.933   2.094  12.386  0.4830  0.6594  0.2424
  725TMC3    C610770   1.804   2.109  12.346  0.0282 -0.8498 -0.7202
  725TMC3     C10771   2.030   2.433  12.463  1.5446 -0.1348 -0.0852
  725TMC3     O10772   1.993   2.548  12.448  0.4844 -0.2215  0.0593
  725TMC3     H10773   1.826   2.446  12.311  2.0350  0.0057 -2.0123
  725TMC3    H110774   2.121   2.164  12.435 -0.0660  1.6545  2.3342
  725TMC3    H210775   1.720   2.042  12.355 -0.6408  0.2263  1.0270
  725TMC3    C710776   1.965   1.952  12.412  0.8017 -0.3509 -0.5089
  725TMC3    C810777   1.639   2.261  12.296 -0.4304  0.5742 -0.2746
  725TMC3    O110778   2.081   1.928  12.447  0.1961 -0.5966 -0.2121
  725TMC3    O210779   1.548   2.194  12.352  0.0777 -0.6117  0.0575
  726MPD2     C10780   4.226   3.601  10.269 -0.0970  0.7640 -0.2175
  726MPD2    C110781   4.099   3.658  10.257 -0.2754  0.4432  0.5227
  726MPD2    C210782   3.999   3.566  10.267  0.1639  0.0433 -0.2573
  726MPD2    C310783   4.015   3.429  10.295 -0.1119  0.5910 -0.4166
  726MPD2    C410784   4.138   3.377  10.272 -0.4416  0.8805 -0.6419
  726MPD2    C510785   4.238   3.467  10.269  0.1593  0.2270  0.2770
  726MPD2     H10786   3.896   3.601  10.268 -0.4621 -1.7714 -2.5882
  726MPD2    H110787   4.162   3.273  10.287  1.1472  0.9489 -2.8111
  726MPD2    H210788   4.315   3.663  10.266 -0.6080  1.4178 -2.1366
  726MPD2    H310789   4.338   3.429  10.253  0.1701  0.6028 -0.5629
  726MPD2     N10790   3.915   3.346  10.348 -0.0626  0.3159 -0.1632
  726MPD2    H510791   3.942   3.252  10.374  0.5351  0.3591 -0.6228
  726MPD2    N110792   4.071   3.797  10.233  0.4493  0.4054  0.5175
  726MPD2    H710793   3.978   3.810  10.197  0.0290  1.0616  1.8245
  727TMC3    C110794   4.134   4.038  10.218 -0.0411 -0.6631 -0.0426
  727TMC3    C210795   4.226   4.139  10.247  0.1258 -0.5852 -0.5979
  727TMC3    C310796   4.195   4.273  10.243  0.9060  0.0387  0.2826
  727TMC3    C410797   4.007   4.075  10.176  0.5789  0.1278  0.3613
  727TMC3    C510798   3.981   4.214  10.150 -0.6576  0.6364 -0.1413
  727TMC3    C610799   4.071   4.311  10.192  0.0884  0.4773 -0.1047
  727TMC3     C10800   4.171   3.901  10.255 -0.0065  0.8353  0.2284
  727TMC3     O10801   4.284   3.885  10.298  0.5860  0.3207  0.1266
  727TMC3     H10802   4.329   4.110  10.264  1.4280  2.9515 -2.4491
  727TMC3    H110803   3.932   4.001  10.151  0.7907 -0.4927  1.5940
  727TMC3    H210804   4.040   4.412  10.169 -3.3946 -0.7340 -0.6573
  727TMC3    C710805   3.845   4.254  10.107 -0.0048  0.3052 -0.1220
  727TMC3    C810806   4.301   4.367  10.264  0.2952 -0.3122  0.3869
  727TMC3    O110807   3.822   4.374  10.097 -0.0834 -0.1601 -0.3519
  727TMC3    O210808   4.398   4.325  10.318 -0.2532 -0.5068  0.3173
  728TMC3    C110809   3.171   2.674  15.388 -0.5028  0.0119  0.1036
  728TMC3    C210810   3.304   2.648  15.420  0.4105 -0.4440 -0.0363
  728TMC3    C310811   3.397   2.662  15.322  0.1550 -0.0606 -0.4791
  728TMC3    C410812   3.139   2.708  15.262  0.1621 -0.1912 -0.1084
  728TMC3    C510813   3.233   2.717  15.167  0.3463  0.3729  0.5787
  728TMC3    C610814   3.365   2.706  15.196  0.2775  0.1699  0.3892
  728TMC3     C10815   3.116   2.760  15.483  0.0993 -0.4699  0.0633
  728TMC3     O10816   3.190   2.847  15.525 -0.2131  0.2233  0.5370
  728TMC3     H10817   3.325   2.635  15.525  0.8168  0.8481  0.0440
  728TMC3    H110818   3.036   2.736  15.244  0.0452 -1.2864 -1.1104
  728TMC3    H210819   3.452   2.714  15.133 -0.2600  0.1343 -0.3533
  728TMC3    C710820   3.183   2.771  15.045  0.2215  0.0329  0.6215
  728TMC3    C810821   3.532   2.617  15.338  0.1891  0.1600 -0.3420
  728TMC3    O110822   3.073   2.734  15.016  0.8757  0.1371 -0.1087
  728TMC3    O210823   3.591   2.568  15.242 -0.0178  0.1705  0.5240
  729MPD2     C10824   0.652   3.761  16.498 -0.1183  0.2028  0.0740
  729MPD2    C110825   0.636   3.896  16.495  0.8185  0.2488  0.1191
  729MPD2    C210826   0.542   3.947  16.580 -0.7468 -0.2106  0.1650
  729MPD2    C310827   0.487   3.886  16.688  0.0533  0.3306 -0.6467
  729MPD2    C410828   0.514   3.752  16.701  0.3466 -0.1876  0.3328
  729MPD2    C510829   0.591   3.690  16.600  1.0020 -0.3287 -0.1293
  729MPD2     H10830   0.529   4.054  16.567  2.4145  0.2759  1.0656
  729MPD2    H110831   0.470   3.690  16.779  0.0606 -2.1644 -1.4083
  729MPD2    H210832   0.727   3.709  16.440 -1.1104 -1.9805  0.7385
  729MPD2    H310833   0.614   3.584  16.603  2.5517 -0.0656 -2.6583
  729MPD2     N10834   0.403   3.935  16.790 -0.1284 -0.3843  0.0037
  729MPD2    H510835   0.369   3.871  16.862 -1.6033 -0.2394 -0.5612
  729MPD2    N110836   0.715   3.974  16.407 -0.5881  0.8509  0.1142
  729MPD2    H710837   0.771   3.916  16.345 -1.4111 -2.7597  2.7737
  730TMC3    C110838   0.303   4.112  16.923  0.1719  0.4740 -0.2014
  730TMC3    C210839   0.405   4.089  17.019 -0.4010  0.3077  0.7782
  730TMC3    C310840   0.466   4.199  17.080 -0.7513  0.1258 -1.0012
  730TMC3    C410841   0.255   4.237  16.901  0.1001  0.3953 -0.1309
  730TMC3    C510842   0.321   4.334  16.963  0.4936 -0.0718  0.4101
  730TMC3    C610843   0.422   4.322  17.052 -0.9147  0.0828  0.7217
  730TMC3     C10844   0.350   4.061  16.790  0.1871 -0.2663 -0.5041
  730TMC3     O10845   0.344   4.134  16.698 -0.8897  0.2673  0.0478
  730TMC3     H10846   0.453   3.992  17.026  1.3251  0.9633 -2.0763
  730TMC3    H110847   0.190   4.262  16.817 -0.5040 -0.7633 -0.0077
  730TMC3    H210848   0.458   4.408  17.107  2.0906 -0.0385 -1.0227
  730TMC3    C710849   0.299   4.472  16.923  0.5013 -0.1699 -1.4993
  730TMC3    C810850   0.587   4.169  17.157 -0.7034 -0.0610  0.3124
  730TMC3    O110851   0.401   4.538  16.916  0.9165 -0.5266  0.0357
  730TMC3    O210852   0.642   4.066  17.128  0.0883 -0.2726 -0.2392
  731MPD2     C10853   0.789   1.932  12.357 -0.0965  0.5516 -0.5609
  731MPD2    C110854   0.921   1.973  12.393 -0.4408 -0.0788  1.0450
  731MPD2    C210855   0.951   2.028  12.515 -0.0764 -0.3065 -0.2363
  731MPD2    C310856   0.848   2.054  12.603  0.3803  0.2348  0.2173
  731MPD2    C410857   0.717   2.025  12.561  0.3590  0.1275 -0.3832
  731MPD2    C510858   0.689   1.976  12.435 -0.3190  0.5381 -0.1245
  731MPD2     H10859   1.054   2.041  12.543 -0.3911  0.2679  0.6287
  731MPD2    H110860   0.631   2.041  12.624  0.4572 -1.7945  0.2341
  731MPD2    H210861   0.755   1.881  12.268 -2.2061 -3.2665  2.3971
  731MPD2    H310862   0.586   1.949  12.416 -0.1318 -1.2282  1.3421
  731MPD2     N10863   0.886   2.101  12.731 -0.1540  0.3931  0.1113
  731MPD2    H510864   0.987   2.116  12.732  0.3777 -3.0298  0.2384
  731MPD2    N110865   1.013   1.945  12.294  0.9840 -0.5501  0.4829
  731MPD2    H710866   0.988   1.868  12.233  2.5264  0.6742 -1.6953
  732TMC3    C110867   1.188   1.994  12.134  0.0142 -0.8980 -0.2119
  732TMC3    C210868   1.132   1.904  12.049  0.5594  0.6281 -0.3867
  732TMC3    C310869   1.203   1.853  11.944  0.2466  0.1458 -0.3573
  732TMC3    C410870   1.321   2.023  12.128 -0.5963 -0.1675 -0.5282
  732TMC3    C510871   1.392   1.964  12.024 -0.7605 -0.4569 -0.7707
  732TMC3    C610872   1.336   1.883  11.930  0.2723 -0.0909 -0.3521
  732TMC3     C10873   1.120   2.033  12.257 -0.1109 -0.3452 -0.2004
  732TMC3     O10874   1.163   2.123  12.329 -0.4433  0.2465 -0.5243
  732TMC3     H10875   1.024   1.898  12.058  0.6581  0.7871  0.8629
  732TMC3    H110876   1.361   2.115  12.168  0.5867 -1.0042  0.2049
  732TMC3    H210877   1.397   1.823  11.863 -0.5527 -1.8979  0.5183
  732TMC3    C710878   1.529   2.010  11.995 -0.0644 -0.1747 -0.4079
  732TMC3    C810879   1.146   1.777  11.829 -0.6110 -0.2977  0.0016
  732TMC3    O110880   1.541   2.119  11.944 -0.4543  0.0065 -0.0498
  732TMC3    O210881   1.216   1.756  11.727 -0.2763  0.1123 -0.0958
  733TMC3    C110882   2.083   4.524  13.088  0.8295 -0.4043 -0.3326
  733TMC3    C210883   2.198   4.531  13.157  0.3028  0.2883 -0.6562
  733TMC3    C310884   2.310   4.486  13.094  0.2331 -0.1941 -0.2964
  733TMC3    C410885   2.072   4.489  12.959 -0.6906  0.0411 -0.1144
  733TMC3    C510886   2.180   4.449  12.894  0.1325 -0.0708  0.1467
  733TMC3    C610887   2.302   4.449  12.959  0.4443 -0.0112  0.0005
  733TMC3     C10888   1.960   4.562  13.151 -0.2450 -0.2100  0.6846
  733TMC3     O10889   1.889   4.632  13.081 -0.1795 -0.0927  0.7869
  733TMC3     H10890   2.209   4.571  13.257 -1.1855  0.7974 -0.6956
  733TMC3    H110891   1.985   4.473  12.897  0.0667 -0.7166 -0.9884
  733TMC3    H210892   2.389   4.404  12.913  0.9693 -0.9188  1.8569
  733TMC3    C710893   2.169   4.456  12.751  0.1677 -0.5113  0.6033
  733TMC3    C810894   2.438   4.532  13.147 -0.1011  1.0829 -0.2316
  733TMC3    O110895   2.064   4.433  12.695 -0.1141 -0.1793  0.1256
  733TMC3    O210896   2.479   4.507  13.257 -0.3554 -0.1786  0.1000
  734MPD2     C10897   4.006   2.219  12.760 -0.3415  0.1399  0.0510
  734MPD2    C110898   3.910   2.241  12.664  0.4525  0.3227  0.3805
  734MPD2    C210899   3.929   2.352  12.584  0.0886  0.0178 -0.3124
  734MPD2    C310900   4.039   2.435  12.604  0.3456 -0.8581 -0.2688
  734MPD2    C410901   4.132   2.411  12.702 -0.0432  0.3254  0.1918
  734MPD2    C510902   4.112   2.302  12.787 -0.7063 -0.0409 -0.7504
  734MPD2     H10903   3.876   2.368  12.491 -0.5195 -1.1272 -0.1576
  734MPD2    H110904   4.229   2.459  12.702  0.2611 -0.2894  1.6015
  734MPD2    H210905   3.994   2.133  12.826 -0.9986 -0.4381 -0.8212
  734MPD2    H310906   4.181   2.281  12.867 -0.7648  0.0223 -0.6834
  734MPD2     N10907   4.057   2.541  12.504 -0.2296 -0.9041  0.8153
  734MPD2    H510908   3.976   2.553  12.445 -0.4313 -0.2032  1.2371
  734MPD2    N110909   3.795   2.159  12.657  0.3179  0.2967 -0.8711
  734MPD2    H710910   3.799   2.086  12.728 -0.7466  3.3134  2.3456
  735TMC3    C110911   3.591   2.074  12.572 -0.7335  0.3332  0.4479
  735TMC3    C210912   3.482   2.109  12.487  0.6906  0.4140 -0.7989
  735TMC3    C310913   3.455   2.033  12.378 -0.1141  0.4773 -0.6213
  735TMC3    C410914   3.648   1.952  12.552  0.0116  0.1033  0.0641
  735TMC3    C510915   3.615   1.869  12.448 -0.5359 -0.4053 -0.0388
  735TMC3    C610916   3.517   1.909  12.369  0.5610 -0.9351 -0.4004
  735TMC3     C10917   3.689   2.182  12.578 -0.2276 -0.8065  0.0581
  735TMC3     O10918   3.668   2.277  12.507  0.2180  0.1045  0.3374
  735TMC3     H10919   3.444   2.211  12.490 -1.0351 -0.3036  1.5095
  735TMC3    H110920   3.731   1.917  12.611 -0.6050 -0.1585  0.7803
  735TMC3    H210921   3.506   1.853  12.277 -1.0717 -0.9665 -0.1915
  735TMC3    C710922   3.730   1.821  12.372 -0.1289  0.3701 -0.4601
  735TMC3    C810923   3.450   2.108  12.251  0.0227 -0.4861 -0.8908
  735TMC3    O110924   3.815   1.908  12.345  0.2095 -0.3952 -0.8538
  735TMC3    O210925   3.408   2.057  12.150  0.2427  0.1428 -0.5354
  736MPD2     C10926   3.829   1.461  12.341 -0.0194  0.6177 -0.4663
  736MPD2    C110927   3.842   1.599  12.322 -0.5061  0.9763 -0.3873
  736MPD2    C210928   3.968   1.659  12.280  0.2688  0.3517  0.3591
  736MPD2    C310929   4.078   1.579  12.278  0.5094 -0.7196  0.3503
  736MPD2    C410930   4.068   1.442  12.296  0.2665  0.4306  0.5046
  736MPD2    C510931   3.946   1.390  12.336 -0.3054  0.3211 -0.2807
  736MPD2     H10932   3.981   1.767  12.279  1.6622  0.1841  0.0244
  736MPD2    H110933   4.154   1.377  12.302 -1.6159 -2.0679  0.7037
  736MPD2    H210934   3.742   1.407  12.376 -0.3450  0.9302 -0.7999
  736MPD2    H310935   3.942   1.283  12.354 -0.2963  0.1230 -1.4440
  736MPD2     N10936   4.210   1.619  12.249  0.2499  0.2016 -0.4682
  736MPD2    H510937   4.288   1.558  12.275  0.7919 -0.0117 -2.6286
  736MPD2    N110938   3.729   1.678  12.350  0.1598  0.5291 -0.2802
  736MPD2    H710939   3.648   1.625  12.380 -1.1101  1.6203 -1.7671
  737TMC3    C110940   4.377   1.763  12.177 -0.4112  0.2239  0.4780
  737TMC3    C210941   4.432   1.890  12.172 -0.2962 -0.0883  0.2569
  737TMC3    C310942   4.543   1.911  12.096 -0.3168  0.4816  0.1375
  737TMC3    C410943   4.445   1.657  12.112  0.0885  0.2627 -0.6334
  737TMC3    C510944   4.555   1.688  12.031  0.0141  0.0531  0.8605
  737TMC3    C610945   4.605   1.810  12.024  0.0682  0.0357 -0.1188
  737TMC3     C10946   4.232   1.747  12.197 -0.1889  0.1418  0.4897
  737TMC3     O10947   4.168   1.850  12.188  0.1571 -0.0152  0.2089
  737TMC3     H10948   4.386   1.967  12.233  1.0796  0.4219  0.6425
  737TMC3    H110949   4.397   1.561  12.096 -1.0021  1.3490 -4.0137
  737TMC3    H210950   4.709   1.827  12.000  0.1382 -1.8479 -1.1276
  737TMC3    C710951   4.614   1.577  11.962  0.2906  0.3868  0.0090
  737TMC3    C810952   4.621   2.033  12.110 -0.0831 -0.3065  0.1927
  737TMC3    O110953   4.607   1.472  12.022 -0.2193 -0.3247  0.4502
  737TMC3    O210954   4.593   2.095  12.212  0.5850  0.5481 -0.2878
  738MPD2     C10955   4.498   1.612  14.791 -0.7363 -0.0666  0.1970
  738MPD2    C110956   4.571   1.585  14.899 -0.1270  0.1773 -0.1530
  738MPD2    C210957   4.694   1.646  14.926  0.0277 -1.1885 -0.0882
  738MPD2    C310958   0.002   1.741  14.839 -0.1014  0.3518  1.0664
  738MPD2    C410959   4.663   1.777  14.727 -0.3861  0.4413  0.1967
  738MPD2    C510960   4.545   1.708  14.702 -0.4745  0.4306  0.4263
  738MPD2     H10961   0.015   1.619  15.015  0.1910 -0.8941 -0.1029
  738MPD2    H110962   4.696   1.857  14.661  1.8512  0.0783  0.8690
  738MPD2    H210963   4.411   1.562  14.750 -1.1173 -1.2385  2.4656
  738MPD2    H310964   4.488   1.714  14.610 -0.5660 -2.8194  0.2612
  738MPD2     N10965   0.129   1.793  14.851  0.1834 -0.4278 -0.2173
  738MPD2    H510966   0.157   1.858  14.778 -0.4376  0.6971  0.5410
  738MPD2    N110967   4.532   1.471  14.978  0.7160  0.0681  0.1650
  738MPD2    H710968   4.455   1.421  14.934  0.4451  2.2695 -1.8482
  739TMC3    C110969   0.350   1.833  14.932 -0.4996  0.5086  0.2934
  739TMC3    C210970   0.399   1.850  14.805  0.0846 -0.6454 -0.5311
  739TMC3    C310971   0.498   1.940  14.789 -0.0678  0.1480 -0.1126
  739TMC3    C410972   0.431   1.856  15.038 -0.1399  0.1347 -0.0057
  739TMC3    C510973   0.546   1.921  15.022  0.0100 -0.6786 -0.4492
  739TMC3    C610974   0.584   1.965  14.897 -0.8065  0.4012  0.2477
  739TMC3     C10975   0.216   1.780  14.957  0.2998 -0.0170 -0.5897
  739TMC3     O10976   0.192   1.755  15.075 -0.2651 -0.8361  0.2745
  739TMC3     H10977   0.346   1.811  14.719 -0.4162 -1.9271  0.3543
  739TMC3    H110978   0.398   1.823  15.136  0.1887  1.5976  0.5901
  739TMC3    H210979   0.674   2.023  14.883 -0.9080  0.5438  0.1891
  739TMC3    C710980   0.643   1.928  15.127  0.3103 -0.9627 -0.1175
  739TMC3    C810981   0.563   1.951  14.663 -0.7115 -0.1349 -0.2623
  739TMC3    O110982   0.622   1.860  15.227 -0.4424 -0.2714 -1.1342
  739TMC3    O210983   0.517   1.891  14.568  0.3908 -0.5295  0.3298
  740TMC3    C110984   0.739   2.871  14.283 -0.0334 -0.3169  0.8208
  740TMC3    C210985   0.767   2.928  14.408  0.2398  0.2229 -0.8419
  740TMC3    C310986   0.900   2.953  14.431  0.7694  0.0333 -0.1456
  740TMC3    C410987   0.833   2.836  14.188 -0.0414 -0.6796  0.2492
  740TMC3    C510988   0.958   2.864  14.220 -0.0525 -0.2221  0.6589
  740TMC3    C610989   0.999   2.915  14.341 -0.0412  0.0988 -0.5449
  740TMC3     C10990   0.606   2.848  14.238  0.0360  0.8152 -0.4066
  740TMC3     O10991   0.580   2.847  14.119  0.0655  0.1952  0.7242
  740TMC3     H10992   0.686   2.953  14.476 -1.6576 -1.1751 -2.5789
  740TMC3    H110993   0.801   2.790  14.095 -0.7180 -1.0599  0.6675
  740TMC3    H210994   1.103   2.925  14.369 -0.4274  0.0515  0.9320
  740TMC3    C710995   1.063   2.831  14.126  0.5064 -0.2177  0.1183
  740TMC3    C810996   0.952   2.984  14.563 -0.0365 -0.2661 -0.5435
  740TMC3    O110997   1.175   2.840  14.172  0.5230 -0.4645 -0.3597
  740TMC3    O210998   1.061   3.036  14.575  0.1897 -0.0344  0.8723
  741TMC3    C110999   0.070   2.187  14.272  0.7108  0.1183  0.9770
  741TMC3    C211000   4.715   2.086  14.240 -0.3740 -0.5688  0.4636
  741TMC3    C311001   4.733   1.970  14.306  0.6979  0.6662 -0.3082
  741TMC3    C411002   0.166   2.177  14.363 -0.0348  0.5887 -0.5270
  741TMC3    C511003   0.171   2.068  14.442 -0.3016  0.0899 -0.2960
  741TMC3    C611004   0.092   1.962  14.413 -0.2666 -0.0712  0.1233
  741TMC3     C11005   0.055   2.320  14.216  0.5267 -0.7055 -0.1425
  741TMC3     O11006   0.142   2.401  14.233  0.3843 -0.2968  0.4175
  741TMC3     H11007   4.640   2.098  14.162 -0.6303  0.2574  0.8357
  741TMC3    H111008   0.242   2.254  14.369  1.2009 -0.7582  1.4396
  741TMC3    H211009   0.104   1.874  14.475 -3.2961 -0.8835 -0.4373
  741TMC3    C711010   0.177   2.078  14.589 -0.4905 -0.1705 -0.4145
  741TMC3    C811011   4.621   1.885  14.305  0.2745  0.3422  0.1188
  741TMC3    O111012   0.140   1.984  14.660 -0.3102 -1.0821  0.2415
  741TMC3    O211013   4.523   1.946  14.273 -0.6808  0.2582  0.3448
  742TMC3    C111014   0.377   0.573  15.419 -0.2998  0.6248  0.1844
  742TMC3    C211015   0.275   0.521  15.347  0.8829 -0.0782  0.4724
  742TMC3    C311016   0.309   0.433  15.251 -0.8393 -1.0473 -0.2404
  742TMC3    C411017   0.514   0.545  15.395 -0.1913  0.3867  0.2720
  742TMC3    C511018   0.536   0.451  15.299  0.0871  1.0459 -0.2012
  742TMC3    C611019   0.436   0.400  15.223 -0.2564 -0.0494 -0.3054
  742TMC3     C11020   0.356   0.678  15.522  0.3608 -0.2116  0.5885
  742TMC3     O11021   0.456   0.734  15.563  0.0705 -0.1936  0.2840
  742TMC3     H11022   0.178   0.568  15.343  1.0132  0.0478 -1.4084
  742TMC3    H111023   0.596   0.601  15.438 -0.3112  0.1707  0.7835
  742TMC3    H211024   0.471   0.342  15.138 -1.5361  0.1300 -0.9579
  742TMC3    C711025   0.660   0.381  15.290 -0.1669 -1.1796 -0.1012
  742TMC3    C811026   0.212   0.408  15.144 -0.3065  0.7752 -0.5646
  742TMC3    O111027   0.683   0.314  15.190  0.2891  0.3409  0.4557
  742TMC3    O211028   0.260   0.355  15.045  0.7561  0.0623 -0.1005
  743MPD2     C11029   3.181   1.768   1.716  0.1345 -0.3226 -0.0869
  743MPD2    C111030   3.181   1.657   1.638 -0.7195  0.5443 -0.3548
  743MPD2    C211031   3.292   1.617   1.570 -0.1120 -0.7834 -0.3403
  743MPD2    C311032   3.407   1.692   1.587  0.3321  0.3244 -0.5380
  743MPD2    C411033   3.407   1.807   1.659  0.7317  0.6063 -0.5429
  743MPD2    C511034   3.295   1.840   1.722  1.0279 -0.4973 -0.3934
  743MPD2     H11035   3.286   1.527   1.510  4.0279 -0.9632 -0.4954
  743MPD2    H111036   3.492   1.872   1.680  0.4547  0.5426  0.8244
  743MPD2    H211037   3.095   1.794   1.777 -0.2441  1.6211 -1.4300
  743MPD2    H311038   3.289   1.922   1.792 -0.8053 -0.7633 -0.2176
  743MPD2     N11039   3.526   1.656   1.514  0.0683  0.1263  0.2006
  743MPD2    H511040   3.517   1.574   1.455  1.2111 -0.8109  1.3190
  743MPD2    N111041   3.049   1.600   1.611  1.5036 -0.8214 -0.6379
  743MPD2    H711042   2.970   1.652   1.649  2.1426  0.2064 -0.7005
  744TMC3    C111043   2.886   1.486   1.490  0.2733 -0.1092 -0.1834
  744TMC3    C211044   2.794   1.568   1.551 -0.7630 -0.8025  0.3688
  744TMC3    C311045   2.683   1.605   1.480  0.2507 -0.0518 -0.1449
  744TMC3    C411046   2.857   1.434   1.366  0.1989 -0.1976 -0.3413
  744TMC3    C511047   2.736   1.473   1.303  0.7232  0.0879  0.6790
  744TMC3    C611048   2.640   1.549   1.367 -0.0349  0.0067 -0.6234
  744TMC3     C11049   3.024   1.493   1.531  0.0018 -0.1958  0.4676
  744TMC3     O11050   3.095   1.415   1.470 -0.6428  0.2421  0.0492
  744TMC3     H11051   2.802   1.609   1.651 -0.9627  0.9584 -0.3263
  744TMC3    H111052   2.937   1.383   1.314 -0.0816 -0.3156 -0.6565
  744TMC3    H211053   2.543   1.568   1.323 -0.7698 -1.9537  0.1658
  744TMC3    C711054   2.714   1.424   1.164 -0.3773 -0.2067  0.2371
  744TMC3    C811055   2.612   1.721   1.532  0.0327  0.4652 -0.3061
  744TMC3    O111056   2.621   1.485   1.110 -0.0019 -0.5913  0.0550
  744TMC3    O211057   2.505   1.740   1.478 -0.0598 -0.5134 -0.1419
  745TMC3    C111058   1.143   4.612  14.010 -0.5743  0.2692 -0.5521
  745TMC3    C211059   1.111   4.676  14.130  0.3026 -0.0293 -0.3439
  745TMC3    C311060   0.982   4.663  14.178 -0.9375 -0.2880  0.0764
  745TMC3    C411061   1.047   4.543  13.943  0.3752 -0.2762  0.9928
  745TMC3    C511062   0.918   4.541  13.985 -0.8057  0.0027 -0.5034
  745TMC3    C611063   0.882   4.594  14.107  0.3343 -0.4440  0.1105
  745TMC3     C11064   1.253   4.651  13.932 -0.0717  0.7482 -0.6530
  745TMC3     O11065   1.301   4.567  13.855 -0.0159 -0.6561 -0.5049
  745TMC3     H11066   1.194   4.726  14.177 -1.1296  0.8652  1.2099
  745TMC3    H111067   1.069   4.498  13.847  0.1539 -0.2241  0.9155
  745TMC3    H211068   0.777   4.601  14.134  0.2844  0.0759 -0.2141
  745TMC3    C711069   0.816   4.546  13.881  0.4449  0.0191  0.3575
  745TMC3    C811070   0.955   4.699  14.315  0.0941  0.1902  0.2910
  745TMC3    O111071   0.751   4.445  13.862  0.2596 -0.3053 -0.1234
  745TMC3    O211072   0.854   4.646  14.360  0.1219 -0.0126  0.0386
  746TMC3    C111073   2.834   1.959  11.147 -0.1833 -0.1145 -0.0693
  746TMC3    C211074   2.918   1.908  11.057 -0.1463 -0.0426  0.1381
  746TMC3    C311075   2.894   1.783  11.006  0.0935 -0.0567 -0.4110
  746TMC3    C411076   2.713   1.898  11.167 -0.1416  0.1809 -0.1826
  746TMC3    C511077   2.697   1.774  11.126 -0.2574  0.4062 -0.3037
  746TMC3    C611078   2.785   1.714  11.045 -0.4557 -0.1889 -0.4535
  746TMC3     C11079   2.846   2.095  11.180  0.3776  0.1577 -0.2327
  746TMC3     O11080   2.785   2.128  11.280  0.1990 -0.0996  0.7623
  746TMC3     H11081   3.018   1.950  11.062  0.2274 -0.7965 -0.9345
  746TMC3    H111082   2.644   1.946  11.236  0.2190 -0.3038  0.5109
  746TMC3    H211083   2.761   1.615  11.008 -1.8085  0.3845 -1.0966
  746TMC3    C711084   2.560   1.712  11.124 -0.5507  0.3310 -0.2192
  746TMC3    C811085   2.984   1.719  10.909  0.6199 -0.2114  0.2225
  746TMC3    O111086   2.530   1.648  11.027 -0.1447 -0.2480 -0.0324
  746TMC3    O211087   2.950   1.607  10.872  0.4041 -0.2177  0.0253
  747TMC3    C111088   0.363   1.756  11.138  0.0959  0.2205 -0.0312
  747TMC3    C211089   0.322   1.675  11.238 -0.1300  0.1526 -0.1918
  747TMC3    C311090   0.414   1.618  11.325 -0.2996 -0.2599  0.0138
  747TMC3    C411091   0.499   1.779  11.115 -0.7900  0.0184 -0.4271
  747TMC3    C511092   0.588   1.707  11.187  0.6230  0.2908  0.1101
  747TMC3    C611093   0.543   1.630  11.294 -0.2633 -0.6576 -0.0928
  747TMC3     C11094   0.281   1.749  11.018 -0.0098 -0.2081  0.3199
  747TMC3     O11095   0.164   1.765  11.028  0.8591 -0.4514  0.5681
  747TMC3     H11096   0.218   1.680  11.268 -0.3774 -0.2242 -1.0096
  747TMC3    H111097   0.540   1.862  11.059 -1.2937  1.3566  1.1854
  747TMC3    H211098   0.609   1.584  11.367  1.1442  0.5754 -0.5781
  747TMC3    C711099   0.723   1.765  11.198  0.0356  0.2402  0.7847
  747TMC3    C811100   0.367   1.533  11.427  0.4840  0.1683  0.2306
  747TMC3    O111101   0.729   1.885  11.169  0.1336  0.3466 -0.0901
  747TMC3    O211102   0.452   1.451  11.468  0.5715 -0.7936  0.3001
  748MPD2     C11103   1.337   3.325   1.300  0.1720  0.1506 -0.1294
  748MPD2    C111104   1.359   3.217   1.220 -0.1244 -0.3783 -0.4610
  748MPD2    C211105   1.486   3.163   1.215 -0.0083  0.5258 -0.0329
  748MPD2    C311106   1.592   3.213   1.289  0.4787 -0.3311  0.8648
  748MPD2    C411107   1.562   3.317   1.372 -0.1491  0.4773  0.1174
  748MPD2    C511108   1.436   3.373   1.376 -0.1533 -0.7265  0.4151
  748MPD2     H11109   1.513   3.078   1.153  2.1738 -0.6769  2.5520
  748MPD2    H111110   1.635   3.371   1.431 -2.1230  0.0075  3.0115
  748MPD2    H211111   1.243   3.378   1.312  0.8486  1.1993  0.4884
  748MPD2    H311112   1.420   3.451   1.449  1.9115 -0.0559  0.1399
  748MPD2     N11113   1.719   3.157   1.274  0.5549 -0.2819 -0.8232
  748MPD2    H511114   1.734   3.106   1.188 -0.8379 -2.2116  0.0892
  748MPD2    N111115   1.256   3.175   1.131 -0.2208 -0.0711  0.5145
  748MPD2    H711116   1.168   3.225   1.138 -0.4918 -0.2948 -1.2349
  749TMC3    C111117   1.939   3.095   1.325  0.2248  0.2206  0.1212
  749TMC3    C211118   2.012   3.017   1.410  0.2009  0.1029 -0.5331
  749TMC3    C311119   2.125   2.970   1.351  0.9335 -0.0978  0.9049
  749TMC3    C411120   1.964   3.111   1.193  0.5791  0.0641 -0.0588
  749TMC3    C511121   2.067   3.051   1.134 -0.0232  1.0207  0.0272
  749TMC3    C611122   2.159   2.993   1.220  0.8594  0.7781 -0.0301
  749TMC3     C11123   1.814   3.155   1.370  0.0362 -0.6446 -0.6214
  749TMC3     O11124   1.801   3.179   1.490  0.3018  0.2101 -0.5219
  749TMC3     H11125   1.973   2.994   1.508  2.7836 -0.1861  0.4137
  749TMC3    H111126   1.907   3.176   1.127 -0.4881  0.9906  1.7741
  749TMC3    H211127   2.254   2.962   1.177 -1.0305 -1.7219 -2.4310
  749TMC3    C711128   2.120   3.106   1.012  0.4674  0.3560  0.5587
  749TMC3    C811129   2.210   2.894   1.439 -0.7265  0.3809 -0.1647
  749TMC3    O111130   2.241   3.115   0.998 -0.1791  0.3042  0.3008
  749TMC3    O211131   2.182   2.890   1.560  0.5872  0.0656 -1.1147
  750MPD2     C11132   3.529   3.862  11.212  0.5995  0.3010  0.1949
  750MPD2    C111133   3.432   3.840  11.311  0.6121 -0.4416  0.7068
  750MPD2    C211134   3.413   3.708  11.341  0.7903 -0.7250 -0.0678
  750MPD2    C311135   3.487   3.597  11.292 -0.4048  0.9379  0.2272
  750MPD2    C411136   3.583   3.625  11.194 -0.5331 -0.4080  0.2804
  750MPD2    C511137   3.595   3.754  11.154 -0.3617 -0.0190  0.2624
  750MPD2     H11138   3.316   3.685  11.383 -0.5694  1.7286 -1.9315
  750MPD2    H111139   3.642   3.555  11.135 -1.0711 -1.0846  0.5421
  750MPD2    H211140   3.537   3.965  11.178  2.1833 -0.5112 -1.8684
  750MPD2    H311141   3.671   3.772  11.078 -0.8447 -0.4978 -0.3289
  750MPD2     N11142   3.446   3.466  11.319  0.3576 -0.6956  0.1206
  750MPD2    H511143   3.473   3.391  11.256  0.6930  0.9257 -1.6388
  750MPD2    N111144   3.351   3.954  11.353  0.7046  0.0720 -0.0919
  750MPD2    H711145   3.373   4.041  11.305  0.0625 -1.2001 -2.6792
  751TMC3    C111146   3.328   3.290  11.421 -0.4680  0.2935 -0.1169
  751TMC3    C211147   3.200   3.250  11.437  0.2229  0.6913 -0.4410
  751TMC3    C311148   3.173   3.116  11.440 -0.0880 -0.6399  0.2743
  751TMC3    C411149   3.432   3.205  11.408  0.1538 -0.8774  0.0513
  751TMC3    C511150   3.401   3.071  11.401 -0.0790 -0.5561  0.1260
  751TMC3    C611151   3.271   3.027  11.416 -0.7679  0.0641  1.0970
  751TMC3     C11152   3.350   3.433  11.414 -0.3901 -0.6625 -0.5234
  751TMC3     O11153   3.283   3.496  11.496 -0.3388  0.1440  0.1445
  751TMC3     H11154   3.127   3.330  11.435 -0.1671  0.3187 -1.4198
  751TMC3    H111155   3.534   3.240  11.398  0.5301 -1.7790  0.6790
  751TMC3    H211156   3.246   2.922  11.428  0.9363 -0.3775  0.6448
  751TMC3    C711157   3.496   2.983  11.329  0.8922 -0.0987 -0.2568
  751TMC3    C811158   3.055   3.070  11.375  0.3120 -0.5980 -0.0468
  751TMC3    O111159   3.584   3.037  11.262  0.2237  0.2347  0.1559
  751TMC3    O211160   3.072   3.036  11.259  0.0184  0.2302  0.3996
  752TMC3    C111161   1.274   4.319  17.148  0.1423 -0.0720  0.4348
  752TMC3    C211162   1.409   4.300  17.178 -0.0224  0.3289 -0.3785
  752TMC3    C311163   1.460   4.351  17.299 -0.3118  0.4779 -0.2362
  752TMC3    C411164   1.205   4.418  17.210  0.7238  1.5645 -0.1202
  752TMC3    C511165   1.266   4.480  17.316 -0.1604 -0.4181 -0.3941
  752TMC3    C611166   1.383   4.442  17.365 -0.2936  0.6435 -0.6847
  752TMC3     C11167   1.215   4.263  17.028  0.5010  0.4249  0.0192
  752TMC3     O11168   1.119   4.319  16.976 -0.3726  0.5195 -0.2947
  752TMC3     H11169   1.463   4.239  17.107  2.2630  0.8570  0.8973
  752TMC3    H111170   1.103   4.438  17.177  0.1066  3.0130  2.7279
  752TMC3    H211171   1.411   4.474  17.465 -2.3468 -0.8952  0.3907
  752TMC3    C711172   1.216   4.609  17.375 -0.5252  0.7859 -0.2387
  752TMC3    C811173   1.600   4.354  17.326 -0.1925  0.2138  0.6592
  752TMC3    O111174   1.267   4.662  17.470 -0.1365 -0.2641  0.1001
  752TMC3    O211175   1.648   4.442  17.397  0.4675  0.2772  0.2780
  753TMC3    C111176   3.973   4.717  13.638  0.1633 -0.0272  0.1279
  753TMC3    C211177   3.891   0.010  13.747  0.7901  0.0875  1.2088
  753TMC3    C311178   3.759   4.713  13.739 -0.0398 -0.1443  0.3165
  753TMC3    C411179   3.930   4.634  13.541 -0.2395 -0.2177  0.1876
  753TMC3    C511180   3.802   4.603  13.540  0.2477 -0.4051  0.1099
  753TMC3    C611181   3.714   4.645  13.631  0.5072  0.6977  0.0671
  753TMC3     C11182   4.113   0.034  13.630 -0.3157 -0.4115 -0.7547
  753TMC3     O11183   4.194   4.725  13.548 -0.3508 -0.4306 -0.5216
  753TMC3     H11184   3.945   0.050  13.833 -0.1101  3.7151  0.0864
  753TMC3    H111185   3.998   4.611  13.460 -1.0249 -1.1510 -0.2100
  753TMC3    H211186   3.609   4.618  13.633  0.9180 -0.8781  0.4789
  753TMC3    C711187   3.756   4.511  13.439 -0.2593 -0.6612 -0.1239
  753TMC3    C811188   3.688   4.691  13.864  0.4876 -0.2346  0.2628
  753TMC3    O111189   3.641   4.524  13.393  0.4158  0.0075  0.5331
  753TMC3    O211190   3.586   4.624  13.859  0.0491 -0.5660  0.6894
  754MPD2     C11191   2.628   3.343  13.427  0.0099 -0.2197  0.0414
  754MPD2    C111192   2.627   3.204  13.404  0.1198  0.7009  0.7040
  754MPD2    C211193   2.506   3.154  13.344 -0.8281  0.0666 -0.1405
  754MPD2    C311194   2.399   3.240  13.314  0.1064 -0.2933 -0.3960
  754MPD2    C411195   2.409   3.378  13.341 -0.3007  0.2361 -0.0963
  754MPD2    C511196   2.521   3.420  13.399  0.1580  0.5105  0.3129
  754MPD2     H11197   2.503   3.054  13.301 -0.9784 -1.3072  3.0328
  754MPD2    H111198   2.324   3.438  13.311  1.9338  2.1707 -2.5711
  754MPD2    H211199   2.713   3.397  13.468  0.1655 -0.7490  0.4263
  754MPD2    H311200   2.521   3.520  13.441  1.3018  0.4254  0.5134
  754MPD2     N11201   2.286   3.203  13.243  0.3015 -0.0025 -0.1779
  754MPD2    H511202   2.233   3.279  13.200 -1.1008 -1.2219 -0.5782
  754MPD2    N111203   2.750   3.123  13.414  0.0009 -0.4181  0.0072
  754MPD2    H711204   2.835   3.177  13.403  0.1325 -0.3547  1.3074
  755MPD2     C11205   1.506   3.518  12.751  0.1534 -0.2105 -0.4599
  755MPD2    C111206   1.458   3.392  12.792  0.3471  0.1595  0.0872
  755MPD2    C211207   1.549   3.294  12.823  0.6237  0.3491 -0.0443
  755MPD2    C311208   1.685   3.321  12.833 -0.3271  0.3697  0.8136
  755MPD2    C411209   1.730   3.449  12.796  0.4820 -0.5521  0.3429
  755MPD2    C511210   1.640   3.543  12.753  0.6887 -0.4004  0.2676
  755MPD2     H11211   1.510   3.194  12.841 -2.4408  1.5681  0.1639
  755MPD2    H111212   1.833   3.481  12.784  0.2063 -0.0834 -0.8308
  755MPD2    H211213   1.447   3.604  12.722  0.6941  0.0231 -0.8782
  755MPD2    H311214   1.671   3.644  12.728 -1.1541  0.4312  1.2438
  755MPD2     N11215   1.777   3.225  12.882 -0.2015 -0.3683 -0.0456
  755MPD2    H511216   1.747   3.129  12.895  1.5947 -0.7715  0.9965
  755MPD2    N111217   1.314   3.365  12.798 -0.4068  0.6610 -0.2314
  755MPD2    H711218   1.289   3.269  12.817  2.6787  0.0225  0.5647
  756MPD2     C11219   2.682   4.257   9.916  0.2205 -0.0007 -0.1400
  756MPD2    C111220   2.587   4.187   9.996 -0.8187 -0.0509  1.0047
  756MPD2    C211221   2.470   4.150   9.934  0.5823 -0.3264  0.2382
  756MPD2    C311222   2.440   4.199   9.808  0.9046  0.1102  0.3248
  756MPD2    C411223   2.527   4.286   9.744  0.4501 -0.1025  0.6720
  756MPD2    C511224   2.650   4.304   9.792 -1.3427  0.2993 -0.8464
  756MPD2     H11225   2.407   4.072   9.976  2.6911 -2.1555  0.0124
  756MPD2    H111226   2.506   4.324   9.644  2.5543 -3.0870 -0.9068
  756MPD2    H211227   2.778   4.287   9.956 -0.9661  2.3860  0.9191
  756MPD2    H311228   2.725   4.358   9.735  0.3557 -1.0566  0.1487
  756MPD2     N11229   2.309   4.178   9.767  0.4630 -0.0059  0.4298
  756MPD2    H511230   2.244   4.128   9.827  0.1948 -0.6860 -0.4187
  756MPD2    N111231   2.619   4.143  10.129 -0.1775  0.0888  0.5910
  756MPD2    H711232   2.538   4.107  10.179  0.7991 -1.8107  0.8019
  757MPD2     C11233   1.866   3.464  10.006  0.3320 -0.5422  0.5855
  757MPD2    C111234   2.001   3.500   9.994 -0.2956 -0.2539  1.5367
  757MPD2    C211235   2.036   3.615   9.923  0.0908  0.0959 -0.1635
  757MPD2    C311236   1.937   3.705   9.880  0.0862 -0.5130  0.5010
  757MPD2    C411237   1.806   3.666   9.900  0.1736 -0.9022  0.1757
  757MPD2    C511238   1.772   3.544   9.957  1.0113  0.6553 -0.7526
  757MPD2     H11239   2.141   3.638   9.912  0.4160 -1.7749 -0.8647
  757MPD2    H111240   1.716   3.714   9.862 -0.6562 -2.5354  0.0562
  757MPD2    H211241   1.831   3.368  10.042 -1.3382 -0.5582 -1.1557
  757MPD2    H311242   1.675   3.496   9.953  0.8229  0.9762  0.0743
  757MPD2     N11243   1.974   3.827   9.808  0.1508 -0.5426 -0.2199
  757MPD2    H511244   2.072   3.841   9.785 -0.3396 -0.2192 -2.1368
  757MPD2    N111245   2.091   3.412  10.059 -0.6103 -0.0879  0.1516
  757MPD2    H711246   2.052   3.332  10.109 -1.0460  0.2419  0.3434
  758MPD2     C11247   1.944   3.619  16.133  0.0669  0.2265  0.0737
  758MPD2    C111248   2.022   3.554  16.236  0.3853 -0.4204 -0.8048
  758MPD2    C211249   1.977   3.552  16.366  0.4448 -0.1064 -0.0415
  758MPD2    C311250   1.852   3.610  16.400  0.9787  0.0193 -0.0566
  758MPD2    C411251   1.778   3.680  16.299 -0.0264  0.0853 -0.1304
  758MPD2    C511252   1.821   3.680  16.165  0.6615  0.1192  0.1411
  758MPD2     H11253   2.028   3.490  16.439  0.4767  0.0342  0.0556
  758MPD2    H111254   1.687   3.735  16.318  0.5761  0.9922  0.1045
  758MPD2    H211255   1.981   3.632  16.032  1.7194  0.0038  0.6376
  758MPD2    H311256   1.765   3.730  16.087 -2.9713 -0.1597  2.6185
  758MPD2     N11257   1.794   3.594  16.527 -0.5570 -0.5932 -0.2399
  758MPD2    H511258   1.707   3.642  16.547  0.4951  0.9811  0.5675
  758MPD2    N111259   2.153   3.518  16.197  0.5733 -0.3418 -0.6136
  758MPD2    H711260   2.159   3.510  16.096  1.8650 -0.5288 -0.5175
  759MPD2     C11261   1.486   1.053  10.675  0.3820  0.5000  0.2951
  759MPD2    C111262   1.382   1.029  10.598  0.4437 -0.2349 -0.4803
  759MPD2    C211263   1.370   1.115  10.488  1.1066 -0.5481  0.8690
  759MPD2    C311264   1.460   1.208  10.441 -0.0864  0.4440  0.4407
  759MPD2    C411265   1.577   1.217  10.515 -0.9534  0.4589 -0.6123
  759MPD2    C511266   1.582   1.142  10.629 -0.5019  0.0920  0.2210
  759MPD2     H11267   1.275   1.114  10.436  2.1308 -0.4166 -0.9890
  759MPD2    H111268   1.657   1.289  10.502  0.2221 -0.4815  1.3627
  759MPD2    H211269   1.511   0.996  10.764  0.2345  0.7364  0.4859
  759MPD2    H311270   1.668   1.166  10.690 -0.9767 -0.9622  1.2878
  759MPD2     N11271   1.425   1.293  10.338 -0.6391 -0.1011 -0.7165
  759MPD2    H511272   1.331   1.291  10.300 -1.5260  1.4760  1.3549
  759MPD2    N111273   1.283   0.928  10.623 -0.0812 -0.0903  0.5305
  759MPD2    H711274   1.209   0.934  10.554 -0.3406 -0.9082  0.7290
  760MPD2     C11275   1.087   3.536  11.663  0.3872 -0.2094  0.2109
  760MPD2    C111276   1.223   3.526  11.631  0.0016  0.2533  0.1915
  760MPD2    C211277   1.288   3.400  11.618 -0.9659  0.6966  0.7153
  760MPD2    C311278   1.202   3.284  11.623  1.1424  0.5701 -0.2355
  760MPD2    C411279   1.063   3.300  11.656 -0.2469  0.2825  0.6202
  760MPD2    C511280   1.008   3.424  11.669  0.4514  0.1102 -0.4007
  760MPD2     H11281   1.390   3.392  11.583 -2.2969  1.1909 -3.2569
  760MPD2    H111282   0.999   3.213  11.653  3.3967 -2.3927 -0.1349
  760MPD2    H211283   1.043   3.634  11.677  0.7851 -0.4416  3.1437
  760MPD2    H311284   0.902   3.428  11.692  0.8442 -1.3492  1.6174
  760MPD2     N11285   1.249   3.149  11.609 -0.5843 -0.0411  0.1162
  760MPD2    H511286   1.184   3.076  11.634 -2.6415  2.1445  1.1946
  760MPD2    N111287   1.312   3.636  11.619 -0.4367  1.1618 -0.3823
  760MPD2    H711288   1.411   3.634  11.644 -0.6241 -2.1866  0.0470
  761MPD2     C11289   2.628   2.813  11.395  0.4480  0.0445  0.6909
  761MPD2    C111290   2.730   2.800  11.306 -0.5125 -0.4325  0.7857
  761MPD2    C211291   2.841   2.882  11.323 -0.7733  0.7610  0.3754
  761MPD2    C311292   2.829   2.979  11.423  0.0802  0.6139  0.5248
  761MPD2    C411293   2.731   2.981  11.513 -0.1634 -0.5594 -0.4255
  761MPD2    C511294   2.626   2.901  11.496 -0.6067 -0.1459  0.3041
  761MPD2     H11295   2.920   2.878  11.250  0.0110 -1.1001  1.3331
  761MPD2    H111296   2.721   3.060  11.588  2.6861 -2.0679  1.5554
  761MPD2    H211297   2.535   2.759  11.388 -0.5909  1.6741  1.6864
  761MPD2    H311298   2.537   2.911  11.559  0.9603  2.5195  2.1114
  761MPD2     N11299   2.944   3.055  11.455  0.0590 -0.0191  0.0800
  761MPD2    H511300   2.943   3.116  11.536  2.0965  1.2159 -0.8084
  761MPD2    N111301   2.712   2.706  11.200 -0.3142  0.2432  0.2728
  761MPD2    H711302   2.624   2.655  11.196 -0.9122  1.4453 -1.4710
  762MPD2     C11303   3.053   2.651  10.448  0.6524 -0.5863 -0.6362
  762MPD2    C111304   3.064   2.569  10.554  0.0674 -0.2796  0.4066
  762MPD2    C211305   3.177   2.487  10.564 -0.4597  0.3761  0.4532
  762MPD2    C311306   3.279   2.497  10.471  0.4929  0.6517 -0.7444
  762MPD2    C411307   3.270   2.587  10.369 -1.4136  0.2723  0.1730
  762MPD2    C511308   3.161   2.667  10.367 -0.7876 -0.5590  0.3641
  762MPD2     H11309   3.182   2.413  10.643  1.5897 -0.6960 -0.6638
  762MPD2    H111310   3.345   2.597  10.292 -1.7490 -3.0733 -0.5544
  762MPD2    H211311   2.964   2.707  10.423  0.4825 -0.7666 -0.4386
  762MPD2    H311312   3.150   2.729  10.280  1.5589  1.8874  1.8147
  762MPD2     N11313   3.386   2.406  10.471  0.0575 -0.6031  0.3333
  762MPD2    H511314   3.389   2.332  10.540 -2.4519 -1.8036 -0.8199
  762MPD2    N111315   2.955   2.563  10.640 -0.0776 -0.0994  0.3125
  762MPD2    H711316   2.884   2.636  10.644 -0.9078 -0.8837 -0.1913
  763MPD2     C11317   4.383   3.247  16.293 -0.3751  0.0341 -0.2051
  763MPD2    C111318   4.378   3.307  16.167  0.0376  0.3832 -0.1681
  763MPD2    C211319   4.392   3.443  16.161 -0.4006 -0.3314  0.0763
  763MPD2    C311320   4.406   3.520  16.270  0.4310  0.2099  0.2697
  763MPD2    C411321   4.407   3.461  16.393  0.7397  0.0621 -0.3602
  763MPD2    C511322   4.396   3.327  16.406 -0.0544  0.5687  0.0018
  763MPD2     H11323   4.373   3.485  16.062  0.2133  0.1072  0.1470
  763MPD2    H111324   4.402   3.529  16.477 -1.0301 -0.6109  0.0798
  763MPD2    H211325   4.387   3.139  16.302  0.6372 -0.0599 -1.8179
  763MPD2    H311326   4.392   3.279  16.503 -0.4236  2.1529  0.7894
  763MPD2     N11327   4.431   3.660  16.249 -0.0429 -0.1982  0.2515
  763MPD2    H511328   4.446   3.692  16.154 -0.9908 -0.4810  0.0010
  763MPD2    N111329   4.361   3.240  16.040  0.1001  1.0678 -0.0765
  763MPD2    H711330   4.358   3.293  15.953 -0.6673 -0.7460 -1.1788
  764MPD2     C11331   1.890   4.570  17.602 -0.7123  0.1339  0.9537
  764MPD2    C111332   1.832   4.689  17.611  0.8442  0.6643 -0.6278
  764MPD2    C211333   1.854   0.041  17.715  0.3209 -0.1809 -0.6114
  764MPD2    C311334   1.941   4.734   0.071  0.2376 -0.7593  0.5192
  764MPD2    C411335   2.011   4.613   0.065 -0.0805  0.3467  0.2912
  764MPD2    C511336   1.978   4.532  17.701  0.2200  0.5156  0.2490
  764MPD2     H11337   1.797   0.133  17.721 -1.2697 -1.1623 -0.5235
  764MPD2    H111338   2.080   4.579   0.141 -2.8998  0.6330  2.9705
  764MPD2    H211339   1.869   4.502  17.520  0.4714 -0.1308  0.8641
  764MPD2    H311340   2.031   4.438  17.695 -0.1597  0.3881 -0.9819
  764MPD2     N11341   1.958   0.088   0.182 -0.2846  0.1265 -0.0716
  764MPD2    H511342   1.889   0.161   0.195  1.2478  1.8585 -1.8070
  764MPD2    N111343   1.730   4.703  17.507  0.6285  0.1745  0.5775
  764MPD2    H711344   1.707   4.625  17.447  0.6009  0.4983  0.1685
  765MPD2     C11345   1.612   3.101  16.033  0.5284  0.4469  0.0893
  765MPD2    C111346   1.708   3.161  15.956  0.1579 -0.2896  0.5171
  765MPD2    C211347   1.834   3.108  15.950 -0.1328 -0.5738  0.3367
  765MPD2    C311348   1.870   2.984  15.997  0.0146 -0.0277 -0.7401
  765MPD2    C411349   1.767   2.920  16.062  0.3388  0.7096 -0.8656
  765MPD2    C511350   1.642   2.980  16.085 -1.2181  0.0563  0.2216
  765MPD2     H11351   1.914   3.158  15.896  0.2150 -0.2480  1.1430
  765MPD2    H111352   1.774   2.817  16.095  0.3826  0.8973 -0.2832
  765MPD2    H211353   1.510   3.135  16.043 -0.0110 -1.1434  0.1285
  765MPD2    H311354   1.570   2.923  16.143  0.6671 -1.0070  1.4959
  765MPD2     N11355   1.991   2.923  15.956 -0.2595 -0.3856 -0.2677
  765MPD2    H511356   2.045   2.975  15.887  0.2271  1.1534  1.2841
  765MPD2    N111357   1.683   3.285  15.886 -0.7891 -0.6684  0.1061
  765MPD2    H711358   1.757   3.331  15.835 -2.7022  0.7643 -1.3893
  766MPD2     C11359   1.385   3.392  15.185  0.2081  0.4119 -0.1312
  766MPD2    C111360   1.503   3.376  15.248  0.5701 -0.3488 -0.1122
  766MPD2    C211361   1.607   3.310  15.182  0.2375  0.2289  0.1319
  766MPD2    C311362   1.578   3.241  15.064  0.1135 -0.5150  0.2858
  766MPD2    C411363   1.448   3.245  15.012 -0.5302  0.2706  0.1390
  766MPD2    C511364   1.355   3.318  15.075 -0.1947 -0.4281  0.4700
  766MPD2     H11365   1.711   3.308  15.212  0.3996  0.8926 -0.3839
  766MPD2    H111366   1.418   3.186  14.926 -1.8228  1.2612 -0.1024
  766MPD2    H211367   1.306   3.452  15.227  0.0903 -0.1057  0.3866
  766MPD2    H311368   1.259   3.337  15.029 -0.4078 -0.1605  1.0326
  766MPD2     N11369   1.675   3.163  14.984 -0.0420 -0.3291  0.2256
  766MPD2    H511370   1.641   3.116  14.900  1.8095 -1.5789  0.1879
  766MPD2    N111371   1.527   3.449  15.369  0.2237 -0.8400  0.4940
  766MPD2    H711372   1.625   3.458  15.392  0.1319  2.0329 -0.1555
  767MPD2     C11373   1.493   3.464  14.735  0.0856  0.0185  0.8175
  767MPD2    C111374   1.625   3.446  14.681 -0.4723  0.1870 -0.5783
  767MPD2    C211375   1.642   3.325  14.611  0.0937  0.9189  0.3759
  767MPD2    C311376   1.534   3.243  14.571  1.0258  1.0509  0.5049
  767MPD2    C411377   1.410   3.274  14.616 -0.3028  1.1545 -0.3323
  767MPD2    C511378   1.393   3.375  14.710  0.1806  0.2049  0.5454
  767MPD2     H11379   1.743   3.300  14.579 -0.5537  0.1276 -1.0567
  767MPD2    H111380   1.324   3.211  14.598  2.7565 -3.4271  1.0369
  767MPD2    H211381   1.471   3.546  14.802 -1.7923  1.1987 -1.2389
  767MPD2    H311382   1.297   3.389  14.758 -1.0811  0.2293 -1.9798
  767MPD2     N11383   1.551   3.144  14.475  0.0561 -0.2481 -0.5667
  767MPD2    H511384   1.650   3.132  14.456  0.5101 -0.1009  1.7265
  767MPD2    N111385   1.724   3.540  14.703  0.1440  0.5811 -0.0803
  767MPD2    H711386   1.711   3.605  14.781  1.1188 -1.6297  1.9444
  768MPD2     C11387   2.051   0.878  11.072 -0.9832 -0.2233 -0.2521
  768MPD2    C111388   2.109   1.005  11.053 -0.1913 -0.0327 -0.0233
  768MPD2    C211389   2.240   1.024  11.090 -0.6872 -0.2018 -0.5118
  768MPD2    C311390   2.312   0.930  11.162  0.2898  0.1920 -0.0130
  768MPD2    C411391   2.249   0.812  11.180 -0.0836  0.5520 -0.3241
  768MPD2    C511392   2.125   0.785  11.127 -0.1918  0.0109 -0.0084
  768MPD2     H11393   2.294   1.115  11.064  1.4629 -0.9943  1.2015
  768MPD2    H111394   2.304   0.726  11.216 -2.0634 -0.6012 -0.0452
  768MPD2    H211395   1.953   0.846  11.038 -1.7024  0.1952  1.4238
  768MPD2    H311396   2.095   0.681  11.118  1.0456 -0.1020 -3.0173
  768MPD2     N11397   2.442   0.948  11.216 -0.0745  0.5612 -0.7885
  768MPD2    H511398   2.488   0.877  11.271  0.2568 -0.4130 -2.3361
  768MPD2    N111399   2.039   1.115  11.001  0.9169  0.4512  0.4794
  768MPD2    H711400   2.092   1.201  11.003 -0.6416  1.4620 -1.3572
  769MPD2     C11401   3.575   3.867  15.494  0.0701  0.0517 -0.0820
  769MPD2    C111402   3.488   3.969  15.450  0.1109 -0.0262 -0.3860
  769MPD2    C211403   3.410   4.038  15.538 -0.2363  0.6257 -0.3691
  769MPD2    C311404   3.418   4.003  15.671 -0.1479 -0.3235 -0.3203
  769MPD2    C411405   3.495   3.901  15.721 -0.6304 -0.1318  0.1830
  769MPD2    C511406   3.573   3.833  15.626  0.4242  0.2404  0.0685
  769MPD2     H11407   3.343   4.114  15.498  0.8332  2.3281  1.0907
  769MPD2    H111408   3.497   3.856  15.820  1.0767  1.7796  1.0225
  769MPD2    H211409   3.631   3.807  15.423 -0.3543  0.5688 -0.8651
  769MPD2    H311410   3.647   3.760  15.656  1.2357  0.3990 -1.5289
  769MPD2     N11411   3.333   4.072  15.757 -0.2214 -0.5146  0.2622
  769MPD2    H511412   3.275   4.147  15.720 -0.3432 -0.2078  1.0726
  769MPD2    N111413   3.477   3.985  15.308  0.4520 -0.2861 -0.2378
  769MPD2    H711414   3.525   3.920  15.246 -0.9659 -1.8283  0.2796
  770MPD2     C11415   2.794   4.527  14.951  0.4582  0.0599  0.1940
  770MPD2    C111416   2.845   4.464  15.056 -0.6759  0.3126  0.2899
  770MPD2    C211417   2.977   4.413  15.052  0.2854  0.4658  0.0924
  770MPD2    C311418   3.051   4.404  14.942  0.4207  0.5147 -0.0394
  770MPD2    C411419   2.991   4.453  14.831  0.4783 -0.0153 -0.2588
  770MPD2    C511420   2.871   4.530  14.836 -0.6544 -0.5665 -0.2729
  770MPD2     H11421   3.017   4.356  15.135 -1.1897  0.4584  0.8018
  770MPD2    H111422   3.026   4.448  14.729 -2.5112  1.7359 -1.3789
  770MPD2    H211423   2.692   4.565  14.951 -0.4745 -2.4713 -2.2323
  770MPD2    H311424   2.833   4.571  14.743 -0.7684  0.8336  0.3825
  770MPD2     N11425   3.162   4.321  14.951  0.3773 -0.6746  0.1804
  770MPD2    H511426   3.180   4.280  15.042  0.0359 -2.2734 -0.4561
  770MPD2    N111427   2.760   4.461  15.166 -0.3421  0.4399  0.6057
  770MPD2    H711428   2.660   4.455  15.151 -0.4045 -0.6642  1.4443
  771MPD2     C11429   3.648   2.219  13.817  0.1975 -0.2607 -0.2355
  771MPD2    C111430   3.764   2.202  13.743  0.1377 -0.4902 -0.4769
  771MPD2    C211431   3.850   2.098  13.775  0.3994  0.4829 -0.5539
  771MPD2    C311432   3.818   2.009  13.879 -0.3779 -0.8412  0.4653
  771MPD2    C411433   3.704   2.030  13.955  0.3586 -0.7218  0.0517
  771MPD2    C511434   3.620   2.132  13.923 -0.2780  0.3281  0.3243
  771MPD2     H11435   3.936   2.079  13.712  1.8197 -1.2109  1.8833
  771MPD2    H111436   3.670   1.968  14.038 -1.9966  1.5655  0.8162
  771MPD2    H211437   3.566   2.284  13.787  0.5002  0.1292 -0.2066
  771MPD2    H311438   3.523   2.143  13.970  0.2948 -0.0448  1.6016
  771MPD2     N11439   3.905   1.895  13.897 -0.0448 -0.5288  0.3216
  771MPD2    H511440   3.987   1.884  13.837  1.1053  0.2751  1.7534
  771MPD2    N111441   3.795   2.280  13.632 -0.0063 -0.6088 -0.2620
  771MPD2    H711442   3.876   2.242  13.585  1.0193  0.2758  0.7996
  772MPD2     C11443   3.440   2.908  13.235 -0.8633 -0.0731 -0.6209
  772MPD2    C111444   3.429   2.775  13.259  1.3871  0.2811 -0.6981
  772MPD2    C211445   3.307   2.721  13.295 -0.0375 -0.5120 -0.9453
  772MPD2    C311446   3.191   2.802  13.299  1.1513  0.4068  0.0206
  772MPD2    C411447   3.213   2.936  13.283 -0.0234 -0.0898 -0.1258
  772MPD2    C511448   3.331   2.983  13.244  0.0868 -0.1027 -0.3493
  772MPD2     H11449   3.298   2.616  13.318  0.1657 -0.5793 -1.1729
  772MPD2    H111450   3.136   3.012  13.284  1.8456  1.7627  0.4164
  772MPD2    H211451   3.531   2.963  13.215 -1.7137  1.1318 -1.1517
  772MPD2    H311452   3.345   3.090  13.233  0.2718  0.0874  1.7419
  772MPD2     N11453   3.063   2.755  13.324 -0.1869 -0.3271 -0.0889
  772MPD2    H511454   2.986   2.820  13.328  1.6432  1.8995 -1.0278
  772MPD2    N111455   3.542   2.690  13.270  0.7574  0.4878 -0.3165
  772MPD2    H711456   3.516   2.598  13.306  0.6221 -0.3613 -2.5967
  773MPD2     C11457   2.735   3.754   0.270  0.0835 -0.2670 -0.4632
  773MPD2    C111458   2.700   3.640   0.203  0.2019 -0.1747  1.0148
  773MPD2    C211459   2.780   3.530   0.221  0.7908 -0.2094 -0.1500
  773MPD2    C311460   2.895   3.540   0.294 -0.5094  0.4371 -0.1662
  773MPD2    C411461   2.930   3.660   0.349 -0.3124 -0.3133 -0.6540
  773MPD2    C511462   2.845   3.764   0.345 -0.5888 -0.2547  0.8050
  773MPD2     H11463   2.741   3.437   0.180 -0.4957 -0.6767  2.1799
  773MPD2    H111464   3.018   3.669   0.412 -2.0629 -0.4701  1.8166
  773MPD2    H211465   2.677   3.845   0.263  0.9300  0.3270  0.2698
  773MPD2    H311466   2.869   3.846   0.412  0.9710  1.2091 -1.5219
  773MPD2     N11467   2.989   3.429   0.299  0.2306  0.3549 -0.4333
  773MPD2    H511468   2.952   3.338   0.275  0.1107  0.0579  0.8571
  773MPD2    N111469   2.577   3.625   0.132 -0.4763 -0.5675 -0.1434
  773MPD2    H711470   2.563   3.540   0.078 -0.4840 -1.0106  0.5518
  774MPD2     C11471   2.039   2.384  13.091 -0.3566  0.1666  0.1426
  774MPD2    C111472   2.037   2.374  13.230  0.4892  0.7684  0.8638
  774MPD2    C211473   2.127   2.457  13.297  0.0443 -0.3259 -0.3879
  774MPD2    C311474   2.207   2.541  13.235 -0.0381 -0.4279 -0.4219
  774MPD2    C411475   2.217   2.543  13.099 -0.4394 -0.2940 -0.0469
  774MPD2    C511476   2.126   2.472  13.027  0.4005 -0.4098 -0.7764
  774MPD2     H11477   2.129   2.463  13.405  1.8579  0.1528 -0.4480
  774MPD2    H111478   2.274   2.609  13.035 -2.1587  0.2135 -1.0624
  774MPD2    H211479   1.974   2.323  13.029  1.2137 -1.2318 -0.1480
  774MPD2    H311480   2.127   2.478  12.919 -2.2184 -1.8251 -0.8769
  774MPD2     N11481   2.296   2.615  13.313 -0.5689  0.7929  0.0384
  774MPD2    H511482   2.286   2.601  13.413 -1.9694 -0.2447 -0.2395
  774MPD2    N111483   1.951   2.278  13.293  0.4330  0.6573  0.0023
  774MPD2    H711484   1.919   2.204  13.232  0.2750  1.1146 -0.4711
  775MPD2     C11485   4.006   4.459  16.222  0.7227  0.9620  0.5483
  775MPD2    C111486   3.912   4.529  16.145  0.3266  0.2604 -0.3737
  775MPD2    C211487   3.960   4.623  16.053  1.0104  0.8853 -0.9152
  775MPD2    C311488   4.093   4.659  16.035  0.0676  1.0189 -0.2111
  775MPD2    C411489   4.180   4.587  16.113 -0.1169  0.7872 -0.1745
  775MPD2    C511490   4.136   4.482  16.190 -0.3601  0.4189 -0.3919
  775MPD2     H11491   3.890   4.679  15.992 -0.9327  0.4560  0.9593
  775MPD2    H111492   4.286   4.609  16.104  0.0859 -0.3312 -0.4208
  775MPD2    H211493   3.980   4.377  16.288  0.3490  1.2560  0.7695
  775MPD2    H311494   4.199   4.400  16.221 -0.4497  0.8986  1.0512
  775MPD2     N11495   4.145   0.026  15.945  0.4174  0.2053 -0.5373
  775MPD2    H511496   4.244   0.023  15.925  0.1378 -0.5204 -1.8549
  775MPD2    N111497   3.775   4.489  16.158 -0.0504 -0.1080  0.3437
  775MPD2    H711498   3.754   4.412  16.220 -0.3631  0.1362  0.5453
  776MPD2     C11499   2.909   4.638  11.075 -0.7433 -0.2513 -0.6765
  776MPD2    C111500   3.022   4.585  11.142  0.4115 -0.5697  0.8425
  776MPD2    C211501   3.130   4.672  11.141 -0.5527  0.3748 -0.5746
  776MPD2    C311502   3.140   0.057  11.058 -0.5662  0.0253  0.2384
  776MPD2    C411503   3.021   0.094  10.997 -0.1922 -0.0692 -0.3509
  776MPD2    C511504   2.903   0.026  11.012  0.0109  0.5798  1.4673
  776MPD2     H11505   3.220   4.643  11.193 -0.2204  0.5190 -1.0590
  776MPD2    H111506   3.023   0.181  10.932 -0.5856  0.5331  0.4467
  776MPD2    H211507   2.810   4.595  11.084 -0.7703 -0.0560 -0.0624
  776MPD2    H311508   2.808   0.069  10.983  0.8828  1.5188 -0.0233
  776MPD2     N11509   3.254   0.144  11.036  0.2101 -0.4826  0.4389
  776MPD2    H511510   3.249   0.207  10.957 -1.5442  0.2840  1.1608
  776MPD2    N111511   3.015   4.465  11.213 -0.0815 -0.3402 -0.0867
  776MPD2    H711512   2.927   4.416  11.218 -0.2811 -0.1371 -1.7388
  777MPD2     C11513   2.367   2.163   0.621 -0.0710  0.4309 -0.4108
  777MPD2    C111514   2.449   2.081   0.698  0.1293  0.2220 -0.2318
  777MPD2    C211515   2.453   1.948   0.649 -0.6601 -0.0196 -0.6058
  777MPD2    C311516   2.372   1.911   0.546  0.1776 -0.0599  0.2951
  777MPD2    C411517   2.298   2.001   0.474 -0.4165 -0.1334 -0.4611
  777MPD2    C511518   2.284   2.127   0.517 -0.5316 -0.5135  0.2503
  777MPD2     H11519   2.520   1.876   0.694 -0.6310 -0.7240 -1.7824
  777MPD2    H111520   2.259   1.978   0.375  0.9529  0.0784 -1.0436
  777MPD2    H211521   2.379   2.268   0.645 -2.0230  0.7104 -0.5837
  777MPD2    H311522   2.227   2.197   0.457 -1.0618  0.8722  2.3694
  777MPD2     N11523   2.387   1.777   0.507  0.7336  0.9539 -0.7248
  777MPD2    H511524   2.464   1.721   0.542 -1.6163 -2.3524 -0.7879
  777MPD2    N111525   2.519   2.129   0.802 -0.3484  0.5436 -0.2724
  777MPD2    H711526   2.503   2.224   0.835  2.4966  0.3981  1.5336
  778MPD2     C11527   4.223   1.988  15.346  0.3083  0.5085  0.3170
  778MPD2    C111528   4.131   1.983  15.239 -0.5302 -0.3375 -0.3982
  778MPD2    C211529   4.150   2.057  15.123  0.4163 -0.1904  0.4362
  778MPD2    C311530   4.251   2.145  15.109  0.1242 -0.0958  0.4534
  778MPD2    C411531   4.345   2.152  15.207  0.3549  0.1088  0.1860
  778MPD2    C511532   4.330   2.078  15.323 -0.6895  0.2733  0.1940
  778MPD2     H11533   4.067   2.036  15.057  0.9298  0.2226 -0.3419
  778MPD2    H111534   4.429   2.218  15.190 -0.2905  0.8338 -0.1753
  778MPD2    H211535   4.214   1.928  15.437  1.5365  1.2459  0.9221
  778MPD2    H311536   4.404   2.084  15.402 -1.4711  1.2770  0.8606
  778MPD2     N11537   4.237   2.235  15.005 -0.7839 -0.0557  0.2496
  778MPD2    H511538   4.161   2.222  14.940  0.8206  1.0061 -1.8516
  778MPD2    N111539   4.029   1.886  15.238  0.0641  0.1044  0.1386
  778MPD2    H711540   3.980   1.863  15.152  0.8554 -1.0462 -0.0175
  779MPD2     C11541   3.534   1.012  14.404  0.0910 -0.5541 -0.1511
  779MPD2    C111542   3.669   1.020  14.407 -0.5306  0.4093 -0.1400
  779MPD2    C211543   3.730   1.139  14.372 -0.3676 -0.3754  0.1836
  779MPD2    C311544   3.652   1.249  14.338  0.0725  0.6865 -0.1374
  779MPD2    C411545   3.513   1.233  14.329  0.5718  0.2453 -0.0672
  779MPD2    C511546   3.459   1.118  14.371  0.7017 -0.4748  0.0024
  779MPD2     H11547   3.835   1.149  14.395 -0.4535  0.5727  0.1470
  779MPD2    H111548   3.454   1.318  14.295  0.2396  0.4943  1.1217
  779MPD2    H211549   3.483   0.918  14.423 -0.0315 -0.5672 -0.5481
  779MPD2    H311550   3.352   1.107  14.379  0.7765 -1.4144 -0.3082
  779MPD2     N11551   3.724   1.377  14.324  0.2253 -0.6378 -0.0581
  779MPD2    H511552   3.822   1.385  14.348  0.2168  2.8966 -1.1479
  779MPD2    N111553   3.759   0.919  14.453  0.3144  0.0578 -0.5685
  779MPD2    H711554   3.858   0.933  14.434  0.4190 -1.5691 -1.2054
  780MPD2     C11555   4.330   1.211   0.723 -0.2601 -0.1223 -0.7644
  780MPD2    C111556   4.201   1.172   0.751  0.7143  0.7232  0.4958
  780MPD2    C211557   4.106   1.178   0.652 -0.5573 -0.0601 -0.2281
  780MPD2    C311558   4.142   1.224   0.530 -0.3428 -0.3426  0.3412
  780MPD2    C411559   4.269   1.263   0.503 -0.3757 -0.6555 -0.4944
  780MPD2    C511560   4.359   1.249   0.600 -0.4482  0.5470 -0.0678
  780MPD2     H11561   4.002   1.157   0.676 -0.0203  0.4262  2.5291
  780MPD2    H111562   4.305   1.297   0.406 -0.3838 -1.1652 -0.6717
  780MPD2    H211563   4.420   1.214   0.783 -0.6679 -0.7200 -0.1303
  780MPD2    H311564   4.461   1.273   0.574  0.0815  0.4187  1.8374
  780MPD2     N11565   4.037   1.239   0.433  0.3634  0.0714 -0.2711
  780MPD2    H511566   3.950   1.189   0.447  0.2885  0.6098  1.2150
  780MPD2    N111567   4.170   1.133   0.884  0.0611 -0.3264 -0.1745
  780MPD2    H711568   4.254   1.139   0.940 -1.0552 -2.3747  1.7071
  781MPD2     C11569   0.765   2.560  11.783  0.5180  0.2943  1.1260
  781MPD2    C111570   0.799   2.457  11.869 -0.5366 -0.2927 -0.3357
  781MPD2    C211571   0.912   2.383  11.835  0.2240 -0.7367  0.5040
  781MPD2    C311572   0.993   2.426  11.732 -0.1470 -0.3123  0.4775
  781MPD2    C411573   0.964   2.540  11.659  0.5158  0.0510  0.2234
  781MPD2    C511574   0.848   2.607  11.684  0.5009 -0.0617  0.9685
  781MPD2     H11575   0.941   2.311  11.911  0.9775  0.0825  0.9940
  781MPD2    H111576   1.036   2.585  11.592 -3.4095  1.2516 -3.1394
  781MPD2    H211577   0.677   2.619  11.804  1.2060  1.6096  0.3220
  781MPD2    H311578   0.818   2.704  11.647 -0.4259 -0.6519  0.1865
  781MPD2     N11579   1.113   2.356  11.709 -0.1961 -0.3689  0.1381
  781MPD2    H511580   1.173   2.387  11.634  0.8848 -1.2335  0.6474
  781MPD2    N111581   0.725   2.408  11.980  0.2085  0.8961  0.0796
  781MPD2    H711582   0.771   2.336  12.036  0.7898 -0.1101 -1.6967
  782MPD2     C11583   3.287   2.792  10.726 -0.1385 -0.1257  0.5112
  782MPD2    C111584   3.390   2.845  10.654  0.3589 -0.2501 -0.9325
  782MPD2    C211585   3.375   2.977  10.608  0.3603 -0.7788 -0.1363
  782MPD2    C311586   3.267   3.057  10.641  0.6916 -0.2751 -0.2404
  782MPD2    C411587   3.165   2.998  10.711  0.1463  0.8780  0.1044
  782MPD2    C511588   3.169   2.868  10.749 -0.0871  0.0416  0.7607
  782MPD2     H11589   3.449   3.017  10.539  1.7571  0.0102  1.8443
  782MPD2    H111590   3.089   3.064  10.751  0.6624  1.4974  0.0763
  782MPD2    H211591   3.298   2.692  10.768  1.0047 -0.5935 -0.8856
  782MPD2    H311592   3.094   2.820  10.811  0.1867  0.4786  1.4345
  782MPD2     N11593   3.256   3.195  10.615  0.1217  0.3432  0.2281
  782MPD2    H511594   3.174   3.252  10.634 -1.6575 -0.4084 -5.2039
  782MPD2    N111595   3.515   2.772  10.649  1.1545  0.2069 -0.3240
  782MPD2    H711596   3.522   2.690  10.708 -0.8741 -0.7792 -1.4255
  783MPD2     C11597   3.509   2.620  11.351 -0.2091 -0.1705 -0.3489
  783MPD2    C111598   3.550   2.741  11.306  0.4103 -0.2675 -0.0498
  783MPD2    C211599   3.645   2.753  11.200 -0.2558 -0.1692 -0.2852
  783MPD2    C311600   3.686   2.638  11.138 -0.3362  0.1478  0.1708
  783MPD2    C411601   3.654   2.514  11.189 -0.7622  0.1619  0.8494
  783MPD2    C511602   3.574   2.507  11.298  0.1384  1.3220  0.1113
  783MPD2     H11603   3.661   2.856  11.173  0.7626 -0.0821  0.6555
  783MPD2    H111604   3.688   2.424  11.139 -1.2423  1.6329 -2.1476
  783MPD2    H211605   3.440   2.601  11.433  0.7718  1.3025  0.8111
  783MPD2    H311606   3.559   2.409  11.342  0.1679  2.0750  1.7946
  783MPD2     N11607   3.753   2.668  11.017 -0.5292 -0.6489  0.0976
  783MPD2    H511608   3.775   2.764  10.994  0.0757 -0.8238 -0.0673
  783MPD2    N111609   3.476   2.854  11.356 -0.2478  0.1594 -0.8788
  783MPD2    H711610   3.395   2.840  11.416  1.0079 -0.6885  0.6233
  784MPD2     C11611   0.704   4.037   0.963 -0.3274  0.0834  0.4534
  784MPD2    C111612   0.761   4.166   0.946  0.3784 -0.4768  0.1170
  784MPD2    C211613   0.678   4.276   0.923  0.0652 -0.2999 -0.5395
  784MPD2    C311614   0.542   4.256   0.914  0.0737 -0.8253 -0.7561
  784MPD2    C411615   0.489   4.125   0.928  0.0565  0.3833 -0.2216
  784MPD2    C511616   0.571   4.022   0.949 -0.2656  0.0664 -0.0470
  784MPD2     H11617   0.712   4.379   0.924  2.0505 -0.9830  4.1446
  784MPD2    H111618   0.382   4.106   0.929 -0.2134  1.8937  0.0313
  784MPD2    H211619   0.761   3.950   0.992 -1.4598 -0.5788  0.6617
  784MPD2    H311620   0.533   3.924   0.975 -1.1883  1.1143  2.5709
  784MPD2     N11621   0.464   4.373   0.893 -0.5274 -0.5336  0.2355
  784MPD2    H511622   0.517   4.459   0.885  0.7661 -1.2935  0.5715
  784MPD2    N111623   0.896   4.189   0.963  0.6102 -0.3151 -0.7335
  784MPD2    H711624   0.924   4.286   0.974  2.2270 -1.1005  2.0424
  785MPD2     C11625   1.178   1.707  10.855 -0.3836 -0.3057 -0.2462
  785MPD2    C111626   1.082   1.802  10.833  0.2330  0.0920  0.1115
  785MPD2    C211627   0.993   1.787  10.729 -0.4756  0.1417  0.3221
  785MPD2    C311628   0.985   1.681  10.644  0.0484  0.4167 -0.4309
  785MPD2    C411629   1.087   1.593  10.665  0.0082  0.3496  0.2538
  785MPD2    C511630   1.178   1.602  10.765 -0.5872  0.4119  0.1027
  785MPD2     H11631   0.915   1.862  10.731  0.7898  1.4538  1.0344
  785MPD2    H111632   1.081   1.500  10.609  2.4649  1.0632 -1.1697
  785MPD2    H211633   1.233   1.696  10.947 -0.8862  1.4591  0.2642
  785MPD2    H311634   1.243   1.517  10.778  0.9586  1.6220  0.2547
  785MPD2     N11635   0.879   1.667  10.553 -0.0567  0.8110 -0.0387
  785MPD2    H511636   0.795   1.719  10.577  0.7654  2.2441 -0.2578
  785MPD2    N111637   1.061   1.908  10.922 -0.5960 -0.4130 -0.1194
  785MPD2    H711638   0.977   1.964  10.912 -0.7633 -0.6088  0.1958
  786MPD2     C11639   4.472   0.322  14.954 -1.2176 -0.1046  0.2454
  786MPD2    C111640   4.598   0.303  14.901  0.7954  0.2152  0.6789
  786MPD2    C211641   4.710   0.332  14.978 -0.9145  0.4411  0.2328
  786MPD2    C311642   4.705   0.387  15.102 -0.4009 -0.1697 -0.4558
  786MPD2    C411643   4.580   0.401  15.150  0.6940  0.5815  0.3961
  786MPD2    C511644   4.462   0.370  15.079  0.4344 -0.6058 -0.8315
  786MPD2     H11645   0.073   0.327  14.934 -0.7450 -0.1245  0.6803
  786MPD2    H111646   4.567   0.424  15.255  0.5574  1.9614  0.0868
  786MPD2    H211647   4.388   0.310  14.887  0.4615 -1.9781 -1.5531
  786MPD2    H311648   4.372   0.391  15.136 -0.3110 -0.1167 -2.1725
  786MPD2     N11649   0.083   0.418  15.183  0.2097  0.5845  0.4059
  786MPD2    H511650   0.066   0.452  15.278  0.1079  1.6017  0.0279
  786MPD2    N111651   4.625   0.246  14.774  0.4515 -0.2508  0.3508
  786MPD2    H711652   4.724   0.240  14.756  0.4296  0.0330  0.1322
  787MPD2     C11653   0.317   0.053  14.923 -0.5993  0.4508 -0.8257
  787MPD2    C111654   0.288   4.685  14.834  0.4338 -0.0127  0.4527
  787MPD2    C211655   0.332   4.550  14.851  0.3333  0.1420  0.0387
  787MPD2    C311656   0.409   4.524  14.963  0.1447  0.0050 -0.4576
  787MPD2    C411657   0.445   4.630  15.047 -0.2631 -0.0211 -0.5830
  787MPD2    C511658   0.402   0.024  15.024  0.1452  0.1987 -0.1293
  787MPD2     H11659   0.307   4.468  14.786 -0.0900 -0.9739  1.5945
  787MPD2    H111660   0.514   4.602  15.125 -1.3974  0.8390  0.7245
  787MPD2    H211661   0.272   0.151  14.913  0.9005  1.1341 -0.8945
  787MPD2    H311662   0.433   0.100  15.094  0.4415 -1.3479  1.4131
  787MPD2     N11663   0.445   4.391  14.993 -0.5410  0.1398 -0.2795
  787MPD2    H511664   0.426   4.320  14.923 -0.0026 -0.0717 -0.2112
  787MPD2    N111665   0.197   4.721  14.730  0.7371 -0.2399  0.4554
  787MPD2    H711666   0.160   0.080  14.730  0.5509 -0.3157 -0.3469
  788MPD2     C11667   2.081   3.576   0.912  0.1165  0.3132  0.3947
  788MPD2    C111668   1.966   3.657   0.931  0.8621  0.3247  0.2082
  788MPD2    C211669   1.971   3.788   0.867 -0.2783 -0.2140 -0.2412
  788MPD2    C311670   2.084   3.833   0.796  0.4400 -0.1747  0.4590
  788MPD2    C411671   2.188   3.745   0.785  0.1049 -0.0458 -0.1946
  788MPD2    C511672   2.185   3.622   0.841  0.6443  0.4545 -0.2606
  788MPD2     H11673   1.886   3.855   0.877  0.0417  0.1032  0.3322
  788MPD2    H111674   2.271   3.771   0.721  0.2087 -1.1408 -0.5113
  788MPD2    H211675   2.092   3.474   0.946 -0.2862  0.3101  0.5141
  788MPD2    H311676   2.260   3.548   0.819 -1.7309 -0.8864 -3.7865
  788MPD2     N11677   2.109   3.963   0.744 -0.3038  0.0148  0.5975
  788MPD2    H511678   2.194   3.974   0.690 -1.7280 -1.6594 -1.9815
  788MPD2    N111679   1.845   3.609   0.985 -0.6021  0.3261  0.3298
  788MPD2    H711680   1.770   3.676   0.976  0.7142  2.0421  2.1565
  789MPD2     C11681   1.707   3.352  16.254 -0.4028 -0.5908 -0.1741
  789MPD2    C111682   1.716   3.269  16.363 -0.3783  0.3249 -0.5140
  789MPD2    C211683   1.612   3.264  16.456 -0.2313  0.1750  0.4842
  789MPD2    C311684   1.491   3.321  16.426  0.5106  0.6139 -0.6958
  789MPD2    C411685   1.480   3.393  16.308 -0.6664  0.2395  0.0733
  789MPD2    C511686   1.588   3.410  16.219  0.4168 -0.2870 -0.1901
  789MPD2     H11687   1.617   3.201  16.544 -0.9438  0.1517  0.5024
  789MPD2    H111688   1.388   3.445  16.284  0.7353  2.2723 -0.8115
  789MPD2    H211689   1.789   3.371  16.186  1.0547  1.0142  2.0146
  789MPD2    H311690   1.573   3.466  16.128  0.2792  1.3208  0.8281
  789MPD2     N11691   1.375   3.301  16.502 -0.1293  0.1578  0.0409
  789MPD2    H511692   1.300   3.353  16.458  1.7781  0.3921 -2.9106
  789MPD2    N111693   1.830   3.184  16.387  0.1482  0.0066 -0.3801
  789MPD2    H711694   1.837   3.128  16.472 -0.2990 -0.4920 -0.6729
  790MPD2     C11695   3.174   4.562  13.891 -0.6404 -0.0647 -0.6519
  790MPD2    C111696   3.163   4.426  13.894 -0.1636 -0.3320 -0.2384
  790MPD2    C211697   3.100   4.365  13.783  0.1704  0.0329 -0.4198
  790MPD2    C311698   3.058   4.440  13.674  0.3039  0.2273 -0.0149
  790MPD2    C411699   3.072   4.581  13.672  0.0719 -0.5458 -0.1804
  790MPD2    C511700   3.129   4.644  13.784 -0.2625  0.1340 -0.5319
  790MPD2     H11701   3.099   4.257  13.767  1.6792  0.1496 -1.2950
  790MPD2    H111702   3.024   4.641  13.595  0.0320 -1.0471 -0.5415
  790MPD2    H211703   3.220   4.611  13.977 -0.4594 -2.0108  0.3432
  790MPD2    H311704   3.132   0.017  13.778  0.1046  0.2414  1.7406
  790MPD2     N11705   3.009   4.383  13.552 -0.1380 -0.6159  0.1202
  790MPD2    H511706   3.009   4.283  13.533  2.5395  0.0367 -3.1466
  790MPD2    N111707   3.221   4.351  14.001 -0.2247 -0.0349 -0.0274
  790MPD2    H711708   3.269   4.403  14.074 -1.2952  0.5971  0.2333
  791MPD2     C11709   2.615   4.250  12.836  0.3537 -0.0524  0.4227
  791MPD2    C111710   2.592   4.186  12.955  0.4703  0.4284 -0.2333
  791MPD2    C211711   2.508   4.071  12.943  0.1685  0.1680 -0.0290
  791MPD2    C311712   2.453   4.027  12.823 -0.2574 -0.1435 -0.2478
  791MPD2    C411713   2.471   4.108  12.715 -0.5688  0.3817 -0.0085
  791MPD2    C511714   2.545   4.226  12.719 -0.2560 -0.0347 -0.3084
  791MPD2     H11715   2.488   4.014  13.033 -1.7449 -0.6747 -1.0135
  791MPD2    H111716   2.422   4.095  12.619  0.7668 -0.5659 -0.5639
  791MPD2    H211717   2.681   4.336  12.832  1.3850 -0.8592  0.0869
  791MPD2    H311718   2.559   4.287  12.631  0.1381 -0.8345 -0.8044
  791MPD2     N11719   2.378   3.906  12.819  0.2333  0.3171  0.6954
  791MPD2    H511720   2.362   3.864  12.910 -1.5706  1.0105  0.6997
  791MPD2    N111721   2.652   4.227  13.080  0.6213  0.1131  0.1886
  791MPD2    H711722   2.700   4.316  13.080 -0.6556  0.8047  3.1277
  792MPD2     C11723   3.210   3.904  10.982 -0.0052 -0.0321  0.0834
  792MPD2    C111724   3.151   4.025  11.005 -0.5823 -0.1566  0.0881
  792MPD2    C211725   3.044   4.024  11.088  0.8945  0.0329 -0.0170
  792MPD2    C311726   2.994   3.912  11.154  0.8058  0.2058  0.1630
  792MPD2    C411727   3.068   3.799  11.140 -0.8995 -0.3364  0.3974
  792MPD2    C511728   3.178   3.795  11.055 -0.5388 -0.2003 -1.1813
  792MPD2     H11729   2.988   4.117  11.097 -0.3927 -0.8616  1.3012
  792MPD2    H111730   3.036   3.703  11.178 -1.9677 -0.4537 -0.8058
  792MPD2    H211731   3.296   3.904  10.916  0.8033  0.4695  1.1502
  792MPD2    H311732   3.237   3.705  11.043  0.8100  0.1073  3.2633
  792MPD2     N11733   2.874   3.915  11.238 -0.6737  0.1715  0.1508
  792MPD2    H511734   2.852   3.831  11.291  1.1808 -0.5138 -0.1749
  792MPD2    N111735   3.211   4.130  10.938  0.0135 -0.0446 -0.2171
  792MPD2    H711736   3.296   4.109  10.888  0.1072 -0.8215  0.2820
  793MPD2     C11737   2.318   3.911  10.760  0.4879 -0.1895 -0.0084
  793MPD2    C111738   2.454   3.945  10.785  0.4292  0.3436 -0.0201
  793MPD2    C211739   2.484   3.984  10.913 -0.2679 -0.8472  0.2548
  793MPD2    C311740   2.386   4.006  11.008  0.4422 -0.2971  0.4824
  793MPD2    C411741   2.251   3.990  10.980  0.4161  0.2752  0.0945
  793MPD2    C511742   2.217   3.938  10.854 -0.9702 -0.3711 -0.4961
  793MPD2     H11743   2.585   4.015  10.937  0.1351 -2.0634  0.1204
  793MPD2    H111744   2.171   4.012  11.050 -1.4497 -0.9784 -1.6148
  793MPD2    H211745   2.284   3.876  10.664 -0.2477  0.6786 -0.0635
  793MPD2    H311746   2.109   3.932  10.845 -1.0982  1.1766 -0.1438
  793MPD2     N11747   2.436   4.050  11.137  0.3614  0.3941  0.1066
  793MPD2    H511748   2.535   4.074  11.140  0.3165  0.6006 -0.1096
  793MPD2    N111749   2.554   3.949  10.691 -0.0299  0.1216 -0.3363
  793MPD2    H711750   2.644   3.990  10.715  0.0040 -0.0400 -0.1874
  794MPD2     C11751   2.388   3.605  17.117  0.0131  0.0807 -0.2197
  794MPD2    C111752   2.269   3.646  17.185  0.9634  0.5836 -0.0420
  794MPD2    C211753   2.163   3.695  17.103 -0.7287  0.1135  0.6305
  794MPD2    C311754   2.162   3.694  16.965 -0.6129 -0.8516  0.3778
  794MPD2    C411755   2.276   3.644  16.904  1.0171  0.3337 -0.8521
  794MPD2    C511756   2.391   3.609  16.980 -0.3103  0.6125  0.5593
  794MPD2     H11757   2.076   3.730  17.157 -1.4798  0.2672 -0.6846
  794MPD2    H111758   2.283   3.665  16.798  1.5816 -2.4707 -1.3589
  794MPD2    H211759   2.474   3.568  17.172  0.6839 -2.5050 -3.0437
  794MPD2    H311760   2.476   3.571  16.924 -2.5476 -1.9198 -1.1192
  794MPD2     N11761   2.062   3.753  16.878  0.0462  0.5272 -1.0958
  794MPD2    H511762   2.082   3.752  16.779 -0.1896  0.0729 -1.1419
  794MPD2    N111763   2.247   3.656  17.328 -0.2632 -0.3763  0.5811
  794MPD2    H711764   2.153   3.680  17.358  0.4270  0.4811  2.0292
  795MPD2     C11765   0.855   1.379  13.541  0.4607  0.1305  0.3314
  795MPD2    C111766   0.805   1.251  13.545  0.0573  0.7416 -0.4601
  795MPD2    C211767   0.898   1.152  13.556  0.3705 -0.8425  0.1178
  795MPD2    C311768   1.030   1.176  13.557  0.9233  0.7149 -0.4840
  795MPD2    C411769   1.074   1.303  13.557  0.0683  0.1919  0.2226
  795MPD2    C511770   0.988   1.407  13.548  0.2842 -0.4273  0.7656
  795MPD2     H11771   0.862   1.050  13.554 -0.9675 -0.3721  0.1205
  795MPD2    H111772   1.178   1.330  13.550  0.0496 -0.0448 -0.9320
  795MPD2    H211773   0.794   1.469  13.536 -0.1781 -0.2365  1.5302
  795MPD2    H311774   1.025   1.509  13.539 -1.9369  0.4642  1.4603
  795MPD2     N11775   1.126   1.074  13.555 -0.4159  0.5750 -0.5259
  795MPD2    H511776   1.225   1.093  13.546  0.1475 -2.3601 -0.6060
  795MPD2    N111777   0.674   1.218  13.524  0.4372 -0.2911  0.1768
  795MPD2    H711778   0.645   1.121  13.524  0.5888 -0.3397  1.0399
  796MPD2     C11779   0.048   2.975  15.850 -0.3049 -0.2456 -0.5458
  796MPD2    C111780   0.020   3.081  15.937 -0.3419  0.6319  0.4008
  796MPD2    C211781   4.719   3.198  15.881 -0.1591 -0.3491  0.2160
  796MPD2    C311782   4.712   3.217  15.744 -0.3595  0.1090  0.5396
  796MPD2    C411783   0.017   3.113  15.664  0.4253  0.7383 -0.4062
  796MPD2    C511784   0.052   2.992  15.716  0.4526  0.5204 -0.3504
  796MPD2     H11785   4.714   3.287  15.942 -0.0778 -0.2046  0.0100
  796MPD2    H111786   4.731   3.124  15.559 -1.1711  0.1822 -0.1457
  796MPD2    H211787   0.068   2.872  15.879 -1.0008 -0.4294 -0.7189
  796MPD2    H311788   0.098   2.911  15.662 -2.0912 -2.3486  1.8311
  796MPD2     N11789   4.655   3.335  15.698 -0.0079 -0.2141 -0.0545
  796MPD2    H511790   4.638   3.403  15.772  0.3566  1.3918 -1.4463
  796MPD2    N111791   0.004   3.049  16.075  0.0848  0.7485 -0.5253
  796MPD2    H711792   4.734   2.949  16.091  0.8414  0.7224 -0.4445
  797MPD2     C11793   0.591   2.442  17.513 -0.2917  0.2080  0.6310
  797MPD2    C111794   0.562   2.556  17.576 -0.4676  0.1761 -0.0216
  797MPD2    C211795   0.612   2.668  17.518  0.1656  0.3231  0.2363
  797MPD2    C311796   0.684   2.666  17.398  0.4117  0.2220  0.7128
  797MPD2    C411797   0.702   2.543  17.335  0.2291 -0.4229 -0.5637
  797MPD2    C511798   0.653   2.426  17.394 -0.3039 -0.0334  0.0093
  797MPD2     H11799   0.602   2.761  17.573  0.1905  0.6324 -0.2822
  797MPD2    H111800   0.761   2.539  17.245  0.6417  3.2136 -0.4369
  797MPD2    H211801   0.558   2.349  17.558 -0.8510 -1.2457 -2.7636
  797MPD2    H311802   0.662   2.332  17.342 -0.2336  0.0699 -0.1664
  797MPD2     N11803   0.739   2.776  17.337 -0.7055 -0.5966 -0.3028
  797MPD2    H511804   0.783   2.756  17.247 -1.2064  0.7973 -0.8535
  797MPD2    N111805   0.493   2.568  17.703 -0.0909  0.0605 -0.2711
  797MPD2    H711806   0.514   2.657   0.007 -0.1854  0.5197 -1.1454
  798MPD2     C11807   0.413   3.312  17.639 -0.5400  0.0582  0.1345
  798MPD2    C111808   0.501   3.209  17.631 -0.7185  0.0794  0.0640
  798MPD2    C211809   0.495   3.099  17.716 -0.4155 -0.1230 -0.0925
  798MPD2    C311810   0.398   3.089   0.074  0.1452  0.4050 -0.7639
  798MPD2    C411811   0.308   3.200   0.090 -0.0922  0.1564  0.7165
  798MPD2    C511812   0.323   3.298  17.738  0.2751 -0.5835  0.2697
  798MPD2     H11813   0.568   3.020  17.700  0.5270  0.8443 -0.5834
  798MPD2    H111814   0.231   3.207   0.166 -0.1548 -1.6718  0.8152
  798MPD2    H211815   0.421   3.401  17.578 -0.8701  0.7916  1.1727
  798MPD2    H311816   0.256   3.381   0.012 -1.4322 -2.0274  0.6577
  798MPD2     N11817   0.380   2.971   0.150 -0.9962  0.1829  0.2044
  798MPD2    H511818   0.298   2.971   0.211 -1.6966  2.0189 -0.7382
  798MPD2    N111819   0.597   3.205  17.528 -0.3207 -0.4584  0.5331
  798MPD2    H711820   0.653   3.120  17.529  0.2384 -0.1225 -2.0448
  799MPD2     C11821   4.586   4.303  14.682  0.1164  0.4065 -0.1745
  799MPD2    C111822   4.545   4.195  14.609 -0.0083 -0.6757  0.0665
  799MPD2    C211823   4.477   4.214  14.496 -0.4914 -0.0977  0.1195
  799MPD2    C311824   4.455   4.340  14.448  0.1286 -0.1106 -0.3120
  799MPD2    C411825   4.487   4.451  14.526  0.8216 -0.4411  0.6966
  799MPD2    C511826   4.547   4.433  14.645  0.0834 -0.0973 -0.3770
  799MPD2     H11827   4.447   4.130  14.434  1.8610 -0.8799  0.0597
  799MPD2    H111828   4.458   4.548  14.486  2.9006  0.3029  0.9878
  799MPD2    H211829   4.643   4.293  14.773 -0.4892  1.5227  0.3324
  799MPD2    H311830   4.564   4.523  14.703 -0.3144  0.5477 -1.2571
  799MPD2     N11831   4.422   4.363  14.317 -0.2839 -0.5079  0.2897
  799MPD2    H511832   4.404   4.456  14.280  0.6354 -0.2322  0.5606
  799MPD2    N111833   4.572   4.060  14.647  0.4206 -0.0476  0.1072
  799MPD2    H711834   4.531   3.985  14.593  1.3039 -0.3856 -0.0903
  800MPD2     C11835   1.008   0.292  14.703  0.3067  0.4150 -1.1240
  800MPD2    C111836   1.081   0.341  14.600  0.7495 -0.0946 -0.3382
  800MPD2    C211837   1.097   0.261  14.495 -0.1293 -0.0655  0.3197
  800MPD2    C311838   1.033   0.140  14.483 -0.3633  0.0290 -0.4153
  800MPD2    C411839   0.950   0.089  14.587 -0.2064 -0.5731  0.2507
  800MPD2    C511840   0.949   0.166  14.701  0.3531  0.6395  0.3149
  800MPD2     H11841   1.153   0.300  14.410 -2.1988 -0.9912 -1.4861
  800MPD2    H111842   0.894   4.732  14.584  0.1717 -0.8121  0.5286
  800MPD2    H211843   0.992   0.351  14.792 -0.4576 -0.5541 -0.6094
  800MPD2    H311844   0.881   0.140  14.781  0.8002 -0.5971  0.2924
  800MPD2     N11845   1.042   0.062  14.360 -0.0058 -0.5174 -0.6388
  800MPD2    H511846   1.102   0.099  14.286  1.9212  1.4853  1.8959
  800MPD2    N111847   1.146   0.469  14.627  0.1678  0.5889  0.6473
  800MPD2    H711848   1.122   0.508  14.718 -2.0173  1.6811 -0.3798
  801MPD2     C11849   0.875   1.075  14.910 -0.3281  0.5652  0.3457
  801MPD2    C111850   0.863   0.964  14.822 -0.3928  0.1699 -0.1043
  801MPD2    C211851   0.737   0.898  14.812  0.4668 -0.6020 -0.2282
  801MPD2    C311852   0.622   0.958  14.856  0.0709  0.7306 -0.2438
  801MPD2    C411853   0.637   1.065  14.942 -0.5155  0.0707  0.2000
  801MPD2    C511854   0.763   1.120  14.970 -0.1031 -0.4793  0.1800
  801MPD2     H11855   0.735   0.825  14.732  0.5549 -1.1072  0.2233
  801MPD2    H111856   0.550   1.116  14.982 -1.2789 -2.4333  1.7468
  801MPD2    H211857   0.964   1.130  14.941  0.9821 -1.5154  0.2538
  801MPD2    H311858   0.765   1.210  15.030 -0.0670  0.4811 -1.2546
  801MPD2     N11859   0.490   0.912  14.843 -0.1422 -0.2180 -0.5104
  801MPD2    H511860   0.419   0.957  14.900 -1.5075 -1.3864 -1.2946
  801MPD2    N111861   0.976   0.911  14.751  0.4768  0.5753 -0.7221
  801MPD2    H711862   0.961   0.829  14.693 -0.7923  1.0989 -1.1245
  802MPD2     C11863   4.052   1.878  17.597  0.4362 -0.4304  0.1165
  802MPD2    C111864   4.150   1.872  17.699  0.0371  0.3014  0.2643
  802MPD2    C211865   4.181   1.752   0.023  0.3019  0.2270  0.3175
  802MPD2    C311866   4.125   1.630  17.728 -0.7165  0.2783 -0.2766
  802MPD2    C411867   4.019   1.639  17.637 -0.4092  0.1168 -0.6181
  802MPD2    C511868   3.981   1.760  17.579  1.0887 -0.0201  0.1789
  802MPD2     H11869   4.258   1.761   0.099  0.1628  1.8350  0.2682
  802MPD2    H111870   3.970   1.551  17.596  0.0304 -0.5914  0.3846
  802MPD2    H211871   4.011   1.970  17.557  0.0466 -1.1427 -1.1163
  802MPD2    H311872   3.906   1.756  17.500  1.7480  0.5701 -0.4757
  802MPD2     N11873   4.181   1.508   0.028 -0.0016 -0.4264  0.3188
  802MPD2    H511874   4.266   1.519   0.081 -0.0345 -1.8292  0.6638
  802MPD2    N111875   4.228   1.986  17.734 -0.2670  0.4545  0.6569
  802MPD2    H711876   4.297   1.976   0.067  1.1447  1.2848 -0.5755
  803MPD2     C11877   1.287   4.090  11.814  0.5295  0.7477 -0.1194
  803MPD2    C111878   1.389   4.076  11.909  0.2964  0.2632 -0.5650
  803MPD2    C211879   1.387   3.966  11.992 -0.0038  0.5809  0.7519
  803MPD2    C311880   1.281   3.870  11.982  0.7217  0.2726  0.4365
  803MPD2    C411881   1.175   3.889  11.894 -0.1067  0.0555  0.0903
  803MPD2    C511882   1.186   3.996  11.808 -0.1767  0.3113 -0.7097
  803MPD2     H11883   1.465   3.961  12.067  0.7849  0.0841 -0.0832
  803MPD2    H111884   1.090   3.823  11.889  0.4883 -0.6353 -0.9074
  803MPD2    H211885   1.287   4.173  11.745  0.7527  1.8225  1.1721
  803MPD2    H311886   1.114   4.020  11.731  0.6492 -2.6549 -2.3820
  803MPD2     N11887   1.275   3.745  12.059  0.4241 -0.2965 -0.0578
  803MPD2    H511888   1.195   3.683  12.048  0.9007 -0.8452 -0.4332
  803MPD2    N111889   1.500   4.160  11.920  0.0204 -0.0878  0.3501
  803MPD2    H711890   1.575   4.133  11.983 -1.0744  0.1726  1.7711
  804MPD2     C11891   0.464   1.481  16.667  0.3812 -0.1167 -0.3115
  804MPD2    C111892   0.403   1.502  16.789 -0.3549  0.0684 -0.3021
  804MPD2    C211893   0.444   1.599  16.872 -0.6178  0.3547 -0.4119
  804MPD2    C311894   0.554   1.672  16.835  0.0275  0.0429 -0.2022
  804MPD2    C411895   0.620   1.647  16.717 -0.7303  0.3635 -0.4923
  804MPD2    C511896   0.578   1.548  16.638  0.9390 -0.4883  0.7041
  804MPD2     H11897   0.397   1.605  16.969  0.8181  2.3500  0.1638
  804MPD2    H111898   0.713   1.698  16.695 -0.9405  1.1908  0.5519
  804MPD2    H211899   0.426   1.418  16.587 -2.8044  0.1270  1.0092
  804MPD2    H311900   0.633   1.529  16.546  0.2531  0.7664  0.0434
  804MPD2     N11901   0.603   1.760  16.934  0.0457 -0.6179 -0.4112
  804MPD2    H511902   0.551   1.766  17.021 -0.3246 -1.1310 -0.5989
  804MPD2    N111903   0.288   1.431  16.836  0.5995  0.5842  0.3082
  804MPD2    H711904   0.261   1.451  16.931 -0.4495 -0.6473  0.2704
  805MPD2     C11905   4.118   4.496  15.512 -0.4156 -0.0645  0.0403
  805MPD2    C111906   4.236   4.508  15.439  0.0748 -0.0392  0.0486
  805MPD2    C211907   4.358   4.538  15.508 -0.1261  0.4627  0.0213
  805MPD2    C311908   4.355   4.543  15.648 -0.6394  0.2600  0.6289
  805MPD2    C411909   4.235   4.526  15.724  0.1715  0.1889  0.6503
  805MPD2    C511910   4.122   4.501  15.650  0.0197  0.4041 -0.9162
  805MPD2     H11911   4.452   4.564  15.460  0.0812 -0.2196  0.0661
  805MPD2    H111912   4.232   4.534  15.832 -0.0256 -0.4330  0.6902
  805MPD2    H211913   4.019   4.484  15.469 -0.0995 -0.1088 -0.6684
  805MPD2    H311914   4.031   4.501  15.708  0.2283 -1.7492 -0.5845
  805MPD2     N11915   4.477   4.576  15.703 -0.1251 -0.1607  0.1116
  805MPD2    H511916   4.555   4.578  15.638 -1.4514 -4.9943 -1.6237
  805MPD2    N111917   4.240   4.502  15.297 -0.0390 -0.2886 -0.2323
  805MPD2    H711918   4.331   4.519  15.257  0.1914  1.7769  1.1585
  806MPD2     C11919   0.147   3.553  17.579  0.2968  0.0303  0.2361
  806MPD2    C111920   0.056   3.610  17.672 -0.0275  0.3844 -0.2037
  806MPD2    C211921   0.073   3.735  17.726  0.3508  0.1275  0.1107
  806MPD2    C311922   0.196   3.798  17.715 -0.1747  0.3064 -0.0039
  806MPD2    C411923   0.290   3.740  17.631 -0.7961 -0.3063  0.8758
  806MPD2    C511924   0.267   3.619  17.564  0.2513 -0.1449  0.0104
  806MPD2     H11925   4.734   3.788   0.045  0.7636  0.3887  0.3935
  806MPD2    H111926   0.387   3.784  17.611 -0.3264 -1.9647 -0.4649
  806MPD2    H211927   0.138   3.457  17.531 -1.3673  0.4877 -0.3914
  806MPD2    H311928   0.350   3.586  17.502  0.4313 -0.7732  0.5818
  806MPD2     N11929   0.209   3.919   0.046 -0.2553 -0.0991  0.6652
  806MPD2    H511930   0.125   3.961   0.084 -1.6949 -2.1168 -0.3193
  806MPD2    N111931   4.675   3.530  17.700 -0.1153  0.1950  0.1704
  806MPD2    H711932   4.665   3.442  17.651  1.8361  0.1554 -0.1821
  807MPD2     C11933   4.703   2.846   0.315  0.0140  0.3489  0.1150
  807MPD2    C111934   4.566   2.880   0.320 -0.1672 -0.6644  0.2720
  807MPD2    C211935   4.489   2.814   0.403  0.8433 -0.0294 -0.3686
  807MPD2    C311936   4.536   2.716   0.479 -0.3320 -0.2921 -0.0867
  807MPD2    C411937   4.662   2.664   0.462  0.2952 -0.9108  0.4193
  807MPD2    C511938   0.004   2.730   0.381 -0.8419 -0.5861  0.2262
  807MPD2     H11939   4.387   2.846   0.421  1.1150  0.5912  0.0570
  807MPD2    H111940   4.699   2.576   0.514  0.5769 -3.2798 -3.8091
  807MPD2    H211941   0.038   2.901   0.254 -0.5062  0.7620 -0.1111
  807MPD2    H311942   0.111   2.714   0.378 -0.9737 -1.5737  0.7088
  807MPD2     N11943   4.446   2.664   0.573 -0.5229  0.2552  0.6388
  807MPD2    H511944   4.355   2.708   0.570 -1.0973 -0.9840 -0.2959
  807MPD2    N111945   4.515   2.988   0.249  0.2441  0.4413 -0.1780
  807MPD2    H711946   4.416   2.996   0.231  0.2356  0.4555 -0.1218
  808MPD2     C11947   0.991   0.137   9.380  0.2361 -0.0054  0.9737
  808MPD2    C111948   0.946   0.168   9.508 -0.3256  0.4117 -0.2880
  808MPD2    C211949   0.928   0.298   9.553  0.0509 -0.1958  0.2335
  808MPD2    C311950   0.946   0.401   9.464  0.1018 -0.1200 -0.0541
  808MPD2    C411951   0.992   0.374   9.338  0.0246  0.2852  0.3792
  808MPD2    C511952   1.013   0.251   9.293 -0.1029 -0.5886  0.4783
  808MPD2     H11953   0.913   0.316   9.659  1.1669 -0.9999  0.5274
  808MPD2    H111954   1.024   0.459   9.278  2.3712  0.8212  2.4072
  808MPD2    H211955   1.023   0.041   9.340 -0.4750  0.2818 -0.2914
  808MPD2    H311956   1.061   0.235   9.197  0.6696 -1.3807  0.9915
  808MPD2     N11957   0.939   0.537   9.503  0.1484  0.3132  0.3972
  808MPD2    H511958   0.974   0.608   9.440 -0.7319  0.2541 -0.1614
  808MPD2    N111959   0.956   0.065   9.615 -0.6743 -0.5380 -0.2279
  808MPD2    H711960   0.934   0.100   9.708  0.5616 -2.0700  0.6267
  809MPD2     C11961   1.639   1.232   9.664  0.3882  0.2924  0.0109
  809MPD2    C111962   1.621   1.104   9.618  0.1263 -0.1813 -0.5546
  809MPD2    C211963   1.502   1.046   9.620 -0.3316 -0.3787 -0.2676
  809MPD2    C311964   1.390   1.111   9.680 -0.3525  0.1282 -0.1106
  809MPD2    C411965   1.406   1.237   9.725 -0.1106  0.8732 -0.3085
  809MPD2    C511966   1.525   1.301   9.713  0.2733  0.0464  0.0704
  809MPD2     H11967   1.484   0.952   9.570 -5.2759  0.1842  0.4703
  809MPD2    H111968   1.326   1.296   9.768  0.7960  0.2818  2.1477
  809MPD2    H211969   1.735   1.282   9.655  0.4528  0.5526  2.2312
  809MPD2    H311970   1.546   1.402   9.746  2.5760 -0.2286 -0.5212
  809MPD2     N11971   1.262   1.063   9.673 -0.2841 -0.0045  0.2831
  809MPD2    H511972   1.192   1.126   9.712 -2.2514 -2.7101  1.1340
  809MPD2    N111973   1.726   1.019   9.570 -0.4055 -0.5550  0.2590
  809MPD2    H711974   1.701   0.927   9.533  0.8232 -1.0292  0.5930
  810MPD2     C11975   0.680   4.112  10.315  0.0564 -0.3330 -0.1160
  810MPD2    C111976   0.552   4.113  10.366 -0.2564  0.3644  0.0496
  810MPD2    C211977   0.494   4.235  10.398  0.2016 -0.5535 -0.3156
  810MPD2    C311978   0.556   4.358  10.371  0.3831  0.8343  0.4142
  810MPD2    C411979   0.684   4.355  10.317  0.0813 -0.4696  0.2328
  810MPD2    C511980   0.737   4.234  10.287 -0.3356 -0.4476  0.0552
  810MPD2     H11981   0.393   4.240  10.438  0.3582 -1.4289  0.1758
  810MPD2    H111982   0.730   4.447  10.283 -1.3141  0.2883  0.3661
  810MPD2    H211983   0.722   4.016  10.288 -0.0039 -0.6366  0.8761
  810MPD2    H311984   0.830   4.233  10.231 -0.6049 -1.8308 -0.3518
  810MPD2     N11985   0.492   4.482  10.392 -0.0134 -0.3926 -0.4494
  810MPD2    H511986   0.548   4.567  10.384 -2.1990  1.0153 -0.9881
  810MPD2    N111987   0.489   3.985  10.385  0.3243 -0.0234 -0.1058
  810MPD2    H711988   0.533   3.903  10.346 -2.1181 -1.7756  0.8290
  811MPD2     C11989   4.505   3.768  10.061 -0.1937 -0.5272  0.4905
  811MPD2    C111990   4.594   3.850  10.131  0.2147  0.5778  0.2627
  811MPD2    C211991   4.585   3.987  10.125 -0.4800 -0.0841  0.0678
  811MPD2    C311992   4.502   4.038  10.033 -0.4123 -0.4109  0.2422
  811MPD2    C411993   4.418   3.961   9.955 -0.2455 -0.2962  0.0550
  811MPD2    C511994   4.417   3.824   9.972  0.2045  0.4448  0.6676
  811MPD2     H11995   4.639   4.048  10.197 -0.9302  0.0201  0.3126
  811MPD2    H111996   4.336   3.993   9.891 -0.9807 -2.6134 -0.1877
  811MPD2    H211997   4.505   3.660  10.066  0.8722 -0.5293  0.4673
  811MPD2    H311998   4.347   3.766   9.913  1.1670 -1.0410  0.9865
  811MPD2     N11999   4.501   4.178  10.028  0.5216 -0.5985  0.0300
  811MPD2    H512000   4.571   4.215  10.092  0.3493  0.3344 -0.3335
  811MPD2    N112001   4.675   3.790  10.229 -0.1047  0.4035 -0.1186
  811MPD2    H712002   4.657   3.692  10.247  0.1658  0.4765  0.5214
  812MPD2     C12003   3.494   4.023  12.230  0.1657  0.6199  0.2871
  812MPD2    C112004   3.573   4.132  12.260 -0.3547  0.1008 -0.7413
  812MPD2    C212005   3.629   4.142  12.384  0.7450  0.1320 -1.0726
  812MPD2    C312006   3.605   4.049  12.481  1.0250 -0.6041  0.4074
  812MPD2    C412007   3.527   3.944  12.453 -0.1094 -0.4695  0.2736
  812MPD2    C512008   3.465   3.931  12.329  0.6694  0.3949 -0.2689
  812MPD2     H12009   3.687   4.231  12.402  0.5896  0.2041 -0.9208
  812MPD2    H112010   3.500   3.863  12.520 -0.1690  0.0422  0.8652
  812MPD2    H212011   3.442   4.019  12.135 -1.9153  0.0399  1.4309
  812MPD2    H312012   3.402   3.846  12.304  1.7894  0.4639 -3.3231
  812MPD2     N12013   3.695   4.054  12.585  0.1767  0.4145  0.5601
  812MPD2    H512014   3.761   4.131  12.586 -0.3426  0.8494  1.4413
  812MPD2    N112015   3.594   4.215  12.147  0.9691 -0.0717  0.2003
  812MPD2    H712016   3.555   4.178  12.061 -3.0645  1.4427  1.3667
  813MPD2     C12017   2.702   1.337  12.771  0.5862 -0.3936 -0.0692
  813MPD2    C112018   2.736   1.465  12.813  0.1656 -0.0852 -0.1343
  813MPD2    C212019   2.665   1.520  12.913 -0.7238  0.1778  0.0759
  813MPD2    C312020   2.555   1.458  12.976 -0.4357 -0.3833 -0.6317
  813MPD2    C412021   2.517   1.338  12.924 -0.3730  0.8257  0.1457
  813MPD2    C512022   2.594   1.280  12.824  0.0548 -0.3637  0.4844
  813MPD2     H12023   2.683   1.621  12.947  2.2780 -0.6014  0.7401
  813MPD2    H112024   2.431   1.278  12.952  0.6567 -1.0524 -0.6948
  813MPD2    H212025   2.754   1.285  12.692  1.3031 -1.6002  1.1907
  813MPD2    H312026   2.572   1.176  12.800 -1.2204 -0.0896  0.4807
  813MPD2     N12027   2.489   1.527  13.074 -0.4557 -0.2691  0.0856
  813MPD2    H512028   2.535   1.613  13.104 -1.9467  0.2493  0.8975
  813MPD2    N112029   2.848   1.529  12.765 -0.0922 -0.1974 -0.0824
  813MPD2    H712030   2.856   1.622  12.803  0.6448  0.4768 -1.8853
  814MPD2     C12031   3.571   2.549  12.657  0.2628 -0.1099 -0.5074
  814MPD2    C112032   3.545   2.669  12.599 -0.5728  0.0975 -0.4599
  814MPD2    C212033   3.554   2.787  12.670 -0.1871 -0.2482 -0.2023
  814MPD2    C312034   3.604   2.781  12.805 -1.1430  0.1981  0.0888
  814MPD2    C412035   3.638   2.660  12.858 -0.4817  0.3602 -0.1787
  814MPD2    C512036   3.618   2.540  12.790  1.2329 -0.0671 -0.3590
  814MPD2     H12037   3.537   2.881  12.619 -1.7059 -0.1828  0.4290
  814MPD2    H112038   3.666   2.654  12.962  1.7531  1.2368 -0.7278
  814MPD2    H212039   3.562   2.458  12.598 -1.5790  0.8925 -1.8031
  814MPD2    H312040   3.635   2.444  12.836 -2.8681 -0.2023  0.7962
  814MPD2     N12041   3.632   2.894  12.877 -0.4342  0.3098 -0.3035
  814MPD2    H512042   3.683   2.885  12.964  0.3876  2.0124 -0.6271
  814MPD2    N112043   3.510   2.681  12.462  0.1358  0.0035  0.0661
  814MPD2    H712044   3.525   2.773  12.423 -0.3758 -0.5345 -1.4006
  815MPD2     C12045   4.007   0.984  11.461  0.1961  0.2762  0.1571
  815MPD2    C112046   3.948   0.871  11.404  0.3409 -0.2617 -0.2693
  815MPD2    C212047   3.847   0.799  11.473 -0.3155 -0.0323  0.7212
  815MPD2    C312048   3.802   0.850  11.595 -1.2900 -0.8519 -0.5819
  815MPD2    C412049   3.848   0.967  11.641 -0.5037  1.0915  0.1510
  815MPD2    C512050   3.949   1.033  11.575  0.8935  0.0817 -0.4751
  815MPD2     H12051   3.814   0.705  11.429  1.0876  1.6085 -3.8372
  815MPD2    H112052   3.796   1.024  11.718 -0.4218  2.6262 -0.9207
  815MPD2    H212053   4.087   1.037  11.410  0.9325 -1.9388 -0.9698
  815MPD2    H312054   3.983   1.129  11.614 -0.7414 -0.1263  1.4152
  815MPD2     N12055   3.701   0.782  11.666  0.4299 -0.3270 -0.4107
  815MPD2    H512056   3.651   0.714  11.610 -1.0776 -0.1759  0.7433
  815MPD2    N112057   4.000   0.820  11.284  0.0900  0.0978 -0.2217
  815MPD2    H712058   4.072   0.875  11.238 -0.1156  1.9006  1.6340
  816MPD2     C12059   3.165   0.430  17.212  0.1702  0.0448 -0.3215
  816MPD2    C112060   3.244   0.536  17.260  0.0385  0.4182 -0.7072
  816MPD2    C212061   3.379   0.528  17.245 -0.5055  0.5924 -0.4263
  816MPD2    C312062   3.439   0.422  17.187 -0.4034 -0.9746  0.4539
  816MPD2    C412063   3.361   0.317  17.143 -0.3362 -0.0766 -0.0994
  816MPD2    C512064   3.224   0.324  17.156 -0.3488 -0.3467 -0.4240
  816MPD2     H12065   3.454   0.606  17.252 -3.0341  2.8447  1.4146
  816MPD2    H112066   3.411   0.238  17.088  0.0986 -0.8019  1.3370
  816MPD2    H212067   3.057   0.434  17.207  0.2359  0.2405 -1.5362
  816MPD2    H312068   3.155   0.249  17.119  0.7925 -1.8785  0.5420
  816MPD2     N12069   3.578   0.434  17.153  0.2147 -0.3124  0.0574
  816MPD2    H512070   3.626   0.517  17.184  3.0233 -0.5583 -3.7167
  816MPD2    N112071   3.186   0.658  17.300 -0.2450  0.2190  0.6259
  816MPD2    H712072   3.087   0.669  17.282 -0.0825  1.9292  0.7667
  817MPD2     C12073   3.143   2.158  10.227 -0.9960 -0.3731  0.0810
  817MPD2    C112074   3.238   2.218  10.149 -0.2379  0.1901  0.4506
  817MPD2    C212075   3.217   2.335  10.085  0.6156 -0.2481 -0.2298
  817MPD2    C312076   3.097   2.396  10.091 -0.4865  0.3133 -0.2853
  817MPD2    C412077   2.994   2.338  10.162  0.7244  0.1013 -0.1014
  817MPD2    C512078   3.022   2.221  10.223 -0.2273  0.2258  0.6556
  817MPD2     H12079   3.298   2.391  10.040  2.3491 -1.6699  1.1563
  817MPD2    H112080   2.895   2.383  10.158  0.3767 -0.7172 -0.6467
  817MPD2    H212081   3.149   2.060  10.274  0.0954 -0.9201 -1.1976
  817MPD2    H312082   2.943   2.163  10.271  0.9053 -0.1451  2.0585
  817MPD2     N12083   3.081   2.515  10.021 -0.0122 -0.5123  0.0616
  817MPD2    H512084   3.157   2.545   9.960 -0.5307 -0.2350 -0.4509
  817MPD2    N112085   3.370   2.164  10.138 -0.3163  0.4102 -0.4055
  817MPD2    H712086   3.426   2.211  10.068 -0.0585 -0.9634 -1.1166
  818MPD2     C12087   2.298   1.792  10.004 -0.5241  0.0808 -0.1139
  818MPD2    C112088   2.180   1.743  10.058  0.3521  0.0978  0.9522
  818MPD2    C212089   2.150   1.611  10.033  0.6034 -0.6534 -0.1967
  818MPD2    C312090   2.242   1.529   9.965  0.6940  0.6933  0.3329
  818MPD2    C412091   2.350   1.586   9.897 -0.0896  0.0097  0.4543
  818MPD2    C512092   2.381   1.719   9.920 -0.7814  0.9597  0.1848
  818MPD2     H12093   2.060   1.569  10.077  0.1909 -1.5444 -1.8850
  818MPD2    H112094   2.428   1.521   9.858 -0.3484  0.6682 -1.1561
  818MPD2    H212095   2.334   1.894  10.015 -0.0018  0.1269 -2.1768
  818MPD2    H312096   2.468   1.766   9.875  0.9583 -2.8325 -0.3861
  818MPD2     N12097   2.220   1.387   9.947 -0.6783 -0.1905 -0.2743
  818MPD2    H512098   2.288   1.348   9.883 -1.7008  0.4726 -1.7585
  818MPD2    N112099   2.085   1.826  10.124 -0.1824 -0.2316 -0.4393
  818MPD2    H712100   2.002   1.779  10.158  1.4454 -1.0376  2.4182
  819MPD2     C12101   0.142   4.044  15.612  0.5379  0.6816 -0.2302
  819MPD2    C112102   0.206   3.942  15.561  0.3746 -0.0544 -0.8986
  819MPD2    C212103   0.329   3.908  15.614  0.0584  0.1035  0.0226
  819MPD2    C312104   0.387   3.985  15.715  0.0419  0.0724 -0.1398
  819MPD2    C412105   0.313   4.090  15.768  0.0639  0.0128 -0.4638
  819MPD2    C512106   0.189   4.115  15.716 -0.5768 -0.2831  0.0658
  819MPD2     H12107   0.389   3.831  15.567  1.1684  1.0292 -0.0733
  819MPD2    H112108   0.352   4.153  15.846  1.0959 -1.2866  0.0683
  819MPD2    H212109   0.037   4.065  15.593  0.1804 -0.8235  0.1146
  819MPD2    H312110   0.129   4.198  15.753  0.7906 -0.4407  2.6215
  819MPD2     N12111   0.519   3.947  15.760 -0.2600  0.2916  0.1142
  819MPD2    H512112   0.572   3.870  15.721  0.5129  0.3652  0.9950
  819MPD2    N112113   0.139   3.865  15.467  0.3708  0.6169  0.2803
  819MPD2    H712114   0.041   3.882  15.445 -0.2729 -1.8779  1.1960
  820MPD2     C12115   4.123   3.876  14.854 -0.1708  0.1395  0.0784
  820MPD2    C112116   4.224   3.960  14.904 -0.0037  0.0954  0.0502
  820MPD2    C212117   4.335   3.905  14.962 -0.3292 -0.1478  0.5003
  820MPD2    C312118   4.346   3.766  14.989 -1.3025  0.7173 -0.1750
  820MPD2    C412119   4.245   3.686  14.942 -0.1844  0.0390 -0.8168
  820MPD2    C512120   4.135   3.740  14.879  0.0142 -0.1817  0.5789
  820MPD2     H12121   4.419   3.961  15.000  0.7528 -0.9195 -0.7472
  820MPD2    H112122   4.249   3.578  14.943  0.1302  0.0486 -1.4040
  820MPD2    H212123   4.035   3.913  14.800  0.1204 -0.6374 -0.9346
  820MPD2    H312124   4.062   3.669  14.843  0.9768  1.1419 -3.9818
  820MPD2     N12125   4.451   3.715  15.063  0.0687 -0.1415  0.0043
  820MPD2    H512126   4.450   3.616  15.088  0.5102  0.2880  1.7691
  820MPD2    N112127   4.219   4.098  14.875  0.1631 -0.4376  0.0595
  820MPD2    H712128   4.136   4.140  14.835  0.5554 -1.7238 -2.0830
  821MPD2     C12129   0.704   4.595  13.617 -0.0345 -0.1840 -0.8449
  821MPD2    C112130   0.803   4.670  13.674 -0.0289  0.0129  0.1483
  821MPD2    C212131   0.887   0.016  13.597  0.3045 -0.4171  0.5370
  821MPD2    C312132   0.873   0.024  13.462 -0.4963 -0.0072 -0.4179
  821MPD2    C412133   0.784   4.676  13.400 -0.0649 -0.2836 -0.4309
  821MPD2    C512134   0.702   4.603  13.479  0.0428  0.1913 -0.0657
  821MPD2     H12135   0.974   0.061  13.644  0.9935 -1.1457 -0.0377
  821MPD2    H112136   0.776   4.671  13.292 -1.8187 -0.7767 -0.2809
  821MPD2    H212137   0.635   4.535  13.675  0.2739  0.5564  0.2854
  821MPD2    H312138   0.633   4.543  13.421 -1.3162  3.1636 -1.5093
  821MPD2     N12139   0.975   0.083  13.383  0.3398  0.3040 -0.1959
  821MPD2    H512140   0.976   0.069  13.283  0.2104 -1.6576  0.0603
  821MPD2    N112141   0.837   4.658  13.805  0.3962 -0.2736 -0.4939
  821MPD2    H712142   0.898   4.728  13.846  0.7928  0.1633 -1.8239
  822MPD2     C12143   1.111   0.932  15.639  0.4096  0.2552  0.2835
  822MPD2    C112144   1.059   0.861  15.743 -0.6757 -0.3235 -0.1728
  822MPD2    C212145   0.974   0.929  15.832  0.3888  0.3362 -0.3509
  822MPD2    C312146   0.945   1.059  15.809  0.6269 -0.7680  0.3626
  822MPD2    C412147   0.991   1.127  15.698  0.1110 -0.4096 -0.1900
  822MPD2    C512148   1.079   1.063  15.620  0.0620 -0.2888  0.8407
  822MPD2     H12149   0.928   0.868  15.909  0.0683  0.3696 -0.5126
  822MPD2    H112150   0.961   1.230  15.683 -1.8926 -0.7030  1.7068
  822MPD2    H212151   1.173   0.877  15.569  1.5609  0.1047  1.4330
  822MPD2    H312152   1.119   1.106  15.529 -0.4317 -0.8158  0.3749
  822MPD2     N12153   0.869   1.119  15.905  0.1765 -0.1304  0.1480
  822MPD2    H512154   0.838   1.054  15.977 -0.2193  1.6032  1.5579
  822MPD2    N112155   1.080   0.718  15.776  0.2056  0.2093 -0.1364
  822MPD2    H712156   1.039   0.668  15.854 -0.5373 -0.7038 -1.1086
  823MPD2     C12157   0.526   1.136  16.692  0.1800  0.2126  0.0634
  823MPD2    C112158   0.520   1.093  16.561 -0.0737 -0.3790  0.1148
  823MPD2    C212159   0.486   0.962  16.540 -0.2362  0.4011  0.0013
  823MPD2    C312160   0.443   0.879  16.638 -0.0662 -0.0962 -0.3362
  823MPD2    C412161   0.425   0.933  16.764 -0.2001  0.1105 -0.8622
  823MPD2    C512162   0.457   1.061  16.788 -0.4514 -0.4287 -0.2222
  823MPD2     H12163   0.497   0.921  16.440 -1.7357 -0.8162  0.3535
  823MPD2    H112164   0.373   0.883  16.845 -0.9367  1.6207 -0.3948
  823MPD2    H212165   0.581   1.226  16.716 -0.5714  0.4301  0.9651
  823MPD2    H312166   0.458   1.095  16.890 -2.9234 -0.0238 -0.3264
  823MPD2     N12167   0.423   0.744  16.613 -0.6383 -0.0428 -0.0397
  823MPD2    H512168   0.383   0.685  16.685  0.2138 -0.7123 -0.1130
  823MPD2    N112169   0.580   1.172  16.464 -0.1201  0.3717 -0.0156
  823MPD2    H712170   0.637   1.252  16.489 -0.1567  1.1000 -2.2367
  824MPD2     C12171   1.548   0.120  15.409 -0.2500  0.0873  0.0605
  824MPD2    C112172   1.571   0.160  15.537  0.5577 -0.3409  0.2700
  824MPD2    C212173   1.686   0.108  15.599 -0.0447 -0.4701 -0.3595
  824MPD2    C312174   1.757   0.010  15.542 -0.5028  0.7434  0.6416
  824MPD2    C412175   1.723   4.701  15.416 -0.2042  0.8128  0.4605
  824MPD2    C512176   1.627   0.032  15.342  1.6184  0.1586  0.0220
  824MPD2     H12177   1.723   0.133  15.698  0.2112  2.0784 -1.1070
  824MPD2    H112178   1.766   4.615  15.365 -0.9957  0.8316 -0.2275
  824MPD2    H212179   1.457   0.148  15.358  1.1153  0.1127 -2.3724
  824MPD2    H312180   1.603   4.728  15.244 -2.5348 -1.6909  1.7633
  824MPD2     N12181   1.857   4.684  15.619 -0.3964 -0.2598  0.2743
  824MPD2    H512182   1.855   4.726  15.712  1.5869 -0.6861  0.4935
  824MPD2    N112183   1.486   0.257  15.584  0.4165 -1.0068 -0.1636
  824MPD2    H712184   1.415   0.286  15.518  2.0004  1.6445 -0.6993
  825MPD2     C12185   2.347   0.137  16.110  0.4544  0.1130 -0.8494
  825MPD2    C112186   2.289   0.153  15.986  0.1861 -0.1692 -0.4448
  825MPD2    C212187   2.269   0.285  15.948  0.2883 -0.6104 -0.4652
  825MPD2    C312188   2.302   0.396  16.027 -0.2067  0.6847  0.1315
  825MPD2    C412189   2.374   0.370  16.138 -0.9455 -0.7594  0.3942
  825MPD2    C512190   2.388   0.245  16.183 -0.3222  0.4589 -0.4675
  825MPD2     H12191   2.217   0.309  15.856  1.3490  2.7086 -0.1999
  825MPD2    H112192   2.410   0.444  16.209 -0.3749  0.2721 -0.9961
  825MPD2    H212193   2.359   0.037  16.150 -0.9489 -0.9565 -3.1114
  825MPD2    H312194   2.437   0.236  16.279 -0.1139 -5.0478 -1.0739
  825MPD2     N12195   2.277   0.530  15.998  0.6013 -0.2102 -1.0666
  825MPD2    H512196   2.299   0.594  16.074 -2.5428 -1.4050  0.8263
  825MPD2    N112197   2.240   0.046  15.912  0.5847  0.2537 -0.3900
  825MPD2    H712198   2.196   0.070  15.824  0.4541 -1.4666 -0.8104
  826MPD2     C12199   1.688   3.939  13.773  0.3786 -0.6449 -0.7055
  826MPD2    C112200   1.788   3.975  13.681 -0.2686 -0.0414  0.0646
  826MPD2    C212201   1.836   4.107  13.682 -0.2045  0.0670  0.7653
  826MPD2    C312202   1.796   4.191  13.780  0.1512 -0.0256 -0.1089
  826MPD2    C412203   1.689   4.157  13.859 -0.2822  0.2768 -0.4505
  826MPD2    C512204   1.643   4.026  13.863 -0.8697  0.3812  0.1724
  826MPD2     H12205   1.914   4.148  13.618  0.0363 -0.4507  0.7234
  826MPD2    H112206   1.652   4.216  13.942 -1.0926 -0.5167 -0.2400
  826MPD2    H212207   1.649   3.839  13.785  0.3943 -0.6924 -1.0686
  826MPD2    H312208   1.565   3.991  13.930 -0.3879 -1.2058 -0.0862
  826MPD2     N12209   1.842   4.324  13.792  0.2626 -0.0544  0.2149
  826MPD2    H512210   1.797   4.381  13.862 -2.2149  1.3142 -2.4960
  826MPD2    N112211   1.839   3.879  13.588 -0.5418  0.3727  0.1895
  826MPD2    H712212   1.798   3.787  13.601 -1.4530  0.9340  1.2053
  827MPD2     C12213   2.752   0.986   9.829  0.2176  0.1121  0.3389
  827MPD2    C112214   2.732   0.878   9.909 -0.1894 -0.4852 -0.6654
  827MPD2    C212215   2.667   0.767   9.858 -0.3961 -0.1715 -0.5703
  827MPD2    C312216   2.628   0.769   9.727 -0.3550 -0.1717  0.1364
  827MPD2    C412217   2.654   0.879   9.647  0.0445 -0.0692  0.8089
  827MPD2    C512218   2.715   0.991   9.700  0.7239  0.3509  0.2868
  827MPD2     H12219   2.652   0.678   9.917  0.2357  0.3499  0.3722
  827MPD2    H112220   2.629   0.883   9.542  2.2580  1.6291  0.3478
  827MPD2    H212221   2.789   1.081   9.868  1.1910  0.2226 -0.8568
  827MPD2    H312222   2.730   1.080   9.639 -0.1491  0.1166 -0.2663
  827MPD2     N12223   2.575   0.651   9.684 -0.8767  0.2648  0.3674
  827MPD2    H512224   2.561   0.584   9.760 -0.5211  0.2421  0.4131
  827MPD2    N112225   2.764   0.884  10.045 -0.5017  0.1430 -0.3800
  827MPD2    H712226   2.817   0.966  10.074  1.8209 -0.8488 -1.8471
  828MPD2     C12227   1.893   0.511  12.473  0.1706 -0.5126 -0.3608
  828MPD2    C112228   1.784   0.549  12.394  0.3032 -0.1996 -0.2975
  828MPD2    C212229   1.756   0.471  12.282 -0.3677 -0.0853 -0.0833
  828MPD2    C312230   1.845   0.377  12.229 -0.1506  1.0696 -0.1514
  828MPD2    C412231   1.952   0.338  12.312  0.3779 -0.2162 -0.7120
  828MPD2    C512232   1.967   0.404  12.431 -0.0210  0.1610  0.2211
  828MPD2     H12233   1.659   0.493  12.238  0.0481  1.4049 -0.2809
  828MPD2    H112234   2.025   0.266  12.279 -1.2719 -2.8135  1.2455
  828MPD2    H212235   1.922   0.549  12.570 -0.0674  0.0077 -0.4930
  828MPD2    H312236   2.050   0.378  12.497  0.1487 -0.4083 -0.2205
  828MPD2     N12237   1.827   0.304  12.107  0.0942  0.6141  0.6566
  828MPD2    H512238   1.899   0.239  12.079 -1.0769 -0.5242  0.2841
  828MPD2    N112239   1.681   0.640  12.434 -0.1275 -0.1261 -0.0845
  828MPD2    H712240   1.593   0.649  12.384  1.0151  1.7805 -1.7621
  829MPD2     C12241   0.878   1.070  12.126  0.6137  0.7922 -0.2272
  829MPD2    C112242   0.961   0.965  12.105 -0.1761  0.0815  0.1208
  829MPD2    C212243   1.067   0.940  12.191 -0.1587 -0.0039  0.5941
  829MPD2    C312244   1.090   1.023  12.306  0.4497  0.5444  0.8104
  829MPD2    C412245   1.002   1.130  12.330 -0.2483 -0.3513 -0.3876
  829MPD2    C512246   0.902   1.152  12.236 -0.0619  0.3666  0.5903
  829MPD2     H12247   1.134   0.856  12.176 -0.0482  0.4190 -1.3768
  829MPD2    H112248   0.999   1.182  12.426  3.2520 -0.4994 -0.2020
  829MPD2    H212249   0.802   1.095  12.053 -0.0952 -0.9328 -0.0699
  829MPD2    H312250   0.830   1.223  12.276 -2.0502 -1.4357  0.1916
  829MPD2     N12251   1.180   0.993  12.411 -0.1637  0.2125  0.4131
  829MPD2    H512252   1.187   1.055  12.491 -1.0212  0.4142  0.3323
  829MPD2    N112253   0.921   0.869  12.009  0.6835 -0.0404 -0.1597
  829MPD2    H712254   0.831   0.889  11.965  1.4275 -1.3980 -2.3162
  830MPD2     C12255   1.337   4.025  15.632  0.1458 -0.1222  0.3282
  830MPD2    C112256   1.222   3.952  15.592 -1.1858 -0.1320 -0.9267
  830MPD2    C212257   1.227   3.881  15.469 -0.9056 -0.2160  0.4179
  830MPD2    C312258   1.347   3.870  15.395  0.4746 -0.0877  0.5018
  830MPD2    C412259   1.453   3.951  15.429 -0.5187 -0.0786 -0.3379
  830MPD2    C512260   1.445   4.024  15.549  0.0468  0.3297 -0.1262
  830MPD2     H12261   1.139   3.829  15.431 -0.4198  0.4730 -1.6693
  830MPD2    H112262   1.546   3.943  15.374  1.4460 -1.1612  3.1427
  830MPD2    H212263   1.341   4.075  15.728 -0.7558  0.9388 -0.1822
  830MPD2    H312264   1.536   4.073  15.583  0.6852 -1.8546  1.3259
  830MPD2     N12265   1.359   3.799  15.270  0.8890 -0.2841  0.3347
  830MPD2    H512266   1.438   3.821  15.210  1.9384 -2.4024  0.9427
  830MPD2    N112267   1.117   3.951  15.683  0.4629 -0.3367 -0.3596
  830MPD2    H712268   1.131   3.994  15.773  0.7370  0.9115 -0.9981
  831MPD2     C12269   0.998   0.978  16.314 -0.0460  0.1457  0.2882
  831MPD2    C112270   1.040   0.886  16.215 -0.4393  0.2656 -0.1165
  831MPD2    C212271   0.949   0.796  16.168  0.0378  0.7415  0.0786
  831MPD2    C312272   0.818   0.788  16.223 -0.8672 -0.4255  0.8287
  831MPD2    C412273   0.789   0.869  16.330 -0.7768 -0.1004 -0.6349
  831MPD2    C512274   0.880   0.957  16.375 -0.7069  0.0577  0.0880
  831MPD2     H12275   0.982   0.727  16.092  1.5752  2.1903 -0.5751
  831MPD2    H112276   0.689   0.867  16.373 -1.0073  0.5474 -1.1473
  831MPD2    H212277   1.055   1.062  16.352  1.9007 -0.7061 -0.7271
  831MPD2    H312278   0.851   1.025  16.454  1.7687  1.5140 -0.2497
  831MPD2     N12279   0.719   0.692  16.179 -0.2404  0.1265 -0.0320
  831MPD2    H512280   0.629   0.703  16.225 -1.0964 -1.8728 -1.2463
  831MPD2    N112281   1.162   0.903  16.150 -0.1577 -0.2769 -0.1040
  831MPD2    H712282   1.206   0.994  16.151 -0.2488 -0.2325 -0.1201
  832MPD2     C12283   4.179   1.476  17.328  0.3418  0.2951 -0.1059
  832MPD2    C112284   4.167   1.599  17.273 -0.1516  0.4377 -0.0137
  832MPD2    C212285   4.074   1.624  17.177 -0.4599 -0.1358  0.2525
  832MPD2    C312286   3.990   1.523  17.124  0.4983 -0.4044 -0.7374
  832MPD2    C412287   4.004   1.392  17.175 -0.1154 -0.0624  0.6580
  832MPD2    C512288   4.103   1.376  17.276 -0.2762 -0.2139 -0.4966
  832MPD2     H12289   4.047   1.726  17.154 -0.6956 -0.4660 -0.9495
  832MPD2    H112290   3.949   1.308  17.135  0.1804 -0.8495  1.9186
  832MPD2    H212291   4.253   1.458  17.405  0.7001 -0.0423 -0.5317
  832MPD2    H312292   4.120   1.273  17.304  2.9191  0.2516 -0.6512
  832MPD2     N12293   3.882   1.544  17.034  0.1653 -0.1219 -0.0651
  832MPD2    H512294   3.820   1.465  17.024 -0.0415 -0.1234  1.1732
  832MPD2    N112295   4.251   1.699  17.331  0.2704  0.7590  0.4403
  832MPD2    H712296   4.300   1.665  17.413 -0.8597 -0.1517  0.7425
  833MPD2     C12297   1.434   2.738  12.415 -0.3688  0.4832  0.5020
  833MPD2    C112298   1.475   2.804  12.303 -0.1040  0.0472 -0.4731
  833MPD2    C212299   1.609   2.803  12.266  0.2668  0.5403  0.3336
  833MPD2    C312300   1.707   2.744  12.346 -0.5178  0.1621  0.2583
  833MPD2    C412301   1.667   2.697  12.471  0.3824  0.6460 -0.6644
  833MPD2    C512302   1.534   2.706  12.503 -0.6885  0.1840 -0.3488
  833MPD2     H12303   1.642   2.845  12.171 -4.4429 -0.8583 -1.8733
  833MPD2    H112304   1.737   2.665  12.546 -0.9161 -1.2122 -0.2626
  833MPD2    H212305   1.334   2.729  12.454  0.7543 -0.9114  3.0715
  833MPD2    H312306   1.502   2.669  12.600 -1.0978  1.1038 -0.1362
  833MPD2     N12307   1.845   2.736  12.315 -0.1462 -0.0344 -0.0093
  833MPD2    H512308   1.909   2.684  12.374  0.9754  0.3729 -0.8579
  833MPD2    N112309   1.369   2.865  12.218 -0.7013 -0.4701 -0.4692
  833MPD2    H712310   1.272   2.834  12.226 -1.2583  1.1336 -1.0779
  834MPD2     C12311   2.268   2.229  11.819  0.0820 -0.4262  0.7677
  834MPD2    C112312   2.161   2.295  11.759 -0.2736  0.0671 -0.6313
  834MPD2    C212313   2.146   2.430  11.772 -0.0973 -0.2531  0.0473
  834MPD2    C312314   2.234   2.506  11.848 -0.3835  0.2340 -0.2744
  834MPD2    C412315   2.348   2.446  11.888 -0.0105 -0.5368 -0.6739
  834MPD2    C512316   2.354   2.308  11.888 -0.1828  0.0453 -0.4201
  834MPD2     H12317   2.064   2.484  11.726  0.8136  2.3749  1.4804
  834MPD2    H112318   2.429   2.478  11.952  0.0294 -1.6002 -0.1929
  834MPD2    H212319   2.286   2.122  11.820  0.4449 -0.3641  0.5435
  834MPD2    H312320   2.443   2.266  11.933 -0.0913  0.5968 -0.0889
  834MPD2     N12321   2.196   2.641  11.868 -0.4864  0.1992  0.4554
  834MPD2    H512322   2.098   2.665  11.859 -0.9440 -1.6810  0.4331
  834MPD2    N112323   2.062   2.228  11.686 -0.4533 -0.3753  0.4483
  834MPD2    H712324   1.989   2.288  11.651  0.8964  1.3556  0.6064
  835MPD2     C12325   1.766   0.457  11.524 -0.4746  0.9497 -0.0345
  835MPD2    C112326   1.696   0.560  11.576  0.3128 -1.4528 -0.1016
  835MPD2    C212327   1.720   0.599  11.706 -0.3402  0.2474  0.4355
  835MPD2    C312328   1.821   0.543  11.786  0.4940  0.0441  0.0154
  835MPD2    C412329   1.892   0.448  11.726  0.8831 -0.6085  0.2630
  835MPD2    C512330   1.862   0.401  11.598  0.1501  0.5100  0.0893
  835MPD2     H12331   1.660   0.681  11.743 -0.0732  0.1892  0.9975
  835MPD2    H112332   1.984   0.413  11.771  1.6087  1.1107  0.1078
  835MPD2    H212333   1.748   0.413  11.427 -1.3593  0.9877  0.1173
  835MPD2    H312334   1.930   0.328  11.557 -0.2913  0.9166 -1.3703
  835MPD2     N12335   1.870   0.594  11.905 -0.2621 -0.0944  0.2528
  835MPD2    H512336   1.951   0.553  11.948 -0.4612 -0.8382 -0.0819
  835MPD2    N112337   1.587   0.622  11.504 -0.3129  0.1395  0.1054
  835MPD2    H712338   1.534   0.688  11.561 -1.8234 -0.4333 -0.6284
  836MPD2     C12339   1.483   1.167  12.192 -0.6360  0.3873  1.2288
  836MPD2    C112340   1.594   1.159  12.265  1.1091 -0.6521  0.3536
  836MPD2    C212341   1.593   1.200  12.398 -0.1160 -0.2426 -0.5662
  836MPD2    C312342   1.474   1.245  12.455 -1.2186  0.2761 -0.2041
  836MPD2    C412343   1.370   1.280  12.374  0.0591 -0.1775 -0.3821
  836MPD2    C512344   1.377   1.231  12.245 -0.1705 -0.1972 -0.2784
  836MPD2     H12345   1.680   1.188  12.462  0.0535 -1.4534 -1.0207
  836MPD2    H112346   1.282   1.336  12.405 -0.5751 -0.8882 -0.9080
  836MPD2    H212347   1.481   1.137  12.087  1.4742  1.0787  0.9955
  836MPD2    H312348   1.288   1.233  12.185 -1.0675 -0.3384  1.0402
  836MPD2     N12349   1.454   1.256  12.593 -0.1821  0.0830 -0.6168
  836MPD2    H512350   1.362   1.288  12.622 -0.5558 -0.3670 -1.3049
  836MPD2    N112351   1.709   1.097  12.213  0.4770  0.2295 -0.7244
  836MPD2    H712352   1.697   1.076  12.114  0.4235  1.8358 -1.0593
  837MPD2     C12353   0.112   0.163  10.140 -0.8729  0.3633 -0.3785
  837MPD2    C112354   4.715   0.165  10.112  0.3044 -0.2331 -0.0275
  837MPD2    C212355   4.651   0.284  10.106 -0.1150 -0.7384 -0.0640
  837MPD2    C312356   4.714   0.403  10.128  0.1196  0.1725 -0.3556
  837MPD2    C412357   0.113   0.403  10.155  0.1275  0.5824  0.1670
  837MPD2    C512358   0.176   0.282  10.163  0.1208 -0.3232  0.3482
  837MPD2     H12359   4.548   0.275  10.074  0.4812 -3.2157 -1.3296
  837MPD2    H112360   0.170   0.495  10.148 -0.0219  0.5086 -1.9852
  837MPD2    H212361   0.175   0.075  10.145 -3.3345 -1.3127  1.1551
  837MPD2    H312362   0.280   0.291  10.193  0.4466  0.4858 -1.0586
  837MPD2     N12363   4.639   0.519  10.096 -0.2735 -0.9062  0.3039
  837MPD2    H512364   4.552   0.501  10.048 -0.3569  1.8260 -0.5858
  837MPD2    N112365   4.640   0.047  10.075  0.4134  0.2485  0.2591
  837MPD2    H712366   4.540   0.055  10.059 -0.1349 -0.3663  3.4958
  838MPD2     C12367   3.474   3.818  11.737 -0.2848  0.4286 -0.4947
  838MPD2    C112368   3.529   3.735  11.832 -0.0117  0.5947  0.3325
  838MPD2    C212369   3.455   3.713  11.950 -0.4956  0.3411 -0.3825
  838MPD2    C312370   3.340   3.784  11.978  0.6805 -0.2634  0.3158
  838MPD2    C412371   3.292   3.869  11.878 -0.3732 -0.4005 -0.3486
  838MPD2    C512372   3.363   3.889  11.765  1.0472  0.0817  0.0400
  838MPD2     H12373   3.491   3.649  12.030 -0.5140  0.7474 -0.0497
  838MPD2    H112374   3.195   3.915  11.886  0.2392  1.1187 -1.6097
  838MPD2    H212375   3.517   3.844  11.641 -0.4314  0.4319 -0.5585
  838MPD2    H312376   3.316   3.943  11.683 -2.4355 -3.7272 -0.4724
  838MPD2     N12377   3.280   3.764  12.103  0.0463 -0.1986  0.3081
  838MPD2    H512378   3.315   3.690  12.164 -1.1304 -0.5890  0.5160
  838MPD2    N112379   3.644   3.654  11.813 -0.7735  0.1614 -0.2708
  838MPD2    H712380   3.666   3.591  11.890 -0.9506  1.2731  0.6799
  839MPD2     C12381   3.142   3.200  11.915  0.1225  0.0067  0.0615
  839MPD2    C112382   3.211   3.101  11.849 -0.5303 -0.7014  0.4301
  839MPD2    C212383   3.346   3.114  11.826  0.9203 -0.4618 -0.2733
  839MPD2    C312384   3.404   3.240  11.854 -0.6450 -0.1036 -0.0316
  839MPD2    C412385   3.334   3.339  11.927  0.3011 -0.4954 -0.9244
  839MPD2    C512386   3.202   3.312  11.955  0.1638  0.3202 -0.2193
  839MPD2     H12387   3.398   3.026  11.789  2.9511  0.4692  0.3309
  839MPD2    H112388   3.374   3.437  11.950  1.5963 -1.0296 -0.8859
  839MPD2    H212389   3.038   3.196  11.948 -0.3571  0.3439 -1.3810
  839MPD2    H312390   3.148   3.391  12.006 -1.9859 -1.3873  0.1749
  839MPD2     N12391   3.541   3.259  11.818 -0.5935  0.1898 -0.0507
  839MPD2    H512392   3.579   3.349  11.847  1.3514 -1.0368  1.2522
  839MPD2    N112393   3.152   2.985  11.805  0.6249 -0.8881  0.2732
  839MPD2    H712394   3.217   2.925  11.755  1.5798 -0.1016  0.5832
  840MPD2     C12395   3.311   1.127  10.203 -0.5796 -0.1731 -0.6957
  840MPD2    C112396   3.259   1.078  10.325 -0.4520 -0.3700 -0.0602
  840MPD2    C212397   3.351   1.043  10.433 -0.3363  0.1788  0.1679
  840MPD2    C312398   3.487   1.058  10.415  0.1570 -0.0984  0.1281
  840MPD2    C412399   3.534   1.097  10.291  0.2110  0.5680 -0.5466
  840MPD2    C512400   3.449   1.130  10.186 -0.4551  0.1951  0.1249
  840MPD2     H12401   3.328   1.001  10.531  0.2983  3.1358  1.5761
  840MPD2    H112402   3.640   1.100  10.273  0.1596  2.4583 -0.5539
  840MPD2    H212403   3.243   1.160  10.124  0.3350  2.2406 -0.4869
  840MPD2    H312404   3.487   1.164  10.090 -0.8026 -2.2791 -0.8901
  840MPD2     N12405   3.585   1.023  10.509  0.6794 -0.3164  0.2577
  840MPD2    H512406   3.682   1.045  10.488 -0.3211  1.9723 -2.0138
  840MPD2    N112407   3.121   1.059  10.329  0.4673 -0.6470  0.1134
  840MPD2    H712408   3.066   1.088  10.248  0.7448 -0.4616 -0.0092
  841MPD2     C12409   3.128   0.238  14.642  0.2315 -0.1800 -0.2523
  841MPD2    C112410   3.133   0.376  14.628 -0.2282  0.0874 -0.3861
  841MPD2    C212411   3.186   0.450  14.726 -0.0925 -0.7225 -0.5388
  841MPD2    C312412   3.229   0.390  14.844 -0.3015  0.7307 -0.1020
  841MPD2    C412413   3.215   0.257  14.860 -0.1203  0.0126  0.3198
  841MPD2    C512414   3.167   0.178  14.757  0.2470 -0.3770  0.0957
  841MPD2     H12415   3.185   0.558  14.720  1.3837 -0.7092 -0.6112
  841MPD2    H112416   3.251   0.206  14.949 -0.0255 -1.8295 -0.7859
  841MPD2    H212417   3.093   0.177  14.559  0.9880 -0.5758 -0.2730
  841MPD2    H312418   3.163   0.070  14.758  0.1606 -0.3814 -0.7239
  841MPD2     N12419   3.271   0.476  14.950  0.8228  0.2095 -0.4447
  841MPD2    H512420   3.280   0.574  14.927  0.2031  0.0570 -1.3210
  841MPD2    N112421   3.090   0.447  14.508  0.3287 -0.0047  0.7087
  841MPD2    H712422   3.109   0.547  14.505 -2.0202  0.4943  1.9965
  842MPD2     C12423   3.327   2.067  16.693 -0.0678 -0.4155  0.0892
  842MPD2    C112424   3.243   1.969  16.654 -0.7773 -1.3423  0.6526
  842MPD2    C212425   3.167   1.893  16.752  0.2585  0.2827  0.3756
  842MPD2    C312426   3.211   1.908  16.884 -0.0207 -0.2984 -0.1914
  842MPD2    C412427   3.297   2.011  16.921  0.1905  0.1329  0.7155
  842MPD2    C512428   3.348   2.090  16.828 -0.0039 -0.2440 -0.1362
  842MPD2     H12429   3.107   1.807  16.726  2.8678 -2.0501  2.0737
  842MPD2    H112430   3.317   2.039  17.023 -0.4680  3.2514 -0.0083
  842MPD2    H212431   3.366   2.141  16.624 -2.2343  0.0982 -0.5793
  842MPD2    H312432   3.409   2.174  16.859  0.2079 -0.8049  0.9728
  842MPD2     N12433   3.168   1.823  16.991  0.7789  0.4832 -0.7403
  842MPD2    H512434   3.206   1.845  17.082  0.0853  0.5961 -0.4761
  842MPD2    N112435   3.192   1.978  16.522  0.2046 -0.0814 -0.2774
  842MPD2    H712436   3.234   2.056  16.472 -0.4356 -0.6193 -1.6676
  843MPD2     C12437   0.561   3.641   0.207 -0.0840  0.0677  0.3749
  843MPD2    C112438   0.579   3.600   0.340  0.5288 -0.3335  0.1792
  843MPD2    C212439   0.695   3.644   0.406  0.4000  0.3417  0.3722
  843MPD2    C312440   0.790   3.713   0.341  0.6384  0.3963 -0.1630
  843MPD2    C412441   0.769   3.754   0.204  0.7777  0.0849 -0.8009
  843MPD2    C512442   0.651   3.718   0.141  0.4437 -0.0291  0.1646
  843MPD2     H12443   0.701   3.638   0.515  1.1351  2.4543  0.4653
  843MPD2    H112444   0.833   3.826   0.154 -1.9331  2.4349 -0.8829
  843MPD2    H212445   0.466   3.620   0.159  0.8680 -1.6438 -0.7757
  843MPD2    H312446   0.622   3.745   0.041  0.2073  1.5337  0.6526
  843MPD2     N12447   0.903   3.772   0.401  0.2684 -0.3207 -0.1378
  843MPD2    H512448   0.974   3.825   0.352 -0.5669  1.0348  0.1251
  843MPD2    N112449   0.467   3.525   0.395  0.2020  0.0236  0.1240
  843MPD2    H712450   0.399   3.499   0.325 -0.6285 -2.0759  1.7101
  844MPD2     C12451   3.893   1.057  16.512 -0.8942  0.2490  0.1391
  844MPD2    C112452   4.026   1.074  16.485 -0.1712  0.5665  0.5603
  844MPD2    C212453   4.111   1.165  16.551  0.4662 -0.8031 -0.2029
  844MPD2    C312454   4.057   1.263  16.633  0.0466 -0.0318 -0.0278
  844MPD2    C412455   3.928   1.248  16.657  0.3691 -0.4042 -0.8170
  844MPD2    C512456   3.847   1.152  16.595  0.5529 -0.0833  0.0808
  844MPD2     H12457   4.213   1.179  16.518  0.6846  1.1471  1.3305
  844MPD2    H112458   3.875   1.317  16.722  2.3488 -0.4054  0.7995
  844MPD2    H212459   3.826   0.988  16.464  0.0664 -1.6708  1.5629
  844MPD2    H312460   3.742   1.161  16.622  0.6342 -1.4898  0.8792
  844MPD2     N12461   4.135   1.373  16.685 -0.6108  0.6149  0.2751
  844MPD2    H512462   4.233   1.353  16.671 -0.6497  1.6530 -1.4818
  844MPD2    N112463   4.089   0.995  16.383  0.4197  0.7745  0.2036
  844MPD2    H712464   4.169   1.032  16.333  2.3523 -1.7387  1.4023
  845MPD2     C12465   4.014   2.395  16.725 -0.5166 -0.1860  0.0703
  845MPD2    C112466   4.068   2.353  16.845  0.3561  0.1323  0.0481
  845MPD2    C212467   4.110   2.219  16.858  0.4189 -0.1920 -0.5253
  845MPD2    C312468   4.087   2.126  16.758  0.4116  0.8842 -0.2688
  845MPD2    C412469   4.023   2.175  16.643 -0.4121  0.2500  0.0082
  845MPD2    C512470   3.998   2.306  16.622 -0.2428  0.8762  0.1844
  845MPD2     H12471   4.145   2.182  16.953  2.7499  2.2133 -0.4688
  845MPD2    H112472   3.992   2.115  16.559  0.3122 -0.8241  0.5112
  845MPD2    H212473   3.980   2.497  16.712  0.9186  0.4269  1.0921
  845MPD2    H312474   3.953   2.343  16.531 -1.4825 -0.1338  0.4003
  845MPD2     N12475   4.139   1.990  16.758  0.2799  0.0396  0.8927
  845MPD2    H512476   4.132   1.942  16.669  2.2561  1.4827 -0.0352
  845MPD2    N112477   4.092   2.455  16.941  0.0112  0.6060 -0.3117
  845MPD2    H712478   4.044   2.543  16.926  0.2281  1.2152  2.5343
  846MPD2     C12479   1.232   2.718  13.667  0.1383 -1.1814 -0.5334
  846MPD2    C112480   1.109   2.781  13.648 -0.1065 -0.4117  0.3945
  846MPD2    C212481   1.030   2.809  13.761 -0.1616  0.5248 -0.1728
  846MPD2    C312482   1.091   2.790  13.883 -0.6643  0.3260 -0.3015
  846MPD2    C412483   1.212   2.731  13.900 -0.0381 -0.0769 -0.2565
  846MPD2    C512484   1.282   2.699  13.794  0.7505  0.2185  0.2177
  846MPD2     H12485   0.936   2.864  13.759 -1.0773 -1.0433 -0.0083
  846MPD2    H112486   1.254   2.714  13.998 -1.8193 -0.8916  0.3667
  846MPD2    H212487   1.293   2.683  13.585 -0.8270 -1.7183 -1.0227
  846MPD2    H312488   1.377   2.650  13.811  0.8319  0.7786  1.3644
  846MPD2     N12489   1.016   2.833  13.994  0.1770  0.4358 -0.4630
  846MPD2    H512490   0.930   2.878  13.967 -0.9561 -0.4180  1.6810
  846MPD2    N112491   1.049   2.812  13.520  0.2683  0.0712 -0.0042
  846MPD2    H712492   0.964   2.866  13.511 -0.4079 -1.1327 -0.9726
  847MPD2     C12493   0.881   3.665  13.814 -0.1951 -0.0366 -0.2519
  847MPD2    C112494   0.954   3.763  13.887  0.0322  0.3162  0.2175
  847MPD2    C212495   1.069   3.718  13.951 -0.3149 -0.4526 -0.2363
  847MPD2    C312496   1.097   3.583  13.947 -0.1886 -0.3708 -0.2220
  847MPD2    C412497   1.029   3.490  13.865 -0.4700  0.0181 -0.5997
  847MPD2    C512498   0.920   3.532  13.798 -0.5161 -0.6890  0.1977
  847MPD2     H12499   1.139   3.787  13.997 -3.3150  1.4130  1.5114
  847MPD2    H112500   1.065   3.388  13.857  1.5987  0.7818 -1.0437
  847MPD2    H212501   0.789   3.702  13.769 -0.6348 -0.3255  0.4125
  847MPD2    H312502   0.859   3.473  13.732  0.4050 -0.5047 -0.8063
  847MPD2     N12503   1.220   3.544  14.009  0.0392  0.0268  0.2854
  847MPD2    H512504   1.277   3.623  14.039  1.4738 -1.2209  0.8407
  847MPD2    N112505   0.924   3.902  13.895 -0.2222  0.3335 -0.1225
  847MPD2    H712506   1.000   3.965  13.920 -0.0619  0.6904 -1.5562
  848MPD2     C12507   3.553   1.939  16.344  0.9173 -0.5050 -0.2447
  848MPD2    C112508   3.592   2.009  16.455 -0.5428  0.7353 -0.3326
  848MPD2    C212509   3.626   2.142  16.438  0.8021 -0.4287 -0.5184
  848MPD2    C312510   3.622   2.204  16.307  0.7570 -0.0702 -0.3369
  848MPD2    C412511   3.571   2.123  16.204  0.2870  0.5461  0.3909
  848MPD2    C512512   3.530   1.995  16.226  0.0292  0.0797  0.1387
  848MPD2     H12513   3.659   2.194  16.527  0.8276  0.0542 -0.8093
  848MPD2    H112514   3.560   2.155  16.101 -2.2250  0.1006  0.5221
  848MPD2    H212515   3.518   1.837  16.345 -0.1476 -0.1618 -1.5554
  848MPD2    H312516   3.495   1.933  16.145 -1.0861  1.1243 -0.1935
  848MPD2     N12517   3.670   2.330  16.266 -0.1052 -0.1526 -0.4777
  848MPD2    H512518   3.685   2.346  16.167 -1.4042  0.6488 -0.5474
  848MPD2    N112519   3.607   1.945  16.578 -0.6471 -0.1766 -0.5086
  848MPD2    H712520   3.638   1.999  16.658  1.0915 -1.3730 -0.3794
  849MPD2     C12521   2.758   1.910  14.312 -0.5969 -0.0642 -0.0729
  849MPD2    C112522   2.843   1.816  14.260  0.4714 -0.1985  0.2989
  849MPD2    C212523   2.856   1.693  14.322 -0.3392  1.1320 -1.0440
  849MPD2    C312524   2.779   1.666  14.433  0.0534 -0.1125  0.1836
  849MPD2    C412525   2.700   1.760  14.490 -1.0937  0.5910 -0.2259
  849MPD2    C512526   2.683   1.878  14.416  0.6742 -0.1305  0.5404
  849MPD2     H12527   2.918   1.615  14.278  0.5061  1.1356  0.1592
  849MPD2    H112528   2.639   1.753  14.580 -0.5292  0.2388  0.1279
  849MPD2    H212529   2.743   2.005  14.263 -1.3518 -0.5990 -0.8723
  849MPD2    H312530   2.609   1.950  14.449 -0.0759 -2.3764  3.6620
  849MPD2     N12531   2.791   1.539  14.486 -0.0703  0.1732  0.6350
  849MPD2    H512532   2.858   1.481  14.436 -2.0549 -0.8662 -0.8349
  849MPD2    N112533   2.921   1.836  14.144  0.3623  0.4643  0.2062
  849MPD2    H712534   2.998   1.775  14.118  0.4530  0.8143 -0.3476
  850MPD2     C12535   1.499   0.269  14.568 -0.1554 -0.0099 -0.0827
  850MPD2    C112536   1.490   0.296  14.699 -0.3303  0.5988  0.3798
  850MPD2    C212537   1.544   0.418  14.741 -0.6140  0.0177  0.3971
  850MPD2    C312538   1.612   0.498  14.651  0.6916 -0.7337  0.5177
  850MPD2    C412539   1.640   0.451  14.525  0.5569  0.6428  0.1956
  850MPD2    C512540   1.568   0.345  14.478 -0.2437 -0.0133  0.2154
  850MPD2     H12541   1.542   0.447  14.845 -1.6456  0.0208  0.3794
  850MPD2    H112542   1.701   0.513  14.461  0.5580  1.6315  1.1656
  850MPD2    H212543   1.465   0.170  14.541  1.1116 -0.3269 -0.5061
  850MPD2    H312544   1.564   0.319  14.373  0.8299 -2.1911  0.7045
  850MPD2     N12545   1.686   0.610  14.707  0.0148  0.3211  0.5083
  850MPD2    H512546   1.781   0.619  14.672  0.8120  0.7168  2.7988
  850MPD2    N112547   1.445   0.193  14.789 -0.1641  0.7349  0.3828
  850MPD2    H712548   1.411   0.104  14.755 -0.2691  0.3804  1.4024
  851MPD2     C12549   1.627   4.334  14.721  0.5003  0.1372 -0.3057
  851MPD2    C112550   1.535   4.327  14.829  0.2496  0.4390 -0.2559
  851MPD2    C212551   1.476   4.204  14.856  0.0151 -0.1444  0.7197
  851MPD2    C312552   1.532   4.085  14.799 -0.0516 -0.6388  0.3831
  851MPD2    C412553   1.636   4.084  14.707 -1.0328 -0.2246 -0.6259
  851MPD2    C512554   1.682   4.211  14.677 -0.0241 -0.3024  0.4883
  851MPD2     H12555   1.404   4.191  14.936  1.8452 -0.5814  2.2808
  851MPD2    H112556   1.680   3.997  14.660 -4.1194 -2.8669  1.3657
  851MPD2    H212557   1.669   4.430  14.693 -0.8137  0.5122 -1.0260
  851MPD2    H312558   1.757   4.226  14.600  0.6788 -0.3002  1.1817
  851MPD2     N12559   1.474   3.967  14.845  0.1889 -0.5443  0.1017
  851MPD2    H512560   1.419   3.979  14.929  3.2017 -1.3149  2.1509
  851MPD2    N112561   1.501   4.444  14.900 -0.6781 -0.8600  0.4215
  851MPD2    H712562   1.563   4.523  14.894  0.6027 -1.8466  0.5786
  852MPD2     C12563   0.872   1.995   9.846  0.6444  0.4935 -0.1070
  852MPD2    C112564   0.917   1.991   9.972 -0.0434 -0.3999 -0.0718
  852MPD2    C212565   1.029   2.063  10.011  0.0768  0.3415 -0.6765
  852MPD2    C312566   1.084   2.156   9.922 -0.1385 -0.1422 -0.1548
  852MPD2    C412567   1.027   2.162   9.797  0.0363  0.0439  0.5820
  852MPD2    C512568   0.929   2.076   9.759  0.5751 -0.9682  0.2631
  852MPD2     H12569   1.053   2.059  10.117  1.5972  3.2522 -0.9127
  852MPD2    H112570   1.056   2.243   9.731 -0.6088  0.2404  0.5402
  852MPD2    H212571   0.790   1.934   9.810  0.8968 -0.0902  0.3137
  852MPD2    H312572   0.889   2.078   9.659 -1.1834 -0.8151  0.9598
  852MPD2     N12573   1.191   2.235   9.967  0.2157 -0.2399 -0.4717
  852MPD2    H512574   1.241   2.209  10.052  1.1920  0.2076 -0.9101
  852MPD2    N112575   0.869   1.908  10.075 -0.4216 -0.4348  0.1297
  852MPD2    H712576   0.924   1.913  10.160  0.2752  1.9267 -0.4801
  853MPD2     C12577   3.060   1.892  12.355  0.3888  0.2229 -0.2550
  853MPD2    C112578   2.977   1.997  12.358  0.3486 -0.3124 -0.2530
  853MPD2    C212579   2.906   2.029  12.242  0.8667  0.5089  0.3907
  853MPD2    C312580   2.919   1.948  12.133 -0.7997  0.2922  0.2768
  853MPD2    C412581   3.017   1.852  12.128 -0.3669 -0.0067  0.1657
  853MPD2    C512582   3.093   1.825  12.238  0.1615  0.3472  0.3679
  853MPD2     H12583   2.841   2.115  12.238  0.5508  0.2924  0.9291
  853MPD2    H112584   3.032   1.795  12.037 -2.0919  1.2405 -0.8823
  853MPD2    H212585   3.111   1.857  12.444  1.9974  0.7119 -0.9709
  853MPD2    H312586   3.161   1.741  12.235  1.1601  1.1456  0.5490
  853MPD2     N12587   2.846   1.962  12.014 -0.0737 -0.3630  0.1707
  853MPD2    H512588   2.851   1.889  11.944 -0.7225  0.9715 -1.2592
  853MPD2    N112589   2.961   2.069  12.478 -0.5256 -0.1746  0.0250
  853MPD2    H712590   3.030   2.043  12.548 -0.2148  0.6896  0.0369
  854MPD2     C12591   4.697   2.194  12.684  0.3492 -0.1812  0.3596
  854MPD2    C112592   4.649   2.067  12.704 -0.8339 -0.4750  0.1029
  854MPD2    C212593   4.731   1.964  12.746 -0.6942  0.2267  0.8818
  854MPD2    C312594   0.120   1.998  12.803 -0.1547  0.2308 -0.0999
  854MPD2    C412595   0.160   2.129  12.800  0.7296  0.7040 -0.0998
  854MPD2    C512596   0.085   2.221  12.729  0.1712  0.3666  0.2511
  854MPD2     H12597   4.702   1.860  12.758  0.3970 -0.0064  1.5107
  854MPD2    H112598   0.256   2.157  12.843  0.0010  1.8262  0.8285
  854MPD2    H212599   4.633   2.276  12.654  1.5393 -0.4754 -2.9349
  854MPD2    H312600   0.120   2.323  12.733  2.9699 -0.6676  2.3281
  854MPD2     N12601   0.210   1.901  12.851 -0.0953 -0.4926  0.0299
  854MPD2    H512602   0.297   1.925  12.896  1.2457  0.8068 -3.2803
  854MPD2    N112603   4.520   2.050  12.664  0.5420 -0.1301 -0.5070
  854MPD2    H712604   4.478   2.133  12.623  2.0513  2.0340  2.3193
  855MPD2     C12605   0.412   1.879  13.667 -0.7019 -0.1274 -0.3517
  855MPD2    C112606   0.527   1.829  13.608  0.2931  0.0637 -0.6879
  855MPD2    C212607   0.529   1.786  13.475  0.0419  0.4207 -0.5804
  855MPD2    C312608   0.422   1.803  13.399  0.5619  0.4181  1.1531
  855MPD2    C412609   0.305   1.859  13.453  0.0224  0.9283  0.7189
  855MPD2    C512610   0.303   1.892  13.589  0.3734  0.0058  0.0123
  855MPD2     H12611   0.620   1.744  13.433  1.2941  0.6443  1.8858
  855MPD2    H112612   0.224   1.888  13.387 -0.8344 -1.9121  0.5257
  855MPD2    H212613   0.405   1.920  13.766  0.4614  0.7263 -0.6342
  855MPD2    H312614   0.216   1.945  13.625  0.3992  1.1080 -1.5595
  855MPD2     N12615   0.419   1.779  13.260  1.0281 -0.4106 -0.5708
  855MPD2    H512616   0.330   1.806  13.219  1.1012  0.7845  0.0736
  855MPD2    N112617   0.650   1.816  13.674 -0.3706 -0.1622  0.5229
  855MPD2    H712618   0.730   1.774  13.628  0.9839  4.5476 -1.4045
  856MPD2     C12619   2.296   2.516  13.977  0.3434  0.1902 -0.2710
  856MPD2    C112620   2.326   2.651  13.983 -0.4652 -0.4218  0.5811
  856MPD2    C212621   2.223   2.732  13.950 -1.0715 -0.3939 -0.5194
  856MPD2    C312622   2.101   2.685  13.904  0.0652 -0.0550  0.5334
  856MPD2    C412623   2.079   2.549  13.894 -0.0852 -0.1786  0.0804
  856MPD2    C512624   2.178   2.463  13.938  0.1190  0.5553  0.1862
  856MPD2     H12625   2.236   2.839  13.961 -1.1599 -0.5111  0.7141
  856MPD2    H112626   1.987   2.516  13.847  0.4937 -0.3787 -0.9151
  856MPD2    H212627   2.375   2.443  13.987 -2.3582 -2.8466 -1.1134
  856MPD2    H312628   2.175   2.356  13.922  2.1294  0.4146  0.7469
  856MPD2     N12629   2.004   2.766  13.841 -0.1112  0.2561 -0.4241
  856MPD2    H512630   1.939   2.727  13.773  1.3621 -2.1522 -0.4639
  856MPD2    N112631   2.455   2.714  14.006  0.6758  0.1706  0.3442
  856MPD2    H712632   2.444   2.813  13.986  0.8657 -0.1993 -1.5956
  857MPD2     C12633   3.654   0.095  13.219 -0.5907  0.1546 -0.4106
  857MPD2    C112634   3.766   0.110  13.142  0.2048 -0.5550 -0.6075
  857MPD2    C212635   3.869   0.172  13.201 -0.0214 -0.2234 -0.3660
  857MPD2    C312636   3.863   0.222  13.325  0.4922 -0.2602  0.5561
  857MPD2    C412637   3.758   0.196  13.399  0.0303  0.3254 -0.5015
  857MPD2    C512638   3.644   0.140  13.343  0.3239  0.5223  0.3174
  857MPD2     H12639   3.949   0.202  13.135  0.7790 -3.2929 -0.7767
  857MPD2    H112640   3.745   0.237  13.499  1.9824  1.3600 -0.6841
  857MPD2    H212641   3.567   0.055  13.167 -0.1145  1.3604 -2.1176
  857MPD2    H312642   3.551   0.131  13.399  1.1886  0.7158  1.7912
  857MPD2     N12643   3.962   0.316  13.368  0.9589  0.4421 -0.0072
  857MPD2    H512644   4.020   0.337  13.288 -0.5563  1.0783 -0.9336
  857MPD2    N112645   3.760   0.068  13.006 -0.3117 -0.7874 -0.3221
  857MPD2    H712646   3.678   0.015  12.982 -0.2892  0.6884 -3.6049
  858MPD2     C12647   4.414   4.481  16.515  0.1862 -0.1279  0.0993
  858MPD2    C112648   4.379   4.352  16.551  0.7635 -0.1062 -0.2250
  858MPD2    C212649   4.326   4.330  16.679 -0.1011  0.0887  0.0484
  858MPD2    C312650   4.307   4.435  16.765  0.0003  0.2071 -0.4665
  858MPD2    C412651   4.339   4.565  16.730  0.4024 -0.4776  0.4963
  858MPD2    C512652   4.395   4.583  16.604 -0.1047  0.1440 -0.2696
  858MPD2     H12653   4.298   4.228  16.705 -0.1998 -0.7343 -3.2733
  858MPD2    H112654   4.333   4.655  16.790  1.9202 -0.7776  1.0790
  858MPD2    H212655   4.451   4.513  16.418  0.5556 -1.5069 -0.2131
  858MPD2    H312656   4.406   4.683  16.562  1.0588 -0.1210 -0.5844
  858MPD2     N12657   4.240   4.426  16.889 -0.0515 -0.3791 -0.3604
  858MPD2    H512658   4.236   4.518  16.932 -1.3025  0.3202 -1.9535
  858MPD2    N112659   4.394   4.241  16.458  0.5085 -0.2111 -0.3961
  858MPD2    H712660   4.367   4.152  16.500 -0.3034  0.1028 -0.2472
  859MPD2     C12661   2.719   1.884  15.730 -0.6858 -0.2056  0.0620
  859MPD2    C112662   2.775   1.779  15.664 -0.0655  0.3467  0.3177
  859MPD2    C212663   2.756   1.648  15.702  0.3157  0.1056 -0.1692
  859MPD2    C312664   2.693   1.630  15.824  0.2371  0.4069 -0.1155
  859MPD2    C412665   2.626   1.730  15.887 -0.3240 -0.2833  0.2969
  859MPD2    C512666   2.631   1.858  15.830  0.2911  0.2745 -0.3494
  859MPD2     H12667   2.774   1.562  15.639  0.6846  0.7313 -0.9226
  859MPD2    H112668   2.571   1.711  15.978  1.2929 -0.6116  1.2216
  859MPD2    H212669   2.750   1.987  15.716  2.2086 -0.9089  1.3914
  859MPD2    H312670   2.589   1.943  15.882  1.9571  1.3837 -0.8195
  859MPD2     N12671   2.690   1.506  15.888 -0.2697  0.3040  0.1984
  859MPD2    H512672   2.646   1.501  15.980 -0.3735  1.6818  0.2185
  859MPD2    N112673   2.866   1.809  15.557 -0.7737  0.0305  0.1708
  859MPD2    H712674   2.896   1.730  15.501 -1.2813 -0.4196  0.5409
  860MPD2     C12675   0.998   1.601  11.637  0.5674 -0.4278  0.0310
  860MPD2    C112676   0.960   1.631  11.772  0.6121  0.5865  0.4209
  860MPD2    C212677   0.845   1.566  11.820 -0.3477 -0.4883 -0.1631
  860MPD2    C312678   0.779   1.467  11.752 -0.1831  0.2718 -0.5182
  860MPD2    C412679   0.814   1.438  11.624 -0.1247 -0.3242 -0.1976
  860MPD2    C512680   0.924   1.501  11.569 -0.1643 -1.0229  0.7583
  860MPD2     H12681   0.819   1.594  11.921 -2.2100  2.0190 -1.3325
  860MPD2    H112682   0.754   1.380  11.555 -1.3508  0.0967  0.5167
  860MPD2    H212683   1.088   1.636  11.588  0.5279  0.2006  0.4194
  860MPD2    H312684   0.950   1.480  11.466 -3.1650 -0.5298 -0.0791
  860MPD2     N12685   0.657   1.425  11.804  0.5238  0.6555  0.7701
  860MPD2    H512686   0.629   1.469  11.891  1.4579 -0.2119  1.5211
  860MPD2    N112687   1.020   1.729  11.854 -0.3171 -0.5272 -1.2172
  860MPD2    H712688   0.976   1.767  11.938 -2.1933  0.2947 -2.5847
  861MPD2     C12689   4.267   4.299  11.324  0.6593 -0.3467 -0.6945
  861MPD2    C112690   4.359   4.356  11.235 -0.3293  0.5047 -0.1572
  861MPD2    C212691   4.335   4.342  11.101  0.4370 -0.3188  0.3150
  861MPD2    C312692   4.216   4.296  11.054 -0.2537 -0.3478  0.2566
  861MPD2    C412693   4.124   4.238  11.143  0.4154 -0.2393  0.4546
  861MPD2    C512694   4.152   4.240  11.272 -0.4560  0.1656  0.0273
  861MPD2     H12695   4.396   4.403  11.036  0.7856 -1.2935 -0.2682
  861MPD2    H112696   4.027   4.195  11.121 -0.5288  1.6573  0.8266
  861MPD2    H212697   4.271   4.320  11.430  1.4539 -1.5424 -0.4880
  861MPD2    H312698   4.081   4.187  11.334  1.1811  0.4985  2.1790
  861MPD2     N12699   4.174   4.304  10.916 -0.4876 -0.3764  0.4343
  861MPD2    H512700   4.085   4.263  10.890  0.1944  0.1988 -2.9024
  861MPD2    N112701   4.468   4.432  11.276  0.3759 -0.2471  0.3154
  861MPD2    H712702   4.523   4.478  11.204  1.0830  1.2500  1.7983
  862MPD2     C12703   3.690   4.072  10.375 -0.6154  0.3314  0.5103
  862MPD2    C112704   3.806   4.060  10.449 -0.4532 -0.2311  0.0549
  862MPD2    C212705   3.848   3.938  10.481 -0.2062  0.7858  0.4307
  862MPD2    C312706   3.775   3.827  10.452 -0.2004  0.2130  0.1146
  862MPD2    C412707   3.670   3.838  10.359 -1.1034  0.3923  0.1374
  862MPD2    C512708   3.629   3.963  10.326  0.1021 -0.0437  0.3265
  862MPD2     H12709   3.928   3.938  10.555 -0.7468 -0.5007  1.0237
  862MPD2    H112710   3.618   3.749  10.325 -1.7578  1.1204 -0.7507
  862MPD2    H212711   3.657   4.172  10.348  1.8222  1.1512  0.5690
  862MPD2    H312712   3.540   3.982  10.268  0.1809 -0.7853 -0.0289
  862MPD2     N12713   3.791   3.696  10.502 -0.1434  0.0517  0.2782
  862MPD2    H512714   3.761   3.625  10.437 -1.3842 -1.1960  2.2441
  862MPD2    N112715   3.878   4.164  10.502  0.1818  0.1660  1.0896
  862MPD2    H712716   3.968   4.136  10.540  1.3495  0.9369 -1.0829
  863MPD2     C12717   1.990   3.314  17.341  0.1301 -0.0298  0.0032
  863MPD2    C112718   2.041   3.343  17.214 -0.2939 -0.0617  0.3186
  863MPD2    C212719   2.171   3.336  17.191 -0.1079  0.3742 -0.0731
  863MPD2    C312720   2.255   3.278  17.285  0.6008  0.5030  0.2907
  863MPD2    C412721   2.205   3.230  17.401 -0.7401 -0.1450 -0.0879
  863MPD2    C512722   2.076   3.255  17.433  0.2584  0.3629 -0.3372
  863MPD2     H12723   2.218   3.353  17.095 -1.6936  1.1049 -0.7081
  863MPD2    H112724   2.264   3.189  17.482  1.5855 -2.5261 -2.9712
  863MPD2    H212725   1.889   3.334  17.376 -0.0041 -0.2396 -0.2658
  863MPD2    H312726   2.048   3.222  17.532 -2.5142 -0.0479 -1.2723
  863MPD2     N12727   2.392   3.252  17.247 -0.4662 -0.1109 -0.0502
  863MPD2    H512728   2.433   3.304  17.170  1.2156 -3.0420 -1.1287
  863MPD2    N112729   1.957   3.396  17.111  0.1179 -0.2543  0.2883
  863MPD2    H712730   1.996   3.439  17.028 -1.0854 -0.1661 -0.2229
  864MPD2     C12731   2.654   0.083  16.940 -0.3625 -0.4120  0.4027
  864MPD2    C112732   2.733   4.707  16.909 -0.2785  0.0288 -0.2874
  864MPD2    C212733   2.874   4.710  16.911  0.0877  0.1427 -0.2519
  864MPD2    C312734   2.933   0.100  16.921 -0.1468  0.3627 -0.5750
  864MPD2    C412735   2.857   0.213  16.948 -0.2004 -0.5113 -0.2123
  864MPD2    C512736   2.721   0.205  16.955  0.1201 -0.0360 -0.2287
  864MPD2     H12737   2.944   4.629  16.897  1.3333  1.0248  0.8134
  864MPD2    H112738   2.896   0.314  16.952 -1.1064 -0.0590 -2.8494
  864MPD2    H212739   2.545   0.078  16.941 -0.3656 -0.4475 -1.0733
  864MPD2    H312740   2.661   0.294  16.962  2.1194  1.2240  0.8636
  864MPD2     N12741   3.070   0.131  16.899  0.0046 -0.8003  0.0885
  864MPD2    H512742   3.094   0.229  16.897 -1.5148 -0.3699  2.3569
  864MPD2    N112743   2.663   4.582  16.905  0.1274 -0.1216  0.4448
  864MPD2    H712744   2.563   4.585  16.924 -0.3475 -4.4694 -1.4313
  865MPD2     C12745   3.494   0.313  16.195 -0.3775  0.6179  0.2491
  865MPD2    C112746   3.421   0.230  16.282  0.1354 -0.4642  0.3547
  865MPD2    C212747   3.388   0.281  16.404 -0.1831 -0.3066 -0.0179
  865MPD2    C312748   3.447   0.408  16.445  0.2223 -0.4100 -0.3496
  865MPD2    C412749   3.515   0.480  16.355 -0.5324  0.0862 -0.2451
  865MPD2    C512750   3.535   0.436  16.228  0.5098  0.6068  0.6620
  865MPD2     H12751   3.319   0.222  16.463 -0.1866 -0.6030 -0.3206
  865MPD2    H112752   3.562   0.575  16.378  0.5809 -0.6367  0.4817
  865MPD2    H212753   3.535   0.276  16.102 -1.4206  0.4282 -0.1328
  865MPD2    H312754   3.589   0.492  16.152 -0.0521 -1.1656 -1.0486
  865MPD2     N12755   3.435   0.473  16.572  0.3323  0.0786  0.3248
  865MPD2    H512756   3.467   0.568  16.584 -0.7940  0.1460  2.7940
  865MPD2    N112757   3.398   0.103  16.227  0.5414  0.2481 -0.4774
  865MPD2    H712758   3.436   0.083  16.135 -1.0967  0.7861 -1.2675
  866MPD2     C12759   0.094   4.194  10.655  0.0089 -0.2129  0.7435
  866MPD2    C112760   0.162   4.298  10.714 -0.1416  0.4437  0.4297
  866MPD2    C212761   0.095   4.421  10.753 -0.0985  0.1383 -0.2529
  866MPD2    C312762   4.691   4.426  10.747  0.2585  0.3856  0.1547
  866MPD2    C412763   4.624   4.313  10.700  0.5037 -0.4802 -0.0109
  866MPD2    C512764   4.696   4.206  10.654  0.3881  0.0012 -0.5292
  866MPD2     H12765   0.151   4.502  10.799 -0.0649  0.2954 -0.5740
  866MPD2    H112766   4.516   4.302  10.700  0.4038  0.5074  0.7266
  866MPD2    H212767   0.143   4.099  10.634  0.3958  0.8005 -2.8744
  866MPD2    H312768   4.636   4.123  10.619  0.6508 -1.2269  1.9736
  866MPD2     N12769   4.608   4.529  10.789  0.7706  0.1839  0.0156
  866MPD2    H512770   4.508   4.511  10.796  0.9070  0.0504  1.5125
  866MPD2    N112771   0.296   4.289  10.717 -0.0681 -0.0633 -0.7358
  866MPD2    H712772   0.320   4.204  10.668  3.0209  0.5279 -0.2684
  867MPD2     C12773   1.390   4.366  16.631 -0.1356 -0.4780  0.0139
  867MPD2    C112774   1.476   4.323  16.735  0.1248 -0.4620 -0.4656
  867MPD2    C212775   1.490   4.410  16.843 -0.3845  0.2908  0.3587
  867MPD2    C312776   1.409   4.521  16.864 -0.1578  0.2164 -0.2529
  867MPD2    C412777   1.318   4.549  16.766  0.1528 -0.3102  0.7132
  867MPD2    C512778   1.310   4.474  16.649  0.7082 -0.0129 -0.3965
  867MPD2     H12779   1.567   4.396  16.918  0.5889 -0.6368 -0.8142
  867MPD2    H112780   1.258   4.639  16.771  0.9549  0.3742 -2.0320
  867MPD2    H212781   1.376   4.308  16.540 -1.4654 -1.5404  0.8941
  867MPD2    H312782   1.253   4.508  16.564 -0.2892  1.4246  0.8437
  867MPD2     N12783   1.437   4.618  16.963 -0.0672 -0.1985  0.1795
  867MPD2    H512784   1.376   4.699  16.953  0.2636 -0.0965 -1.0284
  867MPD2    N112785   1.553   4.203  16.723 -0.0157  0.1833 -0.1656
  867MPD2    H712786   1.549   4.159  16.632  0.4938  1.1998 -0.6769
  868MPD2     C12787   3.751   3.653  13.301 -0.4156  0.1885 -0.1910
  868MPD2    C112788   3.827   3.594  13.400 -0.2329 -0.4621  0.1362
  868MPD2    C212789   3.769   3.539  13.511 -0.5100  0.7201 -0.3377
  868MPD2    C312790   3.636   3.562  13.541  0.6174 -0.5244 -0.2991
  868MPD2    C412791   3.562   3.632  13.451 -0.2437  0.1411  0.6364
  868MPD2    C512792   3.614   3.670  13.331 -0.5801  0.6283 -0.1481
  868MPD2     H12793   3.830   3.502  13.592 -1.0918 -1.6064 -0.9763
  868MPD2    H112794   3.459   3.663  13.469 -0.5716 -0.4507 -0.2299
  868MPD2    H212795   3.787   3.710  13.216  0.4152  1.5160  1.0470
  868MPD2    H312796   3.556   3.737  13.269  0.0322  0.9447 -0.3861
  868MPD2     N12797   3.591   3.523  13.672  0.4584 -0.1466  0.2950
  868MPD2    H512798   3.656   3.484  13.740  1.0255  3.2076  1.7076
  868MPD2    N112799   3.968   3.571  13.386 -0.1432 -0.6409  0.0277
  868MPD2    H712800   4.015   3.512  13.453 -0.8002 -1.0726  0.1150
  869MPD2     C12801   0.149   1.760   0.802 -0.7601 -0.2682  0.6773
  869MPD2    C112802   0.220   1.847   0.725 -0.2822  0.4081 -0.3925
  869MPD2    C212803   0.340   1.886   0.764  0.4056 -0.2780  0.4018
  869MPD2    C312804   0.387   1.851   0.891  0.0129 -0.0289 -0.5022
  869MPD2    C412805   0.333   1.743   0.948 -0.6836 -0.1711  0.1305
  869MPD2    C512806   0.211   1.696   0.902 -0.6581 -0.3458 -0.4448
  869MPD2     H12807   0.388   1.970   0.716 -1.0810  1.2862  1.6584
  869MPD2    H112808   0.373   1.706   1.042 -0.5114  1.1704  0.5797
  869MPD2    H212809   0.049   1.733   0.771 -0.6658 -2.3709  2.1986
  869MPD2    H312810   0.160   1.612   0.949 -0.0254  0.2379  1.3019
  869MPD2     N12811   0.493   1.919   0.958 -0.4514 -0.9964 -0.0043
  869MPD2    H512812   0.562   1.862   1.006  1.3519  1.6786  0.6003
  869MPD2    N112813   0.148   1.908   0.614 -0.0148  0.1321  0.2202
  869MPD2    H712814   0.058   1.870   0.587 -0.5730  0.3785  1.7121
  870MPD2     C12815   0.284   0.792   1.220 -0.2953  0.0365 -0.1589
  870MPD2    C112816   0.222   0.670   1.210  0.0124 -0.4114 -0.1343
  870MPD2    C212817   0.098   0.667   1.145  0.0410  0.6882 -0.1229
  870MPD2    C312818   0.031   0.777   1.109 -0.3564  0.5802  0.3977
  870MPD2    C412819   0.092   0.898   1.118  0.4532  0.0768 -0.6179
  870MPD2    C512820   0.217   0.904   1.179 -0.5934  0.0862  0.0546
  870MPD2     H12821   0.040   0.575   1.146  1.5642 -0.3078 -2.8369
  870MPD2    H112822   0.044   0.990   1.086  0.9555  0.4601 -0.2690
  870MPD2    H212823   0.377   0.813   1.271  0.4243 -0.1792 -1.3817
  870MPD2    H312824   0.262   1.002   1.190  0.5620 -0.5515  1.0645
  870MPD2     N12825   4.640   0.760   1.046 -0.3690 -0.2119  0.2927
  870MPD2    H512826   4.598   0.668   1.036  0.1115 -0.3940 -0.0832
  870MPD2    N112827   0.300   0.561   1.247 -0.1997  0.3405 -0.0719
  870MPD2    H712828   0.396   0.581   1.273  0.1086 -2.7409  1.1170
  871MPD2     C12829   0.782   0.216  16.123 -0.0473 -0.5478  0.0719
  871MPD2    C112830   0.725   0.158  16.231 -0.4719  0.2347 -1.1826
  871MPD2    C212831   0.747   0.025  16.258 -0.4509  0.5215  0.2486
  871MPD2    C312832   0.824   4.680  16.170  0.0999 -0.4848  0.3514
  871MPD2    C412833   0.885   0.005  16.065  0.0474 -0.8450  0.9856
  871MPD2    C512834   0.865   0.140  16.042 -0.5485  0.4272  0.1690
  871MPD2     H12835   0.719   4.732  16.358  0.2859  0.6816  0.5006
  871MPD2    H112836   0.937   4.684  15.989 -1.5321  0.9190 -1.4188
  871MPD2    H212837   0.765   0.322  16.108  1.5697 -0.6114 -2.3073
  871MPD2    H312838   0.911   0.187  15.956 -0.4945  0.4000  0.1832
  871MPD2     N12839   0.834   4.542  16.201 -0.2230 -0.1133 -0.1997
  871MPD2    H512840   0.762   4.500  16.259 -1.2277  0.4100 -1.0473
  871MPD2    N112841   0.648   0.244  16.315  0.8450 -0.0749  0.4474
  871MPD2    H712842   0.653   0.342  16.290  2.6133 -0.3293 -0.1721
  872MPD2     C12843   1.942   2.060  14.120 -0.1874 -0.2786 -0.6334
  872MPD2    C112844   1.872   2.128  14.023  1.0629 -0.5297 -0.7915
  872MPD2    C212845   1.783   2.226  14.071 -0.3397 -0.3870 -0.2567
  872MPD2    C312846   1.758   2.242  14.203  0.1530 -0.1511 -0.0659
  872MPD2    C412847   1.853   2.184  14.295 -0.1511  0.8451  0.2754
  872MPD2    C512848   1.936   2.086  14.249  0.1230  0.2818  0.0598
  872MPD2     H12849   1.710   2.274  14.007 -0.7311 -0.1002  0.4047
  872MPD2    H112850   1.853   2.203  14.401  0.4243 -0.6191  0.5336
  872MPD2    H212851   2.013   1.982  14.094 -1.4874 -1.2609 -1.2416
  872MPD2    H312852   2.010   2.041  14.315 -1.0381 -0.7483  0.6444
  872MPD2     N12853   1.655   2.324  14.260  0.2968 -0.2113  0.0425
  872MPD2    H512854   1.644   2.323  14.361  0.9382  1.1752  0.1229
  872MPD2    N112855   1.892   2.107  13.883  0.1155  0.2900  0.0789
  872MPD2    H712856   1.837   2.162  13.818 -0.7841  0.4247  0.9502
  873MPD2     C12857   2.738   2.174   0.463 -0.3626 -0.3628 -0.1600
  873MPD2    C112858   2.856   2.157   0.534  0.7552 -0.0717  0.2570
  873MPD2    C212859   2.917   2.030   0.529  0.3582  0.0538  0.0916
  873MPD2    C312860   2.863   1.929   0.451 -0.5681  0.0034 -0.4568
  873MPD2    C412861   2.739   1.948   0.397 -0.6333  0.7387 -0.3181
  873MPD2    C512862   2.680   2.071   0.394  0.7426  0.2026 -0.1563
  873MPD2     H12863   3.014   2.017   0.576 -0.4324  1.2583  2.0716
  873MPD2    H112864   2.691   1.867   0.343  1.8756 -0.9439  0.0072
  873MPD2    H212865   2.678   2.263   0.475  0.5256  0.3659 -1.1775
  873MPD2    H312866   2.578   2.084   0.360  0.5905 -2.2519 -0.6550
  873MPD2     N12867   2.921   1.800   0.435  0.8691  0.0703 -0.0290
  873MPD2    H512868   2.868   1.726   0.393  0.3069  0.8789 -0.7398
  873MPD2    N112869   2.893   2.262   0.622  0.7150  0.9602  0.1812
  873MPD2    H712870   2.852   2.354   0.619 -0.7119  0.3033 -0.3766
  874MPD2     C12871   3.054   2.522  15.903  0.1494 -0.8052  0.7620
  874MPD2    C112872   3.118   2.436  15.994  0.3652 -0.0822 -0.0036
  874MPD2    C212873   3.249   2.469  16.026  0.3381  0.0084 -0.3353
  874MPD2    C312874   3.308   2.581  15.972  0.1761 -0.2878 -0.7657
  874MPD2    C412875   3.238   2.670  15.888  1.5154  0.2939  0.3184
  874MPD2    C512876   3.111   2.633  15.850 -0.0630  0.7780  0.2325
  874MPD2     H12877   3.308   2.413  16.098  0.4331 -0.8624 -1.0960
  874MPD2    H112878   3.278   2.761  15.845  1.3316  0.9004  1.4316
  874MPD2    H212879   2.960   2.494  15.857  0.2948 -0.5206  0.2938
  874MPD2    H312880   3.059   2.692  15.776  0.8566  0.4097 -0.7156
  874MPD2     N12881   3.434   2.613  16.036 -0.1422  0.3890  0.8520
  874MPD2    H512882   3.459   2.554  16.114  0.1283 -0.2067  0.3168
  874MPD2    N112883   3.049   2.327  16.053 -0.0954 -0.0452 -0.5049
  874MPD2    H712884   2.957   2.305  16.015  1.9465 -4.1482 -3.0716
  875MPD2     C12885   4.470   0.809  14.505  0.1193 -1.0458 -0.2625
  875MPD2    C112886   4.364   0.816  14.595 -0.1250 -0.8889 -0.0689
  875MPD2    C212887   4.379   0.863  14.720  0.7701 -0.2232 -0.2826
  875MPD2    C312888   4.497   0.919  14.760 -0.4602  0.6993  0.1462
  875MPD2    C412889   4.611   0.901  14.674 -0.4343  0.0115 -0.6238
  875MPD2    C512890   4.592   0.853  14.547 -0.0621  0.0636 -0.5381
  875MPD2     H12891   4.287   0.875  14.777  1.4430  0.9141  0.5692
  875MPD2    H112892   4.709   0.940  14.699 -0.2531 -0.6603 -0.3005
  875MPD2    H212893   4.464   0.763  14.407  0.7862 -1.7415  0.0269
  875MPD2    H312894   4.677   0.858  14.479  1.6243  1.9930  1.7159
  875MPD2     N12895   4.521   0.986  14.883 -0.2454  0.0972  0.1228
  875MPD2    H512896   4.614   1.024  14.899 -0.4674  1.6506 -2.3614
  875MPD2    N112897   4.234   0.771  14.564  0.1858  0.9337 -0.2132
  875MPD2    H712898   4.162   0.774  14.635 -0.7795 -0.8486 -1.1271
  876MPD2     C12899   3.008   1.866  15.933  0.5912 -0.0599  0.0176
  876MPD2    C112900   3.143   1.865  15.944 -0.1080 -0.4176 -0.2302
  876MPD2    C212901   3.196   1.765  16.033 -0.1244 -0.3717  0.1552
  876MPD2    C312902   3.124   1.681  16.114  0.4553 -0.0712 -0.2942
  876MPD2    C412903   2.983   1.686  16.108  0.2382 -0.1168  0.3720
  876MPD2    C512904   2.932   1.776  16.013  0.0426  0.3349 -0.6100
  876MPD2     H12905   3.304   1.765  16.046 -0.3563 -1.0309  1.9726
  876MPD2    H112906   2.913   1.618  16.154  2.2778 -0.3188  3.1960
  876MPD2    H212907   2.958   1.941  15.874 -0.6708  1.0678  2.4880
  876MPD2    H312908   2.824   1.793  16.015  0.4438  2.7728  0.4902
  876MPD2     N12909   3.195   1.581  16.192 -0.2003 -0.8937  0.7917
  876MPD2    H512910   3.294   1.584  16.170 -0.4923 -1.2466 -0.5693
  876MPD2    N112911   3.214   1.967  15.881 -0.2600 -0.9236 -0.0936
  876MPD2    H712912   3.163   2.040  15.833  1.5792  1.7901  2.0594
  877MPD2     C12913   3.150   2.334  15.290  0.3016 -0.1780 -0.2653
  877MPD2    C112914   3.281   2.288  15.299 -0.2464  0.3043  0.1142
  877MPD2    C212915   3.356   2.272  15.179 -0.1038 -0.5725  0.1443
  877MPD2    C312916   3.310   2.327  15.061 -0.4843  0.4993 -0.3956
  877MPD2    C412917   3.183   2.377  15.059 -0.0221 -0.1763  0.6213
  877MPD2    C512918   3.105   2.370  15.168 -0.7536 -0.2320 -0.3203
  877MPD2     H12919   3.455   2.229  15.193 -0.4937 -1.3830  0.4592
  877MPD2    H112920   3.147   2.422  14.967  1.0898 -0.4966  0.0222
  877MPD2    H212921   3.078   2.338  15.371  0.2968  1.3419 -0.3457
  877MPD2    H312922   3.004   2.405  15.148 -0.7891  1.4719  2.8518
  877MPD2     N12923   3.383   2.319  14.942 -0.0214  0.2041  0.3192
  877MPD2    H512924   3.333   2.359  14.863 -1.4999 -0.2671  1.0294
  877MPD2    N112925   3.342   2.254  15.417 -0.1291 -0.6199 -0.1061
  877MPD2    H712926   3.425   2.200  15.399  1.8811  2.8650 -1.2482
  878MPD2     C12927   2.862   1.440  13.193 -0.5478 -0.1755  0.8020
  878MPD2    C112928   2.985   1.500  13.202 -0.1824  0.3078 -0.2872
  878MPD2    C212929   3.018   1.556  13.328  0.1214  0.5998 -0.2333
  878MPD2    C312930   2.924   1.567  13.429 -0.9562 -0.3493  0.9445
  878MPD2    C412931   2.795   1.521  13.405 -0.1601  0.1628  0.2839
  878MPD2    C512932   2.773   1.437  13.296  0.2448  0.2793 -0.8073
  878MPD2     H12933   3.119   1.591  13.345 -0.0135 -0.3345  2.5588
  878MPD2    H112934   2.736   1.509  13.495 -1.1668  1.9946 -0.1125
  878MPD2    H212935   2.828   1.393  13.101 -0.1660  0.0838  0.5285
  878MPD2    H312936   2.679   1.383  13.286  0.7142 -1.1673  2.7163
  878MPD2     N12937   2.975   1.629  13.548  0.0058  0.2503  0.7452
  878MPD2    H512938   3.076   1.636  13.555  0.0859 -1.9803  1.8575
  878MPD2    N112939   3.063   1.496  13.086 -0.3580  0.0359  0.4269
  878MPD2    H712940   3.016   1.456  13.005  0.8019  1.5141 -0.9822
  879MPD2     C12941   3.429   2.503  17.146 -0.0651  0.4445 -0.2968
  879MPD2    C112942   3.396   2.628  17.095  0.5449  0.4167 -0.1434
  879MPD2    C212943   3.291   2.640  17.005 -0.1177 -0.2194  1.0097
  879MPD2    C312944   3.224   2.523  16.966  0.0674 -0.1293 -0.1609
  879MPD2    C412945   3.255   2.397  17.028  0.0098  0.4003 -0.0632
  879MPD2    C512946   3.360   2.389  17.113 -0.2940 -0.2952  0.7316
  879MPD2     H12947   3.262   2.735  16.963 -0.1406  0.0347  1.5933
  879MPD2    H112948   3.188   2.314  17.007  0.6196 -0.0083 -0.4210
  879MPD2    H212949   3.518   2.500  17.208 -0.9199 -0.0534  0.8826
  879MPD2    H312950   3.379   2.301  17.174 -2.7284 -0.6998  0.9113
  879MPD2     N12951   3.112   2.527  16.881 -0.1837 -0.9465 -0.0804
  879MPD2    H512952   3.065   2.438  16.868 -0.1483 -0.9882  0.0782
  879MPD2    N112953   3.475   2.744  17.125  0.2306 -0.3575 -0.2577
  879MPD2    H712954   3.550   2.725  17.191  0.8967 -0.1788 -0.9591
  880MPD2     C12955   4.562   0.032   0.088 -0.2653  1.3398  0.2614
  880MPD2    C112956   4.646   0.132   0.133 -0.8515  0.3506 -0.1148
  880MPD2    C212957   0.006   0.096   0.230 -0.1133 -0.4025  0.5091
  880MPD2    C312958   0.016   4.708   0.292 -0.0581 -0.2282 -0.3561
  880MPD2    C412959   4.654   4.621   0.254 -0.1577  0.3932 -0.4473
  880MPD2    C512960   4.563   4.645   0.149  0.0103 -0.5152  0.2421
  880MPD2     H12961   0.081   0.173   0.243  0.7429 -1.5021  2.0508
  880MPD2    H112962   4.656   4.520   0.295 -0.4802  1.0785  1.2554
  880MPD2    H212963   4.484   0.043   0.013  0.1499  1.2799 -0.1846
  880MPD2    H312964   4.481   4.576   0.129  0.1867 -0.5133 -0.4629
  880MPD2     N12965   0.098   4.705   0.413 -0.0970  0.0500 -0.2458
  880MPD2    H512966   0.155   0.050   0.438 -1.7345  0.6031  1.7445
  880MPD2    N112967   4.634   0.265   0.077  0.4501  0.1186 -0.0369
  880MPD2    H712968   4.578   0.278  17.734 -3.6427  0.0622  2.6794
  881MPD2     C12969   0.119   1.268  17.434 -0.1705 -0.1323  0.2043
  881MPD2    C112970   0.116   1.152  17.367 -0.3527  0.3037 -0.4063
  881MPD2    C212971   0.123   1.034  17.437  0.2547 -0.6075 -0.4685
  881MPD2    C312972   0.110   1.032  17.578  1.0315  0.9610  0.5125
  881MPD2    C412973   0.087   1.151  17.643  0.5815 -0.2465 -0.3170
  881MPD2    C512974   0.108   1.269  17.572  0.9752  0.0310 -0.0461
  881MPD2     H12975   0.123   0.938  17.387 -0.4605 -0.0744 -1.4623
  881MPD2    H112976   0.094   1.172   0.009 -0.2663 -1.0469 -0.1102
  881MPD2    H212977   0.135   1.361  17.380 -2.9706 -0.6455 -1.5252
  881MPD2    H312978   0.105   1.364  17.625 -2.8690 -1.3037  2.1562
  881MPD2     N12979   0.103   0.927  17.664 -0.6357  0.4698  0.4392
  881MPD2    H512980   0.055   0.949   0.010  1.3513 -0.6316  1.8113
  881MPD2    N112981   0.145   1.160  17.233  0.3922 -0.3175 -0.9119
  881MPD2    H712982   0.160   1.248  17.185  0.7471 -0.5124 -1.1565
  882MPD2     C12983   3.315   2.124  14.152  0.3112  0.3911  0.7451
  882MPD2    C112984   3.269   2.168  14.273 -0.1649  0.5061  0.2998
  882MPD2    C212985   3.142   2.219  14.290  0.2500  0.3182 -0.1228
  882MPD2    C312986   3.059   2.212  14.184 -0.2042  0.3899  0.1861
  882MPD2    C412987   3.104   2.185  14.054 -0.4451  0.1012  0.0040
  882MPD2    C512988   3.235   2.141  14.042  0.5542 -0.8975 -0.1939
  882MPD2     H12989   3.105   2.242  14.389 -1.6335  3.6541 -1.6188
  882MPD2    H112990   3.034   2.193  13.972 -0.4636  2.4231  0.2525
  882MPD2    H212991   3.413   2.079  14.141 -1.0150 -2.3354 -0.0547
  882MPD2    H312992   3.270   2.109  13.944  1.0127  0.5595 -0.5026
  882MPD2     N12993   2.923   2.247  14.195  0.1450 -0.2208  0.0714
  882MPD2    H512994   2.869   2.253  14.109  1.9181  0.0256 -1.0308
  882MPD2    N112995   3.359   2.150  14.379 -0.6949 -0.2443  0.1619
  882MPD2    H712996   3.443   2.096  14.362 -1.3257 -1.3463  0.5458
  883MPD2     C12997   0.311   2.418  16.196 -0.3280  0.4993  0.0103
  883MPD2    C112998   0.390   2.439  16.086  0.0258 -0.0370  0.4112
  883MPD2    C212999   0.524   2.469  16.106 -0.0436  0.4637 -0.4085
  883MPD2    C313000   0.578   2.488  16.231 -0.2727 -1.2952 -0.0549
  883MPD2    C413001   0.497   2.461  16.339 -0.1506 -0.0802 -0.4701
  883MPD2    C513002   0.366   2.425  16.318 -0.2516  0.8041  0.3595
  883MPD2     H13003   0.587   2.475  16.018 -3.5334 -0.9730 -3.0365
  883MPD2    H113004   0.531   2.463  16.442 -1.6036 -1.1777  0.0167
  883MPD2    H213005   0.206   2.390  16.188  0.1629 -0.5459 -2.4952
  883MPD2    H313006   0.304   2.414  16.407 -0.2452 -1.7970  0.0364
  883MPD2     N13007   0.709   2.540  16.236 -0.3064 -0.1124  0.4041
  883MPD2    H513008   0.751   2.550  16.144  0.7140  0.2007  0.8963
  883MPD2    N113009   0.341   2.429  15.948  0.0913  0.3260 -0.2783
  883MPD2    H713010   0.409   2.422  15.873  2.0019  0.0419  1.4649
  884MPD2     C13011   2.087   4.277  15.300 -0.5898 -0.4492  0.0915
  884MPD2    C113012   2.199   4.204  15.252 -0.6064  0.0786  0.3220
  884MPD2    C213013   2.179   4.100  15.156  0.3386 -0.2887 -0.1576
  884MPD2    C313014   2.054   4.075  15.109  0.7405 -0.3481 -0.2790
  884MPD2    C413015   1.946   4.131  15.167  0.5241 -0.6003 -0.0702
  884MPD2    C513016   1.966   4.232  15.254  0.1824  0.4603  0.3717
  884MPD2     H13017   2.263   4.058  15.102  1.7232  1.7733  0.4154
  884MPD2    H113018   1.847   4.105  15.132  0.2923  2.6167 -1.8491
  884MPD2    H213019   2.094   4.371  15.353 -3.3176  0.5634 -1.3313
  884MPD2    H313020   1.884   4.284  15.303 -2.6076 -1.4894 -2.2555
  884MPD2     N13021   2.041   3.981  15.003 -0.0642 -0.2703 -0.1941
  884MPD2    H513022   2.126   3.950  14.956 -0.8241  0.8047 -2.2659
  884MPD2    N113023   2.325   4.224  15.300 -0.1991  0.1456 -0.5694
  884MPD2    H713024   2.404   4.170  15.265  1.0013  1.0278  0.7643
  885MPD2     C13025   0.769   4.105   0.544 -0.6366 -0.7552 -0.5129
  885MPD2    C113026   0.664   4.021   0.498 -0.6116  0.0954 -0.0757
  885MPD2    C213027   0.633   4.024   0.357  0.2416  0.0679  0.3657
  885MPD2    C313028   0.709   4.099   0.268 -0.2409  0.8045 -0.0817
  885MPD2    C413029   0.815   4.178   0.317  0.4330 -0.2714  0.1580
  885MPD2    C513030   0.834   4.187   0.456  0.0528  0.5125 -0.4457
  885MPD2     H13031   0.568   3.943   0.325  1.8537 -0.9532 -0.3042
  885MPD2    H113032   0.876   4.242   0.255  0.2752 -0.5084 -0.2422
  885MPD2    H213033   0.792   4.102   0.649  2.1667  3.7217 -1.0211
  885MPD2    H313034   0.906   4.263   0.485  3.3306 -2.5415 -0.5982
  885MPD2     N13035   0.676   4.076   0.127 -0.2688 -0.1121  0.5351
  885MPD2    H513036   0.596   4.017   0.108 -0.7671  0.7709 -0.0970
  885MPD2    N113037   0.610   3.927   0.590  0.4819  0.1260  0.0705
  885MPD2    H713038   0.650   3.917   0.683 -1.1358 -0.0294  0.7695
  886MPD2     C13039   1.868   1.877  15.401  0.1235 -0.6545 -0.3335
  886MPD2    C113040   2.001   1.911  15.395  0.0749  0.3567 -0.8008
  886MPD2    C213041   2.029   2.031  15.329  0.5131  0.9184 -0.1169
  886MPD2    C313042   1.944   2.100  15.262  0.4078  0.1610  0.0392
  886MPD2    C413043   1.812   2.058  15.253 -0.7500  0.0667 -0.0985
  886MPD2    C513044   1.772   1.944  15.326 -0.0950  0.0467  0.3091
  886MPD2     H13045   2.130   2.070  15.336  0.1371  1.7076  1.0135
  886MPD2    H113046   1.742   2.107  15.187  2.0128  2.3061 -1.4047
  886MPD2    H213047   1.837   1.792  15.460  0.2047  0.1639  0.9085
  886MPD2    H313048   1.668   1.917  15.341 -0.2259 -0.2114 -1.0819
  886MPD2     N13049   1.987   2.214  15.189 -0.1154 -0.4088  0.6600
  886MPD2    H513050   1.916   2.259  15.131  0.3085  0.5473  0.8811
  886MPD2    N113051   2.099   1.831  15.453 -0.3148  0.1269 -0.0523
  886MPD2    H713052   2.195   1.862  15.436  0.0450 -0.6015  0.6805
  887MPD2     C13053   2.202   1.988  16.123 -0.6874  0.1833  0.7993
  887MPD2    C113054   2.265   2.011  16.005 -0.5455 -0.2227 -0.2574
  887MPD2    C213055   2.276   2.141  15.953  0.5765  0.2649 -0.7498
  887MPD2    C313056   2.235   2.250  16.034 -0.6646 -0.2311  0.5717
  887MPD2    C413057   2.176   2.227  16.156  0.0325  0.8525 -0.3571
  887MPD2    C513058   2.162   2.095  16.193  0.5270  0.2037 -0.4540
  887MPD2     H13059   2.316   2.148  15.852 -1.0289  1.4079 -1.3161
  887MPD2    H113060   2.141   2.305  16.223 -0.3984  0.7379 -0.4503
  887MPD2    H213061   2.202   1.886  16.160 -0.9042  1.0110  3.1449
  887MPD2    H313062   2.130   2.077  16.295 -0.1607  1.1313 -0.4990
  887MPD2     N13063   2.252   2.382  15.991  0.3891 -0.3522 -0.5215
  887MPD2    H513064   2.207   2.446  16.056 -0.9015  0.0178 -1.7950
  887MPD2    N113065   2.295   1.907  15.919 -0.7045 -0.1628  0.4972
  887MPD2    H713066   2.321   1.931  15.824  2.3258 -1.8402  0.8958
  888MPD2     C13067   4.286   1.871  14.776  0.3971  0.1775  0.1086
  888MPD2    C113068   4.349   1.883  14.896 -0.3885  0.6911 -0.2475
  888MPD2    C213069   4.450   1.980  14.909  0.2252 -0.0906  0.2343
  888MPD2    C313070   4.473   2.076  14.813  0.2084 -0.0224 -0.7008
  888MPD2    C413071   4.389   2.073  14.703 -0.5422  0.4741 -0.3420
  888MPD2    C513072   4.306   1.964  14.684 -0.0908  0.0930  0.4929
  888MPD2     H13073   4.511   1.970  14.998 -2.3815 -1.3202  1.8793
  888MPD2    H113074   4.400   2.145  14.622  2.0677 -1.5972 -1.8451
  888MPD2    H213075   4.190   1.823  14.761  0.6965 -0.6705  0.8955
  888MPD2    H313076   4.241   1.977  14.598  1.8022  1.2386 -0.7792
  888MPD2     N13077   4.570   2.177  14.838 -0.1778  0.7697  0.2807
  888MPD2    H513078   4.619   2.171  14.927  2.9134 -0.7223 -1.5389
  888MPD2    N113079   4.332   1.785  15.006 -0.0531 -0.0173  0.3341
  888MPD2    H713080   4.399   1.790  15.082 -0.0700  0.0669  0.3430
  889MPD2     C13081   3.811   0.855  13.856  0.8271 -0.2838 -0.1982
  889MPD2    C113082   3.931   0.883  13.800  0.3030 -1.0135  0.4392
  889MPD2    C213083   3.988   1.010  13.821 -0.6375  0.1380 -0.3939
  889MPD2    C313084   3.923   1.102  13.901 -0.1455 -0.2536 -0.2591
  889MPD2    C413085   3.802   1.075  13.957  0.3806  0.8784  0.3908
  889MPD2    C513086   3.750   0.952  13.936  0.2526  1.3146 -0.4970
  889MPD2     H13087   4.087   1.029  13.780  0.2174 -2.1700  0.5585
  889MPD2    H113088   3.749   1.140  14.026 -0.1666  0.7094  0.1272
  889MPD2    H213089   3.775   0.753  13.865  2.3509 -0.8197 -0.2329
  889MPD2    H313090   3.654   0.925  13.979  1.7729 -0.2839  1.8793
  889MPD2     N13091   3.991   1.227  13.909  0.0710  0.7792 -0.2227
  889MPD2    H513092   4.066   1.241  13.843  0.7987 -0.5342  0.3221
  889MPD2    N113093   4.004   0.774  13.740  0.0213 -0.7427  0.1104
  889MPD2    H713094   3.967   0.684  13.768  0.1412 -0.2140  1.9567
  890MPD2     C13095   3.163   3.122  14.688 -0.4176  0.0285 -0.0003
  890MPD2    C113096   3.273   3.147  14.763  0.3177  0.1906  0.5706
  890MPD2    C213097   3.311   3.055  14.861  0.3285  0.0225  0.9655
  890MPD2    C313098   3.229   2.954  14.892 -0.5292  0.1425  0.0529
  890MPD2    C413099   3.117   2.933  14.812  0.1929 -0.2860  0.2336
  890MPD2    C513100   3.090   3.009  14.706 -0.4044 -1.0240  0.3254
  890MPD2     H13101   3.402   3.065  14.920 -0.1792 -0.6815  1.8619
  890MPD2    H113102   3.061   2.840  14.813 -0.8650  0.3553  0.3140
  890MPD2    H213103   3.147   3.179  14.597 -0.4437  1.4133  0.8717
  890MPD2    H313104   3.014   2.985  14.632  0.0889 -0.8097 -0.2472
  890MPD2     N13105   3.266   2.867  14.994  0.0045  0.0499 -0.4124
  890MPD2    H513106   3.349   2.889  15.048 -1.4215 -0.6758  2.0581
  890MPD2    N113107   3.339   3.268  14.733  0.5634  0.3448 -0.3789
  890MPD2    H713108   3.302   3.324  14.657  1.9440 -0.0346 -1.3258
  891MPD2     C13109   1.068   1.633  16.796 -0.4540  1.2642  0.1013
  891MPD2    C113110   1.145   1.748  16.775 -0.5074 -0.2685 -0.3189
  891MPD2    C213111   1.279   1.743  16.803 -0.2473 -0.5580  0.4842
  891MPD2    C313112   1.335   1.629  16.854 -0.9934 -0.0591  0.2412
  891MPD2    C413113   1.264   1.510  16.853  0.4567  0.4380  0.4200
  891MPD2    C513114   1.132   1.516  16.818  0.2693  0.1721 -0.4512
  891MPD2     H13115   1.347   1.827  16.791 -0.3465 -0.6810 -0.8342
  891MPD2    H113116   1.306   1.415  16.887 -0.5076 -0.4146 -0.7756
  891MPD2    H213117   0.962   1.629  16.774 -0.1870 -1.7540 -0.6531
  891MPD2    H313118   1.076   1.424  16.830 -1.8879  1.4958 -0.5371
  891MPD2     N13119   1.466   1.629  16.903  0.3775 -0.4762  0.5207
  891MPD2    H513120   1.508   1.721  16.910 -2.4968  0.7523  1.5365
  891MPD2    N113121   1.075   1.862  16.745 -0.0121 -0.2220 -0.1976
  891MPD2    H713122   0.974   1.862  16.748  0.0083 -0.8623  0.3747
  892MPD2     C13123   2.483   2.838  14.879  0.8076  0.8677  0.1100
  892MPD2    C113124   2.380   2.796  14.791 -0.2424 -0.7576 -0.3634
  892MPD2    C213125   2.401   2.703  14.685  0.0001  0.2893 -0.1186
  892MPD2    C313126   2.532   2.653  14.666  0.2433 -0.2256 -0.8726
  892MPD2    C413127   2.634   2.699  14.748  0.0431  0.3706  0.0097
  892MPD2    C513128   2.609   2.782  14.856  0.0065 -0.9891  0.2418
  892MPD2     H13129   2.314   2.666  14.632 -0.0480  0.4973 -0.1858
  892MPD2    H113130   2.736   2.669  14.728 -0.1392  0.0552 -0.4339
  892MPD2    H213131   2.465   2.904  14.963 -1.3203  2.0245 -1.2301
  892MPD2    H313132   2.691   2.819  14.917  1.0187 -0.2587 -1.5663
  892MPD2     N13133   2.562   2.551  14.574  0.0594  0.2816  0.2548
  892MPD2    H513134   2.662   2.533  14.575  0.3010  1.6075 -0.3717
  892MPD2    N113135   2.250   2.834  14.808  0.1997  0.6298 -0.4751
  892MPD2    H713136   2.183   2.793  14.744 -1.9484  4.1858 -0.5406
  893MPD2     C13137   3.910   1.277   1.424 -0.8291  0.4885  0.8644
  893MPD2    C113138   3.919   1.312   1.292 -0.4080  0.4207  0.1908
  893MPD2    C213139   3.801   1.324   1.218  0.0941 -0.0235  0.1356
  893MPD2    C313140   3.676   1.311   1.282  0.1557  0.3914 -0.0372
  893MPD2    C413141   3.667   1.291   1.414  0.1249  0.5180 -0.5861
  893MPD2    C513142   3.781   1.283   1.478  0.0948 -0.1463 -0.5245
  893MPD2     H13143   3.812   1.353   1.114  0.1521  1.3092  0.5083
  893MPD2    H113144   3.575   1.288   1.471  0.7097  0.9819  0.3916
  893MPD2    H213145   3.995   1.256   1.488 -0.4311 -1.3341 -0.2610
  893MPD2    H313146   3.763   1.265   1.584 -0.0902 -0.5676 -0.6251
  893MPD2     N13147   3.555   1.321   1.203 -0.0178 -0.2407  0.5172
  893MPD2    H513148   3.584   1.341   1.107 -1.7091 -2.4449 -0.4566
  893MPD2    N113149   4.051   1.343   1.240  0.3306  0.2204 -0.2515
  893MPD2    H713150   4.128   1.314   1.299 -0.3498 -0.6620  0.2108
  894MPD2     C13151   2.258   3.387   1.211  0.7037  0.0168 -0.6968
  894MPD2    C113152   2.201   3.503   1.260  0.5737 -0.6318  0.5064
  894MPD2    C213153   2.239   3.624   1.208 -0.1080 -0.1014 -0.1500
  894MPD2    C313154   2.338   3.636   1.120 -0.0449  0.4859 -0.5087
  894MPD2    C413155   2.405   3.522   1.074 -0.8874 -0.0190  0.1800
  894MPD2    C513156   2.358   3.398   1.116 -0.0832  0.3248  0.4411
  894MPD2     H13157   2.190   3.712   1.249  1.7843  0.4167  1.0363
  894MPD2    H113158   2.484   3.521   1.000  0.2429 -4.5387  1.4266
  894MPD2    H213159   2.232   3.287   1.243 -2.9729  0.8514 -1.0425
  894MPD2    H313160   2.395   3.302   1.081 -1.1684 -0.0714  0.3779
  894MPD2     N13161   2.385   3.763   1.090  0.1946 -0.6579  0.6480
  894MPD2    H513162   2.316   3.835   1.114  0.2694  0.0798 -1.3813
  894MPD2    N113163   2.107   3.504   1.361  0.2163 -0.1811 -0.3610
  894MPD2    H713164   2.065   3.590   1.394  0.7070  0.6086 -1.7998
  895MPD2     C13165   1.608   1.873  14.241 -0.1152  0.4389 -0.5210
  895MPD2    C113166   1.587   1.859  14.103 -0.0760 -0.5852  0.5813
  895MPD2    C213167   1.662   1.765  14.033  0.2196 -0.1845 -0.4901
  895MPD2    C313168   1.766   1.701  14.090 -0.3725 -0.6055 -0.2659
  895MPD2    C413169   1.791   1.720  14.220  0.5636 -0.5938 -0.2309
  895MPD2    C513170   1.716   1.809  14.297 -0.1462 -0.3045 -0.5768
  895MPD2     H13171   1.662   1.755  13.925 -0.8693 -2.3365 -0.2913
  895MPD2    H113172   1.877   1.673  14.267 -1.1926 -0.6579  2.9593
  895MPD2    H213173   1.555   1.938  14.309  0.8621  0.2275  0.4528
  895MPD2    H313174   1.748   1.840  14.395  0.5718 -0.8742 -0.6326
  895MPD2     N13175   1.858   1.626  14.012 -0.7193 -0.0070  0.3106
  895MPD2    H513176   1.865   1.648  13.913 -0.8306  2.1434  0.7826
  895MPD2    N113177   1.485   1.931  14.029 -0.8096  0.4702 -0.1085
  895MPD2    H713178   1.482   1.916  13.928 -1.9659  0.9381 -0.1427
  896MPD2     C13179   4.203   4.043   1.052  0.0241  1.0535  0.2653
  896MPD2    C113180   4.186   4.074   0.922  0.4899  0.3400 -0.4789
  896MPD2    C213181   4.086   4.012   0.848  0.4634  0.4359 -0.4065
  896MPD2    C313182   4.003   3.923   0.917 -0.2235 -0.5516  0.5678
  896MPD2    C413183   4.022   3.895   1.049 -0.5225  0.0697 -0.0956
  896MPD2    C513184   4.125   3.949   1.114  1.0123 -0.2545  0.3006
  896MPD2     H13185   4.049   4.046   0.752 -0.5173  1.7804  0.4457
  896MPD2    H113186   3.958   3.830   1.107 -2.0534  2.4361  0.8807
  896MPD2    H213187   4.288   4.084   1.105  0.5480  0.0654  0.1813
  896MPD2    H313188   4.147   3.920   1.216 -0.2695 -0.9789  0.3656
  896MPD2     N13189   3.891   3.865   0.853  0.6625 -0.1562  0.6103
  896MPD2    H513190   3.880   3.884   0.753  1.1757  0.7470  0.7269
  896MPD2    N113191   4.272   4.166   0.854 -0.2534  0.1197 -0.2662
  896MPD2    H713192   4.340   4.215   0.912 -0.9440  1.5973 -0.6959
  897MPD2     C13193   0.591   0.582  10.620  0.0416  0.4625 -0.7986
  897MPD2    C113194   0.534   0.708  10.632  0.3112 -0.3241 -0.0820
  897MPD2    C213195   0.457   0.737  10.746 -0.2296 -0.1883 -0.1398
  897MPD2    C313196   0.422   0.633  10.832 -0.2637 -0.2868  0.1408
  897MPD2    C413197   0.471   0.507  10.818  0.6892  0.1336  0.4768
  897MPD2    C513198   0.549   0.477  10.706 -0.0043 -0.1436 -0.6074
  897MPD2     H13199   0.406   0.832  10.761  1.4147  0.7829 -0.7680
  897MPD2    H113200   0.451   0.423  10.884 -0.3635  1.0895  1.3588
  897MPD2    H213201   0.654   0.552  10.537  2.3799  0.3589  1.0100
  897MPD2    H313202   0.586   0.376  10.691 -1.5875 -0.8363  0.0401
  897MPD2     N13203   0.329   0.661  10.942  0.3382 -0.2948 -0.7466
  897MPD2    H513204   0.282   0.751  10.941 -1.4450 -1.2435 -2.9267
  897MPD2    N113205   0.547   0.813  10.534 -0.1273  0.4700  0.3629
  897MPD2    H713206   0.592   0.793  10.445 -1.6886 -0.6787 -0.1622
  898MPD2     C13207   0.818   2.145   0.011  0.2378 -0.6791 -0.2362
  898MPD2    C113208   0.943   2.118   0.061  0.1924  0.7029  0.5536
  898MPD2    C213209   1.014   2.228   0.122  0.2751 -0.2608  0.0966
  898MPD2    C313210   0.959   2.352   0.142  0.6014  0.3353 -0.2708
  898MPD2    C413211   0.829   2.367   0.101  0.4003  0.0022 -0.1659
  898MPD2    C513212   0.757   2.264   0.037  0.0968 -0.9252 -0.5820
  898MPD2     H13213   1.118   2.226   0.152  0.2273 -0.5367  0.2551
  898MPD2    H113214   0.771   2.452   0.132 -0.2451 -0.7443  0.6562
  898MPD2    H213215   0.768   2.074  17.686  3.0811 -1.7837 -1.2032
  898MPD2    H313216   0.657   2.285   0.001  0.1428 -0.1385 -0.2525
  898MPD2     N13217   1.034   2.457   0.195  0.3870  0.2915  0.4429
  898MPD2    H513218   1.121   2.438   0.245 -0.9645 -0.7549  2.3790
  898MPD2    N113219   1.012   1.994   0.036  0.3099 -0.2127  0.0869
  898MPD2    H713220   1.105   1.983   0.074  0.1402 -1.0046  0.2577
  899MPD2     C13221   2.810   2.646  17.514 -0.2980 -0.6520 -0.1297
  899MPD2    C113222   2.824   2.776  17.560  0.4913 -0.1040 -0.0479
  899MPD2    C213223   2.783   2.807  17.687 -0.4646  0.4653 -0.3833
  899MPD2    C313224   2.746   2.703   0.030  0.5414 -0.3080 -0.4684
  899MPD2    C413225   2.766   2.570  17.737 -0.3362 -0.2257  0.5121
  899MPD2    C513226   2.786   2.545  17.603 -0.6117 -1.0979 -0.1109
  899MPD2     H13227   2.761   2.909  17.716 -2.1987  0.0355 -0.1748
  899MPD2    H113228   2.734   2.493   0.066  2.2590 -0.6463  1.2518
  899MPD2    H213229   2.833   2.615  17.413 -2.4725  1.2024 -1.1995
  899MPD2    H313230   2.796   2.444  17.564  0.9731 -0.2799 -1.8637
  899MPD2     N13231   2.677   2.720   0.155 -0.0052  0.1677  0.0766
  899MPD2    H513232   2.638   2.636   0.196 -0.7793  0.2755 -0.4313
  899MPD2    N113233   2.845   2.869  17.457  0.3150  0.1635  0.5071
  899MPD2    H713234   2.851   2.827  17.364  1.2765  0.7885  0.2777
  900MPD2     C13235   2.985   4.056  12.608  0.5373 -0.3255  0.2210
  900MPD2    C113236   2.874   3.975  12.630 -0.2620  0.5402 -0.4319
  900MPD2    C213237   2.765   3.990  12.544 -0.4840 -0.3675 -0.3300
  900MPD2    C313238   2.771   4.072  12.430 -0.4622  0.1571 -0.1316
  900MPD2    C413239   2.884   4.147  12.411 -0.3848  0.6539  0.5368
  900MPD2    C513240   2.988   4.143  12.505 -0.0164 -0.3064 -0.1312
  900MPD2     H13241   2.670   3.942  12.566  0.1922 -1.8704 -0.6606
  900MPD2    H113242   2.899   4.207  12.322 -0.9485 -0.1275 -0.0847
  900MPD2    H213243   3.073   4.046  12.670  0.8833  0.0359 -0.2111
  900MPD2    H313244   3.071   4.211  12.491 -0.7808  0.6370 -0.0754
  900MPD2     N13245   2.653   4.089  12.342  0.1969 -0.1657 -0.2537
  900MPD2    H513246   2.593   4.010  12.362 -0.8097  0.4649 -0.8031
  900MPD2    N113247   2.865   3.904  12.752  0.0618  0.3225 -0.0906
  900MPD2    H713248   2.958   3.885  12.788 -0.2278  1.7057  1.3943
  901MPD2     C13249   2.762   2.924  13.011 -0.0687  0.4249 -0.0836
  901MPD2    C113250   2.895   2.980  13.010  0.1561  0.0145  0.3621
  901MPD2    C213251   2.903   3.115  13.033  0.6332 -0.0093 -0.1989
  901MPD2    C313252   2.786   3.192  13.059 -0.3572 -0.1173 -0.1756
  901MPD2    C413253   2.661   3.134  13.051  0.2303 -0.6495  0.4606
  901MPD2    C513254   2.654   2.997  13.017 -0.2093  0.1684 -0.1488
  901MPD2     H13255   3.000   3.165  13.027 -0.1185  1.3776 -0.9302
  901MPD2    H113256   2.568   3.188  13.066  0.2023 -0.1221 -1.5648
  901MPD2    H213257   2.743   2.818  13.002  0.2178  0.3329  0.4289
  901MPD2    H313258   2.554   2.956  13.023 -1.1252  2.3142 -0.7395
  901MPD2     N13259   2.797   3.331  13.068  0.1692 -0.1165  0.2153
  901MPD2    H513260   2.894   3.354  13.087  0.7044 -2.5834  0.5338
  901MPD2    N113261   3.004   2.901  12.970 -0.6480  0.0452 -0.4570
  901MPD2    H713262   2.987   2.802  12.959  0.7945 -0.5216  2.2911
  902MPD2     C13263   1.753   1.656  12.419  0.3202 -0.3530 -0.1220
  902MPD2    C113264   1.869   1.722  12.425  1.1685  0.4595 -0.3073
  902MPD2    C213265   1.990   1.652  12.443 -0.0081 -0.7991  0.3915
  902MPD2    C313266   1.980   1.507  12.457  0.4699  0.1272  0.7906
  902MPD2    C413267   1.857   1.446  12.442 -0.1084 -0.0644  0.2795
  902MPD2    C513268   1.751   1.518  12.426 -0.2729 -0.4357 -0.1381
  902MPD2     H13269   2.084   1.703  12.456  1.7897 -3.2497 -2.7818
  902MPD2    H113270   1.844   1.338  12.446 -2.2096  0.2343  1.2733
  902MPD2    H213271   1.662   1.710  12.394  0.1523  0.4775  2.3451
  902MPD2    H313272   1.658   1.471  12.395 -0.9241  0.2113  0.8489
  902MPD2     N13273   2.092   1.427  12.495 -0.4518  0.4315 -0.3455
  902MPD2    H513274   2.080   1.326  12.487 -0.4357  0.2871  1.5688
  902MPD2    N113275   1.853   1.866  12.407 -0.1198  0.0897 -0.1743
  902MPD2    H713276   1.765   1.909  12.381 -0.9771 -1.5039  0.1673
  903MPD2     C13277   2.034   1.925  12.012 -0.8089 -0.1728  0.4458
  903MPD2    C113278   1.983   1.811  12.048  0.5484 -0.4827  0.0896
  903MPD2    C213279   1.842   1.803  12.032  0.7001 -0.4023  0.3944
  903MPD2    C313280   1.759   1.916  12.014  0.2104 -0.4242  0.1590
  903MPD2    C413281   1.826   2.036  11.993  0.0618 -0.0682 -0.1211
  903MPD2    C513282   1.961   2.036  11.991 -0.3538 -0.1863 -0.0750
  903MPD2     H13283   1.798   1.704  12.042 -2.8726  1.1892  0.3365
  903MPD2    H113284   1.770   2.127  11.976  1.6165  1.1715  1.3708
  903MPD2    H213285   2.139   1.949  12.011 -0.6880 -0.6670  1.0670
  903MPD2    H313286   1.992   2.135  11.962  1.2766 -0.7717 -0.3093
  903MPD2     N13287   1.619   1.908  12.013  0.5578 -0.2836 -0.2186
  903MPD2    H513288   1.572   1.818  12.026 -1.2923  0.1976 -3.4938
  903MPD2    N113289   2.055   1.695  12.081 -0.0975  0.1756  0.0297
  903MPD2    H713290   2.000   1.611  12.098 -1.0232  0.6116 -0.8117
  904MPD2     C13291   1.502   1.163  13.903  0.5825  0.7174  0.0211
  904MPD2    C113292   1.513   1.270  13.984 -0.1679  0.6760 -0.2175
  904MPD2    C213293   1.628   1.286  14.052  0.3425  0.4643 -0.6282
  904MPD2    C313294   1.735   1.200  14.051  0.3264  0.2002 -0.6182
  904MPD2    C413295   1.716   1.086  13.982  0.4940 -0.3799  0.8370
  904MPD2    C513296   1.604   1.074  13.894 -0.8228  0.3540 -0.1294
  904MPD2     H13297   1.628   1.383  14.100 -0.8700  1.1157 -1.9660
  904MPD2    H113298   1.782   1.001  13.994 -0.9464 -1.5531  0.4948
  904MPD2    H213299   1.408   1.128  13.862 -0.7825  1.2047  2.6704
  904MPD2    H313300   1.589   0.982  13.839 -0.1020  1.0475 -1.4971
  904MPD2     N13301   1.845   1.224  14.129 -0.0037  0.3499  0.2232
  904MPD2    H513302   1.844   1.304  14.192 -1.7950 -0.4293  1.1537
  904MPD2    N113303   1.419   1.374  13.983 -0.3953  0.5090 -0.4791
  904MPD2    H713304   1.426   1.443  14.057 -1.4211  1.0526 -0.8938
  905MPD2     C13305   1.473   1.700  13.351 -0.5445 -0.6005  0.5893
  905MPD2    C113306   1.478   1.714  13.484 -0.0207 -0.3168 -0.3486
  905MPD2    C213307   1.595   1.683  13.549  0.2444 -0.1944 -0.3141
  905MPD2    C313308   1.710   1.648  13.484 -0.5344  0.1810 -1.1846
  905MPD2    C413309   1.700   1.621  13.346  0.3042 -0.0813 -0.6136
  905MPD2    C513310   1.580   1.643  13.288 -0.0445 -0.2348  0.2586
  905MPD2     H13311   1.606   1.693  13.656  1.3313 -1.4933 -0.3036
  905MPD2    H113312   1.784   1.571  13.299  0.4711  1.3440 -1.8115
  905MPD2    H213313   1.380   1.716  13.298  1.7181  0.9247 -2.9091
  905MPD2    H313314   1.570   1.625  13.182 -1.4964 -0.1020  0.3734
  905MPD2     N13315   1.835   1.629  13.537 -0.5109  0.4740 -0.6408
  905MPD2    H513316   1.896   1.573  13.480  0.2605 -0.0914  0.7282
  905MPD2    N113317   1.353   1.731  13.561 -0.2889  0.5415  0.4645
  905MPD2    H713318   1.268   1.738  13.506 -0.9580  2.2155  1.7100
  906MPD2     C13319   3.595   1.006  11.344 -0.2650  0.4852  0.1762
  906MPD2    C113320   3.577   0.909  11.240 -0.9343  0.3602  0.0482
  906MPD2    C213321   3.502   0.796  11.271  0.5534  0.6142 -0.2004
  906MPD2    C313322   3.432   0.783  11.393  0.0936 -0.2395 -0.2569
  906MPD2    C413323   3.439   0.892  11.482 -0.0744  0.0747 -0.1781
  906MPD2    C513324   3.518   0.992  11.455  0.2169 -0.0581  0.4239
  906MPD2     H13325   3.493   0.719  11.195  1.1348  0.8220 -0.4794
  906MPD2    H113326   3.374   0.894  11.569  2.9281  1.0277  2.0466
  906MPD2    H213327   3.652   1.097  11.340 -1.0943  0.9241 -1.9608
  906MPD2    H313328   3.537   1.059  11.538  0.2493 -0.1808  0.5163
  906MPD2     N13329   3.344   0.674  11.419 -0.2138 -0.2072  0.4702
  906MPD2    H513330   3.275   0.684  11.493 -1.4623  0.7794 -0.8387
  906MPD2    N113331   3.639   0.909  11.110  0.5270  0.7797  0.0312
  906MPD2    H713332   3.611   0.844  11.037 -0.0214 -0.3651  1.2681
  907MPD2     C13333   1.990   0.990  16.436 -0.3531  0.2576 -0.2852
  907MPD2    C113334   2.022   0.869  16.386 -0.0929 -0.1459  0.3212
  907MPD2    C213335   2.038   0.762  16.472 -0.8849 -0.1811 -0.1211
  907MPD2    C313336   2.030   0.778  16.612 -0.5564  0.3623  0.0938
  907MPD2    C413337   1.987   0.905  16.662  0.1998  0.7013  0.1083
  907MPD2    C513338   1.977   1.007  16.574 -0.0222  0.0982 -0.3381
  907MPD2     H13339   2.074   0.665  16.439 -0.2076 -0.1629  0.5669
  907MPD2    H113340   1.962   0.930  16.764 -1.9855  0.9021 -0.4635
  907MPD2    H213341   1.985   1.074  16.368  1.4289  0.4455 -0.1932
  907MPD2    H313342   1.959   1.107  16.612  1.8114  1.3460 -2.8023
  907MPD2     N13343   2.045   0.665  16.698  0.1226  0.2744  0.2165
  907MPD2    H513344   2.077   0.577  16.659  3.4853  0.8834  1.6101
  907MPD2    N113345   2.026   0.843  16.244  0.2284  0.1189 -0.1172
  907MPD2    H713346   2.046   0.748  16.213  1.0128  0.1796  0.1978
  908MPD2     C13347   0.423   0.666   9.717  0.5778 -0.7542  0.1327
  908MPD2    C113348   0.433   0.598   9.840 -0.5525  0.5974 -0.1292
  908MPD2    C213349   0.463   0.669   9.958  0.1166 -0.0722 -0.4600
  908MPD2    C313350   0.488   0.805   9.942 -0.2178 -0.4351 -0.3797
  908MPD2    C413351   0.481   0.867   9.820  0.5553  0.4895  0.9300
  908MPD2    C513352   0.440   0.801   9.715  0.4054  0.2338 -0.5821
  908MPD2     H13353   0.452   0.620  10.054 -0.2302  0.2009 -0.3610
  908MPD2    H113354   0.512   0.970   9.802  0.4643  0.3519  0.0256
  908MPD2    H213355   0.391   0.603   9.634  0.7880  3.2696 -2.9853
  908MPD2    H313356   0.434   0.848   9.618 -0.3801 -0.0104 -0.6484
  908MPD2     N13357   0.501   0.884  10.062 -0.4663 -0.0815 -0.5888
  908MPD2    H513358   0.525   0.828  10.143  0.2665 -0.1575 -0.8561
  908MPD2    N113359   0.407   0.461   9.847  0.7923  0.2555 -0.1683
  908MPD2    H713360   0.365   0.424   9.762  1.1410  1.8025 -1.0174
  909MPD2     C13361   0.722   3.787  12.118 -0.5977 -0.4137 -0.8819
  909MPD2    C113362   0.652   3.871  12.038 -0.0427  0.1504  0.6587
  909MPD2    C213363   0.573   3.971  12.093  0.4193 -0.4265 -0.4672
  909MPD2    C313364   0.587   3.999  12.232 -0.0534 -0.0697  0.0264
  909MPD2    C413365   0.668   3.921  12.307  0.5984 -0.3422  0.1450
  909MPD2    C513366   0.721   3.811  12.251  0.6331  0.2718  0.3577
  909MPD2     H13367   0.506   4.020  12.023 -0.5888  0.7801  1.3388
  909MPD2    H113368   0.689   3.939  12.412 -1.7211  0.0134  0.5673
  909MPD2    H213369   0.778   3.701  12.083 -0.0233  0.3802 -1.9227
  909MPD2    H313370   0.768   3.737  12.314 -0.4329  1.2486  2.2864
  909MPD2     N13371   0.523   4.110  12.284 -0.4520  0.4665  0.1641
  909MPD2    H513372   0.476   4.173  12.220 -2.5646  0.2975  1.5419
  909MPD2    N113373   0.655   3.855  11.899  0.4666  0.4697 -0.1960
  909MPD2    H713374   0.591   3.913  11.845 -1.4382  0.1954  1.7973
  910MPD2     C13375   1.612   1.441  16.535  0.1665 -0.3926 -0.6429
  910MPD2    C113376   1.638   1.353  16.439 -0.5175 -0.1525 -0.1118
  910MPD2    C213377   1.655   1.394  16.309 -0.0391 -0.6934 -0.1351
  910MPD2    C313378   1.626   1.528  16.272  0.0215  0.4391 -0.2436
  910MPD2    C413379   1.604   1.612  16.374 -0.5293 -0.5832 -0.1185
  910MPD2    C513380   1.599   1.572  16.509  0.3387 -0.1526  0.6793
  910MPD2     H13381   1.684   1.321  16.235  0.3739  0.8245 -1.4839
  910MPD2    H113382   1.577   1.715  16.351 -0.6079 -0.8449 -1.2334
  910MPD2    H213383   1.599   1.411  16.638 -0.3995  2.2227  0.0549
  910MPD2    H313384   1.563   1.638  16.587 -0.1638  2.5872 -1.9003
  910MPD2     N13385   1.607   1.579  16.137  0.2265 -0.0043  0.3665
  910MPD2    H513386   1.586   1.678  16.122  1.4381  0.0340 -1.1038
  910MPD2    N113387   1.656   1.215  16.465 -0.4791 -0.2508 -0.0933
  910MPD2    H713388   1.690   1.168  16.381 -0.4049  2.1921 -1.4185
  911MPD2     C13389   4.404   1.497  16.382  0.3675  0.1191 -0.6924
  911MPD2    C113390   4.398   1.625  16.442  0.4807 -0.1817 -0.1041
  911MPD2    C213391   4.276   1.690  16.452  0.3085 -0.1284  0.2017
  911MPD2    C313392   4.163   1.629  16.402 -0.0067 -0.3219  0.8187
  911MPD2    C413393   4.175   1.501  16.347 -0.7140  0.0784 -0.2406
  911MPD2    C513394   4.289   1.434  16.329  1.0319 -0.6092 -0.1091
  911MPD2     H13395   4.275   1.789  16.497  1.2915 -0.4242  0.8670
  911MPD2    H113396   4.094   1.440  16.309  1.3804 -1.9065 -1.4828
  911MPD2    H213397   4.499   1.446  16.373  0.0010 -0.8196  0.8093
  911MPD2    H313398   4.288   1.335  16.287  0.3779 -1.7254  2.5213
  911MPD2     N13399   4.039   1.691  16.401  0.8120  0.4134 -0.5153
  911MPD2    H513400   3.976   1.632  16.348 -2.0483  3.3539 -0.4075
  911MPD2    N113401   4.525   1.683  16.477  0.2595 -0.5538 -0.1123
  911MPD2    H713402   4.605   1.622  16.464  0.8697 -0.4086  2.9405
  912MPD2     C13403   3.895   1.522  15.771  0.2406  0.1875 -0.3536
  912MPD2    C113404   3.886   1.510  15.905 -0.7845 -0.0497 -0.2801
  912MPD2    C213405   3.884   1.377  15.960 -0.1815  0.6316 -0.4016
  912MPD2    C313406   3.924   1.269  15.885 -0.4000  0.0949 -0.5704
  912MPD2    C413407   3.941   1.282  15.748  0.0387  0.0102 -0.6010
  912MPD2    C513408   3.919   1.407  15.692  0.0670  0.1450  0.4977
  912MPD2     H13409   3.870   1.366  16.067 -0.4861 -1.9968 -0.7264
  912MPD2    H113410   3.975   1.206  15.678  0.9996  1.4491 -1.7021
  912MPD2    H213411   3.890   1.622  15.730 -0.4055  0.3569  0.1322
  912MPD2    H313412   3.944   1.424  15.588  2.4727  1.3387  1.2667
  912MPD2     N13413   3.927   1.142  15.947  0.2373  0.7011 -0.3822
  912MPD2    H513414   3.899   1.137  16.044  0.9113 -2.0275 -0.3312
  912MPD2    N113415   3.866   1.629  15.981 -0.7214  0.6879 -0.2252
  912MPD2    H713416   3.854   1.714  15.927 -1.0485  0.1783 -0.9522
  913MPD2     C13417   0.450   2.377  11.000 -0.4550  0.0846 -0.3310
  913MPD2    C113418   0.522   2.481  11.054 -0.2013 -0.4601  0.3920
  913MPD2    C213419   0.492   2.608  11.011 -0.0379 -0.1921  1.0593
  913MPD2    C313420   0.385   2.626  10.927 -0.2076 -0.3229  0.4286
  913MPD2    C413421   0.318   2.521  10.871  0.0927  0.3230 -0.0357
  913MPD2    C513422   0.350   2.395  10.908 -0.3292 -0.2980  0.1021
  913MPD2     H13423   0.552   2.689  11.051 -2.5378  2.4989 -0.6488
  913MPD2    H113424   0.240   2.532  10.797  0.3120 -0.1327 -0.3374
  913MPD2    H213425   0.481   2.274  11.012 -0.2518  0.0243 -1.3947
  913MPD2    H313426   0.292   2.319  10.856  3.5793 -2.6246 -0.8215
  913MPD2     N13427   0.359   2.752  10.877 -0.2128 -0.3117 -0.4207
  913MPD2    H513428   0.267   2.768  10.838 -0.4067 -2.3822 -0.8240
  913MPD2    N113429   0.621   2.445  11.148  0.3831 -0.3109  0.1907
  913MPD2    H713430   0.625   2.346  11.169  1.8469  0.2919  2.7891
  914MPD2     C13431   2.923   3.080  12.180  0.6110  0.5598  0.0270
  914MPD2    C113432   2.956   3.158  12.284 -0.1279  0.3206 -0.0606
  914MPD2    C213433   3.019   3.108  12.398  0.1989  0.4015  0.0041
  914MPD2    C313434   3.036   2.967  12.397 -0.2684 -0.0080 -0.3716
  914MPD2    C413435   2.986   2.889  12.292  0.4078  0.6604 -0.3479
  914MPD2    C513436   2.933   2.944  12.180 -0.2084 -0.0001  0.2738
  914MPD2     H13437   3.068   3.160  12.480  0.2440  0.8489 -0.3040
  914MPD2    H113438   2.996   2.782  12.288 -0.5563  0.5177  0.9371
  914MPD2    H213439   2.886   3.125  12.089  0.3060 -1.0515 -0.6411
  914MPD2    H313440   2.895   2.886  12.098 -1.0049 -0.0181  0.6547
  914MPD2     N13441   3.108   2.917  12.508 -0.6177  0.5972 -0.2271
  914MPD2    H513442   3.137   2.985  12.578 -2.0510 -1.1785  2.0849
  914MPD2    N113443   2.953   3.296  12.254  0.2127  0.1454 -0.4397
  914MPD2    H713444   2.912   3.327  12.167  0.6271 -1.9511 -1.4045
  915MPD2     C13445   0.874   3.526  15.893 -0.3929 -0.1357 -0.1925
  915MPD2    C113446   0.758   3.570  15.828 -0.7693 -0.1124  0.3575
  915MPD2    C213447   0.643   3.602  15.899 -0.7387 -1.3337  0.4206
  915MPD2    C313448   0.634   3.596  16.034  0.3273  0.4839  0.1792
  915MPD2    C413449   0.749   3.547  16.099 -0.3951  0.4927  0.7709
  915MPD2    C513450   0.863   3.513  16.031 -0.2206  0.2858  0.0563
  915MPD2     H13451   0.547   3.621  15.852 -0.9231 -3.6999 -0.1566
  915MPD2    H113452   0.755   3.543  16.207 -1.8892  0.1055  0.8395
  915MPD2    H213453   0.972   3.510  15.850 -0.0085  0.2006  0.5634
  915MPD2    H313454   0.954   3.474  16.076  0.3258  1.5514  0.0379
  915MPD2     N13455   0.517   3.632  16.105  0.4210  0.3991  0.6978
  915MPD2    H513456   0.446   3.686  16.056 -0.0837 -0.8675  0.0417
  915MPD2    N113457   0.766   3.579  15.687  0.1515 -0.2484  0.0254
  915MPD2    H713458   0.851   3.543  15.645  0.4324  1.9585 -1.2800
  916MPD2     C13459   3.563   1.285  15.836  0.2305  0.4058  0.2611
  916MPD2    C113460   3.551   1.194  15.936 -0.6585 -0.2979  0.5604
  916MPD2    C213461   3.551   1.058  15.908 -0.0852  0.6221 -0.1377
  916MPD2    C313462   3.555   1.018  15.778 -0.0348 -0.2124  0.2082
  916MPD2    C413463   3.569   1.105  15.672 -0.7393  0.3179 -0.4526
  916MPD2    C513464   3.574   1.241  15.704 -0.0698  0.2645 -1.1271
  916MPD2     H13465   3.552   0.988  15.990  0.4074  1.6674  0.7441
  916MPD2    H113466   3.576   1.082  15.567 -2.1637  0.1173 -0.4965
  916MPD2    H213467   3.568   1.390  15.861 -0.1323  0.6464 -0.6705
  916MPD2    H313468   3.581   1.311  15.622  0.4982  2.6338  0.9676
  916MPD2     N13469   3.548   0.880  15.761 -0.0790 -0.2377 -0.5492
  916MPD2    H513470   3.522   0.818  15.836 -1.5495  1.3536  0.2485
  916MPD2    N113471   3.519   1.242  16.068  0.4700  0.4072 -1.0520
  916MPD2    H713472   3.511   1.343  16.074 -0.0807  0.3283 -0.5318
  917MPD2     C13473   4.630   3.773  12.252 -0.5109  0.3474 -0.7468
  917MPD2    C113474   4.542   3.735  12.158 -0.1041  0.8751  0.6255
  917MPD2    C213475   4.549   3.780  12.029 -0.6549  0.4459 -0.5162
  917MPD2    C313476   4.654   3.875  11.989  0.7586 -0.1738  0.0965
  917MPD2    C413477   0.013   3.901  12.084  0.6239 -0.1401 -0.4082
  917MPD2    C513478   4.729   3.846  12.205 -0.5403 -0.1075  0.3345
  917MPD2     H13479   4.473   3.752  11.957 -2.9034  1.0544  1.6390
  917MPD2    H113480   0.101   3.962  12.072  0.0399  0.1360 -3.4617
  917MPD2    H213481   4.614   3.754  12.358  1.0081  1.0937 -0.3974
  917MPD2    H313482   0.066   3.866  12.284  1.3439  0.2824 -1.5077
  917MPD2     N13483   4.679   3.931  11.858 -0.0298  0.2381 -0.6649
  917MPD2    H513484   0.026   3.986  11.836 -0.3218 -0.5970 -3.7823
  917MPD2    N113485   4.438   3.652  12.200  0.0032 -0.0466  0.1310
  917MPD2    H713486   4.438   3.625  12.298 -1.5384  0.6444  0.3178
  918MPD2     C13487   4.110   4.212  12.543  0.2536 -0.9230  0.4193
  918MPD2    C113488   4.214   4.128  12.585  0.4313 -0.2087 -0.1923
  918MPD2    C213489   4.203   3.990  12.592 -0.2377  0.3323  0.5382
  918MPD2    C313490   4.091   3.931  12.526  0.2955 -0.3849  0.1021
  918MPD2    C413491   3.989   4.010  12.479 -0.2304  0.0725  0.7089
  918MPD2    C513492   4.005   4.152  12.482 -0.6527  0.3657 -0.0941
  918MPD2     H13493   4.280   3.927  12.635  0.0723  1.3587  1.4887
  918MPD2    H113494   3.900   3.976  12.428  1.7284 -3.2222 -0.4915
  918MPD2    H213495   4.117   4.319  12.530 -3.6470 -0.2999  3.6115
  918MPD2    H313496   3.923   4.208  12.440  0.8751  2.0791 -0.7504
  918MPD2     N13497   4.097   3.791  12.508 -0.1139  0.9086  0.4902
  918MPD2    H513498   4.181   3.739  12.529 -0.5132 -0.7346 -1.8888
  918MPD2    N113499   4.341   4.174  12.618  0.6097  1.2346 -0.5055
  918MPD2    H713500   4.404   4.108  12.662 -2.3221 -3.3023 -3.1742
  919MPD2     C13501   0.064   2.267  12.073  0.4375 -0.2419  0.9459
  919MPD2    C113502   0.048   2.165  11.984  0.7243 -0.5267  0.0116
  919MPD2    C213503   0.121   2.163  11.866  0.0612 -0.0817  0.2554
  919MPD2    C313504   0.209   2.268  11.834  0.1544  0.3491  0.5248
  919MPD2    C413505   0.219   2.369  11.925  0.2625 -0.4942  0.3598
  919MPD2    C513506   0.160   2.359  12.051 -0.1387 -0.2102 -0.0809
  919MPD2     H13507   0.117   2.072  11.806 -1.5810  0.0476  0.1918
  919MPD2    H113508   0.296   2.445  11.917 -0.7485  0.7790  2.7062
  919MPD2    H213509   0.014   2.272  12.169  0.4150  0.0234  0.9213
  919MPD2    H313510   0.168   2.453  12.104  0.5572 -1.4512  2.0338
  919MPD2     N13511   0.262   2.290  11.703  0.0580 -0.4432 -0.1914
  919MPD2    H513512   0.311   2.377  11.684 -1.7716  0.6401  0.1325
  919MPD2    N113513   4.695   2.057  12.003 -0.3671 -0.4026  0.4884
  919MPD2    H713514   4.697   1.977  11.940 -2.0017 -0.0783  0.0247
  920MPD2     C13515   0.030   3.007  11.122  0.8530  0.0704 -0.1553
  920MPD2    C113516   4.694   2.899  11.075 -0.0931 -0.4096 -0.4172
  920MPD2    C213517   4.725   2.772  11.117  0.0221 -0.0965  0.3537
  920MPD2    C313518   0.105   2.750  11.189 -0.3479 -0.1741  0.4113
  920MPD2    C413519   0.184   2.859  11.224  0.4230 -0.2612 -0.0419
  920MPD2    C513520   0.142   2.983  11.191  0.6933  0.0323  0.7576
  920MPD2     H13521   4.665   2.686  11.091  1.7006 -1.0546 -0.3307
  920MPD2    H113522   0.273   2.848  11.285 -1.2087  1.0656  2.5844
  920MPD2    H213523   0.011   3.112  11.105  0.9410  0.0315 -0.5007
  920MPD2    H313524   0.196   3.072  11.222  1.3127 -0.3740  0.8589
  920MPD2     N13525   0.134   2.612  11.222  0.0565  0.2877  0.0107
  920MPD2    H513526   0.069   2.540  11.192 -0.8053  1.8394 -1.8961
  920MPD2    N113527   4.584   2.907  10.989 -0.3581 -0.1336  0.4984
  920MPD2    H713528   4.528   2.824  10.974 -0.8576  0.1834  0.5737
  921MPD2     C13529   0.501   2.275  17.025 -0.6321  0.9031  0.3439
  921MPD2    C113530   0.548   2.206  16.920  0.6960  0.2374 -0.5717
  921MPD2    C213531   0.470   2.097  16.865  0.2897 -0.3492 -0.2183
  921MPD2    C313532   0.341   2.077  16.911 -0.2657 -0.1704  1.3572
  921MPD2    C413533   0.298   2.145  17.020  0.1714  0.3017  0.0331
  921MPD2    C513534   0.381   2.239  17.077  0.7552 -0.9352  0.1194
  921MPD2     H13535   0.504   2.040  16.779 -2.3311 -1.4297 -0.5446
  921MPD2    H113536   0.200   2.131  17.064  0.7468  0.7971  1.4668
  921MPD2    H213537   0.558   2.356  17.071 -0.1251  0.5295  0.3769
  921MPD2    H313538   0.349   2.293  17.165  1.0830  0.5515 -0.6880
  921MPD2     N13539   0.270   1.974  16.841  0.2811 -0.6897  0.5802
  921MPD2    H513540   0.312   1.957  16.750  0.9127  1.5868  0.4339
  921MPD2    N113541   0.672   2.221  16.868 -0.0879  0.0809 -0.1337
  921MPD2    H713542   0.741   2.284  16.906  1.0908 -1.3701  0.1508
  922MPD2     C13543   0.978   4.284  17.459 -0.2469  0.1289 -0.6441
  922MPD2    C113544   0.885   4.385  17.472 -0.8001 -0.1989 -0.7514
  922MPD2    C213545   0.762   4.380  17.412  1.2660 -0.0056  0.0593
  922MPD2    C313546   0.734   4.279  17.319 -0.4030  0.0254  0.5418
  922MPD2    C413547   0.837   4.193  17.288  0.4839  0.1857 -0.3709
  922MPD2    C513548   0.954   4.186  17.357 -0.1364  0.0102 -0.3172
  922MPD2     H13549   0.682   4.452  17.425  0.8342 -0.3136 -0.9040
  922MPD2    H113550   0.832   4.104  17.226 -1.3442 -1.6406  2.3802
  922MPD2    H213551   1.075   4.288  17.508 -1.0024  1.9914  0.7079
  922MPD2    H313552   1.032   4.114  17.335 -1.1340 -1.2569  0.3488
  922MPD2     N13553   0.611   4.268  17.253  0.1285  0.0543  0.3271
  922MPD2    H513554   0.548   4.348  17.256  1.5431  1.2481 -2.2205
  922MPD2    N113555   0.911   4.499  17.552 -0.5125 -0.0585 -0.1712
  922MPD2    H713556   0.839   4.570  17.548  2.3930  2.9048  1.0159
  923MPD2     C13557   1.974   1.485   8.552  0.5068 -0.1734  0.1134
  923MPD2    C113558   1.961   1.497   8.688  0.0520 -0.0414  0.9278
  923MPD2    C213559   2.073   1.510   8.763  0.0241 -0.2974  0.7388
  923MPD2    C313560   2.198   1.523   8.701  0.0075  0.9435 -0.0027
  923MPD2    C413561   2.205   1.539   8.567 -0.6256  0.1378 -0.1133
  923MPD2    C513562   2.093   1.518   8.498 -0.0350  0.1241 -0.0799
  923MPD2     H13563   2.063   1.502   8.870 -1.1888 -1.7191  0.5194
  923MPD2    H113564   2.296   1.542   8.507  0.5324 -0.7795  1.6068
  923MPD2    H213565   1.891   1.474   8.484 -1.0169  1.0613  1.7965
  923MPD2    H313566   2.108   1.508   8.391 -0.1178  0.7602 -0.1516
  923MPD2     N13567   2.316   1.541   8.779  0.4763  0.0675 -0.6397
  923MPD2    H513568   2.404   1.558   8.731  1.3948 -1.5253  0.4609
  923MPD2    N113569   1.836   1.486   8.750 -0.2819  0.7150 -0.9904
  923MPD2    H713570   1.764   1.447   8.691 -0.7327  0.6767 -0.4115
  924MPD2     C13571   2.534   0.077  16.472 -0.0771 -0.0114 -0.7833
  924MPD2    C113572   2.456   0.021  16.570 -0.3017  0.9486  0.1252
  924MPD2    C213573   2.399   0.098  16.669 -0.4825  0.3637 -0.2669
  924MPD2    C313574   2.434   0.232  16.686  0.4303  0.3032  0.7554
  924MPD2    C413575   2.522   0.287  16.596  0.0490 -1.0145  0.4828
  924MPD2    C513576   2.572   0.209  16.491  0.6616 -0.2305 -0.2641
  924MPD2     H13577   2.326   0.054  16.734  0.5799 -0.0205  0.6664
  924MPD2    H113578   2.568   0.383  16.613 -1.2315 -0.2216 -0.5137
  924MPD2    H213579   2.579   0.018  16.393  0.3161  1.6712 -1.8199
  924MPD2    H313580   2.649   0.251  16.429  0.9164 -0.7475 -0.2960
  924MPD2     N13581   2.392   0.320  16.782  0.4828  0.0678 -0.9302
  924MPD2    H513582   2.417   0.417  16.765  1.5588 -0.0268  0.0761
  924MPD2    N113583   2.411   4.626  16.534  0.2267 -0.2046  0.0433
  924MPD2    H713584   2.420   4.602  16.436 -0.8288  3.4447 -0.9482
  925MPD2     C13585   1.661   2.723  14.862  0.5324 -0.3326 -0.2189
  925MPD2    C113586   1.525   2.717  14.838  0.2424 -0.1495  1.0522
  925MPD2    C213587   1.433   2.756  14.936 -0.2492  0.1057 -0.3834
  925MPD2    C313588   1.488   2.797  15.059  0.1076 -0.2102 -1.0331
  925MPD2    C413589   1.623   2.801  15.076  0.1877 -0.4544  0.3421
  925MPD2    C513590   1.708   2.762  14.980 -0.2305 -0.7863 -0.0498
  925MPD2     H13591   1.328   2.745  14.909  0.4182  0.0217 -2.9961
  925MPD2    H113592   1.660   2.841  15.169  0.4881  1.4488 -0.5905
  925MPD2    H213593   1.741   2.709  14.791  0.2615 -1.0703 -0.3722
  925MPD2    H313594   1.816   2.767  14.985 -0.2939  0.9839 -0.2097
  925MPD2     N13595   1.411   2.861  15.167 -0.0412 -0.1883 -0.5413
  925MPD2    H513596   1.469   2.889  15.246  2.3115  0.0331 -2.3465
  925MPD2    N113597   1.472   2.664  14.717  0.1381  0.8496  0.4963
  925MPD2    H713598   1.370   2.657  14.717  0.1902  0.1529 -0.4255
  926MPD2     C13599   0.728   0.593  13.613 -0.1383 -0.1354  0.0736
  926MPD2    C113600   0.662   0.706  13.587  0.6762  0.1664  1.3651
  926MPD2    C213601   0.702   0.793  13.490  0.5370 -0.4292 -0.1813
  926MPD2    C313602   0.820   0.773  13.422  0.4859 -0.1821 -0.4776
  926MPD2    C413603   0.897   0.656  13.454 -0.3040 -1.2918 -0.1471
  926MPD2    C513604   0.845   0.566  13.548 -0.0324 -0.0444  0.1345
  926MPD2     H13605   0.643   0.880  13.463 -0.2642 -0.1861  2.3677
  926MPD2    H113606   1.001   0.653  13.422 -0.0826 -1.0577  0.5523
  926MPD2    H213607   0.699   0.516  13.685  2.8550 -0.0424  1.3785
  926MPD2    H313608   0.901   0.476  13.569 -0.4663 -0.4632 -0.4758
  926MPD2     N13609   0.875   0.865  13.333 -0.4533 -0.1322 -1.1015
  926MPD2    H513610   0.973   0.847  13.314 -0.7698 -2.3576 -0.6091
  926MPD2    N113611   0.537   0.733  13.645  0.3962  0.0409  0.3288
  926MPD2    H713612   0.490   0.813  13.603  0.6891 -0.5540 -1.1135
  927MPD2     C13613   4.231   3.306  17.615  0.2040  0.2259  0.5823
  927MPD2    C113614   4.253   3.181  17.669  0.7337 -0.0705 -0.1021
  927MPD2    C213615   4.372   3.112  17.634 -0.0758  0.6948 -0.6590
  927MPD2    C313616   4.467   3.174  17.555 -0.2528 -0.3804 -0.1450
  927MPD2    C413617   4.442   3.298  17.503 -0.1363 -0.2871 -0.0782
  927MPD2    C513618   4.326   3.367  17.542  0.2596  0.3017  0.3150
  927MPD2     H13619   4.391   3.012  17.670 -0.2442  0.1417 -2.1080
  927MPD2    H113620   4.507   3.348  17.432 -0.1742 -1.8238 -1.1883
  927MPD2    H213621   4.136   3.356  17.631  0.4439  0.5435  1.0149
  927MPD2    H313622   4.299   3.460  17.493  2.2418  1.3212  1.1522
  927MPD2     N13623   4.585   3.100  17.538  0.7261  0.0779  0.2059
  927MPD2    H513624   4.577   3.004  17.572  0.6967 -0.4673 -1.3285
  927MPD2    N113625   4.147   3.128   0.013  0.6853  0.3301  0.4720
  927MPD2    H713626   4.059   3.177   0.015  0.0940 -0.6853 -0.5882
  928MPD2     C13627   2.903   1.195   0.937  0.5404 -0.0331  0.0587
  928MPD2    C113628   2.803   1.285   0.978  0.0581  0.0387 -1.3801
  928MPD2    C213629   2.703   1.317   0.883  0.1885 -0.4680  0.6106
  928MPD2    C313630   2.705   1.256   0.756 -0.1930 -0.5444 -0.3023
  928MPD2    C413631   2.806   1.170   0.724  1.0195 -0.2593 -0.1503
  928MPD2    C513632   2.898   1.137   0.820 -0.1295 -0.1674  0.1055
  928MPD2     H13633   2.627   1.390   0.906  0.1965 -0.4427  0.5559
  928MPD2    H113634   2.813   1.119   0.628 -1.2738 -0.9557  0.0671
  928MPD2    H213635   2.986   1.167   1.001  2.4348 -0.9641 -2.8210
  928MPD2    H313636   2.974   1.064   0.793 -0.0166  0.3989 -1.1045
  928MPD2     N13637   2.618   1.294   0.646 -0.1036  0.6187  0.7045
  928MPD2    H513638   2.641   1.272   0.549 -3.0547 -1.7015  0.5533
  928MPD2    N113639   2.807   1.334   1.115  0.0712  0.7019  0.0984
  928MPD2    H713640   2.873   1.297   1.182  1.1353  2.7847  0.2211
  929MPD2     C13641   2.616   1.289  10.014 -0.3372 -0.4076 -0.2351
  929MPD2    C113642   2.528   1.202  10.055  1.0761  0.0091 -1.1587
  929MPD2    C213643   2.463   1.113   9.962 -0.1006  0.7205 -0.0879
  929MPD2    C313644   2.461   1.147   9.824  0.2286  0.2816  0.5935
  929MPD2    C413645   2.554   1.245   9.790 -0.3281 -0.2586 -0.5518
  929MPD2    C513646   2.632   1.310   9.886 -0.3453  0.2741  0.3865
  929MPD2     H13647   2.408   1.029  10.004  0.2376  0.0143 -1.0564
  929MPD2    H113648   2.579   1.272   9.688  2.7054  0.9465  0.5117
  929MPD2    H213649   2.673   1.348  10.084  0.0913 -0.4570 -0.5406
  929MPD2    H313650   2.703   1.378   9.840 -0.0985 -0.3581 -0.1821
  929MPD2     N13651   2.396   1.066   9.725 -0.1495  0.3234 -0.2259
  929MPD2    H513652   2.448   1.061   9.638  0.6501  0.2774  0.2517
  929MPD2    N113653   2.514   1.190  10.197 -0.2171 -0.4598 -0.0377
  929MPD2    H713654   2.569   1.250  10.258 -1.4793  2.2742 -1.6345
  930MPD2     C13655   0.042   3.568  14.349  0.0427 -0.4274  0.0563
  930MPD2    C113656   4.688   3.651  14.290  0.0996  0.0764 -0.3695
  930MPD2    C213657   4.567   3.603  14.239 -0.1431  0.1327 -0.5513
  930MPD2    C313658   4.541   3.470  14.256  0.3255 -0.1237  0.9345
  930MPD2    C413659   4.637   3.387  14.309  0.4165  0.0839  0.3300
  930MPD2    C513660   0.012   3.436  14.367  0.3777  0.2387 -0.2356
  930MPD2     H13661   4.503   3.663  14.177 -0.8236 -0.3836 -0.3521
  930MPD2    H113662   4.622   3.280  14.314 -1.7031  0.5211  3.6064
  930MPD2    H213663   0.132   3.608  14.393  0.9641 -2.2848 -0.1404
  930MPD2    H313664   0.071   3.371  14.431 -0.0144  1.1256  1.0168
  930MPD2     N13665   4.435   3.404  14.195  0.1368  0.5820  0.0962
  930MPD2    H513666   4.430   3.303  14.201 -2.4118  0.8482  2.1767
  930MPD2    N113667   4.723   3.782  14.288  0.6229  0.5515 -0.8763
  930MPD2    H713668   0.084   3.800  14.314  0.6223 -1.2257  0.3110
  931MPD2     C13669   4.362   2.458   0.344 -0.2700  0.2412 -0.1025
  931MPD2    C113670   4.235   2.490   0.374 -0.2282  0.1316 -0.2162
  931MPD2    C213671   4.167   2.401   0.456 -0.1511  0.5316  0.2868
  931MPD2    C313672   4.232   2.298   0.519 -0.0565 -0.3824 -0.5097
  931MPD2    C413673   4.360   2.265   0.485 -0.4729  0.2007 -0.3077
  931MPD2    C513674   4.427   2.350   0.395  0.4229  0.2292 -0.4539
  931MPD2     H13675   4.059   2.404   0.463  0.0036 -0.8738  3.5271
  931MPD2    H113676   4.411   2.190   0.544 -2.5218 -0.9570 -0.0054
  931MPD2    H213677   4.431   2.513   0.280  0.5151 -1.0704 -0.3866
  931MPD2    H313678   4.533   2.337   0.378  0.4432 -2.1251  1.6040
  931MPD2     N13679   4.162   2.209   0.608 -0.1939 -0.0616 -0.3497
  931MPD2    H513680   4.216   2.131   0.644 -1.1810 -0.7667 -0.4312
  931MPD2    N113681   4.175   2.601   0.317 -0.4604 -0.0856 -0.0904
  931MPD2    H713682   4.221   2.650   0.242 -0.3422 -1.4539 -0.9214
  932MPD2     C13683   1.483   1.597  11.565  0.3733  0.0417  1.2245
  932MPD2    C113684   1.591   1.593  11.478  0.3153  0.9739 -0.2645
  932MPD2    C213685   1.608   1.477  11.418 -0.4072  0.1885  0.1101
  932MPD2    C313686   1.534   1.364  11.437  0.4239 -0.6544 -0.2253
  932MPD2    C413687   1.436   1.371  11.530  0.7497  0.3662  0.5434
  932MPD2    C513688   1.408   1.488  11.592  0.5625  0.3727 -0.3047
  932MPD2     H13689   1.696   1.478  11.354  0.4223  1.7873  1.2618
  932MPD2    H113690   1.364   1.291  11.542  2.1797 -1.3675 -2.6581
  932MPD2    H213691   1.465   1.693  11.611 -0.0440  0.8362 -0.5652
  932MPD2    H313692   1.318   1.498  11.651  1.4200 -2.0883  1.4634
  932MPD2     N13693   1.552   1.239  11.369 -0.6364  0.1039 -0.3789
  932MPD2    H513694   1.475   1.173  11.381 -0.6727  0.0291 -1.0021
  932MPD2    N113695   1.692   1.695  11.466 -0.9183 -0.0722  0.6197
  932MPD2    H713696   1.760   1.689  11.391 -0.7981  0.7081  0.6615
  933MPD2     C13697   2.724   2.007   1.741  0.2054  0.0808  0.0627
  933MPD2    C113698   2.637   1.932   1.658 -0.4634  0.0005  0.0291
  933MPD2    C213699   2.517   1.993   1.616  0.1455  0.1908 -0.6822
  933MPD2    C313700   2.492   2.121   1.649  0.3287 -0.2687 -0.2320
  933MPD2    C413701   2.577   2.186   1.742 -0.4617  0.5318 -0.4459
  933MPD2    C513702   2.696   2.131   1.789 -0.0301 -0.7513 -0.2848
  933MPD2     H13703   2.446   1.939   1.556 -1.3658  1.3236  0.0713
  933MPD2    H113704   2.549   2.286   1.775  1.2847  1.2735 -1.1890
  933MPD2    H213705   2.820   1.974   1.779  1.0146  0.6992 -1.4294
  933MPD2    H313706   2.756   2.180   1.865  2.0595 -1.2407 -1.6409
  933MPD2     N13707   2.383   2.179   1.587  0.5459 -0.0280 -0.5144
  933MPD2    H513708   2.340   2.127   1.511  1.6113 -1.3626 -0.2209
  933MPD2    N113709   2.678   1.799   1.618 -0.5130 -0.4130  0.2047
  933MPD2    H713710   2.767   1.774   1.659  0.2952 -0.3287 -1.5324
  934MPD2     C13711   4.035   4.246   1.530  0.4454 -0.8271  0.2080
  934MPD2    C113712   4.070   4.114   1.505 -0.5690  0.8296  0.2785
  934MPD2    C213713   3.989   4.034   1.428  0.0255 -0.0473  0.6544
  934MPD2    C313714   3.867   4.079   1.376  0.1959 -0.3903  0.2409
  934MPD2    C413715   3.838   4.209   1.393 -0.3290 -0.5736  0.9277
  934MPD2    C513716   3.914   4.293   1.473  0.1633 -0.9622 -0.0495
  934MPD2     H13717   4.022   3.931   1.419 -2.4315 -0.7570 -0.2027
  934MPD2    H113718   3.745   4.252   1.360 -0.5007 -1.1190  0.6955
  934MPD2    H213719   4.105   4.310   1.583  0.3963 -0.2083 -0.4546
  934MPD2    H313720   3.881   4.395   1.487 -0.2185 -1.0937  0.0392
  934MPD2     N13721   3.770   4.000   1.317  0.8698 -0.3890  0.4156
  934MPD2    H513722   3.702   4.050   1.262  1.5786 -1.4455 -1.4250
  934MPD2    N113723   4.194   4.062   1.545  0.5138  0.2601 -0.0086
  934MPD2    H713724   4.208   3.962   1.534  0.3211  0.0793  1.4715
  935MPD2     C13725   3.795   3.012   1.269 -0.9514 -0.1229  0.4034
  935MPD2    C113726   3.665   3.042   1.217 -0.2827  0.5508  0.6626
  935MPD2    C213727   3.604   3.166   1.220 -0.3268  0.0945 -0.1652
  935MPD2    C313728   3.674   3.261   1.290 -0.0446  0.0806 -0.4419
  935MPD2    C413729   3.793   3.232   1.348  0.1315 -0.3952  1.0935
  935MPD2    C513730   3.861   3.114   1.332  0.3728  0.6563  0.1435
  935MPD2     H13731   3.512   3.183   1.166  0.6186 -0.1821 -1.8468
  935MPD2    H113732   3.845   3.308   1.405 -2.0752  2.4764 -0.7076
  935MPD2    H213733   3.841   2.914   1.272 -2.7773 -0.9346  1.7302
  935MPD2    H313734   3.958   3.100   1.379  0.1236  0.2199  0.5212
  935MPD2     N13735   3.642   3.399   1.303 -0.0984  0.0067  0.3620
  935MPD2    H513736   3.704   3.454   1.361  1.0737  1.3033 -2.0964
  935MPD2    N113737   3.596   2.942   1.143 -0.0980 -0.4304  0.7971
  935MPD2    H713738   3.511   2.983   1.106  2.6079 -0.2136 -5.2045
  936MPD2     C13739   2.265   4.419  12.471  0.1321 -0.6772 -0.3306
  936MPD2    C113740   2.333   4.483  12.562  0.4681 -0.4690 -0.8049
  936MPD2    C213741   2.463   4.518  12.547 -0.8232 -0.1021 -0.2644
  936MPD2    C313742   2.519   4.510  12.425  0.3834 -0.1766 -0.4327
  936MPD2    C413743   2.450   4.454  12.320 -0.1960 -0.6474 -0.1152
  936MPD2    C513744   2.322   4.414  12.343 -0.2307 -0.4675  0.1296
  936MPD2     H13745   2.518   4.544  12.637 -0.1733  0.1456 -0.7336
  936MPD2    H113746   2.496   4.433  12.224 -0.1196  3.5191 -1.0079
  936MPD2    H213747   2.171   4.368  12.492  1.2531 -2.4250  0.4583
  936MPD2    H313748   2.266   4.365  12.264 -1.5164  1.6157 -0.2567
  936MPD2     N13749   2.655   4.538  12.410  0.1725 -0.0538  0.1271
  936MPD2    H513750   2.707   4.529  12.497 -0.7113 -1.5719  0.5153
  936MPD2    N113751   2.288   4.501  12.697 -0.0199  0.0895  0.8186
  936MPD2    H713752   2.356   4.549  12.755 -0.2283 -0.3146  1.3994
  937MPD2     C13753   0.043   1.409  11.786  0.0278  0.4368 -0.2839
  937MPD2    C113754   0.036   1.548  11.781  0.3075  0.7321  0.4734
  937MPD2    C213755   0.099   1.597  11.666  0.5580 -0.1081 -0.1129
  937MPD2    C313756   0.182   1.521  11.584 -0.6139  0.3682 -0.6044
  937MPD2    C413757   0.195   1.387  11.606  0.4115  0.1431  0.0564
  937MPD2    C513758   0.122   1.331  11.707 -0.0961  0.3709  0.1211
  937MPD2     H13759   0.081   1.700  11.637 -0.5047 -0.0683  0.6734
  937MPD2    H113760   0.265   1.323  11.553 -1.1014 -0.9578 -0.6261
  937MPD2    H213761   4.734   1.349  11.865  0.1804  0.5455 -0.1152
  937MPD2    H313762   0.134   1.224  11.718  0.8400  0.5199  0.6147
  937MPD2     N13763   0.253   1.582  11.482 -0.4026 -0.0577  0.2269
  937MPD2    H513764   0.214   1.667  11.442  2.4221  0.8140 -0.7116
  937MPD2    N113765   4.686   1.624  11.859  0.1307 -1.0220  0.0203
  937MPD2    H713766   4.684   1.724  11.843  1.5829 -0.8576  0.8706
  938MPD2     C13767   2.076   3.281   0.523  0.8795 -0.0257 -0.0605
  938MPD2    C113768   2.181   3.298   0.615 -0.1823 -0.0722 -0.4692
  938MPD2    C213769   2.169   3.237   0.743 -0.0575  0.6512  1.2726
  938MPD2    C313770   2.053   3.171   0.779 -0.0044  0.0762  0.5223
  938MPD2    C413771   1.953   3.159   0.683 -0.8750 -0.2882 -0.0894
  938MPD2    C513772   1.967   3.206   0.558 -0.4238 -0.1041  0.0717
  938MPD2     H13773   2.250   3.254   0.813 -1.4783 -1.3432  3.3960
  938MPD2    H113774   1.866   3.096   0.702 -2.1995  2.0906  1.7523
  938MPD2    H213775   2.076   3.305   0.417 -0.4840 -1.8645 -0.4632
  938MPD2    H313776   1.884   3.192   0.489  1.0689 -0.4173 -1.6431
  938MPD2     N13777   2.029   3.109   0.908  0.2259  1.0064 -0.4048
  938MPD2    H513778   1.932   3.080   0.922  0.8925 -0.6931  0.7084
  938MPD2    N113779   2.295   3.374   0.598 -0.3169  0.0572 -0.4087
  938MPD2    H713780   2.364   3.368   0.673  0.4325  2.0361 -0.9449
  939MPD2     C13781   4.179   4.449   1.202  0.3107  0.4715  0.1926
  939MPD2    C113782   4.226   4.542   1.105  0.5333 -0.5421  0.3679
  939MPD2    C213783   4.169   4.542   0.976 -0.0245 -1.0004  0.2762
  939MPD2    C313784   4.076   4.445   0.937  0.0329  0.7150 -0.8179
  939MPD2    C413785   4.036   4.359   1.033 -0.7766  0.1850  0.3038
  939MPD2    C513786   4.093   4.355   1.158 -0.3602  0.3652 -0.1140
  939MPD2     H13787   4.206   4.621   0.912  1.2286 -1.3740  0.5369
  939MPD2    H113788   3.957   4.290   1.005 -0.3944 -0.0987 -0.0759
  939MPD2    H213789   4.217   4.455   1.303 -0.8690 -0.2844  0.6694
  939MPD2    H313790   4.056   4.289   1.234  2.0465  1.3091  1.8760
  939MPD2     N13791   4.025   4.459   0.804 -0.8734  0.5240  0.0709
  939MPD2    H513792   4.062   4.536   0.749  1.3306 -0.0321  0.7835
  939MPD2    N113793   4.324   4.635   1.140  0.4834 -0.3024  0.0521
  939MPD2    H713794   4.364   4.631   1.233 -1.2538 -1.2912  0.7419
  940MPD2     C13795   3.910   0.524  12.984  0.2380  0.8898  0.0240
  940MPD2    C113796   3.790   0.488  12.935 -0.5880  0.5722  0.2896
  940MPD2    C213797   3.770   0.452  12.802  0.0154 -0.1500 -0.5320
  940MPD2    C313798   3.882   0.454  12.717 -0.0217  0.5062  0.2363
  940MPD2    C413799   4.003   0.497  12.769 -0.4035 -0.0024  0.2992
  940MPD2    C513800   4.019   0.522  12.896  0.2254 -1.0088  0.7251
  940MPD2     H13801   3.671   0.414  12.780  0.0729 -0.5305 -0.1404
  940MPD2    H113802   4.095   0.496  12.712  0.6472  0.1044  2.0009
  940MPD2    H213803   3.930   0.530  13.090 -1.9683  0.1167  0.4755
  940MPD2    H313804   4.118   0.550  12.930  0.5943  0.6304 -1.6936
  940MPD2     N13805   3.873   0.425  12.582 -0.0946  0.3515  0.2054
  940MPD2    H513806   3.952   0.431  12.518 -1.1746  1.5503 -1.0120
  940MPD2    N113807   3.673   0.488  13.010  0.2694  0.2125 -0.2935
  940MPD2    H713808   3.584   0.456  12.973  0.2743 -1.5575  1.2516
  941MPD2     C13809   1.916   4.491   9.795  0.0378  0.1866  0.8106
  941MPD2    C113810   1.999   4.423   9.880 -0.1218  0.7046  0.2718
  941MPD2    C213811   1.943   4.324   9.954  0.0848 -0.2163  0.0106
  941MPD2    C313812   1.807   4.299   9.953  0.0797  0.6423  0.1086
  941MPD2    C413813   1.728   4.377   9.873  0.2345  0.2420 -0.1658
  941MPD2    C513814   1.788   4.463   9.784  0.2109  0.1187 -0.1694
  941MPD2     H13815   2.012   4.279  10.024 -1.0302 -2.4238 -0.2941
  941MPD2    H113816   1.621   4.361   9.868  0.4066 -1.1672  0.8201
  941MPD2    H213817   1.948   4.568   9.726 -0.7177 -0.2415 -0.0215
  941MPD2    H313818   1.726   4.517   9.713  1.2190  2.7654  0.9576
  941MPD2     N13819   1.746   4.187  10.014  0.0420  0.0063  0.2676
  941MPD2    H513820   1.652   4.159   9.988  0.7813 -2.6760  0.4805
  941MPD2    N113821   2.138   4.447   9.894  0.3674 -0.1553 -0.5415
  941MPD2    H713822   2.183   4.399   9.971 -1.1213  0.0088  0.4426
  942MPD2     C13823   1.734   1.249   9.249 -0.4311 -0.7409 -0.0910
  942MPD2    C113824   1.734   1.140   9.159  0.2466 -0.1696 -0.0324
  942MPD2    C213825   1.841   1.128   9.074  0.0101  0.0661  0.3844
  942MPD2    C313826   1.951   1.211   9.077 -0.2267 -0.5190  0.5521
  942MPD2    C413827   1.960   1.309   9.175 -0.9701  0.2453 -0.1097
  942MPD2    C513828   1.853   1.322   9.261 -0.2231 -0.2148 -0.2787
  942MPD2     H13829   1.841   1.046   9.004  1.3342  0.7321 -0.3951
  942MPD2    H113830   2.049   1.368   9.191  0.2668 -2.1230  1.8411
  942MPD2    H213831   1.657   1.267   9.323 -1.3644 -0.9256 -1.0117
  942MPD2    H313832   1.854   1.393   9.343 -1.3186 -0.9869  0.4018
  942MPD2     N13833   2.053   1.211   8.977 -0.2600 -0.3246 -0.5593
  942MPD2    H513834   2.122   1.286   8.980  0.4968 -1.0612  0.6720
  942MPD2    N113835   1.633   1.047   9.154  0.3103 -0.0186 -0.2222
  942MPD2    H713836   1.657   0.975   9.087 -1.5943 -0.4732 -0.4114
  943MPD2     C13837   1.425   2.556   9.550 -0.3925  0.1200 -0.4027
  943MPD2    C113838   1.371   2.673   9.594  0.0054 -0.5563 -0.2435
  943MPD2    C213839   1.420   2.796   9.554 -0.1921  0.1485  0.2433
  943MPD2    C313840   1.520   2.806   9.460  0.3076 -0.1555 -0.0588
  943MPD2    C413841   1.580   2.683   9.413  0.5029 -0.7426 -0.3097
  943MPD2    C513842   1.527   2.563   9.460 -0.3806 -0.3757  0.0523
  943MPD2     H13843   1.368   2.888   9.575  0.3304  0.2397  1.1338
  943MPD2    H113844   1.668   2.687   9.350 -0.0921 -3.3488 -1.3053
  943MPD2    H213845   1.387   2.464   9.593 -0.3798 -0.2427 -1.1588
  943MPD2    H313846   1.581   2.475   9.428 -1.9676 -0.6978 -1.7534
  943MPD2     N13847   1.569   2.928   9.407  0.0351  0.0144 -0.1379
  943MPD2    H513848   1.637   2.929   9.332 -0.3271 -1.3556 -0.4901
  943MPD2    N113849   1.261   2.652   9.686  0.1911  0.6274  0.7152
  943MPD2    H713850   1.234   2.555   9.700  0.6585  0.5660  1.2019
  944MPD2     C13851   0.633   3.976  11.097  0.3069 -0.4378 -0.0115
  944MPD2    C113852   0.561   3.916  11.193 -0.3151 -0.1702 -0.8065
  944MPD2    C213853   0.541   3.990  11.310  0.6092  0.1450 -0.2370
  944MPD2    C313854   0.580   4.125  11.317  0.2707 -0.1834 -0.1557
  944MPD2    C413855   0.647   4.183  11.216 -0.1080 -0.3046 -0.4971
  944MPD2    C513856   0.670   4.111  11.103 -0.0773  0.3000 -0.4042
  944MPD2     H13857   0.495   3.943  11.396  1.6662 -0.7250 -0.1298
  944MPD2    H113858   0.697   4.279  11.219 -0.6266 -0.0605  0.2434
  944MPD2    H213859   0.661   3.920  11.009 -2.3248 -0.4149 -0.8454
  944MPD2    H313860   0.734   4.156  11.028 -2.4539  0.9839 -2.0417
  944MPD2     N13861   0.564   4.177  11.446 -0.0964 -0.1221  0.1790
  944MPD2    H513862   0.515   4.116  11.510 -0.7679  2.4323  2.0750
  944MPD2    N113863   0.534   3.780  11.167  0.2772 -0.0540 -0.2302
  944MPD2    H713864   0.571   3.742  11.080  0.2358  1.4944 -0.9249
    1TMC1    C113865   2.847   4.302  14.096 -0.0924  0.8045  0.2312
    1TMC1    C213866   2.819   4.172  14.079  0.0095  0.6520  0.3191
    1TMC1    C313867   2.771   4.126  13.957  0.3653 -0.6326 -0.0334
    1TMC1    C413868   2.822   4.390  13.997  0.2763  0.2351 -0.1448
    1TMC1    C513869   2.783   4.336  13.879  1.0258  1.2259  0.1177
    1TMC1    C613870   2.758   4.208  13.846 -0.2597 -0.8236 -0.1012
    1TMC1     C13871   2.930   4.338  14.203 -0.6032  0.1460  0.1554
    1TMC1     O13872   2.958   4.244  14.281 -0.2243  0.6389  0.7241
    1TMC1     H13873   2.818   4.102  14.161  0.7210 -0.2572 -0.4520
    1TMC1    H113874   2.851   4.494  13.994 -1.3365  0.6206 -2.4925
    1TMC1    H213875   2.744   4.169  13.746 -0.0227 -1.5833  0.1631
    1TMC1    C713876   2.741   4.431  13.780  0.2113  0.0655 -1.1691
    1TMC1    C813877   2.722   3.994  13.962 -0.0006  0.1300  0.0878
    1TMC1    O113878   2.759   4.549  13.796  0.9569 -0.1415  0.1200
    1TMC1    O213879   2.751   3.923  14.058 -0.2701  0.3275 -0.1165
    1TMC1    O313880   2.652   4.372  13.700  0.0188  0.2667 -0.1368
    1TMC1    H313881   2.617   4.281  13.711  0.5161 -0.0812 -1.4540
    1TMC1    O513882   2.602   3.995  13.900 -0.5199 -0.4770 -0.0133
    1TMC1    H513883   2.582   4.075  13.848  3.8825  1.0673  0.7226
    2MPD2     C13884   3.245   4.659  14.451 -0.3236 -0.2696  0.4090
    2MPD2    C113885   3.217   4.719  14.330 -0.0509 -0.1887  0.3440
    2MPD2    C213886   3.112   4.661  14.255  0.6650 -1.2752  0.4136
    2MPD2    C313887   3.065   4.536  14.287  0.0082  0.5068 -0.6940
    2MPD2    C413888   3.103   4.476  14.402  0.3997 -0.3811 -0.3268
    2MPD2    C513889   3.190   4.539  14.488  0.3296  0.9487 -0.4315
    2MPD2     H13890   3.071   4.713  14.169  1.3167 -0.7652  0.4177
    2MPD2    H113891   3.060   4.387  14.448  2.9512  0.0804  2.9549
    2MPD2    H213892   3.318   4.704  14.517 -0.6010  1.0457 -0.1702
    2MPD2    H313893   3.205   4.495  14.586 -1.2797 -0.7739 -0.9542
    2MPD2     N13894   2.966   4.471  14.204  0.2206 -0.3101  0.6077
    2MPD2    H513895   2.926   4.522  14.126  1.0806 -0.2884  0.1754
    2MPD2    N113896   3.275   0.112  14.300  0.2792 -0.2072  0.3882
    2MPD2    H713897   3.337   0.150  14.371  2.0643 -2.2009 -0.1188
    3TMC2    C113898   3.334   0.291  14.155  1.1188 -0.5260  0.0945
    3TMC2    C213899   3.338   0.376  14.261  0.3033  0.1003  0.6124
    3TMC2    C313900   3.389   0.497  14.224 -0.0041  1.3913  0.4721
    3TMC2    C413901   3.376   0.323  14.030  0.1573  0.4731 -0.1618
    3TMC2    C513902   3.436   0.443  14.011  0.0117 -0.1562 -0.3420
    3TMC2    C613903   3.447   0.537  14.102 -0.3563  0.5811  0.3709
    3TMC2     C13904   3.271   0.166  14.169  0.7194 -0.2141 -0.1040
    3TMC2     O13905   3.222   0.119  14.067 -0.1693 -0.0882 -0.3873
    3TMC2     H13906   3.328   0.341  14.363 -0.7975  0.0672  0.4973
    3TMC2    H113907   3.385   0.239  13.961 -0.1197  0.6093 -0.3679
    3TMC2    H213908   3.479   0.638  14.082  0.9380  0.0336 -0.3221
    3TMC2    C713909   3.524   0.463  13.898 -0.6192 -0.7160 -0.6601
    3TMC2    C813910   3.400   0.589  14.335  0.0285 -0.7826  0.2931
    3TMC2    O113911   3.576   0.369  13.838  0.4548 -0.0325 -0.3213
    3TMC2    O213912   3.384   0.553  14.449 -0.2368  0.4514  0.3050
    3TMC2    O513913   3.366   0.705  14.270  0.5352  0.3342  0.5804
    3TMC2    H513914   3.371   0.705  14.172 -0.0498 -0.4019  0.5478
    4TMC2    C113915   3.102   1.175  13.410  0.0579 -0.1505 -0.7328
    4TMC2    C213916   3.167   1.224  13.299  0.1953 -0.0544  0.3077
    4TMC2    C313917   3.302   1.229  13.304  0.0091  0.2799  0.3075
    4TMC2    C413918   3.159   1.120  13.520 -0.7720 -0.2496 -0.1255
    4TMC2    C513919   3.293   1.112  13.516  0.1320  0.5872 -0.9569
    4TMC2    C613920   3.366   1.177  13.414 -0.5955 -0.6416 -0.0330
    4TMC2     C13921   2.967   1.133  13.397  0.2533  0.1553 -0.7644
    4TMC2     O13922   2.901   1.115  13.499  0.2977 -0.2361  0.3748
    4TMC2     H13923   3.113   1.277  13.221  0.1535 -1.3124 -0.5316
    4TMC2    H113924   3.102   1.091  13.607 -1.0427 -0.4903 -0.3842
    4TMC2    H213925   3.474   1.184  13.421 -0.4841 -1.3116 -1.1028
    4TMC2    C713926   3.352   1.006  13.599  0.0490  0.6417  0.2047
    4TMC2    C813927   3.381   1.309  13.212  0.1520  0.0744 -0.4459
    4TMC2    O113928   3.290   0.976  13.701 -0.6725  0.0988 -0.5434
    4TMC2    O213929   3.478   1.373  13.244 -0.2856 -0.1535 -0.5610
    4TMC2    O513930   3.351   1.257  13.091  0.2544  0.6483  0.4128
    4TMC2    H513931   3.279   1.190  13.095  1.3030 -0.5665 -1.2424
    5MPD2     C13932   2.582   0.964  13.110  0.5469 -0.0576  0.8178
    5MPD2    C113933   2.685   0.975  13.026 -0.2566 -0.6926  0.0445
    5MPD2    C213934   2.800   1.032  13.073 -0.6605  0.4322  0.4266
    5MPD2    C313935   2.811   1.051  13.212  0.2572  0.1324 -0.6107
    5MPD2    C413936   2.693   1.058  13.289 -0.0028 -0.0126 -0.4420
    5MPD2    C513937   2.578   1.020  13.231 -0.9808  0.4212  0.2715
    5MPD2     H13938   2.893   1.033  13.017  0.3619 -3.1660  2.0564
    5MPD2    H113939   2.697   1.101  13.388 -1.1519  0.5695 -0.6526
    5MPD2    H213940   2.490   0.925  13.070  1.6167 -2.2924  0.5362
    5MPD2    H313941   2.484   1.023  13.285 -0.8078  3.1020  0.4456
    5MPD2     N13942   2.942   1.088  13.267  0.5680 -0.0683 -0.2882
    5MPD2    H513943   3.022   1.089  13.204 -0.1744 -3.4329 -1.2739
    5MPD2    N113944   2.656   0.944  12.893 -0.2084 -0.0674  0.3389
    5MPD2    H713945   2.570   0.891  12.885 -1.7609  2.6150 -0.7360
    6MPD1     C13946   1.648   2.267  12.733 -0.1231  0.3510 -0.6788
    6MPD1    C113947   1.784   2.311  12.749  1.0009 -0.1276 -0.1228
    6MPD1    C213948   1.882   2.222  12.747  0.1944 -0.3496 -0.7671
    6MPD1    C313949   1.858   2.082  12.741 -0.1384  0.0706 -0.4422
    6MPD1    C413950   1.729   2.047  12.747  0.2552 -0.4130 -0.5217
    6MPD1    C513951   1.625   2.133  12.746 -0.0257 -0.1936 -0.2282
    6MPD1     H13952   1.985   2.257  12.742 -0.2929  1.3469  1.0662
    6MPD1    H113953   1.702   1.942  12.757 -0.7956  0.0715  1.7717
    6MPD1    H213954   1.572   2.343  12.721 -2.3568 -2.0116 -1.4612
    6MPD1    H313955   1.521   2.104  12.743  0.0276 -0.3009 -1.3063
    6MPD1     N13956   1.962   1.985  12.745  0.3852 -0.7655 -0.0116
    6MPD1    H513957   1.942   1.888  12.768 -2.4871 -0.5281 -1.4565
    6MPD1    N113958   1.816   2.448  12.758 -0.0393 -0.1313 -0.0507
    6MPD1    H613959   1.756   2.490  12.828  0.9902  2.2419 -0.5881
    6MPD1    H713960   1.912   2.460  12.791  0.3479  0.0415 -1.2488
    7MPD2     C13961   2.124   1.294  12.971 -0.4620 -0.1972  0.2545
    7MPD2    C113962   2.203   1.341  12.865 -0.0006  0.6685  0.1435
    7MPD2    C213963   2.254   1.255  12.765  0.8030 -0.3517 -0.6696
    7MPD2    C313964   2.248   1.123  12.788 -0.0167 -0.1117 -0.0839
    7MPD2    C413965   2.196   1.076  12.910  0.0549  0.5002 -0.0175
    7MPD2    C513966   2.129   1.158  13.001  0.0224 -0.2494 -0.2078
    7MPD2     H13967   2.290   1.301  12.674 -1.6895 -1.3180 -2.1241
    7MPD2    H113968   2.186   0.969  12.926 -0.1892  0.4781 -0.3164
    7MPD2    H213969   2.066   1.359  13.035 -0.0994 -0.8877  1.2892
    7MPD2    H313970   2.064   1.122  13.081  1.6198  0.6601  1.4984
    7MPD2     N13971   2.317   1.038  12.694 -0.4075 -0.6792 -0.3557
    7MPD2    H513972   2.346   1.085  12.609  0.9080 -0.4095  0.2298
    7MPD2    N113973   2.230   1.475  12.840  0.2515 -0.1998 -0.0277
    7MPD2    H713974   2.283   1.493  12.756  1.9728 -1.4156  0.8197
    8TMC3    C113975   2.456   0.883  12.612  0.1134  0.5008 -0.2434
    8TMC3    C213976   2.570   0.852  12.676 -0.6172  0.0614  0.1032
    8TMC3    C313977   2.680   0.921  12.659  0.0640  0.4278 -0.4749
    8TMC3    C413978   2.459   0.973  12.508  0.3645  0.0593  0.8881
    8TMC3    C513979   2.581   1.032  12.481 -0.3911  0.0856  0.2577
    8TMC3    C613980   2.691   1.017  12.566 -0.0201 -0.0704 -1.0385
    8TMC3     C13981   2.355   0.910  12.711  0.2917 -0.3625  0.2870
    8TMC3     O13982   2.351   0.842  12.811  0.6627 -0.0718  0.0901
    8TMC3     H13983   2.566   0.775  12.752 -2.3485 -1.8062 -1.8911
    8TMC3    H113984   2.370   1.003  12.453  1.0570 -1.1059 -0.8867
    8TMC3    H213985   2.777   1.083  12.561 -1.3271  1.8337  1.2945
    8TMC3    C713986   2.554   1.177  12.459  0.1071  1.1316  0.5025
    8TMC3    C813987   2.741   0.955  12.785  0.0362 -0.2594 -0.0277
    8TMC3    O113988   2.447   1.216  12.506  0.0030  0.5450 -0.1502
    8TMC3    O213989   2.853   1.000  12.777 -0.3503  0.4108  0.2196
    9TMC3    C113990   2.170   1.904  12.742 -0.1667  0.4283 -0.6064
    9TMC3    C213991   2.286   1.909  12.670 -0.3503 -0.1980 -0.7514
    9TMC3    C313992   2.378   1.804  12.693 -0.9591  0.3687  0.4443
    9TMC3    C413993   2.141   1.803  12.839 -0.2034 -0.1045 -0.2301
    9TMC3    C513994   2.232   1.709  12.864  0.7749  0.1655  0.4308
    9TMC3    C613995   2.350   1.703  12.783  0.7809 -0.6194 -0.0755
    9TMC3     C13996   2.090   2.025  12.729  0.0358  0.0240  0.2659
    9TMC3     O13997   2.148   2.122  12.678  0.2114  0.2946 -0.0943
    9TMC3     H13998   2.315   1.987  12.601 -1.9507 -0.7632 -2.0681
    9TMC3    H113999   2.058   1.825  12.906 -0.0881 -0.5929  0.0734
    9TMC3    H214000   2.429   1.639  12.820  2.1196  0.7644 -0.5516
    9TMC3    C714001   2.185   1.580  12.920 -0.5513  0.3314  0.0215
    9TMC3    C814002   2.503   1.795  12.617 -0.0139 -0.1588  0.1817
    9TMC3    O114003   2.099   1.595  13.000 -0.2812  0.1583  0.3711
    9TMC3    O214004   2.551   1.892  12.556 -0.0175  0.0338  0.2273
   10MPD2     C14005   2.770   1.453  12.343 -0.1631 -0.1406  0.5003
   10MPD2    C114006   2.680   1.391  12.426 -0.4743  0.4569 -0.6819
   10MPD2    C214007   2.601   1.471  12.498  0.6178  0.4777  0.5152
   10MPD2    C314008   2.622   1.610  12.502  0.9350  0.2256  0.0701
   10MPD2    C414009   2.722   1.672  12.429 -0.7963  0.4366 -0.2185
   10MPD2    C514010   2.792   1.592  12.348 -0.5511 -0.4501 -0.0926
   10MPD2     H14011   2.524   1.422  12.557 -0.9457  1.0375 -1.0536
   10MPD2    H114012   2.733   1.780  12.436  1.0154  0.1067  1.8393
   10MPD2    H214013   2.818   1.398  12.263  1.0219  0.3224  0.9037
   10MPD2    H314014   2.872   1.625  12.283  0.2223  2.2379  2.2204
   10MPD2     N14015   2.535   1.665  12.592  0.0319  0.6957 -0.3366
   10MPD2    H514016   2.460   1.607  12.625 -0.4940  1.4029 -0.2846
   10MPD2    N114017   2.666   1.249  12.418  0.0965  0.5729  0.6026
   10MPD2    H714018   2.731   1.196  12.361  0.9718 -0.2985  2.4251
   11MPD2     C14019   3.643   0.585  13.644  0.1954  0.2245 -0.6150
   11MPD2    C114020   3.556   0.646  13.733  0.2325 -0.0578  0.9456
   11MPD2    C214021   3.492   0.765  13.700  0.1816  0.2649  0.0686
   11MPD2    C314022   3.516   0.821  13.577 -0.5019  0.3613  0.8370
   11MPD2    C414023   3.601   0.762  13.482 -0.1504  0.4179 -0.0994
   11MPD2    C514024   3.661   0.645  13.521  0.1055 -0.0233  0.3687
   11MPD2     H14025   3.432   0.816  13.774 -0.8960 -0.3949 -0.3449
   11MPD2    H114026   3.618   0.807  13.385 -0.2413  0.2762 -0.1809
   11MPD2    H214027   3.688   0.487  13.654  0.6693  0.3866 -1.1759
   11MPD2    H314028   3.716   0.584  13.450  3.0964  0.7841  1.9871
   11MPD2     N14029   3.457   0.944  13.536 -0.0609  0.4644  0.0300
   11MPD2    H514030   3.482   0.983  13.445  0.1887 -0.4109 -0.2752
   11MPD2    N114031   3.517   0.593  13.857  0.1769 -0.2611 -0.2154
   11MPD2    H714032   3.457   0.650  13.915 -2.9083 -3.8926  0.2217
    1MPD1     C14033   0.240   2.813  16.095  0.9593  0.0198 -0.0717
    1MPD1    C114034   0.322   2.923  16.117  0.6117 -0.4940 -0.4233
    1MPD1    C214035   0.393   2.920  16.236 -0.2930  0.8679 -0.4703
    1MPD1    C314036   0.362   2.832  16.340  0.3411 -0.3069 -0.6886
    1MPD1    C414037   0.257   2.746  16.318  0.5224 -1.2618  0.5691
    1MPD1    C514038   0.202   2.731  16.194 -1.2903  0.1797 -0.8849
    1MPD1     H14039   0.473   2.993  16.242  0.9312 -0.3325 -2.3220
    1MPD1    H114040   0.220   2.683  16.398 -1.3976 -0.1527  0.5667
    1MPD1    H214041   0.191   2.808  15.998  0.7097  1.7270 -0.0220
    1MPD1    H314042   0.126   2.659  16.170 -2.0561  0.6330  0.1769
    1MPD1     N14043   0.440   2.816  16.455  0.4474  0.3354  1.3588
    1MPD1    H514044   0.423   2.735  16.514 -2.8803  1.4206  1.9053
    1MPD1    N114045   0.374   3.011  16.017 -0.4869 -0.2354 -0.2543
    1MPD1    H614046   0.311   3.027  15.940  1.0869  0.4510 -1.4005
    1MPD1    H714047   0.407   3.101  16.050  1.8608 -1.0889 -0.2611
    2MPD1     C14048   1.431   2.900  16.583 -0.1428  0.4380  0.0794
    2MPD1    C114049   1.343   2.945  16.486  0.2499 -0.7030 -0.5571
    2MPD1    C214050   1.209   2.948  16.513  0.5164  0.4531  0.4241
    2MPD1    C314051   1.163   2.909  16.633 -0.2717 -0.5160  0.1722
    2MPD1    C414052   1.249   2.863  16.728 -0.0705  0.3658 -0.2104
    2MPD1    C514053   1.389   2.864  16.705 -0.1852 -0.5157 -0.5394
    2MPD1     H14054   1.143   2.978  16.432 -0.3746  2.2688  1.8413
    2MPD1    H114055   1.215   2.839  16.829  0.5829 -1.2351 -0.3763
    2MPD1    H214056   1.538   2.909  16.571  0.2554  0.5559  3.5934
    2MPD1    H314057   1.461   2.834  16.781 -0.5562 -3.6445 -1.4265
    2MPD1     N14058   1.019   2.898  16.637 -0.0633 -0.5469 -0.6391
    2MPD1    H514059   0.957   2.944  16.571 -0.2621 -0.7229 -0.5740
    2MPD1    N114060   1.381   2.977  16.352  0.4880 -0.3558 -0.0074
    2MPD1    H614061   1.472   3.022  16.342  0.1799  0.9647  3.2688
    2MPD1    H714062   1.313   3.039  16.306 -0.3237  1.0015  3.0362
    3TMC3    C114063   0.805   2.822  16.734 -0.0821 -0.0292  0.1430
    3TMC3    C214064   0.735   2.778  16.845  0.3542  0.2514  0.1514
    3TMC3    C314065   0.600   2.790  16.833  0.2458 -0.3361  0.0386
    3TMC3    C414066   0.748   2.861  16.618 -0.6156  0.0113  0.1140
    3TMC3    C514067   0.618   2.853  16.607 -0.3069  0.1781 -0.2570
    3TMC3    C614068   0.536   2.833  16.715 -0.2699  0.0336 -0.5671
    3TMC3     C14069   0.953   2.827  16.736  0.8444  0.2494  0.0145
    3TMC3     O14070   0.995   2.759  16.829 -0.0714  0.0495 -0.2154
    3TMC3     H14071   0.777   2.735  16.935  0.7351  2.5034  1.0644
    3TMC3    H114072   0.804   2.860  16.525  0.3440 -1.2430  0.6974
    3TMC3    H214073   0.428   2.835  16.703 -0.0122  1.4883 -2.6757
    3TMC3    C714074   0.560   2.884  16.475  0.1827 -0.6409 -0.4674
    3TMC3    C814075   0.518   2.752  16.953  0.3923 -0.4253 -0.1419
    3TMC3    O114076   0.627   2.957  16.399 -0.4935  0.8280  0.0242
    3TMC3    O214077   0.573   2.779  17.062 -0.5081 -0.5815  0.2803
    4MPD1     C14078   0.171   2.483  17.203  0.3952  0.2669 -0.1622
    4MPD1    C114079   0.281   2.552  17.253  0.5315 -0.8467  0.3569
    4MPD1    C214080   0.354   2.619  17.155 -0.5030 -0.5251 -0.0401
    4MPD1    C314081   0.330   2.610  17.019 -0.0454  0.2394 -0.2646
    4MPD1    C414082   0.225   2.533  16.976 -0.0799 -0.1945  0.0311
    4MPD1    C514083   0.148   2.472  17.070 -0.4786  0.6837  0.5417
    4MPD1     H14084   0.439   2.671  17.199  1.3181 -2.6988 -0.9807
    4MPD1    H114085   0.208   2.519  16.870 -1.9988  0.6534  0.2152
    4MPD1    H214086   0.107   2.425  17.269  1.6572 -2.4245 -1.3063
    4MPD1    H314087   0.066   2.409  17.038 -0.2445  0.4047  0.4885
    4MPD1     N14088   0.411   2.675  16.920 -0.3229  0.3560 -0.7180
    4MPD1    H514089   0.385   2.656  16.823 -0.1663 -3.9181  0.1022
    4MPD1    N114090   0.299   2.574  17.387 -0.2657  0.2924  0.3675
    4MPD1    H614091   0.398   2.585  17.411 -0.3221 -0.6885  1.0651
    4MPD1    H714092   0.254   2.492  17.427 -0.3198  1.5447  2.8906
    1TCq1    O114093   2.914   0.691  11.973 -0.7930 -0.0201 -0.0969
    1TCq1    C114094   2.824   0.592  11.995 -0.0278  0.2837  0.2033
    1TCq1    O214095   2.841   0.484  12.057 -0.4412  0.8085  0.1913
    1TCq1    C214096   2.705   0.617  11.920 -0.7299  0.2158 -0.3497
    1TCq1    C314097   2.608   0.516  11.916  0.2972  0.1556  0.0598
    1TCq1    C414098   2.501   0.531  11.834  0.0522  0.0418 -0.1687
    1TCq1    C514099   2.460   0.659  11.789  0.4938 -0.7198  0.0198
    1TCq1    C614100   2.552   0.763  11.810  0.0188  0.0713  0.8175
    1TCq1    C714101   2.674   0.740  11.873 -0.0443  0.1917 -0.0841
    1TCq1    C814102   2.505   0.898  11.776 -0.8263 -0.6395 -0.5146
    1TCq1    O414103   2.572   0.983  11.829  0.1262  0.5988 -0.6071
    1TCq1    C914104   2.394   0.419  11.832  0.8956  0.6079 -0.2799
    1TCq1    O514105   2.418   0.315  11.900  0.2032  0.2821  0.4905
    1TCq1    O614106   2.287   0.453  11.770  0.6794  0.2177  0.6343
    1TCq1    H114107   2.902   0.761  11.905 -1.6951 -0.7087 -0.6455
    1TCq1    H214108   2.637   0.419  11.952  2.0235  1.1673  1.3906
    1TCq1    H314109   2.361   0.669  11.746  0.3111  0.0707  0.6395
    1TCq1    H414110   2.740   0.826  11.884  2.7917 -1.8915 -1.0068
    2MPD1     C14111   2.280   1.271  11.503 -0.2385 -0.0048  0.0933
    2MPD1    C114112   2.237   1.155  11.445  0.8214  0.2199  0.2255
    2MPD1    C214113   2.284   1.041  11.508  0.1451 -0.9976 -0.6219
    2MPD1    C314114   2.368   1.030  11.618 -0.0110 -0.0058 -0.4998
    2MPD1    C414115   2.392   1.156  11.675 -0.8638 -0.1601  0.1165
    2MPD1    C514116   2.357   1.269  11.615 -0.2746 -0.6555  0.0250
    2MPD1     H14117   2.256   0.947  11.464 -1.3524 -1.5808  1.5863
    2MPD1    H114118   2.450   1.170  11.766 -1.0619 -0.4993  0.2962
    2MPD1    H214119   2.249   1.367  11.463  0.4638  0.8317  1.5681
    2MPD1    H314120   2.395   1.358  11.662 -2.0450 -1.5051  3.0331
    2MPD1     N14121   2.414   0.908  11.676  0.2701  0.5062  0.0795
    2MPD1    H514122   2.385   0.819  11.637 -1.7016  0.5275  1.4857
    2MPD1    N114123   2.152   1.155  11.334  0.7622 -0.5179  0.0848
    2MPD1    H614124   2.152   1.237  11.274  1.0688 -1.0047 -0.5838
    2MPD1    H714125   2.161   1.067  11.285 -1.2225 -1.2851  1.0638
    1TMC1    C114126   4.329   3.117   0.961 -0.0362 -0.1216  0.1133
    1TMC1    C214127   4.255   3.070   0.854  0.4477  0.1909 -0.0971
    1TMC1    C314128   4.316   3.071   0.727 -0.7201 -1.0649  0.3471
    1TMC1    C414129   4.460   3.162   0.936 -0.0377  0.3549 -0.1610
    1TMC1    C514130   4.510   3.150   0.807 -0.7307 -0.2717 -0.3247
    1TMC1    C614131   4.443   3.108   0.702  0.1025  0.2541  0.0334
    1TMC1     C14132   4.330   3.032   1.077  0.0552 -0.0698 -0.1471
    1TMC1     O14133   4.433   3.028   1.148 -0.0832  0.0801  0.2494
    1TMC1     H14134   4.158   3.026   0.868 -0.1402  0.8726 -2.1431
    1TMC1    H114135   4.526   3.195   1.016  0.1929  1.3719 -0.7701
    1TMC1    H214136   4.485   3.083   0.605 -1.6658  1.4794 -1.0423
    1TMC1    C714137   4.654   3.140   0.798 -0.0289  0.1036 -0.9765
    1TMC1    C814138   4.239   3.010   0.624  0.0124 -0.4892 -0.1800
    1TMC1    O114139   4.723   3.121   0.894 -0.0464 -0.1867 -0.4687
    1TMC1    O214140   4.182   2.903   0.646 -0.0385  0.0383  0.1352
    1TMC1    O314141   4.700   3.219   0.693  0.2893  0.4997 -0.1620
    1TMC1    H314142   4.630   3.244   0.629  0.7279 -0.6184 -1.0640
    1TMC1    O514143   4.285   3.065   0.509 -0.8335  0.8851 -0.5869
    1TMC1    H514144   4.301   3.161   0.522  2.6535  0.2266  0.0466
    2MPD1     C14145   4.141   2.644   1.357 -0.1658 -0.0979 -0.4165
    2MPD1    C114146   4.048   2.676   1.262 -0.3334 -0.6504  0.2533
    2MPD1    C214147   4.075   2.781   1.180 -1.2322 -0.6101 -0.4391
    2MPD1    C314148   4.191   2.858   1.192 -0.3854  0.2195 -0.1891
    2MPD1    C414149   4.282   2.833   1.296 -0.4222  0.2939  0.4271
    2MPD1    C514150   4.249   2.727   1.381 -0.4300 -0.0998 -0.0448
    2MPD1     H14151   4.002   2.798   1.102 -0.8425 -1.1536 -0.9285
    2MPD1    H114152   4.383   2.871   1.311 -0.8550  1.0383  1.4529
    2MPD1    H214153   4.125   2.557   1.420 -0.1355 -0.2761 -0.6538
    2MPD1    H314154   4.314   2.684   1.456 -0.3691  3.7459  2.0893
    2MPD1     N14155   4.216   2.951   1.088  0.1298 -0.0246  0.8674
    2MPD1    H514156   4.144   2.964   1.017  2.2185  0.7401 -1.0903
    2MPD1    N114157   3.940   2.592   1.236 -0.1746 -0.3555  0.4311
    2MPD1    H614158   3.907   2.541   1.317  0.0888  0.3202  0.9682
    2MPD1    H714159   3.857   2.640   1.201 -1.1842 -2.1134  0.4458
    1MPD1     C14160   3.369   1.173  11.739 -0.9374  0.2904 -0.1256
    1MPD1    C114161   3.419   1.079  11.834 -0.2766  0.1077 -0.2094
    1MPD1    C214162   3.545   1.092  11.883 -0.6432 -0.3417  0.5608
    1MPD1    C314163   3.631   1.189  11.833  0.7256  0.6106  1.2668
    1MPD1    C414164   3.588   1.279  11.733 -0.4496 -0.1787  0.7190
    1MPD1    C514165   3.455   1.270  11.696 -0.2659  0.0759 -0.1047
    1MPD1     H14166   3.575   1.020  11.959 -0.9149 -1.3516 -0.2780
    1MPD1    H114167   3.652   1.352  11.685  0.5103 -0.6433  1.2935
    1MPD1    H214168   3.265   1.173  11.708 -0.7829  2.8267 -0.6879
    1MPD1    H314169   3.417   1.342  11.624 -1.0544  0.2542  0.4937
    1MPD1     N14170   3.763   1.201  11.892  0.3693  0.8990  0.3255
    1MPD1    H514171   3.783   1.134  11.967  1.7159  0.8028 -0.1224
    1MPD1    N114172   3.327   0.986  11.885  0.3024  0.3690 -0.2487
    1MPD1    H614173   3.375   0.899  11.907 -0.7883 -0.1314  0.1458
    1MPD1    H714174   3.251   0.970  11.820  0.6414 -0.1370 -0.5242
    2MPD1     C14175   3.340   2.166  11.108  0.3606 -0.0121 -0.3267
    2MPD1    C114176   3.462   2.165  11.043 -0.4703 -0.1708 -0.5292
    2MPD1    C214177   3.508   2.038  11.011  0.0035  0.1066 -0.3270
    2MPD1    C314178   3.451   1.923  11.067 -0.6927  0.3513  0.3788
    2MPD1    C414179   3.334   1.933  11.146 -0.2948  0.2285 -0.3426
    2MPD1    C514180   3.280   2.057  11.168  0.0711 -0.1460 -0.4494
    2MPD1     H14181   3.591   2.025  10.942 -1.0571 -1.5639 -1.2730
    2MPD1    H114182   3.285   1.845  11.187  0.0125  0.6295  0.9092
    2MPD1    H214183   3.297   2.260  11.141  1.8717  0.3089  0.7314
    2MPD1    H314184   3.199   2.058  11.241  1.3782 -1.8352  1.0346
    2MPD1     N14185   3.501   1.794  11.036  0.5760  0.3916  0.2417
    2MPD1    H514186   3.456   1.715  11.081  1.8112 -0.8131 -0.6382
    2MPD1    N114187   3.503   2.276  10.974  0.5330  0.2508  0.0059
    2MPD1    H614188   3.605   2.274  10.963  0.6057 -2.2557  0.9676
    2MPD1    H714189   3.473   2.360  11.021  0.2354 -0.1710  0.5639
    3MPD1     C14190   3.148   1.034  11.263 -0.1320  0.1821  0.1402
    3MPD1    C114191   3.167   1.154  11.312 -0.5768 -0.0608  0.3819
    3MPD1    C214192   3.258   1.246  11.259 -0.8099  0.1451 -0.7269
    3MPD1    C314193   3.334   1.218  11.149  0.2415  0.4424 -0.2788
    3MPD1    C414194   3.317   1.085  11.102  1.4076 -0.4069  0.6322
    3MPD1    C514195   3.232   0.995  11.162 -0.0959  0.3717 -0.1126
    3MPD1     H14196   3.260   1.349  11.292 -0.4339  0.1061 -0.6264
    3MPD1    H114197   3.368   1.051  11.013  0.3163  0.0265 -0.1518
    3MPD1    H214198   3.084   0.956  11.304  0.3309  0.2930  1.0688
    3MPD1    H314199   3.218   0.896  11.120  0.8740 -0.6434  1.9452
    3MPD1     N14200   3.411   1.322  11.086 -1.0426  0.1792 -0.0664
    3MPD1    H514201   3.407   1.411  11.134  0.5948  0.7177 -0.9640
    3MPD1    N114202   3.062   1.195  11.394 -0.1016  0.0669  0.0449
    3MPD1    H614203   3.033   1.120  11.456  2.1430 -0.0200  1.0050
    3MPD1    H714204   3.093   1.273  11.451  0.2296  1.2408 -1.7336
    4MPD2     C14205   4.416   1.641  11.684  0.7820  0.7053  0.1567
    4MPD2    C114206   4.426   1.503  11.697  0.2217 -0.1481 -0.1034
    4MPD2    C214207   4.503   1.429  11.612 -0.4910 -0.2057  0.3597
    4MPD2    C314208   4.560   1.499  11.505 -0.0760 -0.3070  0.2808
    4MPD2    C414209   4.549   1.637  11.487 -0.9550 -0.1859  0.6901
    4MPD2    C514210   4.481   1.706  11.585  0.3961 -0.1774 -0.0469
    4MPD2     H14211   4.531   1.325  11.623 -0.4468 -0.1749  0.5485
    4MPD2    H114212   4.600   1.700  11.416 -0.4458 -0.4268  0.8424
    4MPD2    H214213   4.381   1.704  11.765 -0.2987 -0.9441  0.9665
    4MPD2    H314214   4.484   1.815  11.590  0.8967 -0.1285 -1.2989
    4MPD2     N14215   4.621   1.413  11.411  0.9959 -0.5338 -0.1092
    4MPD2    H514216   4.622   1.317  11.442  3.6369 -1.5372 -3.3279
    4MPD2    N114217   4.362   1.425  11.797  0.4620 -0.5911 -0.1945
    4MPD2    H714218   4.370   1.324  11.787  0.7320 -0.2507 -3.4172
    5TMC3    C114219   4.205   1.362  11.964  0.0242 -0.5455 -0.1845
    5TMC3    C214220   4.063   1.365  11.971  0.1960  0.0795  0.6366
    5TMC3    C314221   3.990   1.257  11.938 -0.4663  0.2921 -0.9141
    5TMC3    C414222   4.264   1.243  11.944 -0.4065  0.0520 -0.4457
    5TMC3    C514223   4.187   1.129  11.915 -0.5464  0.1281 -1.2855
    5TMC3    C614224   4.048   1.139  11.911  0.6684 -0.2582 -0.0910
    5TMC3     C14225   4.256   1.471  11.879  0.4366 -0.1643 -0.2954
    5TMC3     O14226   4.196   1.579  11.874  0.4996 -0.3416  0.2332
    5TMC3     H14227   4.018   1.461  11.996 -0.5766 -0.7115  2.2786
    5TMC3    H114228   4.372   1.244  11.944 -0.4080  0.6116 -0.0938
    5TMC3    H214229   3.986   1.053  11.887  0.5660 -0.8259  2.1997
    5TMC3    C714230   4.237   1.080  11.792 -0.3038 -0.7628 -0.0969
    5TMC3    C814231   3.867   1.292  11.870 -0.5201  0.6794 -0.0868
    5TMC3    O114232   4.308   1.159  11.733 -0.0861  0.2462  0.0049
    5TMC3    O214233   3.852   1.401  11.825 -0.5517  0.3640  0.1543
    6TMC3    C114234   3.645   1.632  10.948  0.0750 -0.5076 -0.8730
    6TMC3    C214235   3.549   1.536  10.977  1.0103  1.3733 -0.0664
    6TMC3    C314236   3.570   1.406  10.941 -1.2992 -0.2574  0.1112
    6TMC3    C414237   3.763   1.603  10.881 -0.4200 -0.9980  0.7142
    6TMC3    C514238   3.778   1.472  10.843  0.1976 -0.3362 -0.5073
    6TMC3    C614239   3.676   1.374  10.863  0.0515 -0.0252 -0.6816
    6TMC3     C14240   3.623   1.769  10.985  0.9279  0.5644  0.6972
    6TMC3     O14241   3.717   1.849  10.964 -0.1854  0.1901  0.6014
    6TMC3     H14242   3.455   1.570  11.018  0.6460  3.0872 -2.3397
    6TMC3    H114243   3.846   1.669  10.864 -1.2973 -0.1004 -0.0866
    6TMC3    H214244   3.699   1.271  10.838  1.4953  0.3949 -1.0641
    6TMC3    C714245   3.912   1.423  10.827  0.1260 -0.2339  0.3658
    6TMC3    C814246   3.474   1.304  10.968  0.3631  0.1741  0.1516
    6TMC3    O114247   3.940   1.318  10.879  0.0821 -0.2372  0.2604
    6TMC3    O214248   3.486   1.210  10.890  0.3263  0.1584 -0.1445
    7MPD2     C14249   4.320   0.740  11.425 -0.4924 -0.5522 -0.3198
    7MPD2    C114250   4.378   0.864  11.449 -0.0139 -0.4855  0.1112
    7MPD2    C214251   4.346   0.921  11.564  0.2642  0.1932  0.1990
    7MPD2    C314252   4.255   0.872  11.651 -0.5200 -0.1094 -0.6347
    7MPD2    C414253   4.189   0.752  11.622 -0.2519 -0.8266 -0.3704
    7MPD2    C514254   4.228   0.678  11.511  0.2883  0.4133  0.3808
    7MPD2     H14255   4.385   1.020  11.588  0.4985 -0.0278  0.7196
    7MPD2    H114256   4.121   0.707  11.693 -0.8728 -0.7480 -0.9094
    7MPD2    H214257   4.344   0.683  11.336 -1.0946 -2.3368  0.6628
    7MPD2    H314258   4.187   0.583  11.478 -1.3601  1.3622 -0.2884
    7MPD2     N14259   4.204   0.951  11.756 -0.3757 -0.0363 -0.0408
    7MPD2    H514260   4.139   0.906  11.819 -2.1541  1.9281 -0.4681
    7MPD2    N114261   4.454   0.936  11.357  0.2155 -0.3758  0.0133
    7MPD2    H714262   4.458   0.893  11.265  2.4548 -1.0533  0.4171
    8TMC3    C114263   4.581   1.114  11.257  0.5396  0.1406 -0.1263
    8TMC3    C214264   4.500   1.117  11.152  0.6995  0.2355  0.1854
    8TMC3    C314265   4.517   1.221  11.066  0.0427 -0.5810  0.0336
    8TMC3    C414266   4.663   1.212  11.297  0.5042  0.4274 -0.0572
    8TMC3    C514267   4.670   1.321  11.214  0.4525 -0.2397 -0.4174
    8TMC3    C614268   4.590   1.333  11.104 -0.2178 -0.2263 -0.0882
    8TMC3     C14269   4.528   1.048  11.379  0.0055  0.1006 -0.0841
    8TMC3     O14270   4.556   1.104  11.486  0.1090 -0.6180  0.3452
    8TMC3     H14271   4.433   1.035  11.128 -0.4086  0.5913  2.0164
    8TMC3    H114272   0.010   1.185  11.361  0.3107  1.2518  0.5442
    8TMC3    H214273   4.570   1.420  11.043  2.7556 -0.9476 -2.1193
    8TMC3    C714274   4.664   1.448  11.288  0.8862 -0.2016 -0.3379
    8TMC3    C814275   4.403   1.254  10.982 -0.1511  0.5598  0.1243
    8TMC3    O114276   4.662   1.552  11.225  0.0569  0.0431  0.5401
    8TMC3    O214277   4.289   1.238  11.026  0.1098 -0.2127 -0.4818
    9MPD2     C14278   4.399   1.482  10.702 -0.6176  0.2018 -0.6593
    9MPD2    C114279   4.350   1.392  10.784 -0.3623 -0.1370 -0.9318
    9MPD2    C214280   4.206   1.377  10.785 -0.0775  0.2422 -0.1306
    9MPD2    C314281   4.127   1.478  10.724 -0.2770 -0.4351 -0.6874
    9MPD2    C414282   4.188   1.571  10.647 -0.2553 -0.7340  0.2736
    9MPD2    C514283   4.322   1.565  10.629 -0.1917 -0.4356 -0.5064
    9MPD2     H14284   4.158   1.292  10.831  0.6981  0.5966  1.3078
    9MPD2    H114285   4.130   1.654  10.608  1.9546  0.4769 -0.4345
    9MPD2    H214286   4.507   1.492  10.692 -0.3584 -0.3076  1.6494
    9MPD2    H314287   4.367   1.641  10.567 -0.4013 -0.8248 -1.1261
    9MPD2     N14288   3.991   1.501  10.750 -0.3901  0.1824 -0.0034
    9MPD2    H514289   3.956   1.582  10.700 -1.9543 -0.6546 -0.2786
    9MPD2    N114290   4.438   1.320  10.871 -0.8790  0.1005 -0.1153
    9MPD2    H714291   4.538   1.336  10.861 -0.7722  0.7823  1.9970
    1MPD1     C14292   3.765   0.773  16.884  0.3960 -0.2208 -0.7341
    1MPD1    C114293   3.786   0.798  16.747  0.5017 -0.2693  0.8015
    1MPD1    C214294   3.677   0.793  16.666  0.4393 -0.6769 -0.7110
    1MPD1    C314295   3.550   0.786  16.721 -0.0736  0.1189  0.5014
    1MPD1    C414296   3.526   0.768  16.853 -0.3077  0.5042 -0.1881
    1MPD1    C514297   3.639   0.755  16.938 -0.7164  0.2996 -0.2189
    1MPD1     H14298   3.693   0.792  16.558  0.9376 -2.5223 -0.6210
    1MPD1    H114299   3.428   0.758  16.899  0.4103 -2.2042  0.7391
    1MPD1    H214300   3.848   0.760  16.953  0.0186 -0.8637 -0.3930
    1MPD1    H314301   3.628   0.736  17.044  0.0026 -2.0130 -0.5711
    1MPD1     N14302   3.432   0.805  16.643  0.1517 -0.0146 -0.6664
    1MPD1    H514303   3.344   0.797  16.692 -0.1838 -0.1631 -1.2991
    1MPD1    N114304   3.911   0.782  16.685  0.5477  0.0086  0.0723
    1MPD1    H614305   3.912   0.824  16.592  1.2342  0.6837  0.3840
    1MPD1    H714306   3.943   0.686  16.689  0.6892  0.0073 -1.2434
    2TMC2    C114307   3.134   0.845  16.288 -0.1353 -0.2374  0.1262
    2TMC2    C214308   3.032   0.784  16.355 -0.1125  0.3269  0.0537
    2TMC2    C314309   3.065   0.717  16.473  0.5627  1.0402  0.4037
    2TMC2    C414310   3.262   0.852  16.340 -0.3105 -0.3744  0.6264
    2TMC2    C514311   3.281   0.797  16.463  0.1197 -0.2567 -0.1490
    2TMC2    C614312   3.187   0.728  16.536  0.0218  0.1654  0.3866
    2TMC2     C14313   3.084   0.969  16.227 -0.2156 -0.4301  0.7023
    2TMC2     O14314   3.003   1.040  16.280  0.7032 -0.2586 -0.0193
    2TMC2     H14315   2.929   0.792  16.321  0.1034  3.3642  0.0783
    2TMC2    H114316   3.340   0.901  16.283 -1.0998 -1.3948 -1.3391
    2TMC2    H214317   3.203   0.682  16.633  3.0771  1.1138  0.3039
    2TMC2    C714318   3.421   0.808  16.501  0.3135  0.0099 -0.0276
    2TMC2    C814319   2.968   0.619  16.535 -0.4196 -0.1838  0.3376
    2TMC2    O114320   3.507   0.830  16.418  0.0271  0.1151  0.0115
    2TMC2    O214321   2.984   0.565  16.643 -0.4350  0.7812 -0.2752
    2TMC2    O514322   2.904   0.560  16.433 -0.1470 -0.0544 -0.2604
    2TMC2    H514323   2.936   0.585  16.343  0.5579 -2.1458 -0.5967
    3MPD1     C14324   3.162   1.269  15.830 -0.0993 -0.7681 -0.1813
    3MPD1    C114325   3.225   1.152  15.803 -0.5773 -0.4170 -0.2121
    3MPD1    C214326   3.214   1.056  15.902  0.1121 -0.0535  0.1329
    3MPD1    C314327   3.157   1.084  16.023 -0.0150 -0.3075 -0.7261
    3MPD1    C414328   3.104   1.211  16.045 -0.4709  0.1155  0.6628
    3MPD1    C514329   3.106   1.303  15.945  0.0101 -0.2048 -0.0697
    3MPD1     H14330   3.250   0.957  15.875 -0.9079 -1.4356  3.7767
    3MPD1    H114331   3.070   1.239  16.144  2.0284  0.4682  1.4170
    3MPD1    H214332   3.143   1.342  15.752 -0.4563 -1.2367 -0.5307
    3MPD1    H314333   3.058   1.399  15.963 -2.0349 -1.3129  0.3588
    3MPD1     N14334   3.153   0.982  16.113 -0.0625  0.4563  0.0410
    3MPD1    H514335   3.214   0.903  16.096 -1.0113  0.1212 -1.7351
    3MPD1    N114336   3.258   1.112  15.669  0.2438 -0.5659 -0.5350
    3MPD1    H614337   3.322   1.033  15.670 -1.0598 -1.6267 -0.6804
    3MPD1    H714338   3.301   1.188  15.617 -0.9527 -0.3239 -1.1644
    1TMC1    C114339   1.574   4.383  13.064 -0.0850 -0.8900 -0.0827
    1TMC1    C214340   1.508   4.314  13.166  0.0687  0.1898 -0.5164
    1TMC1    C314341   1.382   4.360  13.196 -1.4338 -0.7060  0.1825
    1TMC1    C414342   1.524   4.498  13.012 -0.3714 -0.4314  0.8426
    1TMC1    C514343   1.398   4.540  13.051  0.4040 -0.2649  0.1286
    1TMC1    C614344   1.328   4.470  13.146 -0.7344  0.2685 -0.1398
    1TMC1     C14345   1.701   4.332  13.015  0.1483 -0.3407  0.0864
    1TMC1     O14346   1.728   4.372  12.900  0.3155  0.5204 -0.4722
    1TMC1     H14347   1.554   4.225  13.206 -1.1961 -0.0282  0.4789
    1TMC1    H114348   1.579   4.551  12.935 -3.1378 -2.8995 -2.8938
    1TMC1    H214349   1.223   4.492  13.160 -0.6796 -1.0678  2.3364
    1TMC1    C714350   1.313   4.637  12.974 -0.2880 -0.2989 -0.0203
    1TMC1    C814351   1.299   4.293  13.291 -0.0313 -0.2688 -0.2718
    1TMC1    O114352   1.214   4.698  13.014 -0.1852  0.0920  0.0097
    1TMC1    O214353   1.216   4.359  13.352  0.3861  0.1511 -0.2724
    1TMC1    O314354   1.377   4.670  12.859  0.4742  0.3856  0.3524
    1TMC1    H314355   1.397   4.587  12.810  3.2110  0.9639  0.5021
    1TMC1    O514356   1.335   4.164  13.309 -1.1131  0.2821  0.0329
    1TMC1    H514357   1.371   4.130  13.224  3.7913  3.6303  0.7996
    2MPD2     C14358   1.920   4.171  12.917  0.7454  0.6331  0.1706
    2MPD2    C114359   1.895   4.196  13.051 -0.2490  0.8154  0.3589
    2MPD2    C214360   1.980   4.147  13.153  0.3669  0.2146 -0.3345
    2MPD2    C314361   2.097   4.079  13.117 -0.0921  0.4062  0.1851
    2MPD2    C414362   2.129   4.077  12.984 -0.1188  0.3849 -0.0648
    2MPD2    C514363   2.039   4.111  12.885 -0.5442 -0.7196 -0.5274
    2MPD2     H14364   1.947   4.157  13.255 -1.1040  1.2386 -0.9161
    2MPD2    H114365   2.212   4.017  12.948  0.4318 -0.0616  1.9571
    2MPD2    H214366   1.859   4.207  12.834  0.5900  1.4708  0.6463
    2MPD2    H314367   2.074   4.100  12.783  2.8497 -1.4584  0.7060
    2MPD2     N14368   2.182   4.051  13.223  0.0045 -0.2702 -0.1319
    2MPD2    H514369   2.151   4.089  13.312 -3.6118  1.0920 -1.9850
    2MPD2    N114370   1.775   4.256  13.101  0.4129 -0.5145 -0.1085
    2MPD2    H714371   1.749   4.245  13.199 -1.3180 -0.6591 -0.5914
    3TCq1    O114372   2.680   3.799  13.333 -0.2420  0.6181 -0.4538
    3TCq1    C114373   2.650   3.790  13.464 -0.0955 -0.8114 -0.0840
    3TCq1    O214374   2.713   3.733  13.553  0.3175 -0.4166 -0.5521
    3TCq1    C214375   2.524   3.859  13.474 -0.3845  0.1262 -0.8924
    3TCq1    C314376   2.530   3.967  13.556 -0.1208  0.0418  0.2683
    3TCq1    C414377   2.422   4.050  13.551  1.4295 -0.9019  0.2541
    3TCq1    C514378   2.334   4.039  13.445  0.5967  0.6183 -0.6355
    3TCq1    C614379   2.340   3.934  13.355  0.6837 -0.1672  0.2240
    3TCq1    C714380   2.441   3.844  13.368 -0.0586  0.3091  0.9565
    3TCq1    C814381   2.284   3.957  13.223 -0.0048 -0.4609  0.9237
    3TCq1    O414382   2.319   3.883  13.133  0.3206 -0.4453 -0.0046
    3TCq1    C914383   2.410   4.163  13.631 -0.0853 -0.1532 -0.2818
    3TCq1    O514384   2.490   4.165  13.725  0.3473 -0.0356  0.4523
    3TCq1    O614385   2.348   4.265  13.587 -0.2729 -0.1452 -0.5581
    3TCq1    H114386   2.621   3.868  13.296 -0.2914  2.5474  3.2599
    3TCq1    H214387   2.606   3.981  13.632 -2.3095 -0.0567  2.4628
    3TCq1    H314388   2.249   4.106  13.444  0.2406  0.1469 -1.6570
    3TCq1    H414389   2.441   3.757  13.303  0.0056 -0.0390  1.4273
    1MPD2     C14390   1.014   1.341  15.257  0.4168  0.5258  0.0836
    1MPD2    C114391   0.987   1.214  15.299 -0.0615  0.4354  0.4865
    1MPD2    C214392   1.069   1.109  15.256 -0.0588 -0.0226 -0.5679
    1MPD2    C314393   1.164   1.125  15.158 -0.1347 -0.4305  0.6367
    1MPD2    C414394   1.170   1.246  15.100 -0.0082 -0.2576  0.1231
    1MPD2    C514395   1.110   1.355  15.150  0.1211  0.0248 -0.0272
    1MPD2     H14396   1.049   1.009  15.295  1.6977  0.0748  0.5634
    1MPD2    H114397   1.243   1.264  15.021  0.5442  0.9829  0.9043
    1MPD2    H214398   0.973   1.432  15.297 -0.1947  0.0461  0.5458
    1MPD2    H314399   1.129   1.452  15.107  0.9802  0.5055  1.4570
    1MPD2     N14400   1.262   1.030  15.115 -0.5594  0.4700 -0.4562
    1MPD2    H514401   1.310   1.034  15.026 -0.0113  0.3470 -0.1641
    1MPD2    N114402   0.884   1.201  15.394  0.0940 -0.2195  0.8292
    1MPD2    H714403   0.830   1.284  15.416  0.4012 -0.2861  1.8167
    2TMC3    C114404   0.673   1.104  15.439  0.0978 -0.2265 -0.2093
    2TMC3    C214405   0.617   0.986  15.418 -0.2223  0.4028  0.6995
    2TMC3    C314406   0.513   0.978  15.330  0.3977  0.4778 -0.3701
    2TMC3    C414407   0.629   1.220  15.377  0.2434 -0.1452  0.2792
    2TMC3    C514408   0.517   1.204  15.293  0.3052 -0.1351 -0.2071
    2TMC3    C614409   0.466   1.079  15.263 -0.3581 -0.1803  0.0227
    2TMC3     C14410   0.811   1.087  15.418 -0.2145  0.3102  0.2238
    2TMC3     O14411   0.840   0.970  15.395 -0.5532 -0.3341 -0.3967
    2TMC3     H14412   0.640   0.897  15.476 -1.5881 -0.0562  0.5437
    2TMC3    H114413   0.677   1.311  15.411  1.0025 -0.2135 -0.6144
    2TMC3    H214414   0.401   1.058  15.179 -0.3347  1.2818 -0.3547
    2TMC3    C714415   0.494   1.295  15.186  0.9904  0.1037 -0.0588
    2TMC3    C814416   0.511   0.859  15.256 -0.2704  0.3743  0.1100
    2TMC3    O114417   0.389   1.289  15.122 -0.1363 -0.2619  0.1195
    2TMC3    O214418   0.414   0.833  15.186 -0.4147 -0.2106 -0.2483
    3TCq1    O114419   1.431   1.955  15.039  0.7781  0.0645 -0.3967
    3TCq1    C114420   1.341   1.861  15.014 -0.5575 -0.5362  0.3437
    3TCq1    O214421   1.357   1.760  14.946  0.4730 -0.0671 -0.0638
    3TCq1    C214422   1.217   1.931  14.999 -0.7450 -0.0666  0.5465
    3TCq1    C314423   1.217   2.063  14.956 -0.8821  0.3265  0.7003
    3TCq1    C414424   1.107   2.103  14.879 -0.0421  0.6988 -0.3655
    3TCq1    C514425   1.001   2.021  14.861  0.5093  0.0907 -0.1524
    3TCq1    C614426   1.001   1.894  14.912 -0.3633 -0.1208  0.0413
    3TCq1    C714427   1.117   1.844  14.967  0.2099  0.2540  0.9153
    3TCq1    C814428   0.907   1.804  14.854 -0.2666 -0.3663 -0.7884
    3TCq1    O414429   0.875   1.814  14.737 -0.2674 -0.7811  0.1961
    3TCq1    C914430   1.109   2.237  14.827  0.4268 -0.1706 -0.1863
    3TCq1    O514431   0.998   2.290  14.809 -0.2078  0.7247  0.2610
    3TCq1    O614432   1.216   2.303  14.846  0.1508 -0.1938 -0.0560
    3TCq1    H114433   1.399   2.012  15.111  0.4900  1.8863 -1.9776
    3TCq1    H214434   1.289   2.137  14.988 -0.2248 -0.5388  1.2490
    3TCq1    H314435   0.905   2.059  14.827 -1.0001 -3.9034 -0.3818
    3TCq1    H414436   1.131   1.741  14.998  1.2906  0.7913  2.2334
    4MPD2     C14437   0.676   1.627  14.826  0.8765 -0.5219 -0.4397
    4MPD2    C114438   0.754   1.633  14.936  0.3623 -0.1924  0.7580
    4MPD2    C214439   0.724   1.552  15.045 -0.3405 -0.2121  0.2836
    4MPD2    C314440   0.614   1.466  15.047 -0.5626 -0.0393 -0.3548
    4MPD2    C414441   0.536   1.459  14.933  0.4068  0.0665  0.4969
    4MPD2    C514442   0.565   1.537  14.824  0.3409 -0.1494  1.0530
    4MPD2     H14443   0.787   1.562  15.133 -0.2059 -0.2591  0.1919
    4MPD2    H114444   0.444   1.403  14.919 -0.1908  1.4047 -0.9010
    4MPD2    H214445   0.700   1.683  14.737 -1.5680 -1.4591 -1.6874
    4MPD2    H314446   0.507   1.526  14.733 -0.0416 -1.2321  1.4221
    4MPD2     N14447   0.586   1.391  15.166  0.5694 -0.0056 -0.4281
    4MPD2    H514448   0.655   1.402  15.239 -0.1216  3.9228 -0.3595
    4MPD2    N114449   0.869   1.709  14.946 -0.3805 -0.2357  0.5819
    4MPD2    H714450   0.909   1.707  15.040 -1.8469 -1.2455  1.1953
    5TMC2    C114451   1.257   0.633  15.035  1.1595 -0.1239 -0.6160
    5TMC2    C214452   1.320   0.541  15.110  0.0630  0.0062 -0.1799
    5TMC2    C314453   1.400   0.594  15.212  1.0677 -0.1662  0.2463
    5TMC2    C414454   1.279   0.768  15.039 -0.3382  0.3945  0.6445
    5TMC2    C514455   1.359   0.817  15.137  0.7182  0.4912  0.0909
    5TMC2    C614456   1.406   0.727  15.231 -0.1650 -0.6539  0.7987
    5TMC2     C14457   1.131   0.595  14.991 -0.5752 -0.3732  0.5030
    5TMC2     O14458   1.120   0.495  14.918 -0.0452  0.1774 -0.5364
    5TMC2     H14459   1.295   0.436  15.121 -0.9469  0.4599  1.9175
    5TMC2    H114460   1.217   0.834  14.979 -0.1012  1.2632  1.3485
    5TMC2    H214461   1.465   0.773  15.309 -2.2004 -1.1159  2.6261
    5TMC2    C714462   1.308   0.932  15.201 -0.5969 -0.1278  0.0049
    5TMC2    C814463   1.436   0.499  15.310  0.7946 -0.3439 -0.1099
    5TMC2    O114464   1.297   0.927  15.321 -0.0566 -0.1411  0.1837
    5TMC2    O214465   1.362   0.401  15.332  0.4216 -0.6623  0.4935
    5TMC2    O514466   1.516   0.555  15.406  0.3967 -0.6676 -0.1039
    5TMC2    H514467   1.570   0.634  15.384  1.7995 -1.7501 -0.5153
    6MPD2     C14468   0.634   0.692  15.041 -0.3915 -0.3603 -0.3170
    6MPD2    C114469   0.701   0.750  15.145  0.5696  0.1831 -0.1665
    6MPD2    C214470   0.840   0.746  15.146  0.7309 -0.1991  0.8066
    6MPD2    C314471   0.903   0.669  15.056  0.0738  0.6557 -0.0236
    6MPD2    C414472   0.833   0.602  14.949  0.0576 -0.3442 -0.5730
    6MPD2    C514473   0.696   0.611  14.954  0.7549  0.2738 -0.2994
    6MPD2     H14474   0.900   0.801  15.217 -0.6545 -0.0825  1.9011
    6MPD2    H114475   0.880   0.538  14.876  0.0805 -0.9399 -0.0365
    6MPD2    H214476   0.526   0.699  15.031 -0.6127 -0.4171  2.0022
    6MPD2    H314477   0.629   0.562  14.883  1.0572  0.9825 -1.0642
    6MPD2     N14478   1.046   0.671  15.063  0.8400 -0.2724 -0.6141
    6MPD2    H514479   1.086   0.729  15.136  0.6881  1.2999 -1.7713
    6MPD2    N114480   0.640   0.820  15.247  0.4503 -0.0216 -0.1373
    6MPD2    H714481   0.703   0.862  15.315  0.5452  0.2270 -0.3757
  945NH4     N114482   2.367   1.410   1.017 -0.2765 -0.7238 -0.1288
  945NH4     H214483   2.370   1.315   1.061  1.3423 -0.5423  0.1375
  945NH4     H314484   2.443   1.467   1.061 -3.6939  3.3739  0.4478
  945NH4     H414485   2.282   1.465   1.038  0.5029  0.5926 -0.4510
  945NH4     H514486   2.366   1.412   0.913 -2.6591 -0.4190 -0.1047
  946SOD     NA14487   2.159   4.243  11.607 -0.2898  0.2996  0.0663
  947SOD     NA14488   4.575   1.162  13.814 -0.0537  0.1170  0.1728
  948SOD     NA14489   3.665   1.499  13.313 -0.0193  0.0422  0.0360
  949SOD     NA14490   3.160   3.037  17.067 -0.1195 -0.1369 -0.1268
  950SOD     NA14491   4.015   1.738   8.523  0.0631  0.2565  0.1255
  951SOD     NA14492   1.076   1.612   2.165  0.0115  0.4506 -0.0131
  952SOD     NA14493   1.266   1.331   4.291  0.5024  0.4288 -0.0146
  953SOL     OW14494   0.315   0.801  14.400  0.4572  0.3217  0.0926
  953SOL    HW114495   0.367   0.799  14.319  1.2745  3.3979  0.5183
  953SOL    HW214496   0.340   0.887  14.434 -1.0058  0.8429 -0.1741
  954SOL     OW14497   2.861   2.099   8.755  0.3602  0.3606  0.4135
  954SOL    HW114498   2.809   2.026   8.721  0.7877  0.0017  0.5186
  954SOL    HW214499   2.852   2.093   8.850 -2.3273  0.1142  0.1390
  955SOL     OW14500   0.710   0.378   6.008  0.4695 -0.5139 -0.2283
  955SOL    HW114501   0.627   0.362   5.964  0.4112 -1.1354  0.1108
  955SOL    HW214502   0.753   0.293   6.019 -0.9639 -1.2775 -0.4676
  956SOL     OW14503   2.607   2.579   7.370 -0.4582 -0.0077  0.2952
  956SOL    HW114504   2.665   2.648   7.337 -0.7280  1.0772  2.0636
  956SOL    HW214505   2.570   2.623   7.446  0.5201 -0.3911  0.9974
  957SOL     OW14506   2.575   2.243   5.104 -0.0538  0.1667 -0.1264
  957SOL    HW114507   2.571   2.203   5.017 -3.2838  1.2994 -0.4782
  957SOL    HW214508   2.501   2.303   5.099 -0.3328 -0.0242  1.5398
  958SOL     OW14509   3.798   4.366   9.359  0.8275 -0.2707 -0.4152
  958SOL    HW114510   3.800   4.280   9.402  0.3619  0.4039  0.9369
  958SOL    HW214511   3.712   4.366   9.318  0.2081  2.7803  0.9626
  959SOL     OW14512   3.494   1.525  12.411  0.2708 -0.8827  0.4943
  959SOL    HW114513   3.441   1.483  12.479  0.6558 -0.2566  1.1849
  959SOL    HW214514   3.499   1.461  12.340  0.8786 -0.8282  0.4900
  960SOL     OW14515   1.901   1.119   1.472 -0.0719 -0.2740  0.0143
  960SOL    HW114516   1.907   1.201   1.520  0.1186 -0.0156 -0.4508
  960SOL    HW214517   1.806   1.107   1.480  0.2791 -2.3022  1.3155
  961SOL     OW14518   3.024   3.453   4.375  0.5613  0.7307  0.7968
  961SOL    HW114519   3.035   3.457   4.470  1.5271  2.3554  0.6182
  961SOL    HW214520   3.118   3.446   4.357  0.7557  0.7717  1.8147
  962SOL     OW14521   2.722   1.378   2.540  0.5125  0.0674 -0.5272
  962SOL    HW114522   2.629   1.376   2.519  0.1963  3.9960  0.4302
  962SOL    HW214523   2.760   1.360   2.454  0.2825  0.6681 -0.7607
  963SOL     OW14524   0.547   2.757  11.367  0.3437 -0.0384 -0.0750
  963SOL    HW114525   0.592   2.712  11.296  0.8259  1.4514 -0.6959
  963SOL    HW214526   0.462   2.713  11.369 -0.6194  1.9013  1.3576
  964SOL     OW14527   3.350   3.089   3.573  0.5046 -0.1037  0.3034
  964SOL    HW114528   3.385   3.052   3.492  0.2534 -0.9325  0.5749
  964SOL    HW214529   3.402   3.049   3.644  0.5706  0.1083  0.3741
  965SOL     OW14530   2.737   3.910   4.752 -0.0691 -0.7044  0.0595
  965SOL    HW114531   2.643   3.923   4.768 -0.3577 -0.3332 -1.9167
  965SOL    HW214532   2.772   3.995   4.778 -1.7720  0.1379 -0.4234
  966SOL     OW14533   0.855   0.147  13.070  0.4026  0.0672  0.1505
  966SOL    HW114534   0.862   0.164  12.976  2.9024 -0.2404  0.2640
  966SOL    HW214535   0.910   0.070  13.085  1.2818  0.5204 -0.7141
  967SOL     OW14536   2.536   0.571   8.494  0.6130 -0.1361 -0.8843
  967SOL    HW114537   2.573   0.642   8.441  0.4993 -0.4354 -1.3576
  967SOL    HW214538   2.501   0.514   8.427  1.5991 -1.2553 -0.4614
  968SOL     OW14539   1.507   4.031   5.091 -0.7514  0.3981  0.3930
  968SOL    HW114540   1.570   3.996   5.028 -2.0068 -0.8105 -0.1849
  968SOL    HW214541   1.526   4.124   5.101 -0.4235  0.3143  0.5264
  969SOL     OW14542   2.561   0.483  17.497 -0.6744 -0.4972 -0.0614
  969SOL    HW114543   2.632   0.544  17.519  0.5638 -1.9546  0.0236
  969SOL    HW214544   2.586   0.465  17.407  0.5022  0.1844  0.1169
  970SOL     OW14545   3.593   3.949   4.706 -0.1220  0.2198 -0.4122
  970SOL    HW114546   3.626   3.935   4.795 -0.2278  1.1978 -0.2164
  970SOL    HW214547   3.646   3.880   4.667  1.8311  0.8764  1.0667
  971SOL     OW14548   3.340   2.259   6.934  0.5649 -0.1942  0.1150
  971SOL    HW114549   3.340   2.235   6.841  1.5941  2.3974 -0.5410
  971SOL    HW214550   3.435   2.268   6.944  0.4925  1.0326 -0.4051
  972SOL     OW14551   0.078   0.056   4.666  0.4998 -0.0946  0.5444
  972SOL    HW114552   0.085   4.705   4.625  0.5542  1.7408 -3.2822
  972SOL    HW214553   0.010   0.099   4.615 -0.0490 -0.1126  1.2604
  973SOL     OW14554   4.717   2.259   1.983  0.4909 -0.1608 -0.7237
  973SOL    HW114555   4.699   2.190   1.919  1.9654 -0.0072 -1.3252
  973SOL    HW214556   4.693   2.216   2.064 -0.5793  0.5665 -0.6453
  974SOL     OW14557   3.804   1.892   4.297 -0.1383 -0.5389  0.2201
  974SOL    HW114558   3.899   1.905   4.297  0.0209 -1.6489 -0.4644
  974SOL    HW214559   3.790   1.974   4.343 -2.0022 -1.2349  0.8888
  975SOL     OW14560   2.596   2.339   3.751  0.2646 -0.1111 -0.3493
  975SOL    HW114561   2.689   2.354   3.737  0.0861  1.6074  0.3187
  975SOL    HW214562   2.569   2.416   3.800 -1.2584  0.0862 -1.4909
  976SOL     OW14563   3.393   4.638   6.413  0.0706  0.2066  0.1347
  976SOL    HW114564   3.444   4.711   6.377 -0.7017  0.6502 -0.0596
  976SOL    HW214565   3.394   4.655   6.507 -2.0124 -0.8525  0.3628
  977SOL     OW14566   3.297   4.089   9.265  0.1281 -0.2660  0.3187
  977SOL    HW114567   3.276   4.013   9.211 -2.0096  0.0782  0.6703
  977SOL    HW214568   3.300   4.057   9.355 -3.3711 -1.0934  0.1322
  978SOL     OW14569   1.510   4.538  11.564  0.9160  0.4322  0.4472
  978SOL    HW114570   1.435   4.595  11.548  0.9505 -0.2101 -1.9771
  978SOL    HW214571   1.480   4.496  11.645 -1.9204 -0.3338 -1.0272
  979SOL     OW14572   3.970   0.950   7.119  0.0952  0.1664  0.0572
  979SOL    HW114573   3.883   0.974   7.087 -0.0177  2.2830  1.9671
  979SOL    HW214574   3.964   0.868   7.167 -2.4718  0.2612 -0.0964
  980SOL     OW14575   2.785   2.217   7.873  0.3692 -0.2451  0.1604
  980SOL    HW114576   2.736   2.135   7.864 -0.3229  0.6198 -3.7291
  980SOL    HW214577   2.759   2.271   7.798 -1.2239  0.8460  1.4852
  981SOL     OW14578   2.118   0.116   4.185  0.3989 -0.1345 -0.1521
  981SOL    HW114579   2.140   0.089   4.095  0.2961  0.3907 -0.3373
  981SOL    HW214580   2.027   0.086   4.187 -0.0873  1.5151  1.7447
  982SOL     OW14581   3.955   0.458  11.403  0.2854  0.2856  0.2926
  982SOL    HW114582   3.924   0.472  11.313  2.9499  2.9939 -0.1718
  982SOL    HW214583   3.977   0.365  11.396 -0.6565  0.2235 -2.0998
  983SOL     OW14584   1.766   1.797   0.902  0.1037 -0.0645 -0.2444
  983SOL    HW114585   1.717   1.716   0.887  1.4066 -1.1335  1.2302
  983SOL    HW214586   1.845   1.763   0.945 -0.8060  1.8167  2.8831
  984SOL     OW14587   2.265   0.227   2.009 -0.0576 -0.0216 -0.5107
  984SOL    HW114588   2.304   0.273   2.083  1.6073  0.5762 -1.7762
  984SOL    HW214589   2.348   0.190   1.978 -0.5449 -0.0843 -1.7221
  985SOL     OW14590   0.681   3.302   7.180  0.1849 -0.4378 -0.2570
  985SOL    HW114591   0.674   3.376   7.240  1.0571  0.2301 -0.9905
  985SOL    HW214592   0.720   3.233   7.233  1.7990 -0.1774 -1.1136
  986SOL     OW14593   2.519   3.893   7.321  0.2789 -0.0885  0.0316
  986SOL    HW114594   2.540   3.964   7.259  0.8982 -0.3645 -0.0718
  986SOL    HW214595   2.481   3.822   7.269  0.8448 -1.2767  1.2641
  987SOL     OW14596   1.630   2.587   4.179 -0.1639 -0.2331 -0.2515
  987SOL    HW114597   1.684   2.666   4.186 -0.1902 -0.3510  1.4394
  987SOL    HW214598   1.544   2.626   4.163 -0.0010 -0.8021 -2.3929
  988SOL     OW14599   1.874   2.862  17.547 -0.9413  0.9329  0.5059
  988SOL    HW114600   1.816   2.921  17.595  0.3743  1.7446  1.1124
  988SOL    HW214601   1.951   2.836  17.599 -0.7496  1.2506  0.3819
  989SOL     OW14602   3.406   0.931   4.962  0.8325 -0.3795  0.3039
  989SOL    HW114603   3.350   0.958   5.035  1.1381 -0.9294  0.7526
  989SOL    HW214604   3.476   0.880   5.004  0.0014 -0.7923  1.1662
  990SOL     OW14605   2.961   2.926   8.426 -0.5544  0.1753 -0.0427
  990SOL    HW114606   2.943   2.896   8.515  0.5894  1.8054  0.7337
  990SOL    HW214607   2.871   2.937   8.395 -0.0847  1.1723 -1.0451
  991SOL     OW14608   0.955   0.522   2.620 -0.4971  0.0891  0.2963
  991SOL    HW114609   0.939   0.504   2.528 -0.2861  1.5458 -0.0340
  991SOL    HW214610   0.887   0.473   2.666 -1.6942 -0.3265 -1.9338
  992SOL     OW14611   1.362   3.995   6.495 -0.1172 -0.1377 -0.0483
  992SOL    HW114612   1.433   3.933   6.508  0.2535  0.0805 -1.0535
  992SOL    HW214613   1.416   4.064   6.457 -1.1410 -0.4706 -2.1121
  993SOL     OW14614   3.311   1.378   9.010  0.5375 -0.1157  0.3735
  993SOL    HW114615   3.253   1.343   8.942  0.0551 -0.4260  0.9433
  993SOL    HW214616   3.307   1.306   9.074  0.8251 -0.3751  0.1041
  994SOL     OW14617   4.305   2.295  11.591  0.1751  0.0803 -0.3298
  994SOL    HW114618   4.332   2.299  11.683 -0.2447 -0.6690 -0.1712
  994SOL    HW214619   4.211   2.279  11.582 -0.0135  2.2413 -2.1243
  995SOL     OW14620   3.795   0.314   1.286  1.1420  0.5909  0.1586
  995SOL    HW114621   3.743   0.388   1.254 -0.2990 -1.5641 -2.4891
  995SOL    HW214622   3.813   0.343   1.375  1.0657  1.1666 -0.0145
  996SOL     OW14623   4.540   3.912   3.269 -0.2444 -0.3060 -0.0758
  996SOL    HW114624   4.453   3.890   3.303  0.1218 -1.4844  0.1180
  996SOL    HW214625   4.578   3.828   3.241 -1.4616  0.5198 -4.1694
  997SOL     OW14626   2.500   4.643   9.031  0.3202 -0.1393 -0.0366
  997SOL    HW114627   2.494   0.003   9.023 -1.3212 -0.3684 -1.7013
  997SOL    HW214628   2.566   4.625   8.965 -0.4102  1.6903 -1.2716
  998SOL     OW14629   2.789   3.284   3.256  0.0133  0.0641  0.6014
  998SOL    HW114630   2.826   3.234   3.328  1.4919  0.9652  0.4686
  998SOL    HW214631   2.821   3.371   3.281 -0.3228  0.1979  0.5729
  999SOL     OW14632   1.557   2.370   9.027 -0.4186 -0.5401 -0.4563
  999SOL    HW114633   1.588   2.457   9.001 -2.3176  0.1731 -0.3304
  999SOL    HW214634   1.523   2.343   8.942 -0.2903 -0.8115 -0.4209
 1000SOL     OW14635   4.670   3.564   4.414 -0.8394  0.4501  0.4434
 1000SOL    HW114636   4.672   3.535   4.506 -0.2549 -0.4176  0.1602
 1000SOL    HW214637   4.652   3.478   4.377  1.1691 -0.0370  0.6019
 1001SOL     OW14638   4.598   0.513   6.175 -0.1730  0.2480 -0.0322
 1001SOL    HW114639   4.664   0.492   6.241 -0.4858 -0.7168 -0.0276
 1001SOL    HW214640   4.654   0.564   6.116 -1.2947  1.8565  0.2855
 1002SOL     OW14641   2.702   0.722   2.568  0.0370  0.1684  0.1417
 1002SOL    HW114642   2.626   0.729   2.626  0.5343  0.1563  0.7997
 1002SOL    HW214643   2.754   0.791   2.609  0.9357  0.1077 -0.8884
 1003SOL     OW14644   1.580   3.866  15.901  0.1917  0.4837  0.5714
 1003SOL    HW114645   1.566   3.930  15.971 -0.2727  0.0325  0.8866
 1003SOL    HW214646   1.636   3.919  15.843 -1.6721  0.4510 -1.2607
 1004SOL     OW14647   2.375   1.194   6.483  0.5687 -0.3980 -0.6245
 1004SOL    HW114648   2.469   1.205   6.492  0.3483  2.1853 -1.5406
 1004SOL    HW214649   2.375   1.143   6.402 -3.2396 -1.8781  0.3022
 1005SOL     OW14650   4.727   1.039   2.214  0.6433 -0.0220 -0.3182
 1005SOL    HW114651   0.062   1.041   2.149 -0.4130  0.5577 -1.4290
 1005SOL    HW214652   4.715   0.947   2.237 -0.9076  0.1787 -0.3585
 1006SOL     OW14653   3.128   0.104   1.354 -0.3439 -0.4393  0.0579
 1006SOL    HW114654   3.211   0.143   1.324 -1.8035  1.1953 -1.8858
 1006SOL    HW214655   3.158   0.013   1.358  2.2785  0.5441  2.8308
 1007SOL     OW14656   0.114   2.020   4.629 -0.2177  0.4770  0.3578
 1007SOL    HW114657   0.195   2.003   4.581 -0.5459 -2.9386  1.0750
 1007SOL    HW214658   0.125   2.115   4.643  0.8709  0.3128  0.6396
 1008SOL     OW14659   4.549   0.138  13.317 -0.1085  0.8517 -0.0252
 1008SOL    HW114660   4.501   0.209  13.360  1.5740  1.7686  0.3456
 1008SOL    HW214661   4.625   0.191  13.291 -0.0170  0.7854  0.1039
 1009SOL     OW14662   2.489   1.887   3.377  0.2606 -0.4641 -0.4827
 1009SOL    HW114663   2.527   1.891   3.464 -3.4143  0.6309  1.0844
 1009SOL    HW214664   2.495   1.792   3.369 -1.2750 -0.5595 -0.4821
 1010SOL     OW14665   3.677   2.608  11.661  0.2237  0.3748  0.1276
 1010SOL    HW114666   3.636   2.628  11.745 -0.2499  3.5151 -0.8413
 1010SOL    HW214667   3.675   2.696  11.623 -1.2110  0.7236  0.9846
 1011SOL     OW14668   0.875   3.401   8.729  0.5663  0.2305 -0.1446
 1011SOL    HW114669   0.953   3.449   8.756  1.9039 -1.9068 -0.1903
 1011SOL    HW214670   0.826   3.390   8.811 -0.2123 -0.1265 -0.6609
 1012SOL     OW14671   2.045   2.830  16.834 -0.3662 -0.6754  0.0714
 1012SOL    HW114672   2.042   2.901  16.899 -0.4906 -0.1738 -0.4798
 1012SOL    HW214673   2.102   2.863  16.764  0.5284  0.3780  1.2739
 1013SOL     OW14674   1.905   2.839   5.080 -0.3120  0.7347 -0.3658
 1013SOL    HW114675   1.997   2.847   5.104  0.1039 -0.5018 -1.5743
 1013SOL    HW214676   1.881   2.932   5.075  0.3424  0.9106 -0.1825
 1014SOL     OW14677   1.374   2.189  17.276  0.3728  0.0704 -0.0388
 1014SOL    HW114678   1.334   2.259  17.225  0.9462 -0.1890 -0.8405
 1014SOL    HW214679   1.463   2.174  17.243  1.7795  2.1272  2.7745
 1015SOL     OW14680   1.475   3.673   5.916 -0.6482  0.2913  0.4433
 1015SOL    HW114681   1.440   3.616   5.985 -0.3532  1.1515  1.3168
 1015SOL    HW214682   1.472   3.760   5.958 -1.6919  0.0563  0.8662
 1016SOL     OW14683   4.001   2.302   3.086 -0.1618 -0.2586  0.1175
 1016SOL    HW114684   3.924   2.291   3.142 -1.3733  0.8327 -1.3264
 1016SOL    HW214685   4.012   2.223   3.033  0.9469 -0.1633  0.2180
 1017SOL     OW14686   3.007   0.119   5.785  0.1922  0.5297  0.5650
 1017SOL    HW114687   2.973   0.046   5.732 -0.0118  0.9500  0.1176
 1017SOL    HW214688   3.028   0.180   5.714  1.5234 -1.0442 -0.3905
 1018SOL     OW14689   3.604   2.131   0.758  0.2768  0.1651  0.2972
 1018SOL    HW114690   3.555   2.211   0.738  0.5952  0.3346  0.1887
 1018SOL    HW214691   3.626   2.109   0.667 -0.8994 -1.4423  0.4111
 1019SOL     OW14692   1.663   3.793   4.016  0.8532 -0.6160  0.1841
 1019SOL    HW114693   1.724   3.753   4.079  1.0908  0.4558  0.6424
 1019SOL    HW214694   1.621   3.721   3.969  0.5535  0.3157 -0.9737
 1020SOL     OW14695   3.216   3.478   5.139 -0.0239  0.0868  0.2462
 1020SOL    HW114696   3.169   3.422   5.200  0.1199  0.3722  0.6185
 1020SOL    HW214697   3.300   3.480   5.184  1.3494 -0.7376 -2.2662
 1021SOL     OW14698   3.067   2.089   8.309  0.0352  0.1663  0.0515
 1021SOL    HW114699   3.041   2.101   8.218 -0.6951 -3.7246 -0.2578
 1021SOL    HW214700   2.988   2.042   8.338  0.3652 -1.2717 -1.3396
 1022SOL     OW14701   0.727   0.127   9.837 -0.2575 -0.0120 -0.1945
 1022SOL    HW114702   0.684   0.211   9.824 -2.2478 -0.9142  0.6823
 1022SOL    HW214703   0.709   0.079   9.755  0.3656 -0.2354 -0.2015
 1023SOL     OW14704   0.764   1.254   5.423 -1.0341  0.0365  0.6428
 1023SOL    HW114705   0.728   1.166   5.411  0.9315 -0.7857  0.8210
 1023SOL    HW214706   0.855   1.231   5.442 -1.4351 -2.3216 -0.3058
 1024SOL     OW14707   1.145   4.480   1.271 -0.1205  0.2601 -0.4095
 1024SOL    HW114708   1.238   4.502   1.276  0.7493 -3.1577 -1.1997
 1024SOL    HW214709   1.102   4.564   1.255 -0.9548  0.3151  2.1765
 1025SOL     OW14710   3.053   1.155  12.774  0.3969  0.2647  0.4039
 1025SOL    HW114711   2.981   1.095  12.752  1.8213 -1.4772  0.5432
 1025SOL    HW214712   3.031   1.217  12.704  1.2922 -0.3574 -0.4183
 1026SOL     OW14713   2.058   0.516   6.133 -0.2995  0.4629  0.3069
 1026SOL    HW114714   1.978   0.519   6.081 -0.5733 -1.4771  0.6087
 1026SOL    HW214715   2.045   0.597   6.183 -0.6926  0.4166  0.2810
 1027SOL     OW14716   4.709   0.656   8.384  0.1931  0.1619 -1.0332
 1027SOL    HW114717   4.726   0.740   8.427 -1.6595  0.5600 -1.0587
 1027SOL    HW214718   4.719   0.592   8.454 -1.5363  0.8571 -0.1298
 1028SOL     OW14719   1.668   2.240   5.597  0.0038 -0.4268 -0.9436
 1028SOL    HW114720   1.663   2.146   5.615  0.8891 -0.3709 -0.3592
 1028SOL    HW214721   1.595   2.286   5.638 -0.1101  0.3806 -2.0453
 1029SOL     OW14722   3.960   2.199  14.884 -0.3896 -0.2576  0.3867
 1029SOL    HW114723   3.921   2.233  14.964 -0.0646  1.7065 -0.2716
 1029SOL    HW214724   3.936   2.272  14.826  1.9095 -0.3842 -0.7271
 1030SOL     OW14725   2.324   2.689   8.320 -0.3575  0.2900 -0.5884
 1030SOL    HW114726   2.369   2.758   8.270  0.3609  0.3165  0.0859
 1030SOL    HW214727   2.375   2.611   8.300 -3.7987 -2.5466  1.7545
 1031SOL     OW14728   3.347   0.132   3.448 -0.2858  0.0091 -0.6284
 1031SOL    HW114729   3.432   0.151   3.407  0.1016  1.5983  0.9261
 1031SOL    HW214730   3.335   0.048   3.403  1.1455 -0.0540 -0.9042
 1032SOL     OW14731   2.205   0.469   5.606  0.5373 -0.7102 -0.3129
 1032SOL    HW114732   2.122   0.505   5.638  1.7311  1.7225  0.0267
 1032SOL    HW214733   2.227   0.511   5.523 -1.5041  0.6889 -0.1568
 1033SOL     OW14734   1.397   2.865   2.060  0.1621 -0.1404 -0.3944
 1033SOL    HW114735   1.346   2.860   2.141 -3.3858  1.7816 -2.4922
 1033SOL    HW214736   1.353   2.796   2.010  1.7660 -0.9280 -0.7197
 1034SOL     OW14737   1.982   1.705   1.050  0.3138  0.0882 -0.1995
 1034SOL    HW114738   2.077   1.719   1.047  0.3819 -0.3993 -0.3174
 1034SOL    HW214739   1.972   1.645   1.124 -3.6579  1.5758  0.5189
 1035SOL     OW14740   0.336   3.204  11.894  0.3237 -0.4299  0.0990
 1035SOL    HW114741   0.416   3.243  11.858 -0.4957  0.8762 -0.2944
 1035SOL    HW214742   0.380   3.149  11.960 -0.1292 -0.1187  0.6640
 1036SOL     OW14743   4.565   3.423   2.877  0.5899  0.0875 -0.1943
 1036SOL    HW114744   4.556   3.515   2.903  0.5531  0.7194 -2.4514
 1036SOL    HW214745   4.584   3.383   2.962  2.1950 -0.1564 -0.6725
 1037SOL     OW14746   3.942   2.024   9.245  0.3104  0.2284  0.1712
 1037SOL    HW114747   3.975   1.970   9.174  2.7049 -1.8821  2.8440
 1037SOL    HW214748   3.852   1.993   9.240 -0.1725  1.7287 -0.5259
 1038SOL     OW14749   3.400   1.271   2.872  0.3474 -0.0655 -0.0476
 1038SOL    HW114750   3.397   1.229   2.785  1.3648 -1.0641  0.3941
 1038SOL    HW214751   3.448   1.204   2.920 -0.7596  0.5287  1.8735
 1039SOL     OW14752   1.821   0.640   8.633 -0.0997  0.1661 -0.5676
 1039SOL    HW114753   1.898   0.630   8.577  1.1675 -0.4951  1.2814
 1039SOL    HW214754   1.861   0.647   8.720  1.0828 -0.5162 -1.0535
 1040SOL     OW14755   2.731   0.412   0.527 -0.0342  0.3534  0.3905
 1040SOL    HW114756   2.661   0.427   0.591  2.2681  0.4361  2.8950
 1040SOL    HW214757   2.689   0.405   0.441 -0.7210 -0.6934  0.8156
 1041SOL     OW14758   3.086   3.204  15.528 -0.1940 -0.4144  0.1585
 1041SOL    HW114759   3.083   3.290  15.486 -0.2879 -0.9641 -0.9419
 1041SOL    HW214760   3.094   3.215  15.623  1.4701 -2.6177  0.2730
 1042SOL     OW14761   2.255   4.699   6.760  0.8341 -0.2381  0.2384
 1042SOL    HW114762   2.276   4.618   6.806  0.8868 -1.1276 -1.3575
 1042SOL    HW214763   2.328   0.019   6.787 -0.4474  0.1220  2.9724
 1043SOL     OW14764   3.837   2.759   6.241 -0.6410 -0.1577 -0.6650
 1043SOL    HW114765   3.821   2.756   6.146 -0.5359 -2.1068 -0.6179
 1043SOL    HW214766   3.765   2.707   6.276  0.0313 -0.8803 -0.3562
 1044SOL     OW14767   1.246   0.127   5.967  0.1189 -0.6220 -0.0435
 1044SOL    HW114768   1.218   0.205   6.014  0.3572  0.1584 -1.2052
 1044SOL    HW214769   1.167   0.119   5.914  0.1428  0.9198 -0.3115
 1045SOL     OW14770   0.006   4.065   3.142 -0.0096 -0.0291  0.2943
 1045SOL    HW114771   0.014   4.007   3.217 -0.0022 -0.8089 -0.3155
 1045SOL    HW214772   4.688   4.131   3.188  0.4439 -0.7958  1.9233
 1046SOL     OW14773   3.922   1.830   1.870 -0.3699  0.0897 -0.1885
 1046SOL    HW114774   4.003   1.784   1.889 -1.2728 -1.1220  0.7273
 1046SOL    HW214775   3.951   1.874   1.791  0.8055 -2.3792 -1.1338
 1047SOL     OW14776   3.175   4.425   0.291 -0.2276  0.2893 -0.1042
 1047SOL    HW114777   3.193   4.376   0.211  0.8192  1.3588 -0.5326
 1047SOL    HW214778   3.080   4.430   0.285 -0.3861 -0.5899  1.7245
 1048SOL     OW14779   2.447   3.849  10.245  0.0433  0.0980 -0.7400
 1048SOL    HW114780   2.539   3.821  10.237  0.0744  0.0280 -0.1094
 1048SOL    HW214781   2.429   3.843  10.339  1.2556  0.7705 -0.4581
 1049SOL     OW14782   4.620   3.325  13.926 -0.0204  0.3508  0.6753
 1049SOL    HW114783   4.691   3.314  13.863 -1.7399 -0.8697 -1.0363
 1049SOL    HW214784   4.642   3.417  13.945 -2.3225  1.0846 -0.2255
 1050SOL     OW14785   0.701   4.399   2.975  0.5460  0.2476 -0.5263
 1050SOL    HW114786   0.649   4.468   3.016  3.2458  2.3461 -0.6545
 1050SOL    HW214787   0.678   4.319   3.024 -1.6261  0.4936 -1.1284
 1051SOL     OW14788   0.935   2.646   3.760 -0.1341  0.3630  0.3413
 1051SOL    HW114789   0.871   2.705   3.799 -2.2710 -0.8116 -1.3902
 1051SOL    HW214790   0.884   2.611   3.687  1.8087 -1.8015 -0.0171
 1052SOL     OW14791   0.409   3.934   5.293  0.1148 -0.0443 -0.2088
 1052SOL    HW114792   0.350   3.914   5.366  0.4916 -1.9210 -0.4077
 1052SOL    HW214793   0.495   3.933   5.336 -0.0407  0.2486  0.1079
 1053SOL     OW14794   4.109   2.702   5.017 -0.2667  0.3367  0.0708
 1053SOL    HW114795   4.021   2.675   5.045  1.2553 -3.6421  0.9707
 1053SOL    HW214796   4.130   2.626   4.962  0.0672  0.8102 -0.4592
 1054SOL     OW14797   2.918   0.548  17.548  0.4054 -0.3404  0.5446
 1054SOL    HW114798   2.893   0.579  17.461  0.9797 -0.5149  0.3206
 1054SOL    HW214799   2.993   0.600  17.575  0.3350  0.0675 -0.0687
 1055SOL     OW14800   1.359   3.349   8.976 -0.0629  0.3846  0.2343
 1055SOL    HW114801   1.279   3.310   9.011 -1.1491  0.9660 -1.5991
 1055SOL    HW214802   1.352   3.442   8.999 -0.6397  1.0082 -2.3862
 1056SOL     OW14803   4.183   1.564   5.640 -0.2446  0.2759 -0.1091
 1056SOL    HW114804   4.248   1.501   5.670  1.0599  2.2113  1.0797
 1056SOL    HW214805   4.233   1.615   5.576  1.4828 -1.1113  0.1373
 1057SOL     OW14806   2.570   2.156   3.036  0.3832  0.1331  0.0283
 1057SOL    HW114807   2.570   2.152   3.132  1.1564 -0.5382  0.0015
 1057SOL    HW214808   2.488   2.202   3.022 -0.8274 -1.4113  2.0887
 1058SOL     OW14809   2.155   1.332  17.508  0.0122  0.7904  0.0840
 1058SOL    HW114810   2.081   1.298  17.457 -0.1235  1.1825  0.0196
 1058SOL    HW214811   2.192   1.404  17.456 -0.0894 -0.6393 -1.9647
 1059SOL     OW14812   2.245   3.619   6.852  0.0832  0.0083  0.1475
 1059SOL    HW114813   2.242   3.709   6.884  2.5438 -1.3361  4.0950
 1059SOL    HW214814   2.337   3.601   6.830  1.0385  1.8187  2.6226
 1060SOL     OW14815   2.128   2.014   1.855  0.4007  0.2160  0.0112
 1060SOL    HW114816   2.048   1.964   1.870  0.8067 -0.1765  0.8771
 1060SOL    HW214817   2.171   1.960   1.790  1.8956  0.0596  1.1402
 1061SOL     OW14818   1.758   2.588  15.281 -0.2632  0.1950 -0.4517
 1061SOL    HW114819   1.757   2.532  15.204  2.3005 -1.9074  1.0669
 1061SOL    HW214820   1.848   2.620  15.282 -0.0606 -0.4296  1.0480
 1062SOL     OW14821   2.770   2.231   4.139  0.4716 -0.8025 -0.0357
 1062SOL    HW114822   2.805   2.318   4.119 -0.2688  0.0722  2.4996
 1062SOL    HW214823   2.702   2.251   4.204  1.0167  0.8708  0.0207
 1063SOL     OW14824   4.429   3.764  12.521  0.2248  0.0575  0.3419
 1063SOL    HW114825   4.429   3.840  12.464  1.2251  0.9205  1.4938
 1063SOL    HW214826   4.463   3.802  12.602 -0.1143 -1.6242  1.2703
 1064SOL     OW14827   4.727   0.554   2.324  0.1070  0.1521 -0.5735
 1064SOL    HW114828   0.063   0.497   2.292 -0.6041 -0.4709 -1.0451
 1064SOL    HW214829   4.672   0.491   2.371 -2.0795  1.0107 -2.0035
 1065SOL     OW14830   3.012   4.377  10.589 -0.1982 -0.0797 -0.2307
 1065SOL    HW114831   2.922   4.379  10.621  0.4551 -0.3909  1.5885
 1065SOL    HW214832   2.995   4.415  10.502  1.6833 -0.6537 -0.8352
 1066SOL     OW14833   0.128   1.051   1.778  0.0096  0.3214 -0.4424
 1066SOL    HW114834   0.055   1.036   1.718 -0.8846  0.4523  0.6168
 1066SOL    HW214835   0.176   1.115   1.724 -0.1508  0.6796 -0.1633
 1067SOL     OW14836   0.024   4.149   9.791 -0.0730 -0.2659  0.3937
 1067SOL    HW114837   0.019   4.239   9.759 -0.8501 -1.4183 -2.6906
 1067SOL    HW214838   4.732   4.152   9.883 -0.2043 -2.3353  0.4154
 1068SOL     OW14839   4.156   0.144   2.657 -0.0475  0.1672 -0.4295
 1068SOL    HW114840   4.233   0.155   2.714  0.2838  0.1359 -0.8669
 1068SOL    HW214841   4.087   0.159   2.721 -0.9178 -0.2811 -1.2568
 1069SOL     OW14842   4.079   0.971   6.837 -0.0986 -0.0387  0.3178
 1069SOL    HW114843   4.071   0.996   6.929 -1.7608  2.9527 -0.6273
 1069SOL    HW214844   4.035   0.886   6.841  0.6593 -0.4098  0.7233
 1070SOL     OW14845   1.729   1.373  13.739  0.9115 -0.1246  0.3032
 1070SOL    HW114846   1.711   1.305  13.803 -0.6578  0.1286  0.1165
 1070SOL    HW214847   1.649   1.425  13.736  1.2163  0.3817  0.9158
 1071SOL     OW14848   0.102   0.174   1.067  0.0774 -0.7126 -0.1772
 1071SOL    HW114849   0.082   0.260   1.106 -0.0106 -0.2055 -1.3480
 1071SOL    HW214850   0.062   0.193   0.982  1.4884 -3.1194 -1.3653
 1072SOL     OW14851   2.229   1.532   7.655  0.3835 -0.0475 -0.5486
 1072SOL    HW114852   2.134   1.541   7.653  0.1986 -1.8113  0.2357
 1072SOL    HW214853   2.225   1.487   7.740 -1.4225 -0.1699 -0.6880
 1073SOL     OW14854   1.993   0.450  14.645  0.8975 -0.1174  0.3510
 1073SOL    HW114855   2.002   0.361  14.680  3.3861 -0.2408 -0.6107
 1073SOL    HW214856   2.057   0.497  14.697  2.8969 -0.5730 -1.6967
 1074SOL     OW14857   3.869   0.808   6.464  0.2146  0.0983  0.4454
 1074SOL    HW114858   3.825   0.825   6.380 -2.7597  0.6368  2.1307
 1074SOL    HW214859   3.819   0.731   6.489  1.3237 -0.8447 -0.2182
 1075SOL     OW14860   4.408   3.983  12.370  0.3420  0.2369  0.2313
 1075SOL    HW114861   4.417   4.075  12.347  0.0063  0.1417 -0.2676
 1075SOL    HW214862   4.364   3.945  12.294  0.4902 -0.0770  0.2995
 1076SOL     OW14863   4.445   2.835   1.691 -0.3111 -0.0342 -0.2501
 1076SOL    HW114864   4.430   2.745   1.720 -0.0827  0.2409  0.7469
 1076SOL    HW214865   4.540   2.834   1.695 -0.3569  0.2113  1.0804
 1077SOL     OW14866   1.769   1.222  13.162 -0.3222 -1.0051 -0.0367
 1077SOL    HW114867   1.838   1.210  13.227 -0.7277  2.0407  0.9316
 1077SOL    HW214868   1.795   1.155  13.098 -2.3304 -0.9183 -0.9500
 1078SOL     OW14869   4.661   4.315  16.924 -0.0533  0.1743 -0.2376
 1078SOL    HW114870   4.593   4.352  16.981  0.8827  1.2845  0.1510
 1078SOL    HW214871   4.602   4.266  16.867  1.4443 -1.6372 -0.2523
 1079SOL     OW14872   2.672   0.978  15.164  0.2005 -0.0056 -0.4842
 1079SOL    HW114873   2.692   1.065  15.201 -1.1431  0.4001 -0.7220
 1079SOL    HW214874   2.677   1.010  15.074  0.1695 -2.2107 -1.2475
 1080SOL     OW14875   3.687   1.369   2.611 -0.2838  0.0181 -0.1972
 1080SOL    HW114876   3.669   1.283   2.573 -0.0781  0.0130 -0.2831
 1080SOL    HW214877   3.772   1.387   2.571  0.0921 -1.0276  0.1232
 1081SOL     OW14878   3.438   1.205   6.863 -0.4990  0.0692  0.1065
 1081SOL    HW114879   3.443   1.289   6.818 -0.1427  0.3916  0.7458
 1081SOL    HW214880   3.347   1.175   6.859 -0.5444  0.0716  1.1433
 1082SOL     OW14881   3.761   1.194  13.660 -0.4467  0.0888 -0.0564
 1082SOL    HW114882   3.800   1.168  13.743 -0.5686 -1.2287 -0.4046
 1082SOL    HW214883   3.767   1.111  13.613 -1.6286  0.6940 -1.2937
 1083SOL     OW14884   3.850   2.703   9.963 -0.6487  1.2156  0.2173
 1083SOL    HW114885   3.772   2.744   9.926  0.1779 -0.6404 -3.6025
 1083SOL    HW214886   3.815   2.622  10.000  0.4646  0.4062 -0.5044
 1084SOL     OW14887   0.631   1.081   1.924  0.0585  0.2171 -0.2714
 1084SOL    HW114888   0.667   1.170   1.929  0.0425  0.1336  1.4141
 1084SOL    HW214889   0.588   1.086   2.009  1.0596  1.2400  0.1806
 1085SOL     OW14890   1.746   1.263   5.315 -0.5437  0.1686  0.3582
 1085SOL    HW114891   1.769   1.318   5.240  1.9185 -0.3986  0.6999
 1085SOL    HW214892   1.788   1.183   5.285 -0.1887 -0.1284  1.6422
 1086SOL     OW14893   2.537   3.163   7.342 -0.3501  0.2593  0.4073
 1086SOL    HW114894   2.614   3.208   7.307  0.9583 -0.4257  2.3911
 1086SOL    HW214895   2.522   3.097   7.274 -0.2108 -0.3066  0.9210
 1087SOL     OW14896   4.023   2.574   7.869  0.4077 -0.3734 -0.0235
 1087SOL    HW114897   4.016   2.485   7.904 -0.3738  0.2589  1.4424
 1087SOL    HW214898   4.116   2.591   7.883  0.3826 -0.3916  0.1682
 1088SOL     OW14899   4.627   1.353  13.284 -0.3618  0.5159 -0.6119
 1088SOL    HW114900   4.696   1.399  13.236 -0.1659  1.5301  0.6480
 1088SOL    HW214901   4.583   1.431  13.319  0.9618 -0.0821  2.3136
 1089SOL     OW14902   2.886   4.369   1.145  0.4428 -0.1408  0.0047
 1089SOL    HW114903   2.830   4.445   1.156  1.1074  0.5111 -1.0549
 1089SOL    HW214904   2.846   4.325   1.070 -3.6658 -1.2638  2.9139
 1090SOL     OW14905   0.701   3.833   6.711  0.0552 -0.1589 -0.1519
 1090SOL    HW114906   0.690   3.887   6.634  1.7354  1.5824  0.8288
 1090SOL    HW214907   0.616   3.847   6.753  0.2346  1.3695 -0.3025
 1091SOL     OW14908   0.335   0.155   8.068 -0.6407  0.4247  0.0558
 1091SOL    HW114909   0.428   0.156   8.044 -0.9399  0.5950 -1.1065
 1091SOL    HW214910   0.306   0.212   7.997  0.3351  1.7265  0.7032
 1092SOL     OW14911   3.542   1.266   3.241 -0.3712  0.5312  0.1318
 1092SOL    HW114912   3.611   1.212   3.204 -2.3605 -0.7491 -1.6836
 1092SOL    HW214913   3.595   1.332   3.286  2.0637 -0.6329 -1.0401
 1093SOL     OW14914   2.521   3.908   4.211 -0.1299 -0.2384 -0.2459
 1093SOL    HW114915   2.589   3.840   4.212  0.0898 -0.0308 -0.6970
 1093SOL    HW214916   2.459   3.871   4.273 -3.6299  0.9204 -3.0530
 1094SOL     OW14917   4.554   1.637   5.943  0.1046  0.2951  0.2692
 1094SOL    HW114918   4.516   1.550   5.939 -0.2677  0.4209  1.1843
 1094SOL    HW214919   4.487   1.687   5.989 -0.3321  0.8982 -1.0179
 1095SOL     OW14920   1.612   1.004   3.834  0.0561 -0.1884 -0.1462
 1095SOL    HW114921   1.679   0.968   3.893 -0.5189  0.4929  0.9283
 1095SOL    HW214922   1.576   1.079   3.882  0.6282 -0.6912  1.0665
 1096SOL     OW14923   4.224   1.217   3.387 -0.2192 -0.4993 -0.3560
 1096SOL    HW114924   4.204   1.247   3.476  0.8971  1.1298 -0.6588
 1096SOL    HW214925   4.223   1.126   3.416  0.7631 -0.3502  0.1373
 1097SOL     OW14926   2.443   1.176   6.787 -0.3904  0.0664 -0.1169
 1097SOL    HW114927   2.450   1.264   6.825  0.2951  0.5688 -1.4036
 1097SOL    HW214928   2.536   1.154   6.775 -0.1780 -0.0840  1.7491
 1098SOL     OW14929   2.786   3.337  16.843  0.2369 -0.1106 -0.0309
 1098SOL    HW114930   2.825   3.280  16.777 -1.8791 -1.3531 -0.2273
 1098SOL    HW214931   2.870   3.354  16.886 -0.9006  0.3381  2.0596
 1099SOL     OW14932   1.538   0.353   3.272 -0.5726 -0.4210  0.4102
 1099SOL    HW114933   1.579   0.439   3.281 -2.1689  0.4481 -0.6920
 1099SOL    HW214934   1.489   0.351   3.354 -0.9519  1.4638  0.2126
 1100SOL     OW14935   3.987   4.455   8.058  0.4266  0.4442 -0.2815
 1100SOL    HW114936   4.021   4.427   7.973  0.4795  0.9245 -0.4180
 1100SOL    HW214937   3.928   4.384   8.083  1.7655 -0.7877 -0.5962
 1101SOL     OW14938   1.973   0.820  12.960 -0.3274  0.1113 -0.0343
 1101SOL    HW114939   1.937   0.742  13.001  0.0745 -0.4903 -0.8219
 1101SOL    HW214940   1.993   0.791  12.871 -2.7990 -0.0934 -0.5001
 1102SOL     OW14941   3.922   1.680   5.462  0.2850 -0.2387  0.4381
 1102SOL    HW114942   3.892   1.741   5.395  1.0003  0.2048  0.5207
 1102SOL    HW214943   3.976   1.745   5.508 -1.2283  1.4329 -0.1723
 1103SOL     OW14944   3.289   4.220  12.418  0.0113  0.1644  0.5916
 1103SOL    HW114945   3.236   4.193  12.344  0.8194  1.6692 -0.5369
 1103SOL    HW214946   3.353   4.149  12.424 -0.3491 -0.2509 -0.5308
 1104SOL     OW14947   2.519   1.466   6.808  0.3670 -0.3396 -0.2231
 1104SOL    HW114948   2.539   1.504   6.722  1.0828 -0.3005 -0.0378
 1104SOL    HW214949   2.568   1.521   6.870  0.9003 -3.5865  2.2164
 1105SOL     OW14950   0.290   0.730   3.665  0.4934  0.6127  0.2196
 1105SOL    HW114951   0.294   0.749   3.759  0.0303 -0.5622  0.4726
 1105SOL    HW214952   0.285   0.635   3.674 -1.2427  0.6898 -0.0023
 1106SOL     OW14953   3.451   2.634   9.105 -0.1150 -0.3114 -0.0464
 1106SOL    HW114954   3.526   2.687   9.081 -0.2060  0.1334  0.6585
 1106SOL    HW214955   3.452   2.631   9.201  1.9486  1.2418 -0.0273
 1107SOL     OW14956   2.538   3.316  16.982  0.5968  0.0575  0.8025
 1107SOL    HW114957   2.614   3.359  16.942  0.3341  0.5127  0.8070
 1107SOL    HW214958   2.526   3.244  16.920  2.1472 -0.0046  0.5719
 1108SOL     OW14959   1.867   3.277   5.319  0.3565  0.2554  0.0787
 1108SOL    HW114960   1.912   3.304   5.398 -0.0163 -1.5299  0.9014
 1108SOL    HW214961   1.862   3.359   5.270 -0.3013  0.5262  0.5984
 1109SOL     OW14962   1.035   3.823   2.762  1.0904 -0.0651  0.5284
 1109SOL    HW114963   1.091   3.803   2.837  0.6347 -0.8862  0.6449
 1109SOL    HW214964   1.098   3.807   2.691 -3.4681 -1.8735 -3.0856
 1110SOL     OW14965   0.555   4.466   8.241  0.1238  0.1691  0.6471
 1110SOL    HW114966   0.597   4.501   8.163 -0.3514 -2.4535 -0.7731
 1110SOL    HW214967   0.598   4.381   8.245 -1.1180 -0.4995 -0.4207
 1111SOL     OW14968   1.111   0.256  14.121 -0.4947  0.4329  0.2798
 1111SOL    HW114969   1.159   0.339  14.111  2.1119 -1.1045  0.0664
 1111SOL    HW214970   1.026   0.295  14.144 -0.8519 -0.2532  0.0998
 1112SOL     OW14971   3.720   1.580   2.134  0.1701 -0.1641  0.2304
 1112SOL    HW114972   3.667   1.622   2.066  0.2832  0.2909  0.4227
 1112SOL    HW214973   3.751   1.514   2.072  1.5900  1.4430 -0.7727
 1113SOL     OW14974   0.155   4.269   2.156  0.9078 -0.4733 -0.1618
 1113SOL    HW114975   0.237   4.318   2.163  0.8738 -0.0838 -2.5444
 1113SOL    HW214976   0.151   4.264   2.061 -0.8275  0.0031 -0.1206
 1114SOL     OW14977   0.435   1.811   7.990 -0.5417 -0.1451  0.0934
 1114SOL    HW114978   0.407   1.902   8.001 -0.1085  0.1984 -1.7498
 1114SOL    HW214979   0.515   1.811   8.043 -0.9337 -3.5021  0.6764
 1115SOL     OW14980   1.978   2.670   0.132 -0.1405 -0.1256 -0.2412
 1115SOL    HW114981   1.883   2.681   0.139  0.1019  1.6710  0.0716
 1115SOL    HW214982   2.011   2.600   0.188 -0.3292  1.8057  2.2447
 1116SOL     OW14983   3.598   3.813  17.694 -0.9052 -0.2625  0.4372
 1116SOL    HW114984   3.629   3.829   0.042  2.9794  0.5518 -1.1002
 1116SOL    HW214985   3.605   3.900  17.655  2.0005 -0.8853 -0.4198
 1117SOL     OW14986   3.066   1.835   5.317 -0.3534  0.4217  0.6787
 1117SOL    HW114987   3.024   1.873   5.394 -0.5004 -4.1270  2.8489
 1117SOL    HW214988   3.146   1.791   5.349 -0.4658 -1.8704 -2.2476
 1118SOL     OW14989   1.903   1.407   1.327  0.7975  0.2905 -0.0072
 1118SOL    HW114990   1.814   1.374   1.339 -0.1350  3.7630  2.8642
 1118SOL    HW214991   1.905   1.480   1.389  1.8371  1.2732 -1.2135
 1119SOL     OW14992   3.327   3.031   4.829  0.0728 -0.7111 -0.2981
 1119SOL    HW114993   3.401   3.058   4.775 -2.9743  1.3797 -3.4072
 1119SOL    HW214994   3.284   3.114   4.849  0.8641 -0.4663  0.3973
 1120SOL     OW14995   1.168   1.651   6.305  0.5171  0.0556  0.0833
 1120SOL    HW114996   1.261   1.666   6.322 -0.1376  4.1223  0.0680
 1120SOL    HW214997   1.147   1.737   6.341 -1.1866  0.2796 -1.4409
 1121SOL     OW14998   4.475   0.276   3.069  0.4464 -0.4464  0.0603
 1121SOL    HW114999   4.435   0.321   3.144 -0.0736  2.5366 -2.0469
 1121SOL    HW215000   4.557   0.241   3.104  0.6068 -1.8126 -1.6962
 1122SOL     OW15001   4.648   4.525   8.483  0.3868 -0.1763 -0.0467
 1122SOL    HW115002   4.620   4.552   8.396 -1.5841 -0.8326  0.3920
 1122SOL    HW215003   4.577   4.564   8.535 -0.5148 -0.3245 -1.1841
 1123SOL     OW15004   0.813   0.080   2.438 -0.0447  0.2881  0.7714
 1123SOL    HW115005   0.804   0.001   2.491 -0.4998 -0.0148  0.2383
 1123SOL    HW215006   0.736   0.122   2.476 -0.7013  2.9896 -3.5223
 1124SOL     OW15007   1.790   4.627  12.738  0.1910 -0.1271 -0.4278
 1124SOL    HW115008   1.791   4.596  12.828 -0.2210 -0.5561 -0.5695
 1124SOL    HW215009   1.754   4.556  12.684 -1.1603 -1.3666  2.1543
 1125SOL     OW15010   2.188   0.163  11.578 -0.2021 -0.3460  0.0333
 1125SOL    HW115011   2.233   0.092  11.531 -0.8387 -0.7429  0.0216
 1125SOL    HW215012   2.194   0.129  11.667  2.3760  0.3500  0.1160
 1126SOL     OW15013   0.915   3.683   3.042  0.3499 -0.0995 -0.2669
 1126SOL    HW115014   0.943   3.607   2.991  1.8035  1.1560 -1.3439
 1126SOL    HW215015   0.820   3.681   3.035  0.3596 -2.6089  0.1526
 1127SOL     OW15016   2.968   3.157  17.058 -0.0379 -0.1701 -0.1621
 1127SOL    HW115017   2.978   3.251  17.043 -0.1362 -0.3995 -1.7604
 1127SOL    HW215018   2.945   3.127  16.969 -0.2855 -0.9567  0.1691
 1128SOL     OW15019   1.538   1.734   7.613  0.6936 -0.1132  0.4434
 1128SOL    HW115020   1.523   1.640   7.609  2.6479 -0.4021 -0.0746
 1128SOL    HW215021   1.463   1.761   7.665 -0.6338 -0.5753 -1.2423
 1129SOL     OW15022   1.108   0.825   0.535 -0.5380  0.1977 -0.0226
 1129SOL    HW115023   1.124   0.898   0.475  0.5964  0.7474  0.9620
 1129SOL    HW215024   1.138   0.873   0.612  0.0999  0.6916 -0.5749
 1130SOL     OW15025   3.772   0.784  12.390 -0.2367  0.4967  0.1848
 1130SOL    HW115026   3.770   0.878  12.406 -1.0235  0.5224 -0.0602
 1130SOL    HW215027   3.680   0.765  12.408  0.7592 -3.7009  0.9692
 1131SOL     OW15028   1.570   1.450   7.569 -0.2734  0.2060 -0.0518
 1131SOL    HW115029   1.622   1.396   7.510  0.1820  1.4850 -0.8215
 1131SOL    HW215030   1.621   1.446   7.650  1.3352 -2.3186 -1.1857
 1132SOL     OW15031   2.646   0.342   6.441  0.9626 -0.4803 -0.1767
 1132SOL    HW115032   2.629   0.426   6.485  0.0846 -0.5543 -0.3800
 1132SOL    HW215033   2.668   0.380   6.356  2.4010  1.7999  1.1815
 1133SOL     OW15034   2.656   1.997   7.844  0.1702  0.1798  1.1470
 1133SOL    HW115035   2.653   1.951   7.760 -1.6133 -1.7371  2.2601
 1133SOL    HW215036   2.610   1.935   7.901  0.5093 -0.3433  0.8570
 1134SOL     OW15037   3.728   0.099   9.383  0.1144 -0.5450  0.3929
 1134SOL    HW115038   3.762   0.021   9.426  1.9216  1.3917  2.4500
 1134SOL    HW215039   3.635   0.081   9.364  0.3447 -2.2594  0.8904
 1135SOL     OW15040   2.606   1.435   2.250  0.8004  0.9727  0.4124
 1135SOL    HW115041   2.559   1.501   2.199 -1.9414  0.4206  2.2645
 1135SOL    HW215042   2.537   1.371   2.264 -0.9878  2.6517 -0.8002
 1136SOL     OW15043   1.696   4.586   9.142 -0.2100 -0.1595 -0.2165
 1136SOL    HW115044   1.754   4.624   9.208 -0.2830  1.1684 -0.9156
 1136SOL    HW215045   1.751   4.516   9.107 -1.2650 -0.4177 -1.3450
 1137SOL     OW15046   3.273   2.343   4.033 -0.0667  0.0975  0.4250
 1137SOL    HW115047   3.244   2.268   3.982 -1.0853  0.7880 -0.0216
 1137SOL    HW215048   3.338   2.385   3.977  1.9392  0.1047  2.7547
 1138SOL     OW15049   2.305   1.971  12.309 -0.0490  0.0087 -0.0482
 1138SOL    HW115050   2.292   1.920  12.229 -2.0354  0.3844  0.0329
 1138SOL    HW215051   2.230   1.949  12.365 -0.8105  0.1259 -1.0315
 1139SOL     OW15052   4.246   1.441   9.047  0.1439  0.7784 -0.1204
 1139SOL    HW115053   4.283   1.415   9.132 -2.9754 -1.7640  0.4770
 1139SOL    HW215054   4.315   1.502   9.024 -0.2201  1.4733  0.6325
 1140SOL     OW15055   3.827   3.400   2.961  0.1750 -0.4797  0.2463
 1140SOL    HW115056   3.780   3.448   2.892 -0.9293  0.9701  1.9762
 1140SOL    HW215057   3.786   3.314   2.954  0.3861 -0.5197 -0.4805
 1141SOL     OW15058   2.764   4.166  14.469  0.3216  0.3461  0.1687
 1141SOL    HW115059   2.829   4.195  14.404  1.1115 -0.8607  0.4098
 1141SOL    HW215060   2.803   4.083  14.497  2.0257  1.4008  0.9316
 1142SOL     OW15061   2.739   3.586  10.359 -0.4142  0.4325 -0.7597
 1142SOL    HW115062   2.741   3.588  10.455 -1.0746 -0.0634 -0.7342
 1142SOL    HW215063   2.696   3.502  10.347  1.9072 -0.7902 -0.5647
 1143SOL     OW15064   0.370   1.266   4.773  0.9467  0.2000 -0.0587
 1143SOL    HW115065   0.366   1.339   4.835 -3.8934 -0.8092  0.8135
 1143SOL    HW215066   0.290   1.275   4.721  1.6236 -0.0412 -1.1377
 1144SOL     OW15067   2.299   3.698   8.643  0.2603 -0.0635 -0.2403
 1144SOL    HW115068   2.363   3.769   8.647 -1.0453  1.1313 -0.6097
 1144SOL    HW215069   2.318   3.669   8.554 -0.7221 -1.1427 -0.0952
 1145SOL     OW15070   0.168   1.538   3.389  0.3701 -0.3561  0.0589
 1145SOL    HW115071   0.157   1.486   3.309  0.6824 -0.4689  0.0895
 1145SOL    HW215072   0.075   1.560   3.391  0.2875 -0.7825  1.1254
 1146SOL     OW15073   3.532   1.531   5.839  0.0778  0.2340  0.1621
 1146SOL    HW115074   3.581   1.515   5.919 -0.1516 -0.0523  0.2461
 1146SOL    HW215075   3.600   1.561   5.779 -0.0034 -0.3346 -0.2198
 1147SOL     OW15076   3.595   1.918   8.658  0.4475  0.0393  0.4432
 1147SOL    HW115077   3.527   1.986   8.660 -0.1199 -0.5035 -0.2883
 1147SOL    HW215078   3.601   1.892   8.566 -0.0963  1.6725 -0.0634
 1148SOL     OW15079   1.158   2.209  12.734  0.1734 -0.9347  0.2726
 1148SOL    HW115080   1.105   2.279  12.696  0.3357  0.0123  1.7387
 1148SOL    HW215081   1.234   2.224  12.678  0.1089 -0.3527  0.3383
 1149SOL     OW15082   4.503   4.302   5.777 -0.0634 -0.0353 -0.4703
 1149SOL    HW115083   4.513   4.370   5.844  2.5951 -1.8241  0.9544
 1149SOL    HW215084   4.514   4.217   5.819  0.6631  1.1881  1.8164
 1150SOL     OW15085   4.498   0.258  12.918 -0.1620 -0.1557  0.0463
 1150SOL    HW115086   4.495   0.221  12.830  1.4989 -0.0330 -0.0754
 1150SOL    HW215087   4.501   0.172  12.960 -0.4574 -0.7085 -1.0649
 1151SOL     OW15088   4.351   3.026   9.557 -0.3920 -0.6811 -0.3067
 1151SOL    HW115089   4.335   3.104   9.503 -2.4357 -1.6342 -1.0752
 1151SOL    HW215090   4.360   2.951   9.498 -1.2990 -0.7951 -0.3066
 1152SOL     OW15091   3.803   1.543   4.001 -0.1790  0.0084  0.6574
 1152SOL    HW115092   3.852   1.622   4.021 -1.8367  1.5071 -1.2134
 1152SOL    HW215093   3.741   1.553   4.073 -0.2458  0.6671  0.5043
 1153SOL     OW15094   3.834   2.062   3.206 -0.5758  0.4657 -0.8856
 1153SOL    HW115095   3.876   1.978   3.191 -1.2532  0.4849 -2.9415
 1153SOL    HW215096   3.771   2.060   3.134 -0.5439  0.2526 -0.9062
 1154SOL     OW15097   4.542   0.482   6.580  0.1729 -0.2350 -0.0816
 1154SOL    HW115098   4.551   0.560   6.635 -1.2738  1.1089 -1.7596
 1154SOL    HW215099   4.573   0.421   6.647  0.0637 -0.5384 -0.3084
 1155SOL     OW15100   0.985   1.656  15.202 -0.3698 -0.0381  0.2039
 1155SOL    HW115101   0.933   1.612  15.269  0.6350 -2.1922 -0.4230
 1155SOL    HW215102   1.059   1.689  15.252 -0.5971  1.3585 -0.3893
 1156SOL     OW15103   4.565   1.076  12.340  0.6533 -0.0185 -0.5014
 1156SOL    HW115104   4.625   1.119  12.401 -0.8471  0.9994  0.2697
 1156SOL    HW215105   4.579   1.133  12.264  0.6201  1.9116  0.9438
 1157SOL     OW15106   3.243   0.414   6.683 -0.0572  0.0011  0.0190
 1157SOL    HW115107   3.153   0.447   6.683 -1.0039 -2.5837  1.8465
 1157SOL    HW215108   3.259   0.395   6.591 -0.8325  1.5899 -0.4496
 1158SOL     OW15109   1.910   4.529   4.305 -0.3270 -0.7729  0.0618
 1158SOL    HW115110   2.005   4.518   4.307 -0.0528  1.2788 -1.4496
 1158SOL    HW215111   1.866   4.484   4.377 -2.9012  1.3393 -0.1834
 1159SOL     OW15112   1.603   3.563  10.595  0.0824  0.4250  0.1072
 1159SOL    HW115113   1.656   3.539  10.519 -0.3080  0.2754 -0.1196
 1159SOL    HW215114   1.672   3.569  10.661  0.4912  1.5393 -0.4326
 1160SOL     OW15115   1.376   1.855   3.819 -0.3543 -0.1245  0.2946
 1160SOL    HW115116   1.454   1.819   3.861  1.9265  1.0835 -2.9576
 1160SOL    HW215117   1.331   1.888   3.897 -0.2709  2.3821 -0.7125
 1161SOL     OW15118   4.629   0.901  14.125  0.2947  0.1952  0.3188
 1161SOL    HW115119   4.596   0.920  14.037 -0.0320 -1.3895  0.0991
 1161SOL    HW215120   4.574   0.823  14.136  0.0024  0.5638  1.4415
 1162SOL     OW15121   3.120   1.020  15.411 -0.2677  0.7985  0.3768
 1162SOL    HW115122   3.152   0.967  15.484 -0.5536  0.6821  0.4213
 1162SOL    HW215123   3.189   1.082  15.388  0.6132 -1.2707 -2.6205
 1163SOL     OW15124   4.499   0.486   2.029  0.5794  0.5383 -0.0843
 1163SOL    HW115125   4.540   0.432   1.961  0.7481 -1.7157  1.8002
 1163SOL    HW215126   4.407   0.462   2.025  0.8182 -0.0954 -1.8069
 1164SOL     OW15127   2.275   0.176  12.398 -0.5999  0.1322  0.2864
 1164SOL    HW115128   2.196   0.224  12.374  0.0778  1.3211  0.4356
 1164SOL    HW215129   2.256   0.090  12.361 -0.2007 -0.0841  0.5815
 1165SOL     OW15130   0.108   0.684   7.256 -0.0065  0.1329  0.2791
 1165SOL    HW115131   0.094   0.595   7.288  2.0386 -1.3047 -2.8246
 1165SOL    HW215132   0.064   0.687   7.171  0.6845 -0.5911 -0.0967
 1166SOL     OW15133   0.547   4.040   6.075  0.4994  0.0396 -0.7308
 1166SOL    HW115134   0.541   4.120   6.126  1.3925 -0.3768  0.0402
 1166SOL    HW215135   0.630   4.051   6.028 -0.1684  1.2801 -1.5987
 1167SOL     OW15136   2.239   2.020   1.389  0.0284 -0.5517 -0.0179
 1167SOL    HW115137   2.158   2.009   1.439  0.8491 -1.2354  1.1325
 1167SOL    HW215138   2.205   2.057   1.307  1.6509 -0.1954 -0.5280
 1168SOL     OW15139   1.304   2.538   6.003 -0.0186 -0.5575 -0.0412
 1168SOL    HW115140   1.273   2.585   6.081 -0.6905 -0.1336 -0.5679
 1168SOL    HW215141   1.239   2.538   5.934 -1.1986 -1.8445  1.0740
 1169SOL     OW15142   0.014   1.886   2.515 -0.3928  0.3860  0.1511
 1169SOL    HW115143   0.054   1.945   2.579  0.7451 -0.0563 -0.1411
 1169SOL    HW215144   4.735   1.945   2.441 -0.5349 -0.1358 -0.2340
 1170SOL     OW15145   0.868   4.027   7.291 -0.0690  0.0940  0.2559
 1170SOL    HW115146   0.776   4.029   7.263  0.5802  0.0036 -1.8481
 1170SOL    HW215147   0.866   4.043   7.386 -1.6534  0.1538  0.2247
 1171SOL     OW15148   0.814   1.797   7.905  0.0133 -0.2890  0.1073
 1171SOL    HW115149   0.782   1.863   7.966 -0.1534 -0.2419 -0.0291
 1171SOL    HW215150   0.770   1.826   7.825  1.7115 -1.5953 -1.2895
 1172SOL     OW15151   2.739   1.440   6.377 -0.1523  0.4024  0.1107
 1172SOL    HW115152   2.671   1.389   6.420  0.3871 -0.5278 -0.1374
 1172SOL    HW215153   2.769   1.379   6.310  1.9394  0.9727  0.5181
 1173SOL     OW15154   2.481   1.637   5.492  0.2878  0.2314  0.1914
 1173SOL    HW115155   2.569   1.599   5.495 -0.9973 -2.8170 -0.4623
 1173SOL    HW215156   2.457   1.624   5.400  0.0095  0.4381  0.2360
 1174SOL     OW15157   1.279   2.456   8.286  0.1854 -0.3393 -0.5074
 1174SOL    HW115158   1.351   2.518   8.282 -0.0873  0.0435  0.6480
 1174SOL    HW215159   1.238   2.476   8.202  1.9460  0.4161 -1.1811
 1175SOL     OW15160   0.939   0.472   8.761  0.7429 -0.3236 -0.4129
 1175SOL    HW115161   0.998   0.441   8.830  1.4537  1.4245 -0.2201
 1175SOL    HW215162   0.999   0.465   8.686  0.7670 -1.9877 -0.2329
 1176SOL     OW15163   1.790   3.731   1.307 -0.5498 -0.0830 -0.1308
 1176SOL    HW115164   1.762   3.770   1.225  0.2807 -0.6963 -0.7007
 1176SOL    HW215165   1.876   3.769   1.326 -1.4399  1.2365  1.2261
 1177SOL     OW15166   1.160   2.673   1.501  0.2294 -0.2351  0.3191
 1177SOL    HW115167   1.089   2.659   1.439 -0.0513  1.1843  0.3272
 1177SOL    HW215168   1.174   2.768   1.503 -0.5066 -0.1142 -0.6746
 1178SOL     OW15169   2.497   1.681   8.586  0.1081 -0.2561 -0.6106
 1178SOL    HW115170   2.569   1.622   8.567 -0.6884 -1.6459  0.6446
 1178SOL    HW215171   2.541   1.764   8.569  0.1615 -0.1244  0.1721
 1179SOL     OW15172   3.506   0.015   7.860  0.3555 -0.2230  0.1899
 1179SOL    HW115173   3.542   0.103   7.863  0.1779 -0.1238 -0.6133
 1179SOL    HW215174   3.512   4.724   7.768 -0.8128 -0.5398  0.2108
 1180SOL     OW15175   0.497   3.217  13.320 -0.1379  0.3929 -0.4451
 1180SOL    HW115176   0.591   3.216  13.336 -0.5875 -0.6050  2.1256
 1180SOL    HW215177   0.478   3.307  13.347  1.5648  0.5093  0.3325
 1181SOL     OW15178   0.129   4.599   7.125  0.8457  0.4452  0.1634
 1181SOL    HW115179   0.122   4.688   7.090 -0.9962  1.0583  2.0378
 1181SOL    HW215180   0.140   4.614   7.219 -0.8952  1.1049  0.2654
 1182SOL     OW15181   1.121   4.319   6.310 -0.2796 -0.2985  0.5027
 1182SOL    HW115182   1.051   4.289   6.253  1.1949  0.7973 -1.8944
 1182SOL    HW215183   1.092   4.291   6.397  0.3167 -0.6567  0.5884
 1183SOL     OW15184   2.502   4.272  10.743 -0.1693  0.2210  0.1763
 1183SOL    HW115185   2.537   4.261  10.831 -0.5558  0.3209  0.3417
 1183SOL    HW215186   2.422   4.315  10.773 -1.6127 -2.9462  0.9282
 1184SOL     OW15187   0.383   4.176   7.602  0.1593  0.2171 -0.0521
 1184SOL    HW115188   0.348   4.192   7.690  1.5423  0.8476  0.3800
 1184SOL    HW215189   0.462   4.130   7.630  0.2858  0.3589 -0.1817
 1185SOL     OW15190   4.307   0.213   4.520  0.6401 -0.4379  0.3383
 1185SOL    HW115191   4.285   0.298   4.482  1.3443  0.5896  2.1714
 1185SOL    HW215192   4.276   0.234   4.608  1.4421  0.7507  0.3514
 1186SOL     OW15193   1.932   1.877   6.000  0.5606  0.0351 -0.1513
 1186SOL    HW115194   1.934   1.783   5.982 -0.5446  0.1609 -0.9688
 1186SOL    HW215195   1.926   1.901   5.907 -0.0727  0.5105  0.0103
 1187SOL     OW15196   0.266   1.668   3.059  0.5630  0.4748 -0.1312
 1187SOL    HW115197   0.229   1.649   2.973 -0.2604  2.4985 -0.2214
 1187SOL    HW215198   0.187   1.668   3.113  0.0347 -0.1910 -0.9105
 1188SOL     OW15199   1.431   4.586  15.953 -0.1743  0.0795  0.0990
 1188SOL    HW115200   1.349   4.580  15.905 -0.0878  1.3480 -0.2046
 1188SOL    HW215201   1.418   4.528  16.028 -0.1277 -0.3937 -0.2615
 1189SOL     OW15202   2.445   0.785   1.063  0.0918 -0.0895 -0.3145
 1189SOL    HW115203   2.480   0.836   0.990  1.0726  0.3157  0.4407
 1189SOL    HW215204   2.478   0.697   1.046 -1.5784 -1.2036  2.1725
 1190SOL     OW15205   2.167   1.737   4.804 -0.4499  0.2009  0.4531
 1190SOL    HW115206   2.187   1.818   4.758 -0.6996  0.3404  0.5903
 1190SOL    HW215207   2.130   1.762   4.889 -2.8373 -0.8018 -0.2955
 1191SOL     OW15208   4.190   1.827   8.926  0.2243 -0.8737 -0.2411
 1191SOL    HW115209   4.129   1.790   8.990 -3.2475  0.4591 -2.7625
 1191SOL    HW215210   4.234   1.893   8.979 -2.7953 -0.1037  1.3388
 1192SOL     OW15211   2.400   0.238  15.572  0.1125  0.6684  0.2308
 1192SOL    HW115212   2.483   0.217  15.615 -0.1658  0.7269  0.7952
 1192SOL    HW215213   2.424   0.268  15.484  3.0828  1.3685  1.2498
 1193SOL     OW15214   2.051   1.508  13.276 -0.4497  0.3140 -0.0471
 1193SOL    HW115215   2.029   1.417  13.253  3.5549 -0.6830  0.1389
 1193SOL    HW215216   2.117   1.526  13.210 -0.9836  0.8899 -0.4253
 1194SOL     OW15217   2.901   3.370   9.027 -0.0104 -0.7948 -0.2823
 1194SOL    HW115218   2.936   3.442   8.974  1.3244 -1.0471  0.2809
 1194SOL    HW215219   2.875   3.396   9.115 -2.3387  3.1085 -2.0891
 1195SOL     OW15220   2.387   1.006   4.713  0.5328 -0.7277  0.1830
 1195SOL    HW115221   2.412   1.057   4.636  0.9572  0.7697  1.3093
 1195SOL    HW215222   2.317   1.060   4.751  0.9467 -1.8731  2.6222
 1196SOL     OW15223   2.142   1.348   5.546  0.2559  0.9762 -0.4208
 1196SOL    HW115224   2.236   1.367   5.546  1.0655 -2.9633  0.6531
 1196SOL    HW215225   2.115   1.409   5.478 -0.7614  2.6035  1.4294
 1197SOL     OW15226   1.216   0.683   5.277 -0.1236  0.5745 -0.8849
 1197SOL    HW115227   1.257   0.765   5.301  1.5549 -0.7995  0.8885
 1197SOL    HW215228   1.239   0.682   5.184 -1.9527 -1.1531 -1.3172
 1198SOL     OW15229   3.984   1.014   8.898 -0.1857 -0.8568 -0.2487
 1198SOL    HW115230   3.919   1.070   8.939 -1.6981 -2.6911 -0.1126
 1198SOL    HW215231   3.956   0.932   8.940 -1.2199 -0.4105 -0.0604
 1199SOL     OW15232   0.525   2.733   7.923  0.4429  0.1679  0.5798
 1199SOL    HW115233   0.614   2.769   7.918  0.3127  0.6853  1.9966
 1199SOL    HW215234   0.493   2.782   7.999 -1.1860 -0.8943  0.5849
 1200SOL     OW15235   2.509   0.727  13.381 -0.5622 -0.4410 -0.2115
 1200SOL    HW115236   2.575   0.725  13.450  0.1884 -2.4712 -0.9857
 1200SOL    HW215237   2.449   0.791  13.420 -0.1095  1.6519 -2.9332
 1201SOL     OW15238   1.614   1.505   0.586 -0.2726  0.3429  0.1334
 1201SOL    HW115239   1.539   1.482   0.531 -0.3523  0.1556  0.3209
 1201SOL    HW215240   1.681   1.442   0.560 -1.8598 -0.7368 -1.3515
 1202SOL     OW15241   3.757   1.090   6.594 -0.5088 -0.3721 -0.3244
 1202SOL    HW115242   3.802   1.011   6.564  3.2250  0.5338  2.9249
 1202SOL    HW215243   3.667   1.056   6.592 -0.8840  0.6092 -0.5497
 1203SOL     OW15244   1.090   2.278   5.113  0.3439  0.0341 -0.2577
 1203SOL    HW115245   1.017   2.222   5.089 -0.3485  1.3262 -1.2034
 1203SOL    HW215246   1.065   2.366   5.086  0.3491  0.5778  1.4899
 1204SOL     OW15247   0.361   0.325  10.450  0.2874  1.0056  0.4471
 1204SOL    HW115248   0.428   0.377  10.406  0.9728  0.3765  0.7473
 1204SOL    HW215249   0.286   0.380  10.427 -0.7122 -0.1844  0.8816
 1205SOL     OW15250   2.155   0.949   2.918 -0.2131  0.7819  0.3927
 1205SOL    HW115251   2.113   0.986   2.840  0.4025  2.5495  0.9142
 1205SOL    HW215252   2.080   0.947   2.977 -2.0224  0.8485 -1.8921
 1206SOL     OW15253   3.392   2.534  16.622 -0.2264 -0.0994  0.0323
 1206SOL    HW115254   3.388   2.614  16.675 -2.7476  0.6330 -1.2454
 1206SOL    HW215255   3.305   2.494  16.627 -1.1272  1.6939 -1.3109
 1207SOL     OW15256   1.736   2.242   0.892 -0.8495  0.0568 -0.4216
 1207SOL    HW115257   1.703   2.180   0.826 -1.6536  0.4880 -0.4126
 1207SOL    HW215258   1.830   2.249   0.873 -0.6559 -0.5170  0.3216
 1208SOL     OW15259   3.764   0.849   6.223 -0.0918 -0.1251  0.0932
 1208SOL    HW115260   3.699   0.917   6.205  0.0152  0.2189  1.0129
 1208SOL    HW215261   3.800   0.835   6.135 -0.2567  0.3511 -0.0456
 1209SOL     OW15262   2.403   4.711   1.171  0.4127  0.3354  0.1386
 1209SOL    HW115263   2.391   0.000   1.079  0.2781  0.5577  0.2165
 1209SOL    HW215264   2.457   0.047   1.202  0.0298 -0.5154  2.7640
 1210SOL     OW15265   2.176   3.042   4.393 -0.8579  0.1647 -0.8408
 1210SOL    HW115266   2.168   3.004   4.305 -1.3655 -0.2472 -0.6189
 1210SOL    HW215267   2.249   3.103   4.382  0.2636 -0.7061  1.9113
 1211SOL     OW15268   1.053   3.299  14.714 -0.0388  0.4131 -0.0755
 1211SOL    HW115269   1.020   3.211  14.695  0.4598  0.4198 -0.9539
 1211SOL    HW215270   1.070   3.328  14.625 -0.4008  0.3478 -0.1675
 1212SOL     OW15271   2.673   4.036   6.244 -0.2573 -0.1743 -0.5210
 1212SOL    HW115272   2.763   4.006   6.252 -0.4752 -0.1626  1.8776
 1212SOL    HW215273   2.662   4.076   6.330  0.2238 -1.1385 -0.0157
 1213SOL     OW15274   0.436   4.520   5.951  0.3662 -0.7808  0.0669
 1213SOL    HW115275   0.369   4.538   5.884  0.7440  1.1061  0.1991
 1213SOL    HW215276   0.430   4.589   6.016 -1.3722 -0.0524 -0.8697
 1214SOL     OW15277   1.544   1.367   4.009 -0.1675 -0.0630 -0.0554
 1214SOL    HW115278   1.553   1.377   3.914  0.8049 -1.3278 -0.1114
 1214SOL    HW215279   1.453   1.343   4.025 -0.2299  1.3478  1.6451
 1215SOL     OW15280   1.659   2.645   7.040  0.1087  0.5854  0.6812
 1215SOL    HW115281   1.591   2.596   7.087 -0.5841 -0.8577 -1.8313
 1215SOL    HW215282   1.605   2.713   7.001  1.4415  0.5467 -1.2263
 1216SOL     OW15283   3.149   4.559   6.043  0.3557  0.1890  0.5649
 1216SOL    HW115284   3.132   4.647   6.075 -1.7582 -0.6592  1.8089
 1216SOL    HW215285   3.071   4.535   5.993  0.0968 -2.3186  2.1533
 1217SOL     OW15286   4.039   0.637   4.509  0.2343  0.4764 -0.3727
 1217SOL    HW115287   4.002   0.550   4.525 -0.3393  1.0238  1.3530
 1217SOL    HW215288   4.029   0.641   4.414  0.9522  2.6523 -0.3658
 1218SOL     OW15289   2.408   2.444   5.390  0.1516  0.7413  0.0639
 1218SOL    HW115290   2.419   2.357   5.352 -1.0064 -0.2533  2.0507
 1218SOL    HW215291   2.323   2.431   5.433  0.4204 -0.5000  0.1991
 1219SOL     OW15292   0.232   3.883   7.002 -0.3211 -0.5502  0.0936
 1219SOL    HW115293   0.175   3.806   7.008 -0.1285 -0.7208 -0.2858
 1219SOL    HW215294   0.164   3.950   6.998 -0.1265 -0.4528 -1.8013
 1220SOL     OW15295   0.534   4.398  17.635 -0.1473 -0.2448 -0.6401
 1220SOL    HW115296   0.483   4.479  17.626  1.5771  0.9479  0.3276
 1220SOL    HW215297   0.589   4.422  17.709  0.2046 -3.9015  0.2579
 1221SOL     OW15298   2.486   1.897   3.024  0.2907 -1.0283  0.1879
 1221SOL    HW115299   2.524   1.985   3.028  0.0179 -0.7782 -3.0097
 1221SOL    HW215300   2.561   1.854   3.065 -0.1112 -0.1420  1.8861
 1222SOL     OW15301   1.822   0.613   4.012 -0.1676 -0.0611  0.3882
 1222SOL    HW115302   1.766   0.544   4.048 -2.7153  1.1402 -1.3021
 1222SOL    HW215303   1.899   0.568   4.048 -1.1001 -2.0062 -0.0770
 1223SOL     OW15304   1.944   3.349   8.200  0.0044  0.0421 -0.0203
 1223SOL    HW115305   1.874   3.334   8.264  0.3218  0.2019  0.3614
 1223SOL    HW215306   1.927   3.440   8.176 -0.0629 -1.0434 -4.1900
 1224SOL     OW15307   2.544   2.827   6.843  0.3252 -0.4405 -0.2700
 1224SOL    HW115308   2.459   2.785   6.857 -0.1653  0.3771 -0.8234
 1224SOL    HW215309   2.536   2.872   6.759 -0.9985 -0.4206 -0.1265
 1225SOL     OW15310   0.531   2.704  14.852  0.3577  0.3606  0.4626
 1225SOL    HW115311   0.438   2.717  14.835  1.4132  4.2905 -2.3821
 1225SOL    HW215312   0.547   2.720  14.945  1.1743  0.3977  0.3188
 1226SOL     OW15313   3.826   2.829  15.830  0.1974  0.1130 -0.0926
 1226SOL    HW115314   3.866   2.806  15.746 -0.4465  0.0601 -0.3863
 1226SOL    HW215315   3.895   2.881  15.872  0.5765  0.7064 -1.4487
 1227SOL     OW15316   0.264   3.807   3.683 -0.3252 -0.4374 -0.0443
 1227SOL    HW115317   0.181   3.815   3.730 -0.5974  4.3425 -1.3206
 1227SOL    HW215318   0.277   3.713   3.673 -2.3841 -0.8584  1.1194
 1228SOL     OW15319   1.536   1.188   6.129 -0.1235 -0.2771 -0.7878
 1228SOL    HW115320   1.576   1.195   6.043  2.4038 -0.3227  0.3774
 1228SOL    HW215321   1.560   1.097   6.145  0.2303 -0.0090  0.2065
 1229SOL     OW15322   0.223   2.186  13.617 -0.0801 -0.1801 -0.2041
 1229SOL    HW115323   0.214   2.162  13.709 -2.2696  0.9803 -0.1411
 1229SOL    HW215324   0.251   2.277  13.620 -3.7429  0.9080  0.1124
 1230SOL     OW15325   0.088   1.704   3.799 -0.3064 -0.1845 -0.0142
 1230SOL    HW115326   0.150   1.704   3.725 -1.3844 -1.0267 -0.9130
 1230SOL    HW215327   0.065   1.611   3.807 -1.0036 -0.1116 -1.2481
 1231SOL     OW15328   0.584   1.077  11.033  0.1407 -0.3100 -0.8261
 1231SOL    HW115329   0.530   1.118  11.101 -1.7980  0.0835 -2.6180
 1231SOL    HW215330   0.668   1.075  11.079 -1.3704  2.4455  2.0753
 1232SOL     OW15331   0.878   3.155   4.204  0.2088 -0.6736 -0.0334
 1232SOL    HW115332   0.943   3.086   4.217  0.4306 -0.3982  0.3099
 1232SOL    HW215333   0.935   3.211   4.151  0.7140  0.6588  1.9227
 1233SOL     OW15334   0.712   0.649   8.520  0.4437 -0.4639  0.1520
 1233SOL    HW115335   0.795   0.649   8.568  0.2752  1.2316  0.4147
 1233SOL    HW215336   0.719   0.557   8.493  0.0584 -0.2597 -0.6299
 1234SOL     OW15337   1.295   3.735   4.443  0.3190 -0.0433  0.3771
 1234SOL    HW115338   1.240   3.658   4.457 -1.2282  0.5808 -2.2864
 1234SOL    HW215339   1.304   3.776   4.529  0.0755  0.6655  0.0698
 1235SOL     OW15340   0.418   3.486  15.614 -0.0809 -0.0548  0.3227
 1235SOL    HW115341   0.362   3.521  15.683  0.3669  2.6892 -0.7043
 1235SOL    HW215342   0.412   3.555  15.548  2.0083 -0.6312 -0.4556
 1236SOL     OW15343   2.839   2.284   6.871 -0.1900  0.2795  0.2849
 1236SOL    HW115344   2.887   2.306   6.951 -1.1160  1.0842  0.6136
 1236SOL    HW215345   2.806   2.372   6.853 -1.0094 -0.1013 -0.0932
 1237SOL     OW15346   3.506   4.353   3.008  0.5053 -0.3527 -0.6004
 1237SOL    HW115347   3.502   4.300   3.088 -2.4234 -0.1799 -0.6312
 1237SOL    HW215348   3.538   4.440   3.033  1.0730 -0.5211 -0.7533
 1238SOL     OW15349   1.068   3.827   5.308 -0.5017  0.5312 -0.0082
 1238SOL    HW115350   1.011   3.757   5.277  1.7711 -0.9930 -0.7668
 1238SOL    HW215351   1.012   3.870   5.373  2.0860  2.2782  1.0825
 1239SOL     OW15352   3.955   4.233   8.981 -0.3943  0.5472 -0.3802
 1239SOL    HW115353   3.914   4.255   8.896 -0.0326 -0.4689 -0.8151
 1239SOL    HW215354   3.882   4.178   9.009  0.0249 -0.5876 -1.5057
 1240SOL     OW15355   2.856   3.744   5.725  0.1885 -0.1932 -0.2472
 1240SOL    HW115356   2.857   3.648   5.717  0.5727 -0.1925 -0.2241
 1240SOL    HW215357   2.949   3.754   5.749  0.2219 -1.8461  0.3140
 1241SOL     OW15358   0.691   1.841   5.500 -0.7372 -0.1781  0.6470
 1241SOL    HW115359   0.606   1.808   5.472 -0.8883  1.9505 -1.4211
 1241SOL    HW215360   0.720   1.888   5.421  0.4193 -0.6688  0.7717
 1242SOL     OW15361   1.501   3.054   7.755 -0.1646 -0.4611 -0.0274
 1242SOL    HW115362   1.515   2.971   7.710 -1.4589 -2.3538  3.0608
 1242SOL    HW215363   1.418   3.088   7.721  0.2850  0.9254  0.2624
 1243SOL     OW15364   0.725   3.780   2.017 -0.4970  0.1369  0.0830
 1243SOL    HW115365   0.673   3.754   1.941 -0.8338 -0.4945  0.5298
 1243SOL    HW215366   0.787   3.708   2.021 -1.8049 -1.1132 -2.1883
 1244SOL     OW15367   1.954   2.141   3.059 -0.1790  0.1569 -0.0345
 1244SOL    HW115368   1.964   2.185   3.144 -3.7183  0.9317 -0.0370
 1244SOL    HW215369   1.865   2.154   3.027  0.2091 -1.0064 -1.5389
 1245SOL     OW15370   4.605   4.055   9.610  0.0689 -0.5309 -0.1980
 1245SOL    HW115371   4.645   4.110   9.677  0.3357 -0.3675 -0.4859
 1245SOL    HW215372   4.517   4.092   9.602 -0.7584 -2.3005  0.8268
 1246SOL     OW15373   3.034   1.152   6.606 -0.1337 -0.1911  0.5548
 1246SOL    HW115374   2.979   1.222   6.641 -0.6778 -1.6319  2.5999
 1246SOL    HW215375   3.075   1.120   6.687 -0.9987 -1.5666  0.4623
 1247SOL     OW15376   1.938   2.713   6.999 -0.3707  0.3785  0.1332
 1247SOL    HW115377   1.950   2.749   7.087  2.4477 -0.2131  0.0011
 1247SOL    HW215378   1.845   2.693   7.008 -0.2448 -0.7048 -1.0676
 1248SOL     OW15379   2.253   0.410   5.067  0.7604 -0.7016 -0.0901
 1248SOL    HW115380   2.287   0.394   4.979 -1.7059  1.8154 -1.5023
 1248SOL    HW215381   2.330   0.402   5.123  0.3577 -0.4281  0.4983
 1249SOL     OW15382   4.356   1.012   4.396 -0.5662  0.3214 -0.8139
 1249SOL    HW115383   4.425   1.016   4.463 -1.8300 -1.1193  0.5616
 1249SOL    HW215384   4.286   0.963   4.439 -0.6321  0.2924 -0.9564
 1250SOL     OW15385   2.553   0.317   7.058 -0.0955  0.1094 -0.4898
 1250SOL    HW115386   2.494   0.392   7.056 -0.8902 -0.4691  1.7808
 1250SOL    HW215387   2.526   0.271   6.979 -2.3102 -0.6242  0.6964
 1251SOL     OW15388   3.125   3.813   8.983 -0.1158 -0.6227 -0.8420
 1251SOL    HW115389   3.122   3.798   8.889  3.0339  0.0640 -1.0243
 1251SOL    HW215390   3.217   3.797   9.002 -0.8798  0.2689  3.6032
 1252SOL     OW15391   2.070   4.432   8.277 -0.2315  0.8558 -0.4182
 1252SOL    HW115392   2.112   4.506   8.321 -2.7979  0.2855  3.0148
 1252SOL    HW215393   2.147   4.379   8.255 -0.6013 -0.2278  0.8980
 1253SOL     OW15394   1.806   1.898   4.053  0.1926  0.7862  0.0645
 1253SOL    HW115395   1.775   1.922   4.141 -1.1636 -1.4664  0.2149
 1253SOL    HW215396   1.831   1.806   4.061  0.7504  0.9255 -0.0731
 1254SOL     OW15397   2.911   0.116   6.383 -0.2249  0.4106  0.1548
 1254SOL    HW115398   2.893   0.080   6.470  1.6575 -0.7069  0.0814
 1254SOL    HW215399   2.911   0.210   6.399 -0.2218  0.1830  1.4820
 1255SOL     OW15400   2.692   0.032   6.171  0.0497  0.1134  0.5148
 1255SOL    HW115401   2.760   0.057   6.234  2.6420  0.2405 -2.2728
 1255SOL    HW215402   2.630   0.105   6.180  0.0926  0.2177 -0.0402
 1256SOL     OW15403   0.839   4.581   0.341 -0.3664 -0.4141 -0.3892
 1256SOL    HW115404   0.794   4.613   0.420 -1.5876 -1.6843 -0.5647
 1256SOL    HW215405   0.920   4.546   0.378 -0.6525  0.5911  1.2195
 1257SOL     OW15406   0.708   1.261   8.387  0.0065  0.2861 -0.2710
 1257SOL    HW115407   0.660   1.326   8.336 -1.2448 -0.6315 -0.2515
 1257SOL    HW215408   0.781   1.315   8.418 -0.2607 -0.6032  1.9165
 1258SOL     OW15409   3.636   3.928   0.239  0.3468 -0.0750  0.3530
 1258SOL    HW115410   3.716   3.945   0.288 -0.0569  1.1059  0.6182
 1258SOL    HW215411   3.589   3.867   0.296 -1.6439  1.2053  0.0983
 1259SOL     OW15412   3.625   4.529   1.607  0.3500 -0.3007 -0.3367
 1259SOL    HW115413   3.609   4.523   1.512  2.6295  0.3212 -0.7509
 1259SOL    HW215414   3.613   4.439   1.638  1.5956 -0.0838  0.7589
 1260SOL     OW15415   0.149   4.440  15.125  0.3754  0.2296  0.2462
 1260SOL    HW115416   0.195   4.408  15.048  0.4869  0.2866  0.2892
 1260SOL    HW215417   0.067   4.475  15.091 -0.4411 -0.0908  1.8954
 1261SOL     OW15418   4.593   2.879   2.044  0.3324 -0.1807 -0.1061
 1261SOL    HW115419   4.646   2.940   2.095  0.7528 -0.0348 -0.7160
 1261SOL    HW215420   4.600   2.905   1.952 -0.1781 -2.5495 -0.8209
 1262SOL     OW15421   1.791   1.277   0.558 -0.1730  0.2678  0.3916
 1262SOL    HW115422   1.709   1.251   0.516  0.2800  1.1639 -1.0542
 1262SOL    HW215423   1.848   1.226   0.501 -1.7395  1.9179 -2.6560
 1263SOL     OW15424   2.407   4.496   1.838 -0.3507 -0.8163 -0.0501
 1263SOL    HW115425   2.430   4.559   1.770  0.1497 -0.2670  0.6251
 1263SOL    HW215426   2.452   4.538   1.911 -0.5807 -1.0304  0.2132
 1264SOL     OW15427   2.816   4.235   0.060 -0.0645 -0.4521 -0.1521
 1264SOL    HW115428   2.835   4.323   0.095  1.3296 -1.1187  0.7744
 1264SOL    HW215429   2.738   4.245   0.006 -0.5285 -0.0148  0.6028
 1265SOL     OW15430   4.471   2.531   1.680  0.2865  0.0139  0.5497
 1265SOL    HW115431   4.424   2.455   1.645  1.5856 -0.0431 -1.0919
 1265SOL    HW215432   4.484   2.485   1.763  0.0707 -1.7742 -0.4045
 1266SOL     OW15433   3.270   3.633  15.681 -0.0886  0.2822 -0.0254
 1266SOL    HW115434   3.314   3.550  15.694 -0.7880 -0.1766 -0.5665
 1266SOL    HW215435   3.325   3.695  15.633 -0.4025  1.3008  0.9307
 1267SOL     OW15436   0.185   2.765   7.397 -0.8847  0.7920  0.5866
 1267SOL    HW115437   0.207   2.771   7.490 -1.5220  0.0427  0.7825
 1267SOL    HW215438   0.138   2.682   7.398  0.1766  0.1771 -0.0470
 1268SOL     OW15439   0.492   0.210   8.998  0.3935 -0.1357  0.0327
 1268SOL    HW115440   0.516   0.120   8.978 -1.7291 -0.5303 -0.7065
 1268SOL    HW215441   0.571   0.260   8.980  1.0965 -0.7523  1.4035
 1269SOL     OW15442   3.206   1.145   1.449  0.1152  0.0604 -0.1699
 1269SOL    HW115443   3.260   1.154   1.528 -3.7513 -0.0441  2.4386
 1269SOL    HW215444   3.185   1.238   1.437 -0.1172  0.0557  0.1902
 1270SOL     OW15445   3.484   0.623   6.358 -0.3423  0.3031 -0.6083
 1270SOL    HW115446   3.464   0.633   6.451 -0.2255  0.9779 -0.6555
 1270SOL    HW215447   3.415   0.665   6.308  0.9240  1.5424 -1.3087
 1271SOL     OW15448   2.497   1.069   9.431 -0.6832 -0.2252  0.4194
 1271SOL    HW115449   2.504   1.019   9.350 -0.7579 -1.3135  1.0925
 1271SOL    HW215450   2.498   1.156   9.391  1.8736  0.0639  1.0908
 1272SOL     OW15451   3.839   3.844  13.921 -0.1239 -0.3930 -0.3001
 1272SOL    HW115452   3.801   3.861  13.834 -1.1635 -0.3358  0.1681
 1272SOL    HW215453   3.878   3.930  13.938  0.1092 -0.3959 -0.8090
 1273SOL     OW15454   4.463   2.276   4.860 -0.3304 -0.0516  0.2910
 1273SOL    HW115455   4.461   2.230   4.777 -0.6199  3.0733 -1.4378
 1273SOL    HW215456   4.548   2.320   4.863  0.6607 -2.0320  1.3736
 1274SOL     OW15457   1.797   0.927   7.146 -0.3738  0.0538  0.1971
 1274SOL    HW115458   1.715   0.968   7.118 -0.7619 -1.6248 -1.1404
 1274SOL    HW215459   1.769   0.838   7.167 -0.9574  0.3202  0.5442
 1275SOL     OW15460   3.555   3.063   1.922 -0.0107  0.4418  0.3067
 1275SOL    HW115461   3.544   3.136   1.983 -0.7244  2.0114 -1.6593
 1275SOL    HW215462   3.481   3.009   1.950 -1.0429  1.3676 -0.6444
 1276SOL     OW15463   0.044   3.048   3.144 -0.0935  0.2202  0.1026
 1276SOL    HW115464   0.105   3.015   3.078 -0.9332 -0.4746 -0.3454
 1276SOL    HW215465   4.731   2.965   3.145 -0.2439  0.3591  2.7015
 1277SOL     OW15466   4.039   1.620   9.033  0.0492  0.0574 -0.0207
 1277SOL    HW115467   4.122   1.573   9.041  0.6493  1.4379  1.9420
 1277SOL    HW215468   3.996   1.606   9.117  2.0529  1.5842  1.2377
 1278SOL     OW15469   1.604   0.482   4.106  0.3686  0.1168  0.5302
 1278SOL    HW115470   1.608   0.448   4.196  0.6890 -3.5622 -0.8497
 1278SOL    HW215471   1.601   0.400   4.057 -0.6374  0.8402 -0.6001
 1279SOL     OW15472   4.214   1.254  13.739 -0.5910 -0.0221  0.1703
 1279SOL    HW115473   4.279   1.211  13.794 -2.1622 -1.4163  0.9245
 1279SOL    HW215474   4.278   1.303  13.688 -0.4252  0.1039  0.5022
 1280SOL     OW15475   1.714   3.683   8.783  0.3802  0.2973  0.7366
 1280SOL    HW115476   1.680   3.758   8.735 -1.4179 -3.0780 -3.3555
 1280SOL    HW215477   1.695   3.713   8.871 -1.4075 -0.9577  0.8037
 1281SOL     OW15478   1.590   3.422  10.219 -0.8198  0.3123  0.0909
 1281SOL    HW115479   1.661   3.481  10.244 -1.1619  0.1567  1.4533
 1281SOL    HW215480   1.524   3.439  10.286 -0.1614  2.6017  0.1470
 1282SOL     OW15481   1.326   3.119   6.364  0.2198  0.1235  0.6685
 1282SOL    HW115482   1.260   3.156   6.306  1.6080  1.9385  0.2596
 1282SOL    HW215483   1.372   3.066   6.299  0.2909  2.5131 -1.1910
 1283SOL     OW15484   2.416   1.734   4.951  0.5565  0.4758 -0.1797
 1283SOL    HW115485   2.437   1.721   4.859  0.3080  0.7328 -0.2733
 1283SOL    HW215486   2.321   1.746   4.947  0.5617  0.5135 -0.1835
 1284SOL     OW15487   0.740   1.396   5.973  0.6008  0.3059 -0.1327
 1284SOL    HW115488   0.785   1.346   5.904  1.3923 -0.0859  0.6714
 1284SOL    HW215489   0.821   1.425   6.015  0.6284  1.1846 -0.8101
 1285SOL     OW15490   0.206   4.175   3.748  0.0165 -0.3357  0.0396
 1285SOL    HW115491   0.149   4.104   3.779 -0.1684 -0.5885 -0.8750
 1285SOL    HW215492   0.231   4.135   3.666 -3.4710 -0.3626 -1.0067
 1286SOL     OW15493   4.734   1.142   4.004  0.5746 -0.4494  0.7189
 1286SOL    HW115494   4.683   1.061   3.997  0.0791 -0.2872  2.4020
 1286SOL    HW215495   0.057   1.114   4.075 -0.3370 -1.6298  1.0029
 1287SOL     OW15496   3.703   3.932   9.239 -0.3893 -0.5099 -0.1470
 1287SOL    HW115497   3.695   3.983   9.159 -0.9744 -0.6442 -0.1683
 1287SOL    HW215498   3.716   4.004   9.302 -0.7128  0.4345 -1.1589
 1288SOL     OW15499   2.239   1.517   6.843 -0.1313 -0.1981  0.2747
 1288SOL    HW115500   2.220   1.424   6.853  2.0217 -0.6732 -0.2104
 1288SOL    HW215501   2.333   1.518   6.829 -0.2002 -0.0951 -0.1695
 1289SOL     OW15502   4.684   2.579   6.071  0.0338 -0.9056 -0.3617
 1289SOL    HW115503   0.021   2.629   6.109 -0.5749 -0.6953  0.5373
 1289SOL    HW215504   4.725   2.520   6.008  0.7918 -3.6057  2.6243
 1290SOL     OW15505   0.333   1.955   2.528 -0.4376 -0.3017 -0.1240
 1290SOL    HW115506   0.279   1.889   2.571 -2.2583  0.9668 -0.4881
 1290SOL    HW215507   0.298   1.947   2.439 -0.0791 -3.3576  0.0002
 1291SOL     OW15508   3.315   4.710   1.007  0.0500 -0.1621  0.1307
 1291SOL    HW115509   3.231   4.720   0.962 -0.6968 -1.3393  1.2355
 1291SOL    HW215510   3.339   0.067   1.011  0.2196 -0.2493  1.1519
 1292SOL     OW15511   3.746   0.259  15.161 -0.0344 -0.3034  0.2076
 1292SOL    HW115512   3.716   0.175  15.195  1.3930 -0.9703 -0.1564
 1292SOL    HW215513   3.675   0.269  15.097  0.4803  1.0412 -0.1529
 1293SOL     OW15514   1.297   2.238   6.657  0.7078 -0.0112 -0.1196
 1293SOL    HW115515   1.281   2.173   6.589 -1.6631  1.6435 -1.1020
 1293SOL    HW215516   1.211   2.245   6.697  0.1958 -2.8240 -0.6921
 1294SOL     OW15517   3.473   0.238   8.497  0.1433  0.7881  0.0879
 1294SOL    HW115518   3.387   0.248   8.539  0.2080  1.1357  0.1440
 1294SOL    HW215519   3.460   0.153   8.455  0.1687  0.1874  1.2997
 1295SOL     OW15520   1.824   3.029   3.456  0.2652 -0.7429 -0.0398
 1295SOL    HW115521   1.749   3.089   3.460  0.7381 -0.2746  2.0450
 1295SOL    HW215522   1.800   2.967   3.387  0.8113 -0.7128 -0.2517
 1296SOL     OW15523   2.947   4.621   1.530 -0.1001  0.2458 -0.1451
 1296SOL    HW115524   2.937   4.537   1.574  0.0670 -0.3071 -1.1504
 1296SOL    HW215525   3.029   4.608   1.481  0.7413  1.5342  0.9279
 1297SOL     OW15526   2.343   0.758   3.918  0.0161  0.8392 -0.4504
 1297SOL    HW115527   2.413   0.821   3.930 -0.9179  1.5975  1.0280
 1297SOL    HW215528   2.268   0.818   3.920  0.8452  1.8007  1.4300
 1298SOL     OW15529   4.249   2.266   2.628 -0.0040  0.0941 -0.4674
 1298SOL    HW115530   4.319   2.243   2.689 -0.6249 -2.0156 -0.5345
 1298SOL    HW215531   4.193   2.323   2.680  1.8811  0.3908  1.1931
 1299SOL     OW15532   0.716   0.927   0.446 -0.7680  0.2362  0.3673
 1299SOL    HW115533   0.735   1.007   0.399 -0.9943 -0.1285 -0.3425
 1299SOL    HW215534   0.804   0.890   0.439 -0.8922  0.1250 -0.5432
 1300SOL     OW15535   3.619   1.191   5.074  0.2419  0.5965 -0.0418
 1300SOL    HW115536   3.532   1.206   5.112  0.1632  0.3745 -0.1341
 1300SOL    HW215537   3.647   1.110   5.115 -1.0124 -1.3314 -2.9915
 1301SOL     OW15538   3.272   2.631   8.050 -0.6184 -0.3108 -0.2306
 1301SOL    HW115539   3.200   2.640   8.112 -0.5067  1.4013 -0.3446
 1301SOL    HW215540   3.238   2.560   7.995  0.1252  0.6418 -1.9157
 1302SOL     OW15541   0.139   0.658   1.785  0.0917 -0.2501  0.2869
 1302SOL    HW115542   0.095   0.574   1.771  0.4621 -0.4089  0.0643
 1302SOL    HW215543   0.082   0.709   1.728 -0.3577 -2.0636 -0.8897
 1303SOL     OW15544   2.571   1.146   3.737 -0.1570 -0.2689  0.5179
 1303SOL    HW115545   2.561   1.223   3.793 -1.1417  0.5925 -0.8351
 1303SOL    HW215546   2.498   1.152   3.675  0.4386 -1.2615 -0.2826
 1304SOL     OW15547   0.305   3.991   6.167  0.3511 -0.3279  0.0673
 1304SOL    HW115548   0.306   4.056   6.237 -1.2218  0.6443 -0.8231
 1304SOL    HW215549   0.387   4.016   6.124  0.4240 -0.7453 -0.0357
 1305SOL     OW15550   2.883   1.395   2.284  0.2597  0.4555  0.0563
 1305SOL    HW115551   2.796   1.409   2.246  0.5974  2.6058  0.0366
 1305SOL    HW215552   2.924   1.343   2.215 -0.9153  0.6617 -0.8009
 1306SOL     OW15553   3.164   3.256   3.664 -0.4122  0.1473 -0.0568
 1306SOL    HW115554   3.225   3.186   3.641 -0.2608  0.6715 -1.2780
 1306SOL    HW215555   3.191   3.335   3.616 -0.7481  0.5914  0.4842
 1307SOL     OW15556   4.032   1.028  12.336  0.1752 -0.0279  0.4134
 1307SOL    HW115557   4.004   1.040  12.426  0.0077  1.3505  0.1795
 1307SOL    HW215558   4.113   1.078  12.344 -0.5505  1.3903 -0.8873
 1308SOL     OW15559   1.905   3.782   6.069 -0.0146 -0.2435  0.0201
 1308SOL    HW115560   1.895   3.874   6.094 -2.3767 -0.2928 -0.7019
 1308SOL    HW215561   1.924   3.744   6.155  1.2909 -0.1504 -0.2332
 1309SOL     OW15562   4.126   0.154  16.663 -0.1042 -0.1688 -0.4073
 1309SOL    HW115563   4.121   0.116  16.576 -0.7060  0.7277 -0.7647
 1309SOL    HW215564   4.210   0.198  16.649  0.8800 -1.5564  1.2431
 1310SOL     OW15565   0.520   1.162   4.451 -0.0979 -0.0745 -0.4200
 1310SOL    HW115566   0.589   1.165   4.517  0.6656 -0.5927 -1.1903
 1310SOL    HW215567   0.564   1.108   4.385 -1.0419  0.1492 -1.2375
 1311SOL     OW15568   2.634   2.240  13.510  0.1394 -0.3364  0.2404
 1311SOL    HW115569   2.573   2.182  13.556 -0.2469 -0.3169 -0.2453
 1311SOL    HW215570   2.698   2.176  13.480 -0.7156 -0.9783 -0.2204
 1312SOL     OW15571   0.642   2.421   3.983 -0.2018  0.0412 -0.3685
 1312SOL    HW115572   0.720   2.378   4.018 -2.3732 -0.2755  4.1081
 1312SOL    HW215573   0.654   2.512   4.010 -0.2328  0.1511 -0.7317
 1313SOL     OW15574   2.784   1.265  11.056  0.0729  0.3189 -0.0777
 1313SOL    HW115575   2.704   1.298  11.016 -1.3295 -2.4567  0.4454
 1313SOL    HW215576   2.761   1.175  11.077 -1.2772  0.4742 -0.8702
 1314SOL     OW15577   4.053   1.604  11.659 -0.3533 -0.3802  0.2363
 1314SOL    HW115578   4.113   1.593  11.733 -0.4063 -1.2730  0.1455
 1314SOL    HW215579   4.086   1.539  11.597  1.0699  1.6802 -1.1677
 1315SOL     OW15580   3.586   0.210   9.697 -0.6907  0.3516  0.5662
 1315SOL    HW115581   3.581   0.294   9.742 -2.4359  0.1736  0.7157
 1315SOL    HW215582   3.628   0.237   9.616 -0.6716 -1.5784 -0.0641
 1316SOL     OW15583   0.521   0.061   5.452 -0.0173  0.0593 -0.0275
 1316SOL    HW115584   0.543   4.734   5.521 -3.0995 -0.2949  0.6500
 1316SOL    HW215585   0.480   0.123   5.513  1.3568 -0.2700  1.2149
 1317SOL     OW15586   4.509   4.466  17.076  0.3170  0.1919 -0.1880
 1317SOL    HW115587   4.455   4.462  17.155 -1.0571  0.4134 -1.1230
 1317SOL    HW215588   4.574   4.519  17.121 -0.0580  1.8502 -1.6006
 1318SOL     OW15589   0.750   2.243  14.875  0.0106 -0.1017  0.2277
 1318SOL    HW115590   0.842   2.253  14.851  0.0424 -0.9068  0.0127
 1318SOL    HW215591   0.733   2.334  14.900  0.6395  0.2131 -0.5120
 1319SOL     OW15592   3.172   1.891  14.391  0.7321 -0.2238  0.3282
 1319SOL    HW115593   3.196   1.963  14.332 -0.4823 -1.5049 -1.7081
 1319SOL    HW215594   3.234   1.824  14.362 -0.9532 -0.4733 -2.7166
 1320SOL     OW15595   0.515   4.673   9.011 -0.1324  0.1543  0.0721
 1320SOL    HW115596   0.422   4.659   9.029  0.1137 -1.3405  0.1674
 1320SOL    HW215597   0.523   4.599   8.951 -0.9105  0.2177 -0.1185
 1321SOL     OW15598   3.519   2.950   9.278 -0.1211  0.1054 -0.6947
 1321SOL    HW115599   3.567   2.963   9.360 -0.4007  0.3051 -0.5605
 1321SOL    HW215600   3.468   3.031   9.270  1.3260  0.9636 -1.2221
 1322SOL     OW15601   1.495   3.906  10.459 -0.1463 -1.1167 -0.2637
 1322SOL    HW115602   1.454   3.858  10.531 -0.0746 -0.3073  0.3253
 1322SOL    HW215603   1.576   3.932  10.504  0.5170 -0.0195 -2.1082
 1323SOL     OW15604   2.583   0.081   0.668  0.4740 -0.3861  0.4940
 1323SOL    HW115605   2.516   0.032   0.619  0.5667 -0.2451  0.2294
 1323SOL    HW215606   2.662   0.078   0.614  0.5278  0.3507  0.5391
 1324SOL     OW15607   1.137   2.939   3.304  0.1639 -0.0525  0.2673
 1324SOL    HW115608   1.231   2.933   3.318  0.5821  3.3214 -1.0518
 1324SOL    HW215609   1.137   2.940   3.208 -1.2292  1.5431  0.2794
 1325SOL     OW15610   4.108   1.332   7.424 -0.0592  0.0334  0.3108
 1325SOL    HW115611   4.141   1.301   7.508 -0.2202  0.4384  0.5252
 1325SOL    HW215612   4.077   1.420   7.446 -1.0541 -0.2277 -0.0667
 1326SOL     OW15613   0.736   1.846   3.215 -0.2414 -0.2512 -0.3224
 1326SOL    HW115614   0.683   1.801   3.149  0.2753  0.1958 -1.0490
 1326SOL    HW215615   0.679   1.838   3.291 -0.8005 -0.0067 -0.7201
 1327SOL     OW15616   0.298   3.803   3.157 -0.1850  0.3870  0.7493
 1327SOL    HW115617   0.391   3.816   3.178  0.6956 -2.5493 -1.4894
 1327SOL    HW215618   0.291   3.851   3.075 -0.9228 -1.5294 -0.2983
 1328SOL     OW15619   4.341   3.242   5.110 -0.1261  0.3061  0.5798
 1328SOL    HW115620   4.294   3.167   5.073  2.2507 -0.3497 -1.1031
 1328SOL    HW215621   4.431   3.212   5.095 -0.4164 -0.5096  0.4481
 1329SOL     OW15622   3.724   1.498   8.321  0.3095  0.0555  0.0913
 1329SOL    HW115623   3.799   1.529   8.270  0.7096  1.8340  1.7115
 1329SOL    HW215624   3.737   1.404   8.335 -3.8744 -0.6316 -0.6500
 1330SOL     OW15625   0.607   4.020   4.634  0.2368  0.0774 -0.0410
 1330SOL    HW115626   0.568   4.020   4.722 -1.2714  0.9292 -0.7142
 1330SOL    HW215627   0.528   4.031   4.582 -0.3221  0.1013  0.8040
 1331SOL     OW15628   0.299   1.944   3.963 -0.4056 -0.1747  0.0777
 1331SOL    HW115629   0.265   1.864   4.003 -1.7167 -0.6456 -1.9660
 1331SOL    HW215630   0.378   1.925   3.911  0.0815 -0.9219  1.0942
 1332SOL     OW15631   4.023   2.734  16.458  0.7825 -0.4254 -0.1591
 1332SOL    HW115632   4.032   2.728  16.363 -0.7806  0.0392 -0.3332
 1332SOL    HW215633   4.107   2.772  16.484 -0.4179  2.4724 -0.4973
 1333SOL     OW15634   0.318   2.034   6.085 -0.2962 -0.5002  0.3210
 1333SOL    HW115635   0.268   1.977   6.026 -1.8193  0.1396  0.9930
 1333SOL    HW215636   0.334   2.112   6.032 -0.8079  0.8337  2.1138
 1334SOL     OW15637   0.512   3.914   1.710  0.1161 -0.2373  0.2343
 1334SOL    HW115638   0.473   3.829   1.728 -0.9938  0.1162 -0.4668
 1334SOL    HW215639   0.554   3.894   1.626  0.1153  0.6236  0.0306
 1335SOL     OW15640   2.426   2.110   9.853  0.3593  0.0096  0.2319
 1335SOL    HW115641   2.409   2.177   9.919 -2.5142  0.1624 -0.6600
 1335SOL    HW215642   2.513   2.085   9.887  0.5726  1.3922  0.6893
 1336SOL     OW15643   1.137   1.321   3.548  0.1575 -0.4263 -0.4058
 1336SOL    HW115644   1.159   1.277   3.466 -1.4715 -2.5472  0.2865
 1336SOL    HW215645   1.042   1.309   3.550  0.0176  0.3409 -2.2518
 1337SOL     OW15646   0.855   0.777   6.968 -0.0308  0.3088 -0.0715
 1337SOL    HW115647   0.773   0.825   6.971  0.8013  1.8046 -1.1462
 1337SOL    HW215648   0.904   0.845   6.921  1.1380 -0.7101 -0.3253
 1338SOL     OW15649   0.220   3.512  14.068 -0.7574  0.4202 -0.7835
 1338SOL    HW115650   0.268   3.513  13.986  2.7659 -1.3889  1.2678
 1338SOL    HW215651   0.132   3.540  14.041 -0.3363  1.3216 -1.1924
 1339SOL     OW15652   0.686   2.328   2.584 -0.7847  0.2222  0.3990
 1339SOL    HW115653   0.606   2.289   2.548  0.2342 -2.0248  0.6186
 1339SOL    HW215654   0.672   2.420   2.561 -1.5021 -0.1102 -0.5200
 1340SOL     OW15655   4.179   2.153   9.307  0.2263 -0.3657  0.3716
 1340SOL    HW115656   4.180   2.193   9.394 -0.1671 -0.8920  0.6183
 1340SOL    HW215657   4.084   2.140   9.302 -0.0650  1.6171  0.7686
 1341SOL     OW15658   1.888   1.977   1.109 -0.0871 -0.0216  0.6389
 1341SOL    HW115659   1.977   1.948   1.086 -0.1230  0.2509  0.1393
 1341SOL    HW215660   1.836   1.946   1.035  0.2705  0.9985 -0.0499
 1342SOL     OW15661   3.082   2.029   7.171  0.6012 -0.0662 -0.6442
 1342SOL    HW115662   3.049   2.107   7.215 -0.3341 -1.1667  0.6141
 1342SOL    HW215663   3.002   1.996   7.131 -0.8692  2.2766  0.3807
 1343SOL     OW15664   2.776   3.104  14.648 -0.6868  0.3115  0.1856
 1343SOL    HW115665   2.715   3.059  14.590 -0.0056  1.2256 -1.2155
 1343SOL    HW215666   2.831   3.156  14.591 -1.2982  0.3161 -0.3945
 1344SOL     OW15667   1.329   4.409   8.337 -0.1019 -0.4417 -0.0470
 1344SOL    HW115668   1.390   4.471   8.296  0.3161 -1.1155 -0.4509
 1344SOL    HW215669   1.299   4.470   8.404 -0.2834 -0.0989 -0.4395
 1345SOL     OW15670   2.739   0.560   2.056 -0.6193  0.1665  0.3901
 1345SOL    HW115671   2.775   0.617   2.124 -0.1400  0.6054 -0.2286
 1345SOL    HW215672   2.764   0.473   2.085  1.4085  0.0455 -1.7047
 1346SOL     OW15673   3.438   2.704   4.905  0.1022  0.6556  0.1544
 1346SOL    HW115674   3.532   2.713   4.922  0.3083 -1.2694  0.0057
 1346SOL    HW215675   3.440   2.654   4.824  2.8448 -2.9584  2.4537
 1347SOL     OW15676   0.125   4.166   4.491 -0.1578 -0.2682  0.1062
 1347SOL    HW115677   0.107   4.107   4.564  1.0441  0.5101  1.0289
 1347SOL    HW215678   0.072   4.242   4.514  0.5938 -0.4291  2.3305
 1348SOL     OW15679   4.356   4.701   7.026  0.1038  0.6798 -0.5531
 1348SOL    HW115680   4.323   4.619   7.063  1.1080  0.7955  0.6204
 1348SOL    HW215681   4.280   0.023   7.034  0.6783  1.3137  0.3216
 1349SOL     OW15682   3.856   4.727   5.668  0.0993 -0.4974 -0.3667
 1349SOL    HW115683   3.784   4.726   5.605 -1.7210  1.5431  1.6563
 1349SOL    HW215684   3.875   4.633   5.665 -2.1887 -0.9211 -2.1501
 1350SOL     OW15685   3.918   1.671   7.870 -0.7053 -0.3487 -0.1360
 1350SOL    HW115686   3.984   1.607   7.844 -0.5153 -0.7009  1.2297
 1350SOL    HW215687   3.833   1.647   7.833 -1.0689 -0.8561  1.0411
 1351SOL     OW15688   0.431   2.422   6.221 -0.1790 -0.5606  0.2608
 1351SOL    HW115689   0.516   2.438   6.179  0.8893  1.3821  3.1855
 1351SOL    HW215690   0.426   2.327   6.208  1.0507 -0.6461  0.4165
 1352SOL     OW15691   0.973   1.942  15.729 -0.0057  0.2328  0.0600
 1352SOL    HW115692   1.067   1.948  15.745 -0.0575  1.2057 -0.0229
 1352SOL    HW215693   0.981   1.925  15.635  0.3063 -0.7864  0.2707
 1353SOL     OW15694   4.627   3.810   5.209 -0.3947  0.2317  0.0654
 1353SOL    HW115695   4.719   3.791   5.187 -0.4883 -0.8540  0.6378
 1353SOL    HW215696   4.615   3.885   5.150  2.6458  0.6324 -0.0855
 1354SOL     OW15697   2.121   0.701  17.413  0.3014  0.6952 -0.3127
 1354SOL    HW115698   2.039   0.665  17.448  0.9935  0.9518  1.5457
 1354SOL    HW215699   2.085   0.746  17.336 -0.7816  0.4825  0.0654
 1355SOL     OW15700   1.990   2.059   4.687 -0.2389 -0.4658 -0.6106
 1355SOL    HW115701   1.907   2.012   4.681 -0.5524 -0.0618  0.5183
 1355SOL    HW215702   1.975   2.124   4.756 -1.7243  0.1935 -1.5407
 1356SOL     OW15703   0.810   2.125   3.875  0.6998  0.0774  0.9585
 1356SOL    HW115704   0.827   2.203   3.929 -0.5622  1.4934 -0.7116
 1356SOL    HW215705   0.867   2.062   3.919 -0.3687  0.1595  2.4441
 1357SOL     OW15706   2.971   1.209   3.461 -0.2773 -0.4503  0.1709
 1357SOL    HW115707   2.952   1.227   3.369 -1.6945  2.6018  1.0512
 1357SOL    HW215708   3.001   1.294   3.492 -1.8381  0.7107 -1.5499
 1358SOL     OW15709   0.639   3.258  15.875 -0.2071  0.1991 -0.5117
 1358SOL    HW115710   0.663   3.305  15.795  3.5507 -1.3292 -0.2878
 1358SOL    HW215711   0.646   3.169  15.842 -0.5360 -0.8276  2.2366
 1359SOL     OW15712   3.698   4.124   9.031 -0.5176  0.3571 -1.1959
 1359SOL    HW115713   3.669   4.136   8.940 -2.2711 -0.0559 -0.6953
 1359SOL    HW215714   3.670   4.205   9.072 -1.0509 -0.6727  0.4810
 1360SOL     OW15715   3.407   0.216  14.553 -0.2506 -0.5748  0.1725
 1360SOL    HW115716   3.354   0.245  14.626  1.0315  0.1825  0.7943
 1360SOL    HW215717   3.497   0.222  14.585  0.1669  0.1399 -1.1363
 1361SOL     OW15718   4.427   3.453   5.298 -0.1544 -0.3774 -0.4210
 1361SOL    HW115719   4.461   3.439   5.210 -1.6004  3.5954 -1.6395
 1361SOL    HW215720   4.373   3.532   5.292 -1.8617 -1.4448  0.8997
 1362SOL     OW15721   2.467   0.604  16.750  0.0440 -0.1171  0.3108
 1362SOL    HW115722   2.550   0.569  16.780  1.4256  1.3158 -1.8489
 1362SOL    HW215723   2.440   0.631  16.838  2.1179  0.6549  0.7017
 1363SOL     OW15724   2.132   2.398   4.779 -0.1099  0.0448 -0.2326
 1363SOL    HW115725   2.157   2.357   4.696  2.2947 -1.0176  1.0665
 1363SOL    HW215726   2.071   2.466   4.748  0.2144  0.2591 -0.4071
 1364SOL     OW15727   3.537   3.578   0.109  0.2636 -0.3979  0.4059
 1364SOL    HW115728   3.530   3.638   0.035 -2.5925 -1.8474 -0.4746
 1364SOL    HW215729   3.528   3.631   0.188  2.3210 -0.5698  0.7759
 1365SOL     OW15730   4.390   3.526   1.144 -0.0974  0.1486  0.3262
 1365SOL    HW115731   4.468   3.475   1.167 -1.0961 -2.0396 -1.2758
 1365SOL    HW215732   4.331   3.496   1.213 -0.6353 -1.4603 -0.8548
 1366SOL     OW15733   3.152   0.363   6.968 -0.0939  0.1781  0.3054
 1366SOL    HW115734   3.188   0.376   6.880  1.0835  0.7664  0.8697
 1366SOL    HW215735   3.085   0.431   6.968  0.1462  0.4227 -0.5864
 1367SOL     OW15736   2.563   4.213   1.810  0.0260 -0.6312 -0.0515
 1367SOL    HW115737   2.481   4.262   1.805  0.7485  0.5468 -0.2361
 1367SOL    HW215738   2.592   4.250   1.893 -0.3736 -1.3773  0.4225
 1368SOL     OW15739   1.164   4.276   4.305 -0.0471 -0.1128 -0.8730
 1368SOL    HW115740   1.093   4.215   4.321 -0.2259  0.3356  0.0067
 1368SOL    HW215741   1.246   4.227   4.297  0.5933  0.6374  1.2887
 1369SOL     OW15742   1.187   4.086  15.939 -0.0513  0.0030  0.4359
 1369SOL    HW115743   1.119   4.153  15.933 -0.2939 -0.3262 -0.5388
 1369SOL    HW215744   1.253   4.131  15.991 -0.5691  1.4172 -0.1190
 1370SOL     OW15745   2.138   3.556  14.446 -0.2260  0.0998 -0.3373
 1370SOL    HW115746   2.146   3.504  14.366  2.9837  1.3738 -0.8601
 1370SOL    HW215747   2.049   3.531  14.471 -0.5129  1.3996 -0.0501
 1371SOL     OW15748   0.218   2.200  13.921 -0.1365 -0.0705 -0.1106
 1371SOL    HW115749   0.285   2.166  13.980 -0.5880 -2.2310 -0.8152
 1371SOL    HW215750   0.236   2.291  13.940  0.8104 -0.2761 -0.0477
 1372SOL     OW15751   4.607   1.575   2.907  0.5568  0.1012  0.1939
 1372SOL    HW115752   4.536   1.516   2.880 -0.5777  1.6120 -0.1593
 1372SOL    HW215753   4.614   1.552   2.999 -0.8998 -0.0893  0.2584
 1373SOL     OW15754   0.212   3.656   4.777 -0.0809  0.1487  0.0022
 1373SOL    HW115755   0.237   3.738   4.820 -0.0618  0.8705 -1.3889
 1373SOL    HW215756   0.264   3.651   4.696 -0.5022  1.8823 -0.3742
 1374SOL     OW15757   2.181   0.263   6.938 -0.4938 -0.2729  0.2815
 1374SOL    HW115758   2.106   0.210   6.965  0.7548 -2.9953 -1.5252
 1374SOL    HW215759   2.182   0.332   7.003 -2.5205  0.2885 -0.2944
 1375SOL     OW15760   3.022   2.491   7.806 -0.1566  0.0657 -0.4432
 1375SOL    HW115761   3.006   2.396   7.808 -0.1418  0.0612 -0.5611
 1375SOL    HW215762   3.078   2.496   7.728 -0.8401 -2.7426 -1.1377
 1376SOL     OW15763   0.393   2.506   2.368 -0.3175 -0.5199 -0.0623
 1376SOL    HW115764   0.338   2.576   2.333 -0.3885 -0.3244  0.4482
 1376SOL    HW215765   0.481   2.534   2.341  0.1189 -2.8383 -1.0955
 1377SOL     OW15766   2.459   3.700   5.738 -0.0184  0.0657 -0.5767
 1377SOL    HW115767   2.436   3.719   5.829 -2.4920  3.6393 -1.9560
 1377SOL    HW215768   2.469   3.608   5.762  0.4714  0.6304  1.3681
 1378SOL     OW15769   4.491   0.164   5.928 -0.0787  0.3127  0.1943
 1378SOL    HW115770   4.506   0.136   6.018  1.1256 -1.8748 -0.6936
 1378SOL    HW215771   4.419   0.228   5.935 -1.0953 -0.7464 -0.5467
 1379SOL     OW15772   2.023   3.670  13.800  0.4108 -0.2438  0.8947
 1379SOL    HW115773   2.062   3.756  13.787  0.9478 -0.7824 -1.0208
 1379SOL    HW215774   2.085   3.628  13.860  0.9636  1.4228  1.4871
 1380SOL     OW15775   3.673   1.623   3.580  0.0072 -0.7692  0.3335
 1380SOL    HW115776   3.612   1.566   3.626  0.9148 -1.4982  0.6260
 1380SOL    HW215777   3.744   1.641   3.642  0.9350  0.5625 -1.1195
 1381SOL     OW15778   2.617   0.418   8.708 -0.3777  0.4208  0.3164
 1381SOL    HW115779   2.579   0.479   8.645  0.6824  0.7941  0.0326
 1381SOL    HW215780   2.621   0.342   8.650 -0.3042 -0.3320  1.3143
 1382SOL     OW15781   2.459   1.514  16.135 -0.0431  0.1486 -0.3719
 1382SOL    HW115782   2.376   1.561  16.122  0.2340  0.8482  0.4004
 1382SOL    HW215783   2.451   1.474  16.222  2.9375  2.1037  0.7805
 1383SOL     OW15784   1.009   1.093   7.100 -0.2777  0.4220 -0.1020
 1383SOL    HW115785   1.013   1.102   7.004  1.4562 -0.4369 -0.1114
 1383SOL    HW215786   0.977   1.181   7.122  1.0796  0.6223  1.0664
 1384SOL     OW15787   1.000   0.158   5.550  0.2174 -0.0835  0.1556
 1384SOL    HW115788   1.061   0.212   5.498 -0.0510  0.2603  0.2007
 1384SOL    HW215789   0.920   0.173   5.500  1.5878 -0.0848 -2.0754
 1385SOL     OW15790   2.800   0.125   8.948  0.0053 -0.2614  0.4795
 1385SOL    HW115791   2.875   0.117   9.006  0.1363 -1.8035  0.1000
 1385SOL    HW215792   2.774   0.033   8.939 -2.6016  0.4690  0.5467
 1386SOL     OW15793   0.644   4.688   6.253 -0.1138  0.0594  0.1875
 1386SOL    HW115794   0.637   4.689   6.158  0.1566  0.2999  0.1720
 1386SOL    HW215795   0.702   4.612   6.260 -0.2086  0.0598  1.0892
 1387SOL     OW15796   1.537   1.933   7.398 -0.3086 -0.0828  0.8396
 1387SOL    HW115797   1.551   1.862   7.461  3.8756 -1.0791 -1.1968
 1387SOL    HW215798   1.506   1.882   7.324  1.6086  0.7170 -0.5265
 1388SOL     OW15799   3.539   4.562   0.990 -0.3846 -0.1104 -0.2632
 1388SOL    HW115800   3.569   4.585   0.901 -2.0358  0.7840 -0.5997
 1388SOL    HW215801   3.457   4.613   0.989 -0.2361  0.1308 -0.2378
 1389SOL     OW15802   0.237   1.230   1.617 -0.7317  0.3030  0.0137
 1389SOL    HW115803   0.199   1.317   1.628 -1.7543 -0.2865  1.1873
 1389SOL    HW215804   0.220   1.202   1.527 -2.2471 -2.0901  1.0289
 1390SOL     OW15805   4.593   1.971   5.747  0.1570  0.0963 -0.0912
 1390SOL    HW115806   4.651   2.033   5.702 -0.5785  1.1309  0.3742
 1390SOL    HW215807   4.626   1.996   5.833  0.4702  5.0036 -1.5839
 1391SOL     OW15808   3.325   1.076   3.539  0.0505 -0.3975 -0.1327
 1391SOL    HW115809   3.364   1.094   3.453  1.2273  0.9213  0.6603
 1391SOL    HW215810   3.298   0.986   3.520 -0.0081  0.1346 -2.5790
 1392SOL     OW15811   4.348   1.068   0.234 -0.0322  0.1260  0.3081
 1392SOL    HW115812   4.394   0.993   0.198 -0.2731 -0.6531  1.5975
 1392SOL    HW215813   4.272   1.033   0.281 -1.4096  1.1423 -1.1808
 1393SOL     OW15814   4.685   3.451   8.334 -0.2022  0.0612 -0.4723
 1393SOL    HW115815   0.025   3.392   8.331 -1.3153 -1.3707 -0.4367
 1393SOL    HW215816   4.631   3.411   8.265  1.2296 -2.3439 -0.2232
 1394SOL     OW15817   3.761   1.106   4.323  0.0420 -0.3335  0.8801
 1394SOL    HW115818   3.827   1.162   4.364  0.4271 -1.4844  1.8266
 1394SOL    HW215819   3.687   1.167   4.318  0.4118 -0.1539 -2.1882
 1395SOL     OW15820   2.535   1.887   9.608 -0.4220 -0.3425  0.6737
 1395SOL    HW115821   2.557   1.903   9.517  0.1665  0.9122  1.0437
 1395SOL    HW215822   2.610   1.838   9.641 -0.9580 -1.5410  0.1236
 1396SOL     OW15823   3.220   3.011   9.493 -0.0638  0.3171  0.3829
 1396SOL    HW115824   3.245   3.037   9.405  1.1122 -1.4153  0.1922
 1396SOL    HW215825   3.125   3.019   9.489 -0.0507  1.3418  2.1539
 1397SOL     OW15826   2.439   0.007  12.842  0.3720 -0.2360  0.0177
 1397SOL    HW115827   2.489   0.076  12.886 -1.9840  2.5912 -1.6975
 1397SOL    HW215828   2.392   0.063  12.780  0.9859  0.1348 -0.1122
 1398SOL     OW15829   0.913   0.202   3.077 -0.2031 -0.4194 -0.8340
 1398SOL    HW115830   0.865   0.240   3.004 -1.1955 -0.1575 -0.0354
 1398SOL    HW215831   1.003   0.232   3.061 -0.0033  0.7301  2.4669
 1399SOL     OW15832   2.037   2.436   3.955  0.7245  0.2832  0.5447
 1399SOL    HW115833   1.953   2.411   3.993  0.1002  1.5042 -0.0239
 1399SOL    HW215834   2.095   2.382   4.008  0.3115 -0.4056  0.3036
 1400SOL     OW15835   1.215   1.783   2.091 -0.5677 -0.4578  0.1086
 1400SOL    HW115836   1.250   1.769   2.179 -1.8995 -1.6690  0.4504
 1400SOL    HW215837   1.281   1.767   2.024 -0.2554  1.7214 -0.0923
 1401SOL     OW15838   3.075   3.181   9.156 -0.0411 -0.1072 -0.9085
 1401SOL    HW115839   3.041   3.107   9.204  0.1700 -0.9379 -2.0427
 1401SOL    HW215840   3.009   3.219   9.098 -1.8681  1.0968  2.0077
 1402SOL     OW15841   0.359   2.965   2.261  0.1082 -0.0826 -0.1612
 1402SOL    HW115842   0.440   3.010   2.287 -0.3283  0.8319 -0.3589
 1402SOL    HW215843   0.386   2.886   2.216  0.3948  0.0469 -0.2166
 1403SOL     OW15844   1.271   1.374   3.938 -0.1487 -0.7955 -0.3794
 1403SOL    HW115845   1.261   1.423   3.857 -2.2827 -1.7399 -0.6790
 1403SOL    HW215846   1.213   1.425   3.994  2.3638  2.8405 -1.0741
 1404SOL     OW15847   0.392   2.602   7.722 -0.2697 -0.2093  0.7713
 1404SOL    HW115848   0.445   2.632   7.796  0.4577 -0.8641  0.5246
 1404SOL    HW215849   0.415   2.509   7.726 -1.9036 -0.5783  1.6823
 1405SOL     OW15850   4.138   0.315   3.344 -0.1878 -0.0793  0.6302
 1405SOL    HW115851   4.167   0.241   3.396  0.4965  1.2437  2.1280
 1405SOL    HW215852   4.208   0.380   3.351  1.2651 -1.3699 -1.9273
 1406SOL     OW15853   2.259   0.002  12.081  0.1299 -0.1110 -0.1773
 1406SOL    HW115854   2.275   4.687  12.001  0.5611  0.0145 -0.1698
 1406SOL    HW215855   2.209   4.677  12.137  1.2418 -0.6214  0.2669
 1407SOL     OW15856   3.172   3.782   8.510 -0.0869 -0.6085 -0.2509
 1407SOL    HW115857   3.180   3.701   8.458 -1.3884 -0.9850  0.1174
 1407SOL    HW215858   3.181   3.847   8.440 -1.6734 -0.7517 -0.6062
 1408SOL     OW15859   1.449   4.344   2.688  0.5132  0.2825 -0.5058
 1408SOL    HW115860   1.496   4.293   2.622 -0.2507 -1.1637  0.0717
 1408SOL    HW215861   1.421   4.423   2.641  1.5581  0.5430 -0.6821
 1409SOL     OW15862   2.899   0.305  10.785  0.0628 -0.4502 -0.3305
 1409SOL    HW115863   2.813   0.307  10.827 -0.4758  0.0439 -1.4454
 1409SOL    HW215864   2.877   0.253  10.707 -4.0311  0.8772 -0.0564
 1410SOL     OW15865   3.212   4.518  13.194  0.0126  0.4045 -0.6034
 1410SOL    HW115866   3.270   4.480  13.260  0.8416 -0.6925 -1.9691
 1410SOL    HW215867   3.234   4.611  13.196  0.9091  0.1292  3.0737
 1411SOL     OW15868   2.616   2.592   2.551  0.1133  0.3579  0.1148
 1411SOL    HW115869   2.696   2.644   2.557 -0.6202  1.5478 -0.3586
 1411SOL    HW215870   2.636   2.524   2.615 -1.0777 -0.8835 -0.8221
 1412SOL     OW15871   3.335   4.722   1.663  0.2280 -0.0532  0.7864
 1412SOL    HW115872   3.290   4.715   1.578  0.7432 -0.4319  0.5439
 1412SOL    HW215873   3.313   4.641   1.708  1.7525 -0.2840  1.1000
 1413SOL     OW15874   1.977   4.458   6.111 -0.4052 -0.0725  0.0560
 1413SOL    HW115875   1.958   4.451   6.205 -3.0427  0.1323 -0.4360
 1413SOL    HW215876   1.905   4.516   6.087 -0.4471  0.3102  1.0906
 1414SOL     OW15877   2.412   1.817  10.805 -0.6331 -0.1333 -0.2978
 1414SOL    HW115878   2.412   1.730  10.843  0.7373 -0.1311 -0.2943
 1414SOL    HW215879   2.330   1.855  10.838 -0.9906 -0.3762 -0.8878
 1415SOL     OW15880   1.187   4.701   8.922  0.2650 -0.6316  0.7745
 1415SOL    HW115881   1.211   4.633   8.859 -0.7941 -1.1072  0.8785
 1415SOL    HW215882   1.264   4.704   8.978 -0.7927  2.9255  2.0611
 1416SOL     OW15883   2.838   0.350   3.598 -0.0470  0.5762 -0.4966
 1416SOL    HW115884   2.910   0.407   3.626  0.1807  1.0912 -2.1744
 1416SOL    HW215885   2.828   0.290   3.672 -1.5261  0.8784 -0.4604
 1417SOL     OW15886   0.846   0.882   3.958 -0.6011 -0.3487  0.1773
 1417SOL    HW115887   0.885   0.798   3.985 -0.8791  0.0174  1.7408
 1417SOL    HW215888   0.930   0.924   3.940 -0.3243 -1.7296 -1.6857
 1418SOL     OW15889   0.046   1.318  14.637 -0.4470 -0.1874 -0.4804
 1418SOL    HW115890   0.098   1.270  14.573  1.4139  1.2326 -0.0223
 1418SOL    HW215891   0.119   1.351  14.688  1.2825 -1.5572 -2.0796
 1419SOL     OW15892   2.231   4.089   8.949  0.5241  0.2141 -0.1997
 1419SOL    HW115893   2.218   4.141   9.029 -0.6469  0.7536 -0.7421
 1419SOL    HW215894   2.321   4.057   8.960 -0.1713 -1.5661  0.2357
 1420SOL     OW15895   2.390   4.019   1.496 -0.3101 -0.3055 -0.1476
 1420SOL    HW115896   2.484   4.025   1.480 -0.9982  1.2679 -3.7212
 1420SOL    HW215897   2.357   3.992   1.411 -1.4988 -0.4020  0.3523
 1421SOL     OW15898   2.397   1.740   6.960  0.6781  0.5731 -0.3952
 1421SOL    HW115899   2.387   1.810   7.025 -4.4318  0.0383 -0.6347
 1421SOL    HW215900   2.315   1.695   6.940  0.3321  0.6944  0.7386
 1422SOL     OW15901   3.037   3.121   1.396  0.4704 -0.2821  0.0338
 1422SOL    HW115902   2.987   3.046   1.363  2.3076 -0.7488 -1.6577
 1422SOL    HW215903   2.972   3.187   1.374  1.0669 -0.7732 -3.1688
 1423SOL     OW15904   0.705   4.441   0.116 -0.2087 -0.1124 -0.1205
 1423SOL    HW115905   0.772   4.373   0.109 -0.7417 -0.5076 -1.3427
 1423SOL    HW215906   0.748   4.486   0.189  0.2669 -2.2330  0.8932
 1424SOL     OW15907   2.426   4.439   9.350  0.3727  0.0874 -0.0562
 1424SOL    HW115908   2.369   4.405   9.419  1.7201  0.1036  1.0577
 1424SOL    HW215909   2.359   4.449   9.283 -1.2685  1.6443  1.8031
 1425SOL     OW15910   3.520   0.455   9.783  0.0180  0.1780  0.0157
 1425SOL    HW115911   3.494   0.492   9.867 -0.8201 -1.3009  0.4098
 1425SOL    HW215912   3.440   0.443   9.733 -0.7371  0.4486  1.1673
 1426SOL     OW15913   4.412   3.473   1.771 -0.1217  0.1195  0.7121
 1426SOL    HW115914   4.416   3.378   1.785 -1.8918 -0.0893 -0.1758
 1426SOL    HW215915   4.319   3.489   1.791 -0.3881 -0.8956  0.2885
 1427SOL     OW15916   0.526   1.101  15.751  0.6146  0.3704 -0.5208
 1427SOL    HW115917   0.477   1.094  15.669 -1.5656 -0.9925  0.9008
 1427SOL    HW215918   0.506   1.193  15.768 -1.3282 -0.5954  2.2270
 1428SOL     OW15919   2.336   3.589   6.437 -0.4835 -0.0843 -0.5117
 1428SOL    HW115920   2.343   3.507   6.388  0.4303 -0.4984  0.3033
 1428SOL    HW215921   2.422   3.590   6.479 -0.9898  1.4592  0.4619
 1429SOL     OW15922   3.058   1.817   6.370  0.1733 -0.2632 -0.6202
 1429SOL    HW115923   3.149   1.808   6.396 -0.1469 -1.5050  0.0686
 1429SOL    HW215924   3.014   1.733   6.382 -1.1333  0.4980 -0.0004
 1430SOL     OW15925   2.539   3.129   0.252  0.1191  0.4271 -0.0117
 1430SOL    HW115926   2.621   3.078   0.252  0.7024  1.3857  1.4280
 1430SOL    HW215927   2.506   3.132   0.162 -1.3642 -0.4108  0.5048
 1431SOL     OW15928   2.906   1.659   4.191 -0.0167 -0.0385  0.6089
 1431SOL    HW115929   2.885   1.698   4.106 -0.1304 -1.9308 -0.2251
 1431SOL    HW215930   2.900   1.567   4.168  1.0799  0.4298 -1.5511
 1432SOL     OW15931   1.042   2.194   9.093 -0.2339  0.3737  0.6654
 1432SOL    HW115932   1.111   2.233   9.147 -0.7811  0.7919  1.0632
 1432SOL    HW215933   0.961   2.229   9.130 -0.9557 -1.0621  0.4879
 1433SOL     OW15934   1.633   1.798   4.489 -0.3299  0.2916  0.8856
 1433SOL    HW115935   1.560   1.772   4.546 -1.6930 -0.2277 -1.1026
 1433SOL    HW215936   1.661   1.715   4.450 -0.9300  0.2750  0.4952
 1434SOL     OW15937   4.664   3.037   2.435  0.1840 -0.0797 -0.0418
 1434SOL    HW115938   4.673   3.025   2.341  2.4723  0.8658  0.0612
 1434SOL    HW215939   4.646   2.945   2.458 -0.4889  0.0491 -0.0606
 1435SOL     OW15940   2.721   0.465   0.026  0.2847 -0.7666 -0.2563
 1435SOL    HW115941   2.724   0.370   0.014 -0.1883 -0.8181 -0.0013
 1435SOL    HW215942   2.788   0.506  17.713  0.3321 -0.7966 -0.2194
 1436SOL     OW15943   1.596   2.606   5.074 -0.2391 -0.3995  0.1065
 1436SOL    HW115944   1.601   2.616   4.979 -0.5086 -3.1035 -0.1708
 1436SOL    HW215945   1.519   2.552   5.091 -0.3500  0.3185  1.9262
 1437SOL     OW15946   4.662   1.987   7.502  0.3251 -0.8074  0.8769
 1437SOL    HW115947   0.021   1.993   7.515  0.2694  1.0677  0.5075
 1437SOL    HW215948   4.633   2.073   7.472  1.3842 -0.4659  0.8310
 1438SOL     OW15949   3.918   2.440   4.259  0.4408  0.2070  0.0582
 1438SOL    HW115950   3.898   2.410   4.171  2.5008 -2.7041  0.5788
 1438SOL    HW215951   4.007   2.406   4.264 -0.3367 -1.9641 -0.6959
 1439SOL     OW15952   2.373   0.517   6.361 -0.5347  0.1785 -0.0301
 1439SOL    HW115953   2.342   0.483   6.277 -0.6878  0.5335 -0.1172
 1439SOL    HW215954   2.341   0.447   6.418  1.2106 -0.2250  0.4661
 1440SOL     OW15955   0.036   0.570  16.886  0.1507 -0.0463 -0.4992
 1440SOL    HW115956   4.720   0.647  16.864  1.5527  1.0856  0.1775
 1440SOL    HW215957   0.032   0.517  16.807 -0.0532 -0.6470 -0.0826
 1441SOL     OW15958   3.375   0.849   2.285  0.5966  0.3524  0.1694
 1441SOL    HW115959   3.324   0.889   2.355  0.6861  2.3083 -0.8980
 1441SOL    HW215960   3.309   0.798   2.238  0.6288  0.0039  0.5053
 1442SOL     OW15961   2.253   0.191   2.710  0.1453 -0.1782  0.1665
 1442SOL    HW115962   2.283   0.111   2.754  2.1327 -1.0796 -2.8826
 1442SOL    HW215963   2.257   0.258   2.779  2.3639 -0.3608  0.2213
 1443SOL     OW15964   3.353   1.798   5.433  0.4384 -0.3251 -0.1994
 1443SOL    HW115965   3.357   1.859   5.507  2.2857 -1.7607  0.8889
 1443SOL    HW215966   3.440   1.760   5.422  0.1841 -1.1712  0.6732
 1444SOL     OW15967   3.629   4.154  14.675  0.5509  0.2228  0.4621
 1444SOL    HW115968   3.668   4.206  14.746  1.1456  1.8339 -1.0232
 1444SOL    HW215969   3.590   4.221  14.619  0.3977  0.1569  0.4924
 1445SOL     OW15970   2.033   0.400   3.989 -0.3602  0.2220  0.0886
 1445SOL    HW115971   2.105   0.459   3.969  0.5005 -1.4709 -1.9538
 1445SOL    HW215972   2.067   0.322   3.945 -0.8863  1.8151 -3.1269
 1446SOL     OW15973   2.018   0.756  12.707 -0.7865  0.0260  0.1923
 1446SOL    HW115974   1.929   0.744  12.675 -1.1998  1.1338  0.9123
 1446SOL    HW215975   2.059   0.740  12.621 -0.4014 -1.5275  0.6689
 1447SOL     OW15976   0.436   4.363   9.709  0.4314  0.2653  0.7943
 1447SOL    HW115977   0.469   4.367   9.799 -1.9600  2.0105  1.5687
 1447SOL    HW215978   0.384   4.284   9.721  2.3477 -0.7178  2.6519
 1448SOL     OW15979   3.855   3.416   4.738 -0.5076 -0.5124 -0.6156
 1448SOL    HW115980   3.905   3.337   4.716  2.6723  1.5266 -0.6581
 1448SOL    HW215981   3.795   3.429   4.664 -1.1273 -2.1841 -0.4061
 1449SOL     OW15982   3.569   1.313  17.183 -0.0348 -0.7840  0.6659
 1449SOL    HW115983   3.618   1.368  17.244 -0.4473 -1.0562  1.2384
 1449SOL    HW215984   3.501   1.365  17.140  2.0648  1.5450  0.1503
 1450SOL     OW15985   2.865   0.669   7.227 -0.4116 -0.3632 -0.3525
 1450SOL    HW115986   2.775   0.700   7.221 -0.8230 -1.7440 -1.3049
 1450SOL    HW215987   2.857   0.579   7.261  4.0658  0.6543  3.3416
 1451SOL     OW15988   0.278   0.560   9.416  0.3923 -0.1106  0.3219
 1451SOL    HW115989   0.248   0.509   9.341  0.3655 -0.0848  0.3148
 1451SOL    HW215990   0.314   0.636   9.370  1.0868 -0.0922  0.9008
 1452SOL     OW15991   2.835   0.188   3.810 -0.0686  0.1666 -0.0170
 1452SOL    HW115992   2.922   0.152   3.828  0.0887  0.7511  0.3544
 1452SOL    HW215993   2.788   0.105   3.817  1.9314 -1.0808 -1.2701
 1453SOL     OW15994   0.586   0.581  12.044  0.2032 -0.1647 -0.1160
 1453SOL    HW115995   0.568   0.637  12.119 -0.8156  0.0514 -0.5175
 1453SOL    HW215996   0.637   0.514  12.089 -0.0981 -0.3780 -0.0928
 1454SOL     OW15997   0.818   2.683   4.812 -0.4339 -0.1036  0.3795
 1454SOL    HW115998   0.844   2.727   4.893  0.6389  1.2467 -0.6886
 1454SOL    HW215999   0.765   2.744   4.760  2.3966 -0.1885 -2.6074
 1455SOL     OW16000   3.565   4.361   9.083  0.6681 -0.1407  0.0862
 1455SOL    HW116001   3.528   4.328   9.165  0.5800  0.7081  0.3873
 1455SOL    HW216002   3.488   4.370   9.027  0.0004  2.2342  1.3988
 1456SOL     OW16003   1.884   3.066   8.356 -0.3244  0.8761  0.2351
 1456SOL    HW116004   1.832   3.001   8.310  0.8355  0.1705 -0.0947
 1456SOL    HW216005   1.966   3.019   8.337 -2.0808 -1.6705 -1.0475
 1457SOL     OW16006   3.756   1.266  13.308  0.4419 -0.5655  0.1434
 1457SOL    HW116007   3.726   1.185  13.350 -0.9499 -1.2524 -2.2187
 1457SOL    HW216008   3.745   1.250  13.215 -2.6706  0.5689  0.3201
 1458SOL     OW16009   1.116   2.016   5.492  0.1936 -0.2144 -0.5046
 1458SOL    HW116010   1.068   1.970   5.423  0.4496  0.2657 -1.0020
 1458SOL    HW216011   1.208   2.000   5.474  0.9852  0.4760  2.7805
 1459SOL     OW16012   1.852   4.166   1.811 -0.1227  0.2902 -0.2738
 1459SOL    HW116013   1.777   4.159   1.752 -0.9336 -1.5532  0.9688
 1459SOL    HW216014   1.859   4.260   1.828 -0.4072  0.2205  0.2190
 1460SOL     OW16015   3.491   4.262   2.743 -0.6447 -0.4593  0.0150
 1460SOL    HW116016   3.584   4.261   2.721 -1.0784  1.7502 -1.9746
 1460SOL    HW216017   3.489   4.277   2.837  0.4713 -1.8789  0.2691
 1461SOL     OW16018   2.379   1.562  15.203  0.0209 -0.3455 -0.3482
 1461SOL    HW116019   2.455   1.607  15.240  0.7429 -0.0649 -2.1816
 1461SOL    HW216020   2.397   1.472  15.232  1.6262  1.1076  3.1118
 1462SOL     OW16021   2.019   1.391   3.839 -0.4944 -0.6198 -0.1414
 1462SOL    HW116022   1.957   1.460   3.865 -2.2248 -2.5025  0.7761
 1462SOL    HW216023   2.082   1.405   3.909 -0.2800  0.9301 -0.6406
 1463SOL     OW16024   3.242   3.986   3.688 -1.0461  0.5854 -0.4295
 1463SOL    HW116025   3.271   4.078   3.689  0.5331  0.0741  1.0796
 1463SOL    HW216026   3.236   3.957   3.779  2.0472  1.2267 -0.0308
 1464SOL     OW16027   2.418   2.758  16.553  0.3322  0.4488 -0.2466
 1464SOL    HW116028   2.415   2.822  16.624  2.3502  2.7712 -2.2570
 1464SOL    HW216029   2.500   2.777  16.508  0.5486 -1.1795 -0.5449
 1465SOL     OW16030   2.252   1.680   3.348  0.2049  0.2695 -0.2336
 1465SOL    HW116031   2.237   1.734   3.270  0.6128 -1.5752 -1.6059
 1465SOL    HW216032   2.334   1.637   3.324 -0.7103 -0.0536 -2.8331
 1466SOL     OW16033   0.136   0.642   5.447 -0.1349  0.5919  0.0332
 1466SOL    HW116034   0.099   0.680   5.527  0.7820 -0.8622  1.1556
 1466SOL    HW216035   0.139   0.716   5.387  2.6987 -0.0284 -0.6154
 1467SOL     OW16036   1.602   3.929   5.369  0.0839 -0.2574 -0.1944
 1467SOL    HW116037   1.516   3.967   5.348 -0.4635 -1.5892 -0.4024
 1467SOL    HW216038   1.655   3.999   5.333  1.0627 -0.2623  1.2614
 1468SOL     OW16039   3.478   0.664  10.593 -0.1536 -0.3877  0.0848
 1468SOL    HW116040   3.468   0.757  10.610  1.6703 -0.4063  1.2757
 1468SOL    HW216041   3.520   0.637  10.675 -0.2892  2.0577  0.9427
 1469SOL     OW16042   1.798   3.047  16.675 -0.1058 -0.9179 -0.3520
 1469SOL    HW116043   1.761   2.959  16.663 -0.0470 -0.7876 -1.4417
 1469SOL    HW216044   1.771   3.070  16.764  0.4094 -0.6687 -0.2614
 1470SOL     OW16045   1.761   0.420   1.020 -0.4888  0.0707  0.6429
 1470SOL    HW116046   1.751   0.514   1.034  0.7642  0.2627  0.2941
 1470SOL    HW216047   1.680   0.398   0.975  0.7066 -0.2271 -1.3897
 1471SOL     OW16048   4.578   0.096   4.539 -0.3461 -0.2967 -0.4255
 1471SOL    HW116049   4.497   0.058   4.574 -1.0332  1.5575 -0.0189
 1471SOL    HW216050   4.538   0.181   4.519  2.1029  0.8962 -0.2490
 1472SOL     OW16051   1.188   2.555  14.749  0.1051 -0.2295 -0.0712
 1472SOL    HW116052   1.191   2.463  14.775 -0.7997  0.3284  2.0200
 1472SOL    HW216053   1.113   2.552  14.690  1.7403  0.7419 -2.1948
 1473SOL     OW16054   3.716   3.691   4.636  0.4061  0.1629 -0.0162
 1473SOL    HW116055   3.697   3.602   4.608  1.2301  0.1779 -0.6263
 1473SOL    HW216056   3.724   3.663   4.728 -0.3858 -0.3563 -0.1127
 1474SOL     OW16057   3.437   4.185   6.754 -0.0037  0.0301  0.4528
 1474SOL    HW116058   3.475   4.242   6.687  0.4810  0.0169  0.7172
 1474SOL    HW216059   3.373   4.241   6.799 -0.4513  0.6989 -1.0301
 1475SOL     OW16060   0.829   0.414   8.482  0.3581  0.2458  0.0100
 1475SOL    HW116061   0.809   0.325   8.513 -2.0753  0.7520 -0.0728
 1475SOL    HW216062   0.923   0.413   8.469  0.4319 -0.8204  0.6481
 1476SOL     OW16063   2.660   1.783  11.540  0.3259 -0.5925 -0.1792
 1476SOL    HW116064   2.615   1.730  11.606  1.4267 -1.0621  0.1938
 1476SOL    HW216065   2.707   1.717  11.488  2.6802  1.6067 -0.8775
 1477SOL     OW16066   1.750   3.832   4.317 -0.4074  0.4177  0.5046
 1477SOL    HW116067   1.797   3.775   4.256  0.3908  1.6760 -0.0559
 1477SOL    HW216068   1.821   3.878   4.361 -1.1037  1.8864  0.1072
 1478SOL     OW16069   1.793   3.910   5.574  0.0599  0.2379  0.4606
 1478SOL    HW116070   1.721   3.900   5.513  1.7138 -4.0070 -0.7702
 1478SOL    HW216071   1.758   3.870   5.654 -0.7001 -0.6798 -0.3388
 1479SOL     OW16072   0.371   0.539   7.704 -0.1348  0.3707  0.2051
 1479SOL    HW116073   0.457   0.577   7.685  0.1732  0.1893  1.2060
 1479SOL    HW216074   0.353   0.552   7.797  1.1722 -0.4352  0.5707
 1480SOL     OW16075   2.575   1.299   7.069  0.1916 -0.1308 -0.0020
 1480SOL    HW116076   2.518   1.372   7.090  0.4481 -0.9111  3.4578
 1480SOL    HW216077   2.521   1.222   7.087 -1.0240  0.6108 -0.4880
 1481SOL     OW16078   3.180   3.876   1.951  0.0509 -0.6010  0.0449
 1481SOL    HW116079   3.261   3.826   1.952  0.1362 -0.4635 -0.7032
 1481SOL    HW216080   3.205   3.961   1.988 -0.1468 -0.1718 -0.8179
 1482SOL     OW16081   2.876   3.678   6.016 -0.1016  0.0816 -0.4120
 1482SOL    HW116082   2.803   3.698   5.958 -0.7701  0.9159  0.7278
 1482SOL    HW216083   2.914   3.764   5.995 -1.7724  1.1588  0.9510
 1483SOL     OW16084   3.977   3.789   3.136 -0.1880 -1.4052  0.5655
 1483SOL    HW116085   3.918   3.853   3.095  0.9319 -0.9122 -0.2608
 1483SOL    HW216086   3.973   3.714   3.076  2.2993 -0.7805 -0.3849
 1484SOL     OW16087   3.507   2.472   4.219  0.3348 -0.1318 -0.1444
 1484SOL    HW116088   3.574   2.506   4.159  1.6127 -0.8620  0.8726
 1484SOL    HW216089   3.479   2.549   4.270 -0.0805  0.8698 -1.8714
 1485SOL     OW16090   0.032   1.972   2.256  0.8071 -0.2625  0.0295
 1485SOL    HW116091   0.048   1.989   2.164  1.0489  1.2852  0.3615
 1485SOL    HW216092   0.038   1.877   2.260 -1.7917 -0.4400 -0.5073
 1486SOL     OW16093   1.487   0.625  14.239 -0.1829  0.3833  0.2975
 1486SOL    HW116094   1.415   0.607  14.299 -1.1296  0.0264 -0.9397
 1486SOL    HW216095   1.514   0.539  14.208  0.8827  1.3587 -1.4700
 1487SOL     OW16096   0.570   1.908  17.636 -1.2160 -0.3538 -0.5937
 1487SOL    HW116097   0.663   1.909  17.661 -1.1873  0.5118 -0.7126
 1487SOL    HW216098   0.567   1.992  17.591 -1.4724  0.5445  1.0790
 1488SOL     OW16099   1.669   2.622   8.957 -0.0109 -0.4758  0.9721
 1488SOL    HW116100   1.615   2.699   8.976 -2.3465 -1.9199  0.2391
 1488SOL    HW216101   1.746   2.630   9.014  0.7232  1.1159 -0.2476
 1489SOL     OW16102   0.435   1.214  11.206  0.1853  0.6767 -0.0311
 1489SOL    HW116103   0.417   1.291  11.152 -0.7905 -0.4127 -1.2351
 1489SOL    HW216104   0.483   1.247  11.282  0.1264 -0.4265  0.4949
 1490SOL     OW16105   0.936   1.451   6.791 -0.0296 -0.6916 -0.0398
 1490SOL    HW116106   0.931   1.410   6.878  0.0479 -1.0332 -0.1995
 1490SOL    HW216107   1.014   1.504   6.807  0.0413 -0.7812 -0.0921
 1491SOL     OW16108   1.717   4.198   1.314 -0.1317 -0.5566 -0.0273
 1491SOL    HW116109   1.668   4.120   1.288 -0.4643  0.3197 -2.0470
 1491SOL    HW216110   1.686   4.205   1.404 -1.9248  0.6978 -0.7237
 1492SOL     OW16111   3.528   1.418   5.483  0.3016 -0.2788  0.1844
 1492SOL    HW116112   3.579   1.442   5.561  0.9524  2.0563 -0.9773
 1492SOL    HW216113   3.595   1.355   5.456 -0.0569  0.2482 -1.8947
 1493SOL     OW16114   0.995   1.700   4.051  0.0418 -0.1304 -0.1139
 1493SOL    HW116115   0.914   1.690   4.002  0.2057 -0.1789 -0.3716
 1493SOL    HW216116   1.007   1.794   4.041 -0.2797 -0.1229 -0.4301
 1494SOL     OW16117   4.269   4.508  12.196 -0.3062  0.5908 -0.5095
 1494SOL    HW116118   4.181   4.493  12.230  0.7725 -1.4329  1.3680
 1494SOL    HW216119   4.251   4.497  12.103  1.6702 -1.1230 -0.6975
 1495SOL     OW16120   2.321   1.621   5.894 -0.1924 -0.2209  0.2764
 1495SOL    HW116121   2.348   1.642   5.984  0.1883 -1.1004  0.3678
 1495SOL    HW216122   2.257   1.552   5.908 -1.5904  0.8070 -1.0948
 1496SOL     OW16123   3.557   4.364  13.960  0.2135  0.4690  0.7095
 1496SOL    HW116124   3.641   4.341  13.919  0.1572  0.3031  0.6873
 1496SOL    HW216125   3.528   4.440  13.909  0.1845  0.0888  0.1570
 1497SOL     OW16126   2.976   2.802   5.777 -0.0680  0.2754 -0.2458
 1497SOL    HW116127   2.984   2.786   5.871  1.0892 -0.6104 -0.4973
 1497SOL    HW216128   3.025   2.881   5.754  1.3345 -0.8726 -1.1888
 1498SOL     OW16129   2.200   1.412   0.023  0.1208  0.5899  0.4195
 1498SOL    HW116130   2.246   1.490  17.731  0.4843 -0.3622 -1.3409
 1498SOL    HW216131   2.175   1.375  17.679  2.4619 -1.4188  0.6339
 1499SOL     OW16132   4.712   1.170   3.138 -0.4782 -0.0222 -0.3815
 1499SOL    HW116133   4.633   1.217   3.165  0.0903  1.5579 -1.4563
 1499SOL    HW216134   4.680   1.152   3.050 -1.8341 -0.7052  0.2475
 1500SOL     OW16135   4.228   4.011  16.596  0.3201  0.4427 -1.0603
 1500SOL    HW116136   4.158   4.071  16.569  0.3635  1.1040  0.3016
 1500SOL    HW216137   4.202   4.007  16.688  1.2131  0.2721 -0.8124
 1501SOL     OW16138   0.314   2.619  16.636 -0.0469  0.0538 -0.7074
 1501SOL    HW116139   0.222   2.636  16.653  0.0138  0.6149 -0.9499
 1501SOL    HW216140   0.305   2.529  16.605 -2.4673 -0.5642  1.8020
 1502SOL     OW16141   0.238   3.720   9.677  0.1071  0.1772 -0.1124
 1502SOL    HW116142   0.207   3.752   9.762  1.1317 -1.5308  0.9231
 1502SOL    HW216143   0.267   3.805   9.646  0.0765  0.0095 -0.6022
 1503SOL     OW16144   0.335   4.404   2.655  0.2266 -0.3604  0.3442
 1503SOL    HW116145   0.425   4.423   2.680  0.1144  1.2881 -0.4773
 1503SOL    HW216146   0.302   4.371   2.739 -0.9667  2.3676  0.9599
 1504SOL     OW16147   4.330   3.945  14.082  0.0440 -0.1862  0.4200
 1504SOL    HW116148   4.404   3.908  14.130  0.3706 -0.7804 -0.5545
 1504SOL    HW216149   4.307   4.024  14.130 -3.8804 -1.7429  1.0328
 1505SOL     OW16150   4.497   3.059   7.579 -0.5733 -0.1105  0.7940
 1505SOL    HW116151   4.506   3.094   7.668 -0.1033 -1.0759  1.1363
 1505SOL    HW216152   4.564   3.112   7.536 -1.8133 -0.3064 -1.3771
 1506SOL     OW16153   3.019   3.054   7.385  0.8716  0.2252 -0.0538
 1506SOL    HW116154   2.981   3.140   7.369 -0.2148 -0.0104  1.2537
 1506SOL    HW216155   2.995   3.022   7.299 -0.7714 -0.2611  0.5922
 1507SOL     OW16156   2.537   0.666   0.633 -0.6569 -0.2855 -0.4904
 1507SOL    HW116157   2.522   0.680   0.539 -2.5439  3.6430  0.3547
 1507SOL    HW216158   2.449   0.674   0.671  0.1867 -3.1883  2.0823
 1508SOL     OW16159   3.030   2.306   5.086  0.2996  0.5216 -0.0143
 1508SOL    HW116160   3.043   2.224   5.133  1.9830  0.5833 -0.3493
 1508SOL    HW216161   3.103   2.357   5.122  1.0737  1.1779 -2.5474
 1509SOL     OW16162   1.557   0.704   8.742 -0.2088 -0.3838  0.2032
 1509SOL    HW116163   1.489   0.709   8.676  0.4748 -1.2774 -0.5613
 1509SOL    HW216164   1.641   0.700   8.696  0.0865 -2.1817  0.9099
 1510SOL     OW16165   2.233   1.193   6.217 -0.6830 -0.1065 -0.1094
 1510SOL    HW116166   2.160   1.175   6.276 -0.7991 -1.5720 -0.7109
 1510SOL    HW216167   2.261   1.105   6.192  1.5324  0.2822  0.9568
 1511SOL     OW16168   1.974   0.927   6.919  0.3245  0.0277  0.2748
 1511SOL    HW116169   1.980   1.020   6.941  0.1595 -0.0988  0.8601
 1511SOL    HW216170   1.914   0.910   6.991  1.4490  1.2437  1.5179
 1512SOL     OW16171   1.662   4.022   7.971 -0.1252  0.4480  0.4422
 1512SOL    HW116172   1.695   4.108   7.997  0.5302  1.0045 -2.2348
 1512SOL    HW216173   1.630   3.980   8.051  0.3999 -2.3379 -0.8253
 1513SOL     OW16174   4.359   3.745   7.469  0.3789  0.2055 -0.0486
 1513SOL    HW116175   4.434   3.755   7.528 -0.3977  0.1803  0.9477
 1513SOL    HW216176   4.386   3.666   7.421  1.4847  0.4809  0.1179
 1514SOL     OW16177   1.380   1.992   5.423 -0.1218  0.6090  0.0633
 1514SOL    HW116178   1.427   1.930   5.479 -0.5005 -0.2861 -0.6185
 1514SOL    HW216179   1.428   1.975   5.342  0.8238  3.5787  0.0124
 1515SOL     OW16180   4.697   2.791   8.127 -0.2741  0.2214  0.2088
 1515SOL    HW116181   4.655   2.783   8.212  0.1135 -0.6981  0.3241
 1515SOL    HW216182   4.690   2.883   8.103 -0.6373  0.5231  1.4895
 1516SOL     OW16183   3.301   4.247  13.501  0.2734  0.2811  0.4360
 1516SOL    HW116184   3.344   4.231  13.585  0.7485  1.8031  0.4908
 1516SOL    HW216185   3.327   4.338  13.483  1.4065 -0.5208 -1.9862
 1517SOL     OW16186   3.833   1.161   1.936  0.6902 -0.9478  0.0286
 1517SOL    HW116187   3.743   1.130   1.932  0.1777  0.7839 -2.2675
 1517SOL    HW216188   3.835   1.206   2.021 -1.4298 -2.3687  0.8294
 1518SOL     OW16189   4.612   1.308   7.190  0.1891 -0.3260  0.5597
 1518SOL    HW116190   4.580   1.304   7.280  0.2977 -1.0460  0.5660
 1518SOL    HW216191   4.605   1.214   7.169  0.7169 -0.0024 -1.0811
 1519SOL     OW16192   1.857   2.458  11.573 -0.5490 -0.4317  0.0590
 1519SOL    HW116193   1.827   2.543  11.540 -0.4673 -0.8316 -1.0314
 1519SOL    HW216194   1.781   2.404  11.553 -0.6581  0.1674 -1.1348
 1520SOL     OW16195   3.382   3.537   7.373  0.1499  0.6301  0.5307
 1520SOL    HW116196   3.435   3.586   7.310  0.0855  1.0457  0.8000
 1520SOL    HW216197   3.326   3.478   7.322 -1.7449  0.4293  2.8659
 1521SOL     OW16198   2.383   0.220   9.036  0.4374  0.1116  0.3324
 1521SOL    HW116199   2.468   0.263   9.031  0.7089 -0.6839 -1.7190
 1521SOL    HW216200   2.321   0.290   9.056  1.8307  1.7004 -0.9830
 1522SOL     OW16201   1.084   0.714  14.014 -0.1563  0.9888 -0.5153
 1522SOL    HW116202   1.020   0.713  14.085 -0.0002  0.3896 -0.3906
 1522SOL    HW216203   1.026   0.711  13.937 -0.9315  0.6167  0.0827
 1523SOL     OW16204   4.065   4.018   7.145 -0.0764 -0.2115  0.1107
 1523SOL    HW116205   4.071   3.936   7.194  1.6731  0.3244  0.8082
 1523SOL    HW216206   4.113   3.994   7.066  1.7146 -0.4453  1.2529
 1524SOL     OW16207   2.810   4.621   1.201 -0.3703  0.7349  0.0502
 1524SOL    HW116208   2.868   4.600   1.274 -0.5966 -1.7909 -0.4659
 1524SOL    HW216209   2.833   4.710   1.178 -0.2648  0.2917 -1.5832
 1525SOL     OW16210   3.668   3.860  13.683  0.4905 -0.0690  0.0899
 1525SOL    HW116211   3.697   3.803  13.612 -2.4212  0.0880 -1.2338
 1525SOL    HW216212   3.600   3.822  13.739 -1.2354  2.3685 -0.3550
 1526SOL     OW16213   1.125   4.126   3.333 -0.5510 -0.0597 -0.3724
 1526SOL    HW116214   1.031   4.110   3.336 -0.1725 -2.1581 -0.0746
 1526SOL    HW216215   1.156   4.037   3.322  1.9117  0.5355  1.6544
 1527SOL     OW16216   1.847   1.959  16.378 -0.2927 -0.2182 -0.0832
 1527SOL    HW116217   1.852   2.034  16.437 -0.3764 -1.3706  1.3903
 1527SOL    HW216218   1.845   2.020  16.304  0.3261  0.8786  0.7965
 1528SOL     OW16219   2.720   1.965   4.824 -0.2905 -0.1436  0.4704
 1528SOL    HW116220   2.657   2.024   4.782 -0.7132  0.3290  1.7484
 1528SOL    HW216221   2.670   1.953   4.905  0.3811  0.5436  0.9777
 1529SOL     OW16222   2.569   1.603   3.366 -0.0511  0.1413  0.2174
 1529SOL    HW116223   2.662   1.600   3.343 -0.1058 -3.0778  0.4091
 1529SOL    HW216224   2.565   1.583   3.459  0.6049  0.8877  0.4005
 1530SOL     OW16225   1.271   3.608   9.039 -0.2663 -0.0273  0.3244
 1530SOL    HW116226   1.324   3.660   8.980 -1.6980  0.5033 -0.4990
 1530SOL    HW216227   1.314   3.634   9.120  0.4910 -0.2218 -0.0175
 1531SOL     OW16228   4.430   2.170   8.358  0.3113  0.6966  0.3672
 1531SOL    HW116229   4.452   2.256   8.322  0.9763 -0.7897 -2.7963
 1531SOL    HW216230   4.341   2.149   8.329  1.1030 -0.5551 -1.1886
 1532SOL     OW16231   3.474   4.379  17.708 -0.3975  0.1777 -0.3934
 1532SOL    HW116232   3.424   4.438  17.652 -1.7425 -1.0590 -0.4970
 1532SOL    HW216233   3.403   4.352   0.026  1.0763  1.0807  1.8509
 1533SOL     OW16234   3.874   1.873   2.666 -0.0135 -0.9471 -0.5882
 1533SOL    HW116235   3.951   1.930   2.667 -1.2455  0.7592 -1.3837
 1533SOL    HW216236   3.839   1.883   2.577  0.7921  0.8832 -0.7024
 1534SOL     OW16237   1.963   2.852   8.965 -0.5050  0.5862  0.3312
 1534SOL    HW116238   1.977   2.879   9.056 -2.1561  1.3808  0.3369
 1534SOL    HW216239   2.043   2.801   8.948 -0.6193  0.8770 -1.0143
 1535SOL     OW16240   3.447   0.757   4.346 -0.7456  0.0874 -0.2471
 1535SOL    HW116241   3.432   0.746   4.252  2.8955  1.2525 -0.9901
 1535SOL    HW216242   3.375   0.712   4.388  0.6285  0.5524  2.6029
 1536SOL     OW16243   1.736   1.416   1.852 -0.1061  0.2939  0.0659
 1536SOL    HW116244   1.779   1.455   1.929 -2.4352  0.6078  1.2219
 1536SOL    HW216245   1.656   1.469   1.846  0.0936  0.3604 -2.0033
 1537SOL     OW16246   0.253   4.238   8.355  0.1814 -0.2109 -0.5857
 1537SOL    HW116247   0.243   4.332   8.338  0.3513 -0.3047 -1.1812
 1537SOL    HW216248   0.298   4.248   8.439  0.4166  1.9384 -0.9740
 1538SOL     OW16249   0.865   1.784   5.110 -0.3437  0.0079  0.0330
 1538SOL    HW116250   0.817   1.754   5.033 -0.9651  0.4432  0.2534
 1538SOL    HW216251   0.904   1.703   5.142  0.2859  0.0438 -0.6266
 1539SOL     OW16252   0.296   1.740   9.508  0.8932  0.1796  0.5876
 1539SOL    HW116253   0.379   1.691   9.502 -0.5461 -1.9221 -2.3390
 1539SOL    HW216254   0.331   1.828   9.519  1.8263 -0.2572  1.1436
 1540SOL     OW16255   3.438   4.362   4.926 -0.3104 -0.2928 -0.2001
 1540SOL    HW116256   3.459   4.287   4.982  1.1448  0.7131  0.6098
 1540SOL    HW216257   3.422   4.434   4.987  1.4952  1.9202 -2.3275
 1541SOL     OW16258   4.331   1.614   4.138 -0.2742  0.4502  0.5385
 1541SOL    HW116259   4.352   1.679   4.071  2.5846 -1.5798 -0.5432
 1541SOL    HW216260   4.402   1.631   4.199  0.4635 -2.4490  0.5144
 1542SOL     OW16261   2.052   1.044   2.676  0.2729 -0.3485 -0.6376
 1542SOL    HW116262   1.972   0.998   2.700  0.1102 -1.2924 -3.0123
 1542SOL    HW216263   2.085   0.985   2.609  2.0531 -0.9745  0.7886
 1543SOL     OW16264   2.576   2.043  12.328  0.0081  0.1234 -0.9243
 1543SOL    HW116265   2.634   2.006  12.394 -1.7493 -1.2261 -0.1432
 1543SOL    HW216266   2.492   2.004  12.350 -0.0418  1.1797  0.7920
 1544SOL     OW16267   1.298   1.747   3.530  0.3754 -0.6134 -0.3227
 1544SOL    HW116268   1.306   1.661   3.572 -1.4712  0.1048  1.4721
 1544SOL    HW216269   1.313   1.729   3.437 -1.1470 -0.3722 -0.6154
 1545SOL     OW16270   4.589   3.115   5.092 -0.1137  0.1631 -0.0064
 1545SOL    HW116271   4.606   3.048   5.158  0.9647  0.4633  0.0217
 1545SOL    HW216272   4.672   3.157   5.069  1.1245 -1.9223  0.6703
 1546SOL     OW16273   1.298   3.273   7.161 -0.8357  0.2561 -0.0837
 1546SOL    HW116274   1.274   3.323   7.239  0.8398 -2.8475  2.4240
 1546SOL    HW216275   1.382   3.236   7.189 -1.1470  0.3158  0.9318
 1547SOL     OW16276   0.111   0.510   8.606  0.3078 -0.0888 -0.1127
 1547SOL    HW116277   0.033   0.479   8.653 -0.4892  2.1686  0.0386
 1547SOL    HW216278   0.166   0.433   8.594  0.0255 -0.8032  3.0009
 1548SOL     OW16279   1.879   0.065   3.776  0.2283 -0.6324 -0.6534
 1548SOL    HW116280   1.852   0.016   3.854 -2.9754  1.2402 -0.6373
 1548SOL    HW216281   1.844   0.014   3.703  0.5618 -1.7435 -0.0357
 1549SOL     OW16282   0.550   2.475  15.742 -0.2199 -0.2980 -0.9583
 1549SOL    HW116283   0.524   2.383  15.743  3.2029 -1.2694  0.0931
 1549SOL    HW216284   0.645   2.471  15.736 -0.2160  0.1552 -1.2260
 1550SOL     OW16285   2.025   2.169   0.301 -0.0836  0.0734 -0.3411
 1550SOL    HW116286   2.056   2.081   0.281 -1.2044 -0.3562 -0.2191
 1550SOL    HW216287   1.932   2.151   0.316 -0.2457  0.0533 -1.3868
 1551SOL     OW16288   2.787   3.862   2.213 -0.2017  0.3353  0.1951
 1551SOL    HW116289   2.714   3.845   2.273  1.4797 -2.4678  1.4062
 1551SOL    HW216290   2.774   3.784   2.158  0.2782 -0.1147  0.7282
 1552SOL     OW16291   1.674   4.047   5.854 -0.1585  0.0216 -0.0738
 1552SOL    HW116292   1.610   4.050   5.783 -0.2641  1.3176  0.0813
 1552SOL    HW216293   1.629   3.980   5.907 -1.3649  2.5796  2.1168
 1553SOL     OW16294   0.972   1.074   3.524 -0.0654 -0.0385  0.3684
 1553SOL    HW116295   1.029   1.097   3.451 -0.7109  4.3834  1.2729
 1553SOL    HW216296   0.978   0.980   3.505 -0.7051 -0.0967  0.4582
 1554SOL     OW16297   0.213   1.894   4.287 -0.4584 -0.0244  0.3727
 1554SOL    HW116298   0.246   1.829   4.226  1.0772 -0.0137  1.1835
 1554SOL    HW216299   0.295   1.942   4.303 -2.5036  3.0604  1.6468
 1555SOL     OW16300   2.345   4.238   8.514 -0.5883 -0.0760 -0.0750
 1555SOL    HW116301   2.280   4.256   8.582  2.5194 -0.3806  2.9230
 1555SOL    HW216302   2.423   4.224   8.567 -0.0350  2.8295 -0.0866
 1556SOL     OW16303   2.808   3.528   3.322 -0.5036 -0.0922 -0.0865
 1556SOL    HW116304   2.795   3.590   3.394 -2.1237  0.0888 -0.5487
 1556SOL    HW216305   2.796   3.591   3.251 -0.8022 -0.4034 -0.3068
 1557SOL     OW16306   0.365   4.520  15.853  0.2016 -0.2936  0.1534
 1557SOL    HW116307   0.405   4.607  15.863  1.5648 -1.2060  2.6098
 1557SOL    HW216308   0.426   4.474  15.796  0.2367 -0.2126  0.1252
 1558SOL     OW16309   3.290   0.102   2.986  0.4398 -0.4115 -0.2596
 1558SOL    HW116310   3.333   0.115   2.902  1.1917 -1.1823  0.0053
 1558SOL    HW216311   3.369   0.110   3.039  1.3275  3.4202 -2.1864
 1559SOL     OW16312   2.221   1.234   2.559  0.5555 -0.3526 -0.3692
 1559SOL    HW116313   2.128   1.257   2.551  0.4967 -0.1211  1.0107
 1559SOL    HW216314   2.215   1.150   2.603  0.3052 -0.3530 -0.4066
 1560SOL     OW16315   0.302   2.702   4.492  0.3640  0.1924  0.0970
 1560SOL    HW116316   0.237   2.670   4.429  2.5890 -2.8647 -0.6736
 1560SOL    HW216317   0.242   2.742   4.555  1.8069  1.8855  0.3911
 1561SOL     OW16318   1.578   3.325   4.593 -0.2168 -0.7370 -0.5931
 1561SOL    HW116319   1.509   3.328   4.526 -0.5357  1.1520 -0.1862
 1561SOL    HW216320   1.574   3.416   4.623  1.9026 -0.3862 -1.3916
 1562SOL     OW16321   1.720   1.575  11.796  0.3802  0.0450  0.2047
 1562SOL    HW116322   1.709   1.632  11.720 -2.0224 -0.1417  0.4178
 1562SOL    HW216323   1.640   1.590  11.846 -1.3261 -1.9311 -1.8743
 1563SOL     OW16324   3.427   2.632   9.382  0.2861  0.3824 -0.5911
 1563SOL    HW116325   3.498   2.568   9.383  0.6024  0.7166 -3.0234
 1563SOL    HW216326   3.422   2.672   9.469  0.3110 -0.3811 -0.2352
 1564SOL     OW16327   1.489   1.658  15.235 -0.4743  0.0949 -0.2232
 1564SOL    HW116328   1.566   1.677  15.181 -1.7466  0.1560 -2.0177
 1564SOL    HW216329   1.526   1.656  15.323  1.2205 -0.4700 -0.9563
 1565SOL     OW16330   1.196   1.063   2.556  0.1024  0.4324 -0.3929
 1565SOL    HW116331   1.254   1.119   2.505 -0.0676  2.2154  1.3695
 1565SOL    HW216332   1.128   1.044   2.491  0.7866 -0.3121 -0.8904
 1566SOL     OW16333   3.878   4.609   9.413  0.3407  0.1745 -0.3126
 1566SOL    HW116334   3.818   4.536   9.396 -2.1527  1.8419  1.3383
 1566SOL    HW216335   3.969   4.584   9.399  0.6989  0.5113  1.4533
 1567SOL     OW16336   0.000   3.789   9.173  0.0437 -0.7808 -0.2665
 1567SOL    HW116337   4.641   3.773   9.168 -0.5314  2.3335  0.7304
 1567SOL    HW216338   0.011   3.760   9.264 -0.0129  0.3257  0.1017
 1568SOL     OW16339   2.162   3.047   1.811 -0.0547 -0.1083  0.5189
 1568SOL    HW116340   2.141   3.018   1.723 -0.2139  1.5910 -0.0097
 1568SOL    HW216341   2.080   3.076   1.851 -0.0329  1.9270 -0.8911
 1569SOL     OW16342   2.325   1.738   2.365  0.1310 -0.0631  0.4583
 1569SOL    HW116343   2.386   1.706   2.432  0.7685  1.6966  0.7293
 1569SOL    HW216344   2.249   1.682   2.383 -0.0383 -0.0412 -0.1973
 1570SOL     OW16345   1.733   0.311  11.186 -0.2836  0.0078 -0.4567
 1570SOL    HW116346   1.669   0.366  11.231  0.7966 -0.2606  1.3785
 1570SOL    HW216347   1.679   0.259  11.126 -1.6230  1.2419 -0.3311
 1571SOL     OW16348   1.682   4.507   3.124  0.6566  0.0649 -0.0049
 1571SOL    HW116349   1.633   4.508   3.042 -0.1736 -1.7279  0.4838
 1571SOL    HW216350   1.754   4.563   3.095  0.7182  0.2475  0.4885
 1572SOL     OW16351   4.202   2.490   8.136 -0.1206  0.2329  0.3059
 1572SOL    HW116352   4.271   2.464   8.197 -0.3160 -2.5976 -0.7237
 1572SOL    HW216353   4.241   2.571   8.101  1.2994 -0.3793  0.4738
 1573SOL     OW16354   1.310   3.475   3.435 -0.0147 -0.6543  0.3099
 1573SOL    HW116355   1.327   3.561   3.473  0.2730  0.6929 -2.8737
 1573SOL    HW216356   1.245   3.497   3.369 -0.2464  0.5908  0.9540
 1574SOL     OW16357   0.688   4.540   8.010 -0.3546  0.1659  0.2880
 1574SOL    HW116358   0.706   4.634   8.010  3.5313 -0.5554  1.2413
 1574SOL    HW216359   0.773   4.502   7.986 -0.8502  0.7664 -2.4602
 1575SOL     OW16360   4.177   2.123   6.053  0.1446  0.0946 -0.0552
 1575SOL    HW116361   4.203   2.034   6.026 -0.6567 -0.9375  2.6171
 1575SOL    HW216362   4.182   2.107   6.147  2.5464 -0.1984 -0.2204
 1576SOL     OW16363   0.297   3.579   7.251 -0.1956  0.0363  0.3617
 1576SOL    HW116364   0.317   3.671   7.268  0.4956  0.0809 -0.7510
 1576SOL    HW216365   0.217   3.595   7.201  1.1898  0.0242 -1.8367
 1577SOL     OW16366   1.692   0.617   3.702  0.1840 -0.0252  0.2222
 1577SOL    HW116367   1.725   0.628   3.792  1.7401 -0.7110 -0.2631
 1577SOL    HW216368   1.747   0.546   3.669  0.9499  1.4121 -1.5663
 1578SOL     OW16369   3.553   2.992   9.663  0.5971 -0.5504 -0.5733
 1578SOL    HW116370   3.537   3.084   9.685  2.0401 -0.5107  0.2546
 1578SOL    HW216371   3.607   2.997   9.584  1.2500  2.0560  0.0476
 1579SOL     OW16372   4.599   1.683   6.756 -0.3377  0.2761 -0.0653
 1579SOL    HW116373   4.677   1.713   6.803 -0.6800  0.8487  0.1373
 1579SOL    HW216374   4.560   1.624   6.820  1.5920 -1.1038 -0.1788
 1580SOL     OW16375   3.183   0.898   0.764 -0.0199  0.1162  0.1665
 1580SOL    HW116376   3.211   0.913   0.855 -0.1673  1.5952 -0.0291
 1580SOL    HW216377   3.107   0.840   0.774  0.8008 -0.8830  0.6599
 1581SOL     OW16378   2.871   3.653   8.933 -0.0442 -0.5270 -0.0611
 1581SOL    HW116379   2.957   3.668   8.895 -1.7577  3.6127 -2.2072
 1581SOL    HW216380   2.812   3.681   8.863  0.5198  0.2909 -0.2103
 1582SOL     OW16381   1.397   4.629  15.616  0.1358 -0.0662 -0.5044
 1582SOL    HW116382   1.377   4.642  15.523 -0.6240  1.2833 -0.1506
 1582SOL    HW216383   1.382   4.721  15.638  2.3427 -0.8767  4.4015
 1583SOL     OW16384   4.652   0.962  12.917  0.5662 -0.6747  0.4239
 1583SOL    HW116385   4.583   0.895  12.914 -0.1213  0.0830 -0.8222
 1583SOL    HW216386   4.730   0.910  12.934 -0.3020 -1.9560  0.5350
 1584SOL     OW16387   0.532   2.257   2.133  0.0349  0.0758 -0.7851
 1584SOL    HW116388   0.582   2.176   2.139  1.4973  0.8832 -2.0814
 1584SOL    HW216389   0.464   2.241   2.198 -0.4613  0.2147 -1.2665
 1585SOL     OW16390   1.417   1.647   3.293 -0.2187 -0.2052 -0.4036
 1585SOL    HW116391   1.467   1.583   3.344  0.8655  0.4041 -0.7026
 1585SOL    HW216392   1.373   1.604   3.220 -0.3293  0.9242 -0.9964
 1586SOL     OW16393   1.255   0.053   2.162 -0.7456  0.0408 -0.2144
 1586SOL    HW116394   1.219   0.047   2.250 -1.1936 -0.2915 -0.4230
 1586SOL    HW216395   1.186   0.098   2.112 -1.3058 -1.9116 -1.1783
 1587SOL     OW16396   1.625   1.020   7.466 -0.3414  0.3831 -0.4033
 1587SOL    HW116397   1.616   0.966   7.388 -0.3005 -0.3453  0.0948
 1587SOL    HW216398   1.653   1.108   7.440 -0.9705  0.2678 -1.4577
 1588SOL     OW16399   4.464   3.661  10.611 -0.8530 -0.1134 -0.0351
 1588SOL    HW116400   4.482   3.588  10.552 -1.4335  1.0525 -1.6499
 1588SOL    HW216401   4.540   3.657  10.669 -0.7429  0.2473 -0.1547
 1589SOL     OW16402   2.244   0.627   4.373  0.0357  0.6875  0.3934
 1589SOL    HW116403   2.166   0.629   4.318  0.5117  2.2265 -0.2162
 1589SOL    HW216404   2.281   0.540   4.359 -3.2451 -0.7460  0.6984
 1590SOL     OW16405   0.625   2.892   6.337  0.8685 -0.0124  0.2872
 1590SOL    HW116406   0.643   2.986   6.344  1.6097 -0.0723 -0.8841
 1590SOL    HW216407   0.697   2.848   6.382  0.4065 -0.6993  0.3514
 1591SOL     OW16408   2.931   2.206   5.383  0.0865  0.1206  0.5709
 1591SOL    HW116409   2.840   2.198   5.353  0.0436 -0.1928  0.7761
 1591SOL    HW216410   2.929   2.138   5.451  1.1400  0.5656  1.0453
 1592SOL     OW16411   2.409   3.198   1.451  0.4496 -0.2621  0.3890
 1592SOL    HW116412   2.319   3.226   1.431  0.4789  0.2595  1.0001
 1592SOL    HW216413   2.397   3.166   1.540  0.2418  1.7463  1.0832
 1593SOL     OW16414   0.734   0.097  10.637  0.2249  0.2589 -0.8049
 1593SOL    HW116415   0.743   0.038  10.563  2.2844  0.6055 -0.8469
 1593SOL    HW216416   0.644   0.080  10.665 -0.0446 -0.4697 -2.1319
 1594SOL     OW16417   0.118   2.863   6.988 -0.0464  0.5746  0.0711
 1594SOL    HW116418   0.068   2.866   6.907  1.0556 -0.8220 -0.6470
 1594SOL    HW216419   0.102   2.951   7.022  3.4826  0.2756  2.5261
 1595SOL     OW16420   0.050   2.839   1.399  0.0308  0.5055  0.0780
 1595SOL    HW116421   0.093   2.886   1.471 -0.0044 -1.1540  1.2031
 1595SOL    HW216422   4.735   2.777   1.452 -1.3916  1.9219  0.3640
 1596SOL     OW16423   3.399   3.381  15.674 -0.4123 -0.8469 -0.0777
 1596SOL    HW116424   3.467   3.346  15.733 -0.0868  0.0122  0.0528
 1596SOL    HW216425   3.431   3.357  15.587  0.7362  0.1326  0.0825
 1597SOL     OW16426   1.102   3.892   7.247 -0.0962  0.0370 -0.3464
 1597SOL    HW116427   1.048   3.971   7.254 -2.3486 -1.3352 -2.1105
 1597SOL    HW216428   1.071   3.847   7.169  2.5710  0.3142 -1.5754
 1598SOL     OW16429   1.388   0.320   6.294 -0.4725  0.2238 -0.1734
 1598SOL    HW116430   1.402   0.407   6.256  0.7777  0.6948  1.3438
 1598SOL    HW216431   1.477   0.291   6.277 -0.8478 -2.3635  2.3973
 1599SOL     OW16432   3.699   1.429   9.237  0.1993  0.0604  0.2396
 1599SOL    HW116433   3.674   1.411   9.147 -0.5231 -3.2729  1.1227
 1599SOL    HW216434   3.632   1.492   9.264  0.4692  0.3913  0.1397
 1600SOL     OW16435   0.143   2.603   2.584  0.5389  0.2194 -0.1585
 1600SOL    HW116436   0.077   2.605   2.653  0.2268 -4.0615 -0.3528
 1600SOL    HW216437   0.101   2.575   2.503  1.2294  0.7403 -0.6999
 1601SOL     OW16438   2.909   2.487   7.138  0.5433  0.2782 -0.3167
 1601SOL    HW116439   3.003   2.469   7.134  1.0621  2.7377  1.6051
 1601SOL    HW216440   2.898   2.572   7.095  1.6464  0.1458 -0.8585
 1602SOL     OW16441   2.578   2.217  15.760 -0.8478 -0.2526 -0.1106
 1602SOL    HW116442   2.498   2.268  15.765 -0.2423  0.9261 -2.3115
 1602SOL    HW216443   2.543   2.130  15.739  1.8110 -1.1300 -0.9711
 1603SOL     OW16444   1.640   3.562  13.100 -0.0644 -0.0862  0.5981
 1603SOL    HW116445   1.573   3.496  13.116 -0.2072 -0.3905 -1.2181
 1603SOL    HW216446   1.694   3.512  13.039  3.0164  1.7967  1.7890
 1604SOL     OW16447   0.591   0.199   2.519  0.4089  0.4984 -0.6635
 1604SOL    HW116448   0.562   0.116   2.557  0.6614  0.6486 -0.1444
 1604SOL    HW216449   0.512   0.249   2.497 -0.0917 -0.7573 -1.7253
 1605SOL     OW16450   3.529   4.677   9.665  0.1798  0.5732  0.1221
 1605SOL    HW116451   3.553   0.034   9.661  0.4748  0.4185 -1.6421
 1605SOL    HW216452   3.493   4.670   9.754  0.5784 -1.4522  0.1408
 1606SOL     OW16453   1.004   1.039   6.428 -0.2188  0.4208  0.1021
 1606SOL    HW116454   1.047   0.960   6.461 -2.6836  0.0151  2.2807
 1606SOL    HW216455   1.073   1.104   6.445 -0.9931  0.8184  1.6874
 1607SOL     OW16456   3.033   0.389   5.056 -0.1435  0.2097 -0.3698
 1607SOL    HW116457   3.127   0.387   5.042 -0.0130 -0.8794  0.5913
 1607SOL    HW216458   3.013   0.307   5.010 -1.8441 -0.5047  1.6071
 1608SOL     OW16459   4.339   1.141  17.237  0.4318 -0.1802 -0.5514
 1608SOL    HW116460   4.400   1.193  17.290 -1.4860  0.6355  0.8499
 1608SOL    HW216461   4.295   1.078  17.293 -0.6964 -0.2356 -1.5137
 1609SOL     OW16462   0.276   3.729   7.947  0.0605 -0.4056 -0.1323
 1609SOL    HW116463   0.364   3.701   7.920  0.7055  3.0276 -1.6415
 1609SOL    HW216464   0.281   3.734   8.042 -0.9956 -0.1887 -0.0884
 1610SOL     OW16465   2.956   2.689   2.792 -0.1889  0.5670 -0.0794
 1610SOL    HW116466   2.913   2.606   2.771  2.6313 -0.9718  0.2850
 1610SOL    HW216467   2.931   2.735   2.711 -0.0422 -1.2387 -1.1504
 1611SOL     OW16468   0.804   1.490   4.209  0.1740  0.0579  0.2480
 1611SOL    HW116469   0.729   1.455   4.256 -0.1973 -1.2234 -1.3095
 1611SOL    HW216470   0.852   1.414   4.177  1.1045  0.6113  0.3291
 1612SOL     OW16471   3.116   2.247   8.800  0.0666 -0.2757  0.0043
 1612SOL    HW116472   3.048   2.185   8.775  0.2993 -0.8373  0.7488
 1612SOL    HW216473   3.135   2.274   8.710  0.2130 -1.3709 -0.2878
 1613SOL     OW16474   1.774   3.554  11.737 -0.4369  0.3093  0.1440
 1613SOL    HW116475   1.799   3.644  11.715  3.1811 -0.7686 -0.2022
 1613SOL    HW216476   1.863   3.523  11.756 -0.5147  0.1758  0.2902
 1614SOL     OW16477   3.938   1.499   2.476  0.0009 -0.1749 -0.0317
 1614SOL    HW116478   3.940   1.568   2.409  0.2192  0.0668  0.2268
 1614SOL    HW216479   3.945   1.558   2.550  2.1128 -0.8331  0.2866
 1615SOL     OW16480   4.317   2.162   3.273 -0.4565 -0.5298  0.2512
 1615SOL    HW116481   4.394   2.136   3.222 -1.4269 -0.7026 -1.1264
 1615SOL    HW216482   4.265   2.088   3.242  0.3936 -1.2770  0.6040
 1616SOL     OW16483   0.337   1.368  14.307  0.5257 -0.2193 -0.3701
 1616SOL    HW116484   0.410   1.401  14.254  0.3596  0.4056 -0.2127
 1616SOL    HW216485   0.382   1.378  14.391  0.6147  0.9952 -0.5623
 1617SOL     OW16486   3.638   1.391   1.928  0.4578  0.0613  0.7182
 1617SOL    HW116487   3.600   1.311   1.966  0.2251  0.2899  0.9648
 1617SOL    HW216488   3.559   1.437   1.901  1.3571  0.2225 -1.5953
 1618SOL     OW16489   4.046   0.807  11.925  0.8094 -0.2879  0.0503
 1618SOL    HW116490   3.956   0.786  11.899 -0.0553  1.0937  1.9510
 1618SOL    HW216491   4.058   0.745  11.996 -2.3229  0.2054  1.0212
 1619SOL     OW16492   3.705   0.973  12.656  0.4633 -0.4709  0.5466
 1619SOL    HW116493   3.637   0.917  12.618  0.8269  0.0795 -0.9031
 1619SOL    HW216494   3.714   1.039  12.588  0.3893  0.5907  1.5652
 1620SOL     OW16495   1.409   1.384   0.978 -0.3508 -0.3311 -0.0608
 1620SOL    HW116496   1.324   1.341   0.961 -0.0037 -1.0659  0.0548
 1620SOL    HW216497   1.463   1.308   1.000  1.2185  1.3663  1.8777
 1621SOL     OW16498   4.561   1.060  16.085 -0.3273  0.4130  0.3856
 1621SOL    HW116499   4.533   0.982  16.038  3.6749  0.0360 -1.3695
 1621SOL    HW216500   4.609   1.114  16.022 -1.3903 -0.5090 -1.2217
 1622SOL     OW16501   4.069   1.567   7.152 -0.0260  0.1018  0.5800
 1622SOL    HW116502   4.116   1.597   7.229  0.9145 -0.8019  0.3656
 1622SOL    HW216503   4.114   1.491   7.116 -2.6289 -1.2261  0.1033
 1623SOL     OW16504   1.462   0.875   6.732 -0.0389 -0.0889 -0.5372
 1623SOL    HW116505   1.491   0.788   6.706 -0.1175 -0.1464 -0.4330
 1623SOL    HW216506   1.369   0.855   6.740 -0.6136  3.5223  1.8292
 1624SOL     OW16507   1.789   2.131   0.447 -0.3201  0.5162  0.5745
 1624SOL    HW116508   1.758   2.219   0.429  0.0441  0.5516  0.1127
 1624SOL    HW216509   1.730   2.092   0.511  0.7126 -1.4794  0.3196
 1625SOL     OW16510   3.097   3.734   1.347 -0.0615 -0.2331  0.4614
 1625SOL    HW116511   3.093   3.640   1.361  1.0543 -0.2628  0.6475
 1625SOL    HW216512   3.121   3.730   1.255 -0.4099  0.5021  0.3380
 1626SOL     OW16513   1.284   0.618   6.552 -0.3397  0.2816 -0.3891
 1626SOL    HW116514   1.351   0.573   6.501 -1.3204  0.4843 -1.8318
 1626SOL    HW216515   1.270   0.559   6.626 -0.5320  0.4989 -0.2525
 1627SOL     OW16516   2.842   0.934   3.890  0.7380 -0.2545  0.3481
 1627SOL    HW116517   2.873   0.974   3.809 -0.1100  0.3806  0.3455
 1627SOL    HW216518   2.903   0.860   3.885  0.8555 -0.1312 -0.0242
 1628SOL     OW16519   1.115   0.101  12.739 -0.2259  0.1558  0.2662
 1628SOL    HW116520   1.162   0.068  12.815  1.7766 -2.0478 -1.9266
 1628SOL    HW216521   1.037   0.135  12.782  0.4271 -0.7848  2.1794
 1629SOL     OW16522   3.269   3.876   6.099 -0.5092  0.8226 -0.6980
 1629SOL    HW116523   3.229   3.916   6.021  1.3978 -0.6187 -2.4045
 1629SOL    HW216524   3.319   3.804   6.060 -1.0892  0.6635 -1.1469
 1630SOL     OW16525   0.402   4.598   2.000 -0.0027  0.3290 -0.3168
 1630SOL    HW116526   0.410   4.620   1.907  2.5019  0.7573 -0.0028
 1630SOL    HW216527   0.429   4.506   2.006 -0.2385  0.1172 -2.5411
 1631SOL     OW16528   2.604   0.075   6.848  0.2109  0.2482 -0.0866
 1631SOL    HW116529   2.537   0.068   6.917  0.5634  0.0361  0.2307
 1631SOL    HW216530   2.582   0.001   6.792  1.1787 -1.3023  1.5641
 1632SOL     OW16531   4.187   1.896  13.734  0.2781 -0.2045 -0.2513
 1632SOL    HW116532   4.211   1.989  13.735  1.1869 -0.4582  1.6195
 1632SOL    HW216533   4.185   1.868  13.643 -0.4767  2.6582 -1.1176
 1633SOL     OW16534   2.389   3.409  16.614 -0.6323  0.9344 -0.6830
 1633SOL    HW116535   2.478   3.413  16.579 -0.9076  1.4870 -1.3353
 1633SOL    HW216536   2.346   3.405  16.528  0.5163  3.6188 -1.3850
 1634SOL     OW16537   3.033   0.361   1.829 -0.4606 -0.3075  0.2183
 1634SOL    HW116538   3.064   0.287   1.777  2.0485  0.4031  0.7055
 1634SOL    HW216539   3.055   0.351   1.921  0.5049 -1.7721 -0.1795
 1635SOL     OW16540   4.564   4.353   4.906  0.4671  0.2102 -0.3723
 1635SOL    HW116541   4.530   4.441   4.919  1.0924  1.0355 -4.2938
 1635SOL    HW216542   4.513   4.316   4.978 -1.1733  4.4753  0.6166
 1636SOL     OW16543   2.349   0.340   3.229  0.1742 -0.0665 -0.2818
 1636SOL    HW116544   2.370   0.409   3.292 -0.9480 -0.1683  0.2143
 1636SOL    HW216545   2.332   0.267   3.289 -2.5821 -0.4863 -1.5600
 1637SOL     OW16546   0.734   4.518   6.566  0.1915  0.4131  0.2534
 1637SOL    HW116547   0.737   4.557   6.654  1.0082  0.4484  0.2101
 1637SOL    HW216548   0.803   4.572   6.528  0.5388  1.3593  2.2038
 1638SOL     OW16549   2.684   0.123   7.928 -0.7077  0.2222  0.2405
 1638SOL    HW116550   2.760   0.163   7.885 -1.1877  1.9886  1.0253
 1638SOL    HW216551   2.703   0.030   7.918  2.8636  1.0263 -0.4490
 1639SOL     OW16552   1.391   1.040   4.957  0.1448  0.4513  0.4176
 1639SOL    HW116553   1.348   1.090   5.026  0.4682  0.6481  0.4751
 1639SOL    HW216554   1.463   1.002   5.007 -0.1519 -1.2797 -0.4414
 1640SOL     OW16555   1.459   2.752  13.372 -0.4334 -0.3642 -0.1034
 1640SOL    HW116556   1.367   2.729  13.358  0.0538 -2.7040  0.4859
 1640SOL    HW216557   1.439   2.823  13.433  0.9566  1.5982 -1.9460
 1641SOL     OW16558   3.244   0.281   8.655  0.0895  0.4444  0.0565
 1641SOL    HW116559   3.279   0.334   8.726  0.4460  1.6470 -1.0214
 1641SOL    HW216560   3.178   0.232   8.704 -0.7403  1.1892 -0.3184
 1642SOL     OW16561   0.027   0.748   5.688  0.6237  0.0460  0.2179
 1642SOL    HW116562   4.701   0.822   5.696 -1.9575 -1.6546 -3.8322
 1642SOL    HW216563   0.087   0.790   5.749 -1.4641  1.5342  1.2646
 1643SOL     OW16564   2.790   4.249   2.641  0.1635  0.4381 -0.1234
 1643SOL    HW116565   2.801   4.199   2.722  1.8694  0.2972 -0.4337
 1643SOL    HW216566   2.846   4.201   2.579  0.6133  0.4881  0.2419
 1644SOL     OW16567   2.197   0.630  14.440  0.3388 -0.6228 -0.4253
 1644SOL    HW116568   2.135   0.616  14.513 -1.2168  0.6966 -1.5037
 1644SOL    HW216569   2.164   0.713  14.407 -0.8031 -0.7644  0.3406
 1645SOL     OW16570   0.607   4.191   2.623  0.6624 -0.2955  0.1718
 1645SOL    HW116571   0.691   4.148   2.642  0.4395 -0.9272 -0.2392
 1645SOL    HW216572   0.612   4.181   2.528  0.8188 -1.5840  0.3084
 1646SOL     OW16573   2.114   0.566   7.899 -0.0798 -0.2354 -0.2311
 1646SOL    HW116574   2.191   0.570   7.841  0.2512 -1.5697  0.1299
 1646SOL    HW216575   2.062   0.643   7.877  0.1833 -0.1337 -0.5130
 1647SOL     OW16576   1.292   1.995  12.863 -0.3956 -0.5343 -0.7382
 1647SOL    HW116577   1.243   2.063  12.819  0.4034  0.4872 -0.0471
 1647SOL    HW216578   1.291   1.927  12.796 -1.2957 -0.4667 -0.7944
 1648SOL     OW16579   1.085   1.782   7.864  0.9693  0.1738 -0.5322
 1648SOL    HW116580   1.101   1.737   7.781  0.3790 -1.0151 -0.0044
 1648SOL    HW216581   0.990   1.783   7.869  1.0330  1.2663  0.3396
 1649SOL     OW16582   4.201   0.674  13.188  0.7568  0.0362 -0.2163
 1649SOL    HW116583   4.233   0.587  13.164 -3.0494 -0.4466 -3.4166
 1649SOL    HW216584   4.283   0.717  13.213 -0.5931  2.2141  0.4023
 1650SOL     OW16585   1.212   2.519   7.451 -0.4721  0.0580  0.3848
 1650SOL    HW116586   1.139   2.564   7.492  1.2388  1.8246  1.5026
 1650SOL    HW216587   1.198   2.552   7.362  3.0105  0.6486  0.0281
 1651SOL     OW16588   2.602   3.919   1.795 -0.0139 -0.3174 -0.4510
 1651SOL    HW116589   2.609   4.007   1.833 -1.2950 -0.4986  0.1999
 1651SOL    HW216590   2.534   3.949   1.734 -0.7223  1.4844  1.1951
 1652SOL     OW16591   3.779   1.376  17.587  0.0567  0.3873  0.5672
 1652SOL    HW116592   3.733   1.292  17.582 -0.0661  0.3208  3.1294
 1652SOL    HW216593   3.869   1.355  17.613  0.1166  0.1101  0.1511
 1653SOL     OW16594   3.577   3.085   3.021  0.2118 -0.2721  0.4727
 1653SOL    HW116595   3.560   3.172   3.058  1.4110 -0.9511  2.6377
 1653SOL    HW216596   3.494   3.066   2.977  0.8059 -1.2955 -0.1956
 1654SOL     OW16597   4.562   2.778   8.351 -0.4340 -0.7445  0.1389
 1654SOL    HW116598   4.538   2.868   8.375  0.6420 -0.2173 -0.7643
 1654SOL    HW216599   4.499   2.726   8.401  1.0651 -2.3662  0.3427
 1655SOL     OW16600   1.430   2.248   3.162  0.4609  0.2120 -0.1520
 1655SOL    HW116601   1.379   2.288   3.092 -0.8699 -0.8455  0.2277
 1655SOL    HW216602   1.380   2.171   3.190 -0.7562  0.1080 -2.6361
 1656SOL     OW16603   1.457   2.210   3.481 -0.4590  0.2212 -0.0252
 1656SOL    HW116604   1.412   2.132   3.514 -0.0971  0.7777  1.7933
 1656SOL    HW216605   1.508   2.167   3.413  1.3841  1.0816  0.8152
 1657SOL     OW16606   2.450   2.274   7.606 -0.9341 -0.1392  0.4433
 1657SOL    HW116607   2.539   2.299   7.629 -0.6107 -0.7946 -0.0947
 1657SOL    HW216608   2.390   2.329   7.656  1.2570  1.1937  1.6021
 1658SOL     OW16609   1.826   2.184   0.039  0.5280 -0.5265  0.2117
 1658SOL    HW116610   1.790   2.111   0.089  0.2597  0.5690  1.6296
 1658SOL    HW216611   1.828   2.134  17.697  1.9548  1.0823 -0.7428
 1659SOL     OW16612   0.034   3.748   5.492 -0.2160 -0.0348  0.3123
 1659SOL    HW116613   0.112   3.693   5.489  0.8624  1.7128 -3.4797
 1659SOL    HW216614   4.717   3.721   5.416  0.0621  0.5971 -0.1059
 1660SOL     OW16615   0.151   1.984   5.865  0.0094  0.2603  0.0195
 1660SOL    HW116616   0.122   1.899   5.899  0.2294  0.0272 -0.3826
 1660SOL    HW216617   0.221   1.943   5.815  0.7061  2.2844 -0.6855
 1661SOL     OW16618   2.433   0.284   0.238  0.6052 -0.0239 -0.4434
 1661SOL    HW116619   2.377   0.258   0.164 -2.3194  1.0983  1.3522
 1661SOL    HW216620   2.500   0.218   0.226 -1.6571 -2.6358  1.2699
 1662SOL     OW16621   2.004   1.784  13.190 -0.2077 -0.1173  0.2600
 1662SOL    HW116622   2.028   1.700  13.151  0.6017 -0.0204  0.5637
 1662SOL    HW216623   1.912   1.778  13.163 -0.9036 -0.4397  2.7755
 1663SOL     OW16624   0.285   4.450   6.358  0.1075  0.2114  0.6535
 1663SOL    HW116625   0.206   4.398   6.367  0.6621 -0.6198  0.7128
 1663SOL    HW216626   0.324   4.444   6.446 -1.4967  0.7311  1.3972
 1664SOL     OW16627   4.389   0.105   3.389  0.3512 -0.1859  0.4359
 1664SOL    HW116628   4.419   0.023   3.349 -0.6202 -0.5380  0.4410
 1664SOL    HW216629   4.377   0.087   3.483 -1.0905  1.0731  0.4834
 1665SOL     OW16630   2.498   3.555   4.288 -0.1571  0.7427 -0.2724
 1665SOL    HW116631   2.448   3.601   4.355 -0.3221  0.1416  0.0255
 1665SOL    HW216632   2.581   3.601   4.300 -0.9812  2.4185 -1.0945
 1666SOL     OW16633   0.312   1.045   2.817 -0.2568 -0.2922 -0.0455
 1666SOL    HW116634   0.320   0.949   2.813  0.7976 -0.1341 -1.5203
 1666SOL    HW216635   0.282   1.051   2.908 -0.6250  0.4850 -0.2177
 1667SOL     OW16636   1.294   4.663  11.518  0.0160 -0.1706 -0.0187
 1667SOL    HW116637   1.205   4.671  11.551 -0.0603  0.2306 -0.3238
 1667SOL    HW216638   1.282   4.695  11.428  1.3378 -0.8461 -0.4336
 1668SOL     OW16639   1.090   3.083   7.789  0.0440 -0.0999  0.3280
 1668SOL    HW116640   1.091   3.167   7.835 -1.6526 -1.1499  2.2588
 1668SOL    HW216641   1.059   3.112   7.703  0.5786 -3.5360 -1.0356
 1669SOL     OW16642   1.727   2.533   6.786  0.5030  0.2797 -0.8170
 1669SOL    HW116643   1.724   2.576   6.871  1.6127 -0.5856 -0.3262
 1669SOL    HW216644   1.637   2.535   6.755  0.2436  0.6025 -0.0287
 1670SOL     OW16645   1.602   3.501   2.974  0.2019 -0.0878 -0.0865
 1670SOL    HW116646   1.695   3.517   2.988 -0.0461  1.3993 -0.1714
 1670SOL    HW216647   1.600   3.498   2.879 -0.7012  0.2452 -0.0757
 1671SOL     OW16648   2.264   2.091   8.516  0.0846  0.0566 -0.4836
 1671SOL    HW116649   2.254   2.002   8.550 -1.4713  0.0179 -1.0274
 1671SOL    HW216650   2.281   2.084   8.422 -3.1694 -0.5286 -1.0239
 1672SOL     OW16651   2.344   0.746   4.835  0.0364 -0.4597 -0.1014
 1672SOL    HW116652   2.431   0.733   4.798 -0.1709 -4.0921  0.7248
 1672SOL    HW216653   2.344   0.841   4.850 -1.1757 -0.6827  1.2750
 1673SOL     OW16654   0.093   2.328   6.752  0.3084 -0.2260  0.2452
 1673SOL    HW116655   0.027   2.374   6.803 -0.3279 -0.0469 -0.7575
 1673SOL    HW216656   0.145   2.405   6.728 -1.7612  0.4627 -2.0212
 1674SOL     OW16657   4.039   2.076   5.329 -0.1977 -0.4160 -0.5060
 1674SOL    HW116658   4.105   2.097   5.263 -0.1499  1.3000  0.1053
 1674SOL    HW216659   4.078   2.088   5.415  0.5441  0.1061 -0.9119
 1675SOL     OW16660   0.464   3.298   8.512  0.1027 -0.1480 -0.1897
 1675SOL    HW116661   0.455   3.378   8.461 -3.6320 -0.9806 -0.7724
 1675SOL    HW216662   0.539   3.258   8.467 -0.4026 -0.4524 -0.7630
 1676SOL     OW16663   1.050   1.015   5.137 -0.6587 -0.0519 -0.4746
 1676SOL    HW116664   0.987   0.946   5.118 -0.5045 -0.4161  0.3123
 1676SOL    HW216665   1.129   0.971   5.105  0.1480  1.1751 -0.1909
 1677SOL     OW16666   1.620   2.573  17.293 -0.1101 -0.1526 -0.0632
 1677SOL    HW116667   1.699   2.564  17.346  1.3536 -0.4278 -2.2888
 1677SOL    HW216668   1.563   2.621  17.353 -1.3933  0.5958 -1.8733
 1678SOL     OW16669   3.884   1.021   1.717  0.2796  0.4241 -0.2914
 1678SOL    HW116670   3.928   0.945   1.755  1.1435  1.2851  0.4372
 1678SOL    HW216671   3.861   1.068   1.797 -0.1868  0.8796 -0.6939
 1679SOL     OW16672   0.176   1.374  15.855  0.4224  0.0240  0.4306
 1679SOL    HW116673   0.167   1.434  15.929 -0.0171  0.4506  0.0308
 1679SOL    HW216674   0.238   1.418  15.797 -0.5240 -2.6194 -2.5735
 1680SOL     OW16675   3.857   0.233   7.095 -0.2331  0.0974 -0.7227
 1680SOL    HW116676   3.898   0.163   7.146  1.1295  0.7028 -0.9993
 1680SOL    HW216677   3.906   0.312   7.117  1.2092 -1.0274  0.0763
 1681SOL     OW16678   1.119   3.679   7.590 -0.1725  0.7712  0.1787
 1681SOL    HW116679   1.065   3.659   7.513  0.3103 -1.0173  0.3143
 1681SOL    HW216680   1.209   3.667   7.561 -0.6409  1.4132 -1.5498
 1682SOL     OW16681   4.257   0.647  15.090 -0.1736 -0.3874  0.3030
 1682SOL    HW116682   4.297   0.730  15.063 -1.7543  0.5691  0.8923
 1682SOL    HW216683   4.209   0.673  15.169 -0.8970 -1.5122  0.2350
 1683SOL     OW16684   1.748   0.616  12.966 -0.0793  0.1270  0.6570
 1683SOL    HW116685   1.717   0.661  13.044  1.0646 -1.4108  2.0029
 1683SOL    HW216686   1.801   0.547  13.006  2.0116  1.0800 -0.4457
 1684SOL     OW16687   3.153   2.847  11.073  0.3544 -0.2525  0.3719
 1684SOL    HW116688   3.148   2.899  11.153 -2.7357  0.1618 -0.0859
 1684SOL    HW216689   3.061   2.820  11.064 -0.5461  2.5940  0.9270
 1685SOL     OW16690   3.868   2.828   7.860  0.3374 -0.1125 -0.2618
 1685SOL    HW116691   3.833   2.817   7.949 -0.5357 -0.6914 -0.6811
 1685SOL    HW216692   3.949   2.777   7.849  0.2908 -0.2723  0.1404
 1686SOL     OW16693   1.758   0.461   2.032  0.6147 -0.1489  0.0570
 1686SOL    HW116694   1.809   0.391   2.073  1.6320  1.8200  2.1531
 1686SOL    HW216695   1.759   0.434   1.940 -1.1890  2.2608 -0.6548
 1687SOL     OW16696   0.957   1.714   5.471 -0.8402 -0.1002  0.5437
 1687SOL    HW116697   0.875   1.754   5.500 -0.4483  0.9118  0.2443
 1687SOL    HW216698   0.986   1.679   5.556  0.7737  0.1808  0.1169
 1688SOL     OW16699   4.230   2.755  13.761 -0.6814  0.4239  0.5610
 1688SOL    HW116700   4.244   2.828  13.701  1.9737 -1.7176 -1.4469
 1688SOL    HW216701   4.196   2.789  13.844 -1.9442  2.2189 -0.6943
 1689SOL     OW16702   3.943   0.122   5.317  0.0501 -0.0645  0.2775
 1689SOL    HW116703   3.915   0.112   5.226  1.8367  0.8098 -0.3681
 1689SOL    HW216704   3.986   0.208   5.319  1.5156 -0.8254  0.8709
 1690SOL     OW16705   1.767   3.950   6.322 -0.1777 -0.2137  0.1542
 1690SOL    HW116706   1.794   3.992   6.240  0.7695 -2.0067 -0.4614
 1690SOL    HW216707   1.851   3.910   6.343  0.0705  0.5712  0.6570
 1691SOL     OW16708   4.018   2.841   7.005 -0.1764 -0.2952  0.4571
 1691SOL    HW116709   4.056   2.820   7.090 -0.7060  1.6152  1.1605
 1691SOL    HW216710   3.979   2.761   6.969  0.6271 -1.4378  2.1391
 1692SOL     OW16711   0.951   1.969   6.161  1.1347 -0.6121 -0.1289
 1692SOL    HW116712   0.970   1.978   6.254  3.4385 -2.1030 -0.4667
 1692SOL    HW216713   0.952   2.060   6.131  0.1501 -1.4311 -2.6552
 1693SOL     OW16714   1.366   3.323   9.614  0.6600 -0.3242  0.2425
 1693SOL    HW116715   1.303   3.302   9.683 -0.1145 -0.6693 -0.5596
 1693SOL    HW216716   1.360   3.234   9.577  1.2733  0.0493 -0.7665
 1694SOL     OW16717   2.223   3.111   5.320  0.2718 -0.5498 -0.1259
 1694SOL    HW116718   2.319   3.119   5.326  0.1948  0.7867 -0.6429
 1694SOL    HW216719   2.195   3.203   5.320  0.7475 -0.4010 -0.1901
 1695SOL     OW16720   4.075   1.310   3.664  0.1710  0.7757 -0.0052
 1695SOL    HW116721   4.024   1.390   3.679 -1.6871 -0.4463  0.2005
 1695SOL    HW216722   4.009   1.243   3.644  1.8341 -1.0982  0.8167
 1696SOL     OW16723   2.172   2.748   3.839 -0.3113 -0.1176 -0.1546
 1696SOL    HW116724   2.175   2.656   3.810  0.1664  0.2694 -1.3455
 1696SOL    HW216725   2.231   2.789   3.775 -1.2669 -0.6597 -1.3785
 1697SOL     OW16726   2.056   2.777   3.494  0.0298  0.6499 -0.2102
 1697SOL    HW116727   2.105   2.859   3.497 -0.2339  0.8201 -0.4495
 1697SOL    HW216728   2.004   2.794   3.415  0.1903  2.6133  0.0994
 1698SOL     OW16729   0.094   1.058  14.188  0.3158 -0.3705  0.3497
 1698SOL    HW116730   0.031   0.986  14.188  1.2767 -1.2073  2.0211
 1698SOL    HW216731   0.038   1.110  14.130 -0.8065 -1.2683  0.6284
 1699SOL     OW16732   4.013   4.586   1.668  0.1530 -0.6697  0.1875
 1699SOL    HW116733   3.954   4.560   1.597 -2.1741  0.2754  1.7623
 1699SOL    HW216734   4.036   4.672   1.633 -0.7629 -1.3254 -2.0587
 1700SOL     OW16735   2.882   1.745   1.844 -0.4665  0.8230 -0.2769
 1700SOL    HW116736   2.938   1.711   1.913 -0.3884  0.4778 -0.5082
 1700SOL    HW216737   2.802   1.767   1.891 -1.1544  1.4830 -1.7560
 1701SOL     OW16738   1.718   0.517  13.654  0.3029  0.1147  0.1607
 1701SOL    HW116739   1.734   0.507  13.748 -1.1540 -0.8538  0.2974
 1701SOL    HW216740   1.799   0.491  13.609  0.2284  1.8675 -0.9743
 1702SOL     OW16741   2.664   2.669   3.194 -0.2707  0.0827 -0.0135
 1702SOL    HW116742   2.664   2.739   3.259 -1.3489  0.5219 -0.4943
 1702SOL    HW216743   2.716   2.714   3.128  1.4377 -0.9105  0.6438
 1703SOL     OW16744   3.393   3.909   6.424 -0.1510 -0.2502 -0.4348
 1703SOL    HW116745   3.449   3.979   6.390  1.2318 -1.3331 -0.3296
 1703SOL    HW216746   3.333   3.896   6.350 -0.8228  2.6205 -0.3986
 1704SOL     OW16747   3.392   2.066   5.096  0.2820 -0.3610 -0.2949
 1704SOL    HW116748   3.303   2.085   5.127  0.5547 -0.1395  0.3613
 1704SOL    HW216749   3.389   1.972   5.077 -1.6616 -0.0086 -1.7224
 1705SOL     OW16750   1.359   3.142   5.406 -0.5991  0.1152  0.5318
 1705SOL    HW116751   1.453   3.157   5.399 -0.9757  2.3387  0.1813
 1705SOL    HW216752   1.355   3.055   5.367 -0.8901  1.3744 -2.2793
 1706SOL     OW16753   2.365   2.532   9.101 -0.1505  0.2641  0.2843
 1706SOL    HW116754   2.408   2.565   9.181 -0.4565 -0.6283  0.8177
 1706SOL    HW216755   2.438   2.510   9.044 -0.5698 -1.1686  0.3122
 1707SOL     OW16756   0.983   0.747   4.464  0.4089 -0.0562  0.3257
 1707SOL    HW116757   0.908   0.690   4.482 -1.6650  1.8012 -2.3974
 1707SOL    HW216758   1.018   0.687   4.398  0.5886  1.2931 -0.7963
 1708SOL     OW16759   1.706   2.737   0.183 -0.1638  0.1804  0.2742
 1708SOL    HW116760   1.621   2.705   0.153  0.4192 -0.4816 -0.6390
 1708SOL    HW216761   1.673   2.751   0.272 -1.9317  0.7972 -0.4731
 1709SOL     OW16762   2.279   3.904  14.875 -0.1319  0.1528 -0.2580
 1709SOL    HW116763   2.361   3.949  14.857 -0.4931  1.4496  1.3208
 1709SOL    HW216764   2.315   3.824  14.912 -1.3177  0.5579  1.7704
 1710SOL     OW16765   0.005   2.582   0.024  0.0378 -0.4569 -0.0700
 1710SOL    HW116766   4.729   2.639   0.100 -1.7173  1.4430 -1.7664
 1710SOL    HW216767   0.044   2.503   0.063  0.4830 -1.0641 -1.7501
 1711SOL     OW16768   4.491   0.401   8.327 -0.0115  0.0994 -0.2575
 1711SOL    HW116769   4.508   0.326   8.384 -0.2424 -1.6054 -2.4822
 1711SOL    HW216770   4.476   0.470   8.392 -1.2310  0.8260 -1.3050
 1712SOL     OW16771   2.183   0.547  12.789 -0.1372 -0.4088  0.8334
 1712SOL    HW116772   2.153   0.478  12.729  1.1734 -0.4374  0.2025
 1712SOL    HW216773   2.124   0.622  12.783  1.2236  0.6404  0.5996
 1713SOL     OW16774   1.299   0.655  16.346  0.6355  0.5718 -0.5990
 1713SOL    HW116775   1.246   0.664  16.267 -0.4108  2.4682  0.3285
 1713SOL    HW216776   1.372   0.603  16.312  0.4633  0.2840 -0.5275
 1714SOL     OW16777   1.685   3.086   2.399  0.4661  0.1829 -0.7415
 1714SOL    HW116778   1.663   3.034   2.322  0.1419  0.2536 -0.6977
 1714SOL    HW216779   1.605   3.139   2.397  0.2537 -0.1188 -0.2664
 1715SOL     OW16780   3.763   1.531  13.042  0.2407 -0.5615 -0.0241
 1715SOL    HW116781   3.787   1.439  13.033 -0.9198 -0.9194  0.6094
 1715SOL    HW216782   3.848   1.570  13.020 -1.1461  0.8572 -2.9838
 1716SOL     OW16783   3.460   4.519   3.334 -0.4702  0.4132 -0.3897
 1716SOL    HW116784   3.525   4.452   3.356 -2.7407 -1.5837  0.2058
 1716SOL    HW216785   3.512   4.566   3.268  0.1942  0.0730 -0.1077
 1717SOL     OW16786   3.566   3.079   8.313  0.1050  0.0656 -0.1397
 1717SOL    HW116787   3.580   3.080   8.218 -0.7883  1.6705 -0.2565
 1717SOL    HW216788   3.544   2.987   8.325 -3.4381  1.1127  1.2703
 1718SOL     OW16789   0.738   0.890  10.784  0.4226 -0.3681  0.0469
 1718SOL    HW116790   0.721   0.805  10.825  2.1916 -0.7025  0.0679
 1718SOL    HW216791   0.653   0.896  10.739  0.2943 -0.4008  0.2855
 1719SOL     OW16792   2.069   1.907   0.199 -0.3777  0.1254 -1.0301
 1719SOL    HW116793   2.078   1.898   0.104 -0.8276  0.2612 -1.0861
 1719SOL    HW216794   2.141   1.849   0.227 -0.6777 -0.6218 -1.7886
 1720SOL     OW16795   0.686   2.517   1.698  0.1696 -0.5987  0.0841
 1720SOL    HW116796   0.722   2.437   1.659  0.5349  0.0387 -0.8738
 1720SOL    HW216797   0.668   2.478   1.784  0.1208 -0.5925  0.0767
 1721SOL     OW16798   4.087   3.890   7.463 -0.0496 -0.1646  0.5470
 1721SOL    HW116799   4.052   3.933   7.542  0.9264  1.1524  0.2642
 1721SOL    HW216800   4.159   3.843   7.505 -0.0667  0.1055  0.8818
 1722SOL     OW16801   0.870   1.468   8.757  0.4348  0.2606 -0.1572
 1722SOL    HW116802   0.856   1.430   8.844  0.5028 -0.0807 -0.2943
 1722SOL    HW216803   0.839   1.557   8.773  2.6614  0.6162  2.0480
 1723SOL     OW16804   2.174   3.858   3.603 -0.4324 -0.0642  0.0802
 1723SOL    HW116805   2.137   3.875   3.690 -1.9063 -0.8466 -0.3827
 1723SOL    HW216806   2.220   3.775   3.620 -0.9561  0.4573  3.8955
 1724SOL     OW16807   2.427   3.610   3.385  0.2407 -0.6198 -0.0579
 1724SOL    HW116808   2.434   3.703   3.366 -3.1522 -0.4847 -0.6956
 1724SOL    HW216809   2.372   3.586   3.310  1.5717 -1.4764 -0.7608
 1725SOL     OW16810   3.549   2.064   3.237  0.3090  0.2496  0.9437
 1725SOL    HW116811   3.483   2.034   3.300 -1.9737 -3.1283 -2.9963
 1725SOL    HW216812   3.531   2.022   3.152  1.5311  1.6130  0.0114
 1726SOL     OW16813   3.994   3.871   2.517 -0.6465  0.4596 -0.0479
 1726SOL    HW116814   4.030   3.783   2.522  1.9763  1.5188 -0.3375
 1726SOL    HW216815   3.981   3.881   2.423  3.9426  0.9517 -0.6266
 1727SOL     OW16816   4.585   4.407   9.062  0.1965 -0.0306  0.1675
 1727SOL    HW116817   4.627   4.475   9.115 -1.1616  0.7243  0.2867
 1727SOL    HW216818   4.583   4.444   8.974 -2.8486  0.6388  0.5123
 1728SOL     OW16819   2.962   0.341   2.612  0.1254  0.3762 -0.4478
 1728SOL    HW116820   3.024   0.268   2.605 -2.1895 -1.6223 -0.2193
 1728SOL    HW216821   2.919   0.337   2.697  1.0353 -2.2746 -0.0985
 1729SOL     OW16822   4.254   4.720  17.081 -0.2363 -0.4012 -0.6387
 1729SOL    HW116823   4.349   4.712  17.094 -0.3007  1.9722  1.2879
 1729SOL    HW216824   4.249   0.061  17.023 -0.6269  1.3180  1.6544
 1730SOL     OW16825   1.000   3.354   1.212 -0.8070 -0.3202 -0.2855
 1730SOL    HW116826   0.943   3.335   1.286  2.3697 -0.5524  2.0902
 1730SOL    HW216827   0.980   3.445   1.191 -2.0561  0.0312  2.5482
 1731SOL     OW16828   2.943   1.120   4.065 -0.2687 -0.1464  0.3704
 1731SOL    HW116829   2.913   1.051   4.005  2.0157  2.2654 -3.5985
 1731SOL    HW216830   3.029   1.081   4.076 -0.8134 -0.8957  1.9045
 1732SOL     OW16831   3.120   2.545   3.824 -0.1728  0.5609 -0.2772
 1732SOL    HW116832   3.118   2.510   3.735  4.6426 -1.2309  0.3017
 1732SOL    HW216833   3.135   2.639   3.812 -1.5783  0.3941 -3.1781
 1733SOL     OW16834   1.895   3.272   2.436 -0.5884 -0.1664 -0.2471
 1733SOL    HW116835   1.943   3.258   2.517 -1.1318  2.1526  0.4825
 1733SOL    HW216836   1.834   3.199   2.439  0.2819 -0.9399 -1.5287
 1734SOL     OW16837   4.339   0.525   8.880 -0.0438  0.1269 -0.3389
 1734SOL    HW116838   4.387   0.607   8.895 -1.3246  0.9656 -0.7920
 1734SOL    HW216839   4.407   0.466   8.913  0.3651  0.9109  0.2440
 1735SOL     OW16840   2.202   3.411   2.970  0.0146 -0.7709 -0.2812
 1735SOL    HW116841   2.209   3.337   3.030 -0.8152 -1.1102 -0.6039
 1735SOL    HW216842   2.146   3.365   2.907  0.1765  0.3070 -1.2165
 1736SOL     OW16843   2.652   3.029   5.658 -0.1401 -0.0244  0.2032
 1736SOL    HW116844   2.578   3.090   5.666  1.1535  1.5712 -0.0778
 1736SOL    HW216845   2.629   2.988   5.575 -0.8622  2.1566 -0.6560
 1737SOL     OW16846   2.532   4.680  11.157 -0.3256 -0.2449  0.0952
 1737SOL    HW116847   2.553   4.692  11.065  0.7829 -0.5018  0.3235
 1737SOL    HW216848   2.438   4.699  11.158 -0.6276 -1.7588 -1.2035
 1738SOL     OW16849   4.264   0.377   1.946 -0.0512  0.5522  0.2021
 1738SOL    HW116850   4.188   0.399   1.893  0.7326  1.9963 -0.3106
 1738SOL    HW216851   4.223   0.375   2.033  0.0471 -1.6261  0.1997
 1739SOL     OW16852   1.351   3.528   3.908  0.0991 -0.3711  0.0027
 1739SOL    HW116853   1.442   3.554   3.894 -0.1336  1.6638  2.3988
 1739SOL    HW216854   1.312   3.604   3.952  0.1563  0.1759 -0.8931
 1740SOL     OW16855   3.474   4.648   1.977  0.8177 -0.5704 -0.6331
 1740SOL    HW116856   3.515   4.680   1.896  0.9873  0.0568 -0.2939
 1740SOL    HW216857   3.522   4.691   2.048 -0.5892  2.0126 -1.2464
 1741SOL     OW16858   2.118   3.660   9.178 -0.0639 -0.2910  0.2928
 1741SOL    HW116859   2.063   3.651   9.256 -1.3888  0.4184 -0.5711
 1741SOL    HW216860   2.137   3.571   9.149 -0.8978 -1.0476  2.0689
 1742SOL     OW16861   0.844   2.251   4.354  0.6156  0.2135  0.0313
 1742SOL    HW116862   0.788   2.314   4.399  0.8685  1.3242 -1.2223
 1742SOL    HW216863   0.872   2.294   4.274  0.5062 -1.9474 -1.1629
 1743SOL     OW16864   2.167   0.650   4.641  0.1780  0.2750  0.1871
 1743SOL    HW116865   2.192   0.610   4.558  0.2577  0.0972  0.2951
 1743SOL    HW216866   2.246   0.674   4.690  1.4220 -3.1263 -0.1345
 1744SOL     OW16867   2.134   3.748   1.816 -0.6465 -0.1642  0.3518
 1744SOL    HW116868   2.187   3.739   1.737 -0.9990 -2.3341  0.3461
 1744SOL    HW216869   2.092   3.834   1.808  0.0502  0.1693  0.3150
 1745SOL     OW16870   1.869   3.658   4.147  0.0448 -0.8451  0.5056
 1745SOL    HW116871   1.887   3.611   4.065  0.3867  2.8830 -1.5739
 1745SOL    HW216872   1.954   3.690   4.174 -0.8114  0.8118  1.2528
 1746SOL     OW16873   4.496   1.900   9.920  0.5174  0.1264 -0.2052
 1746SOL    HW116874   4.537   1.956   9.987 -0.7891  0.1035  0.6139
 1746SOL    HW216875   4.437   1.849   9.976  0.4931  0.3344 -0.0392
 1747SOL     OW16876   2.588   0.830   9.235  0.0995  0.0063 -0.3949
 1747SOL    HW116877   2.574   0.785   9.318  0.8819  0.2651 -0.1217
 1747SOL    HW216878   2.559   0.765   9.172 -1.5350  0.6555 -0.3039
 1748SOL     OW16879   4.502   4.421   9.500 -0.3432  0.0656  0.3540
 1748SOL    HW116880   4.454   4.341   9.518  1.6168 -1.3431 -0.6411
 1748SOL    HW216881   4.431   4.482   9.482  0.2936  0.1895 -1.7128
 1749SOL     OW16882   0.769   4.717   4.774 -0.3630 -0.6073  0.0599
 1749SOL    HW116883   0.747   0.060   4.826 -2.7439 -0.2013 -1.5704
 1749SOL    HW216884   0.864   4.731   4.777 -0.6134  1.0994  0.0579
 1750SOL     OW16885   1.611   4.678  10.872 -0.2361 -0.3435  0.0713
 1750SOL    HW116886   1.637   0.009  10.809 -1.6266  0.6364  0.5281
 1750SOL    HW216887   1.675   4.694  10.942  2.0133 -2.5880 -1.4712
 1751SOL     OW16888   2.951   0.352   9.096 -0.3481 -0.6227 -0.4185
 1751SOL    HW116889   2.920   0.419   9.158  0.6314 -2.7262  2.2857
 1751SOL    HW216890   2.908   0.372   9.012  3.7695  1.5834 -1.9852
 1752SOL     OW16891   4.647   3.733   5.728 -0.0377  0.5247 -0.1005
 1752SOL    HW116892   4.690   3.741   5.642  0.0472  2.2793  0.1028
 1752SOL    HW216893   4.694   3.659   5.768 -0.1006  0.5189 -0.0384
 1753SOL     OW16894   0.165   1.853  11.466  0.1998  0.2849 -0.3092
 1753SOL    HW116895   0.090   1.909  11.443 -1.0453 -1.4031 -0.3332
 1753SOL    HW216896   0.205   1.911  11.531 -0.5257  0.8211 -0.3411
 1754SOL     OW16897   4.546   3.360   8.573 -0.2189 -0.0535 -1.0007
 1754SOL    HW116898   4.617   3.385   8.632 -0.8117 -0.2323 -0.2101
 1754SOL    HW216899   4.580   3.400   8.493  0.6324  1.5081  0.1180
 1755SOL     OW16900   3.884   1.546   8.565 -0.2106 -0.8199 -0.0871
 1755SOL    HW116901   3.898   1.454   8.590  0.4488 -0.5381  0.5731
 1755SOL    HW216902   3.844   1.535   8.479  1.4296  1.5775 -1.1537
 1756SOL     OW16903   3.094   0.604  10.549  0.5079 -0.4623  0.6721
 1756SOL    HW116904   3.119   0.667  10.617 -0.8890  1.3903 -0.5132
 1756SOL    HW216905   2.999   0.594  10.546  0.7661 -2.3360 -1.0782
 1757SOL     OW16906   2.699   3.947   9.406 -0.1227 -0.4425 -0.2211
 1757SOL    HW116907   2.659   3.878   9.459  0.6870 -1.9413 -1.5770
 1757SOL    HW216908   2.640   3.960   9.331 -0.7545  0.3651  0.4127
 1758SOL     OW16909   1.983   0.818  13.931  0.1352 -0.0924  0.3359
 1758SOL    HW116910   2.071   0.791  13.960  0.8559  0.1066 -1.7248
 1758SOL    HW216911   1.990   0.913  13.931 -1.4379  0.0230  2.3908
 1759SOL     OW16912   2.527   2.728   7.602  0.5073 -0.0142  0.0602
 1759SOL    HW116913   2.540   2.665   7.673 -0.2478 -0.2204  0.0167
 1759SOL    HW216914   2.435   2.754   7.612 -0.5068 -2.7325 -2.1225
 1760SOL     OW16915   2.029   0.189   5.149 -0.1828  0.3978  0.3991
 1760SOL    HW116916   2.102   0.195   5.210  0.3763  0.9372 -0.3267
 1760SOL    HW216917   2.011   0.277   5.114 -0.5408 -0.5216 -1.7211
 1761SOL     OW16918   4.581   0.296   3.389 -0.1741 -0.2742 -0.3076
 1761SOL    HW116919   4.518   0.229   3.361 -2.2882  0.8563  1.8351
 1761SOL    HW216920   4.534   0.349   3.453 -0.7639 -2.6405  1.2214
 1762SOL     OW16921   4.016   4.663   5.912  0.5816 -0.0122 -0.2711
 1762SOL    HW116922   3.975   4.604   5.975  0.5356 -0.0508 -0.3364
 1762SOL    HW216923   3.941   4.683   5.856  1.0945 -0.3159 -1.0676
 1763SOL     OW16924   2.490   1.562   3.673 -0.4238 -0.3198  0.2460
 1763SOL    HW116925   2.395   1.571   3.663 -0.1365  2.0622 -0.2164
 1763SOL    HW216926   2.497   1.507   3.751 -1.5064  0.5567  0.9690
 1764SOL     OW16927   0.157   0.913   8.477 -0.3388  1.2508  0.0954
 1764SOL    HW116928   0.245   0.903   8.515 -0.5433 -0.6783  0.0915
 1764SOL    HW216929   0.167   0.981   8.410  1.3247  0.3785 -0.5617
 1765SOL     OW16930   2.512   0.909  12.155 -0.0047 -0.0536 -0.4602
 1765SOL    HW116931   2.553   0.954  12.081 -0.7552 -0.5340 -1.1827
 1765SOL    HW216932   2.431   0.958  12.147 -0.6677 -1.1562 -0.5942
 1766SOL     OW16933   2.206   3.371   5.255 -0.8184 -0.8144  0.4944
 1766SOL    HW116934   2.203   3.397   5.347 -2.2613 -0.1599  0.2750
 1766SOL    HW216935   2.216   3.457   5.214 -1.7581 -1.4527 -1.0939
 1767SOL     OW16936   0.081   1.826   1.757 -0.7173 -0.1130  0.5629
 1767SOL    HW116937   0.137   1.757   1.792  0.7467  1.7357  1.8630
 1767SOL    HW216938   0.127   1.851   1.676  0.5287 -1.6171  0.8112
 1768SOL     OW16939   1.749   2.072   6.571  0.0514 -0.0412 -0.1486
 1768SOL    HW116940   1.753   2.146   6.510  0.9777  0.0265 -0.0162
 1768SOL    HW216941   1.841   2.069   6.598  0.5260  0.8321 -1.6324
 1769SOL     OW16942   1.271   0.120   7.208 -0.1158  0.4294  0.7319
 1769SOL    HW116943   1.263   0.029   7.237 -1.3183  0.2349 -0.1991
 1769SOL    HW216944   1.181   0.147   7.194 -0.4693 -0.9896  0.2160
 1770SOL     OW16945   4.010   0.689   4.232  0.0367 -0.0707  0.1937
 1770SOL    HW116946   4.012   0.772   4.184  3.3276 -0.0841  0.3310
 1770SOL    HW216947   3.915   0.679   4.221 -0.1889  0.5921  1.6170
 1771SOL     OW16948   1.523   0.338   3.857 -0.4737  0.0656  0.0005
 1771SOL    HW116949   1.468   0.301   3.926 -0.8609  1.4020  0.4080
 1771SOL    HW216950   1.511   0.275   3.786  1.4637  1.9818 -2.0265
 1772SOL     OW16951   3.818   1.013   5.549 -0.0866  0.5526  0.4408
 1772SOL    HW116952   3.757   0.994   5.620 -0.2724  0.0100  0.1383
 1772SOL    HW216953   3.888   0.956   5.582 -0.5547 -0.3155 -0.0637
 1773SOL     OW16954   1.382   2.255   6.976  0.1212  0.2907 -0.1096
 1773SOL    HW116955   1.437   2.273   6.900  1.4943  0.3712  0.8883
 1773SOL    HW216956   1.361   2.162   6.965  1.8467 -0.4893  2.9735
 1774SOL     OW16957   1.674   3.719   2.515 -0.0884  0.4182  0.5288
 1774SOL    HW116958   1.685   3.714   2.421  0.1239  1.2926  0.5100
 1774SOL    HW216959   1.588   3.760   2.524 -1.5130 -2.3560 -0.3228
 1775SOL     OW16960   4.286   2.489  15.327  0.2305  0.5005 -0.2365
 1775SOL    HW116961   4.347   2.466  15.256  1.1552 -2.8229  1.6260
 1775SOL    HW216962   4.203   2.458  15.291 -0.7214  0.3611  2.1136
 1776SOL     OW16963   4.567   2.557   8.818 -0.0019 -0.2226  0.1491
 1776SOL    HW116964   4.585   2.546   8.724 -0.9807 -2.2035  0.1823
 1776SOL    HW216965   4.545   2.469   8.849  1.0703 -0.3422  0.5881
 1777SOL     OW16966   0.422   4.081   1.898 -0.3263  0.3755 -0.1041
 1777SOL    HW116967   0.497   4.034   1.862  0.4672  1.3523  0.2608
 1777SOL    HW216968   0.389   4.005   1.945 -1.0355  0.9975  0.4128
 1778SOL     OW16969   0.009   0.691   7.993  0.7398  0.5727 -0.1549
 1778SOL    HW116970   4.695   0.747   7.933 -0.5190  1.0677  1.3297
 1778SOL    HW216971   0.035   0.754   8.061 -0.7623  1.2541 -0.2121
 1779SOL     OW16972   0.173   3.010   4.151  0.2231  0.1439 -0.0630
 1779SOL    HW116973   0.109   3.040   4.216  2.2855 -0.7761  2.4211
 1779SOL    HW216974   0.250   2.996   4.207  0.7743  1.9258 -0.3485
 1780SOL     OW16975   2.427   2.049   8.278  0.0513 -0.0335 -0.3157
 1780SOL    HW116976   2.510   2.093   8.259 -0.2966  0.3476 -0.9410
 1780SOL    HW216977   2.422   1.992   8.201  2.7320 -2.4573  1.3130
 1781SOL     OW16978   4.336   3.269   8.766 -0.2885  0.0537  0.3519
 1781SOL    HW116979   4.382   3.318   8.697  2.6456 -1.7785  1.0004
 1781SOL    HW216980   4.404   3.204   8.784 -0.9464 -0.3069  1.5549
 1782SOL     OW16981   2.366   1.019   2.669  0.0803 -0.4175 -0.5757
 1782SOL    HW116982   2.379   0.927   2.650 -0.9638 -0.4817 -0.9857
 1782SOL    HW216983   2.450   1.058   2.643 -1.5304  2.8557 -0.9177
 1783SOL     OW16984   1.546   4.061   9.813  0.4410  0.1802  0.0476
 1783SOL    HW116985   1.634   4.041   9.781  0.2244  0.1601 -0.5349
 1783SOL    HW216986   1.499   3.993   9.764  0.2657  1.0209 -0.9452
 1784SOL     OW16987   4.253   0.686  16.794  0.4172 -0.5425  0.5382
 1784SOL    HW116988   4.212   0.772  16.799 -0.1296 -0.8639  1.6352
 1784SOL    HW216989   4.325   0.704  16.855 -0.1408  1.5783  0.5614
 1785SOL     OW16990   4.207   1.622   8.586 -0.0197 -0.3269 -0.4813
 1785SOL    HW116991   4.276   1.652   8.644  0.5164  0.1825 -1.3948
 1785SOL    HW216992   4.197   1.533   8.621  1.9688  0.3646  1.8306
 1786SOL     OW16993   2.344   2.391   7.377 -0.6260 -0.1736  0.0515
 1786SOL    HW116994   2.416   2.453   7.387  0.0218 -1.1058  1.2519
 1786SOL    HW216995   2.350   2.331   7.452 -1.6786 -2.5860 -1.7922
 1787SOL     OW16996   3.203   1.519  10.406  0.4662 -0.0630  0.2409
 1787SOL    HW116997   3.123   1.568  10.425  1.0233 -0.6211  3.9859
 1787SOL    HW216998   3.214   1.470  10.487 -2.2823 -0.5926  0.3076
 1788SOL     OW16999   3.388   2.872   2.049 -0.2570  0.0521 -0.0228
 1788SOL    HW117000   3.419   2.847   2.136  2.7295  2.2813 -0.4580
 1788SOL    HW217001   3.349   2.789   2.021 -3.5393  1.6110 -0.0635
 1789SOL     OW17002   2.318   3.020   8.683  0.0578 -0.2398 -0.1303
 1789SOL    HW117003   2.277   3.083   8.623 -0.7248 -0.7867 -0.1691
 1789SOL    HW217004   2.403   3.002   8.641 -1.1479  0.7943 -2.9667
 1790SOL     OW17005   3.674   1.445   3.385 -0.3406  0.0102  0.4240
 1790SOL    HW117006   3.681   1.474   3.475 -1.2649 -2.6495  1.3589
 1790SOL    HW217007   3.766   1.424   3.368 -0.6291  0.3969 -1.6763
 1791SOL     OW17008   1.336   1.480   7.035 -0.4865 -0.4593 -0.6330
 1791SOL    HW117009   1.353   1.412   6.969  1.8519 -0.9816  0.5232
 1791SOL    HW217010   1.305   1.434   7.113  4.2393 -1.8369  0.4161
 1792SOL     OW17011   2.246   2.653   5.247  0.4719 -0.1180  0.2951
 1792SOL    HW117012   2.264   2.573   5.198  0.8118 -0.6511  1.3029
 1792SOL    HW217013   2.226   2.723   5.185 -1.0961 -0.3121  0.5683
 1793SOL     OW17014   4.041   3.756   7.215  0.0616 -0.2236 -0.1524
 1793SOL    HW117015   4.073   3.749   7.305 -1.5402 -1.0532  0.3510
 1793SOL    HW217016   4.006   3.667   7.213 -1.5698  0.4415 -0.9285
 1794SOL     OW17017   3.039   4.418   9.915 -0.2756  0.4491  0.0764
 1794SOL    HW117018   2.990   4.500   9.907  1.5847  1.3170 -2.3036
 1794SOL    HW217019   3.033   4.398  10.008  0.8793 -0.0080  0.0434
 1795SOL     OW17020   4.442   1.124   3.698  0.3070  0.4140  0.0236
 1795SOL    HW117021   4.431   1.072   3.618  0.3075 -0.1734  0.3975
 1795SOL    HW217022   4.527   1.162   3.677  1.2074 -1.4275  0.3117
 1796SOL     OW17023   3.338   1.286  15.041 -0.1271 -0.2460 -0.3620
 1796SOL    HW117024   3.305   1.196  15.037  2.3490 -1.1333 -0.7329
 1796SOL    HW217025   3.375   1.292  14.953  0.4733 -1.0177 -0.1605
 1797SOL     OW17026   1.329   3.711   8.218 -0.8658  0.0254 -0.2443
 1797SOL    HW117027   1.318   3.644   8.286 -0.0505 -0.8056 -0.9203
 1797SOL    HW217028   1.299   3.670   8.137  0.8102 -0.1690 -0.7706
 1798SOL     OW17029   2.966   0.820   2.879 -0.4058 -0.7045  0.0725
 1798SOL    HW117030   2.946   0.732   2.910 -2.0239 -0.0836  0.8135
 1798SOL    HW217031   2.923   0.868   2.950  0.9893 -0.4779  0.7549
 1799SOL     OW17032   3.282   0.648   1.146  0.1240  0.0445  0.3389
 1799SOL    HW117033   3.230   0.608   1.216  1.2245 -1.6394  0.2143
 1799SOL    HW217034   3.280   0.572   1.087  0.4725  0.9295 -0.8046
 1800SOL     OW17035   0.510   1.404   9.043  0.1130  0.8402  0.0966
 1800SOL    HW117036   0.589   1.446   9.010 -1.0839 -0.1598 -4.0812
 1800SOL    HW217037   0.548   1.323   9.077  2.4643  0.8831 -2.3719
 1801SOL     OW17038   1.046   1.082   4.786  0.4785  0.0615  0.1225
 1801SOL    HW117039   1.045   1.138   4.863  3.8086  0.2724  0.0161
 1801SOL    HW217040   1.135   1.108   4.761 -0.7052  1.4649 -2.6728
 1802SOL     OW17041   2.958   1.882   0.823 -0.0922  0.0051 -0.0544
 1802SOL    HW117042   2.865   1.903   0.815 -0.6298 -2.6950 -1.0021
 1802SOL    HW217043   3.004   1.948   0.772 -2.0052  0.8324 -0.7394
 1803SOL     OW17044   0.669   2.995   1.587 -0.0650 -0.0102 -0.5250
 1803SOL    HW117045   0.601   2.956   1.642  1.5111 -1.6498  0.2386
 1803SOL    HW217046   0.627   3.078   1.561 -0.6980  0.3297  1.5740
 1804SOL     OW17047   0.507   3.447   5.467 -1.0689  0.2763  0.1068
 1804SOL    HW117048   0.473   3.427   5.380 -1.9988 -0.6998  0.6792
 1804SOL    HW217049   0.478   3.371   5.519  2.2799 -1.1552 -0.1327
 1805SOL     OW17050   0.813   1.691   7.398 -0.5847 -0.0060 -0.1462
 1805SOL    HW117051   0.775   1.606   7.419 -0.4813 -0.0077  0.0328
 1805SOL    HW217052   0.747   1.759   7.406 -0.3001  0.1036  1.2244
 1806SOL     OW17053   2.761   3.333   2.739 -0.3592  0.0480 -0.5026
 1806SOL    HW117054   2.799   3.367   2.820  1.2474 -1.0989 -0.7963
 1806SOL    HW217055   2.707   3.262   2.774 -1.5569  1.5088  0.6375
 1807SOL     OW17056   4.118   0.658   8.754  0.0808 -0.2317 -0.4707
 1807SOL    HW117057   4.185   0.609   8.801 -0.7946 -0.9159  0.0540
 1807SOL    HW217058   4.125   0.620   8.666 -1.5142 -0.5299 -0.4643
 1808SOL     OW17059   4.173   0.049   5.651  0.0947  0.1175  0.0213
 1808SOL    HW117060   4.081   0.075   5.656 -0.0923 -0.7082  0.8527
 1808SOL    HW217061   4.216   0.133   5.634  0.4136  0.2589  1.4520
 1809SOL     OW17062   4.449   3.601   9.443 -0.5458  0.0983 -0.3385
 1809SOL    HW117063   4.490   3.682   9.473 -0.0724 -0.2954  0.0850
 1809SOL    HW217064   4.383   3.627   9.379  0.2193 -1.9010 -1.9328
 1810SOL     OW17065   3.632   4.434   3.855 -0.4455  0.0150 -0.3905
 1810SOL    HW117066   3.724   4.437   3.829 -0.5745  1.1155 -0.7050
 1810SOL    HW217067   3.624   4.375   3.930  0.8216  0.0588 -0.2116
 1811SOL     OW17068   4.200   3.925   5.224 -0.7579  0.7350  0.1414
 1811SOL    HW117069   4.185   4.017   5.201 -1.2856  1.0771  1.8415
 1811SOL    HW217070   4.116   3.885   5.250 -0.2296  0.2786  1.1490
 1812SOL     OW17071   0.440   2.396   3.794 -0.1018  0.2121 -0.5153
 1812SOL    HW117072   0.378   2.345   3.845 -0.7776 -1.1616 -2.7199
 1812SOL    HW217073   0.509   2.396   3.860 -0.8206 -0.2568  0.2319
 1813SOL     OW17074   2.352   4.506  13.491 -0.4077 -0.1476 -0.0372
 1813SOL    HW117075   2.413   4.490  13.420  0.7886 -0.8089  1.1385
 1813SOL    HW217076   2.352   4.416  13.525  0.9851 -0.6911 -1.5070
 1814SOL     OW17077   2.357   1.398   4.689 -0.4100  0.0190  0.3790
 1814SOL    HW117078   2.435   1.360   4.730  0.6509  1.1569 -0.5560
 1814SOL    HW217079   2.289   1.382   4.754 -0.4877 -2.1758 -0.2590
 1815SOL     OW17080   3.916   1.901   6.644  0.4476 -0.3014 -0.3554
 1815SOL    HW117081   3.921   1.942   6.730  0.4303  2.3185 -1.6058
 1815SOL    HW217082   3.995   1.944   6.612  0.3698  0.0855 -0.0242
 1816SOL     OW17083   0.686   0.939   5.073 -0.0174  0.1749  0.4441
 1816SOL    HW117084   0.681   0.894   4.988  0.0796 -0.8322  0.9814
 1816SOL    HW217085   0.603   0.986   5.066  0.4051  0.8807  0.0575
 1817SOL     OW17086   2.942   1.707   7.370  0.3230 -0.1247 -0.0915
 1817SOL    HW117087   3.007   1.653   7.415 -1.3559 -0.3741  2.0498
 1817SOL    HW217088   2.867   1.730   7.425  2.1262  0.4143  2.1582
 1818SOL     OW17089   1.593   3.988   3.837 -0.1718  0.2065  0.1958
 1818SOL    HW117090   1.498   3.977   3.825 -0.0432 -0.6516 -0.0243
 1818SOL    HW217091   1.604   3.912   3.895  0.5271 -1.5173 -2.2043
 1819SOL     OW17092   0.191   2.526   3.314  0.3760  0.0106  1.0160
 1819SOL    HW117093   0.207   2.462   3.245  0.3716  0.8239  0.2564
 1819SOL    HW217094   0.211   2.479   3.395  0.0257 -1.9366 -0.0437
 1820SOL     OW17095   2.013   0.026  12.245 -0.1413  0.0736  0.0821
 1820SOL    HW117096   2.011   4.717  12.330 -0.9816  1.4270  0.7564
 1820SOL    HW217097   1.920   0.025  12.221  0.0526 -1.4970 -0.6507
 1821SOL     OW17098   4.676   0.888   8.713  0.1525  0.0675 -0.6687
 1821SOL    HW117099   4.735   0.908   8.640  0.6678 -0.3629 -0.3675
 1821SOL    HW217100   4.662   0.975   8.750  1.8683  0.2671 -0.4939
 1822SOL     OW17101   1.494   1.848  11.100 -0.1367 -0.2518 -0.4250
 1822SOL    HW117102   1.482   1.872  11.192  0.3253  0.2341 -0.4871
 1822SOL    HW217103   1.407   1.869  11.066 -1.3647 -1.9486  1.7588
 1823SOL     OW17104   3.043   0.908   6.992  0.4684  0.0336  0.0701
 1823SOL    HW117105   2.956   0.941   7.018 -0.1254 -1.4390 -0.0632
 1823SOL    HW217106   3.071   0.869   7.074 -0.9800  0.3873  0.7392
 1824SOL     OW17107   3.454   2.050   6.196 -0.5855  0.1586  0.8770
 1824SOL    HW117108   3.517   2.104   6.244  2.6232 -0.8272 -2.2744
 1824SOL    HW217109   3.506   1.979   6.160 -0.4588  1.1667 -0.9308
 1825SOL     OW17110   4.055   4.025   5.635 -0.3695 -0.1335 -0.0891
 1825SOL    HW117111   4.027   4.111   5.666  2.1517 -0.1398  2.1625
 1825SOL    HW217112   4.135   4.038   5.585  0.1920  1.8012  1.3067
 1826SOL     OW17113   1.944   3.579   5.271  0.0360 -0.2627 -1.1388
 1826SOL    HW117114   1.991   3.622   5.342  1.4716  0.8888 -2.8088
 1826SOL    HW217115   1.861   3.626   5.283  0.4576  0.0016  0.7092
 1827SOL     OW17116   3.498   2.413   8.133  0.1198  0.0670 -0.5491
 1827SOL    HW117117   3.590   2.410   8.107 -0.0331  0.0485 -1.0725
 1827SOL    HW217118   3.454   2.471   8.070  0.8186  1.5953  0.3618
 1828SOL     OW17119   0.786   1.234   7.497 -0.1239 -0.0917 -0.3496
 1828SOL    HW117120   0.763   1.142   7.484 -3.3001  0.4266  1.5059
 1828SOL    HW217121   0.822   1.222   7.585  0.5145  1.8179 -0.3565
 1829SOL     OW17122   1.641   4.292   3.698 -0.0876  0.0330 -0.2769
 1829SOL    HW117123   1.728   4.255   3.713 -0.4106 -0.1127  1.2731
 1829SOL    HW217124   1.600   4.224   3.645 -1.4090  0.8272 -0.2720
 1830SOL     OW17125   1.961   1.415   9.628 -0.0682  0.2636 -0.0346
 1830SOL    HW117126   1.896   1.347   9.609  1.1548 -0.6725 -0.9053
 1830SOL    HW217127   1.932   1.477   9.561  1.4456  1.2780  0.2606
 1831SOL     OW17128   1.068   0.222   3.505  0.7190  0.0070 -0.0666
 1831SOL    HW117129   1.027   0.298   3.463 -0.2788  0.2090  1.2850
 1831SOL    HW217130   1.038   0.152   3.446 -1.5366  0.9687 -0.0485
 1832SOL     OW17131   0.143   2.980  12.193  0.1722 -0.0013  0.2278
 1832SOL    HW117132   0.053   2.983  12.224 -0.1611 -1.4421 -0.5901
 1832SOL    HW217133   0.172   2.900  12.238  1.5821 -0.3568 -1.2906
 1833SOL     OW17134   4.133   4.307   8.640  0.2798 -0.2633 -0.3581
 1833SOL    HW117135   4.108   4.292   8.549  2.3752 -0.0985 -0.9494
 1833SOL    HW217136   4.125   4.221   8.682 -1.0813 -0.5523 -1.2013
 1834SOL     OW17137   0.286   2.468  13.960  0.4256 -0.7808  0.0746
 1834SOL    HW117138   0.357   2.533  13.963  0.8316 -1.1075 -2.6026
 1834SOL    HW217139   0.230   2.480  14.037  1.5355  0.0845  0.7460
 1835SOL     OW17140   1.263   4.606  13.562 -0.2004 -0.3477 -0.0356
 1835SOL    HW117141   1.175   4.569  13.558 -0.7556  1.1741 -1.8182
 1835SOL    HW217142   1.288   4.567  13.646 -0.7767 -1.3312 -0.3251
 1836SOL     OW17143   0.630   3.892   1.471  0.3257 -0.0560  0.4912
 1836SOL    HW117144   0.592   3.911   1.386  0.8685 -1.0666  0.0142
 1836SOL    HW217145   0.655   3.800   1.463 -0.2630  0.0688 -2.5110
 1837SOL     OW17146   1.969   3.528   3.927 -0.2150  0.2104  0.2447
 1837SOL    HW117147   2.031   3.487   3.866  2.1518 -1.6511  3.9017
 1837SOL    HW217148   1.908   3.454   3.935 -0.3084  0.2074 -0.4383
 1838SOL     OW17149   2.693   0.639   4.888  0.4992  0.3117 -0.0896
 1838SOL    HW117150   2.702   0.663   4.981  0.1973  2.7659 -0.6980
 1838SOL    HW217151   2.682   0.726   4.849 -1.0043  0.6375  1.0639
 1839SOL     OW17152   2.795   1.417   5.510 -0.2107 -0.6035  0.0805
 1839SOL    HW117153   2.749   1.461   5.439 -1.0463 -0.0676  0.9479
 1839SOL    HW217154   2.720   1.389   5.562  0.2577  0.6855  1.4522
 1840SOL     OW17155   0.563   2.068   3.828 -0.0536  0.2617 -0.3510
 1840SOL    HW117156   0.566   2.031   3.917 -0.3624 -1.8554 -1.2307
 1840SOL    HW217157   0.648   2.113   3.828 -0.6957  1.4767 -1.3313
 1841SOL     OW17158   4.340   3.771   1.796 -0.8756 -0.0568  0.2465
 1841SOL    HW117159   4.284   3.804   1.726 -1.2765 -0.0551  0.5662
 1841SOL    HW217160   4.307   3.684   1.815 -0.4630 -0.4023 -0.6331
 1842SOL     OW17161   2.784   2.563   7.959 -0.2033  0.5424  0.3034
 1842SOL    HW117162   2.834   2.541   7.880 -1.5172  0.3919 -0.4934
 1842SOL    HW217163   2.696   2.562   7.921 -0.3710 -2.8031  0.8097
 1843SOL     OW17164   1.995   1.988   2.415  0.2077 -0.1525  0.0022
 1843SOL    HW117165   1.976   2.063   2.359  3.4300 -0.8496 -2.0271
 1843SOL    HW217166   1.941   2.006   2.492  0.1330  0.2519 -0.1462
 1844SOL     OW17167   1.932   2.290   7.844  0.6014  0.2138 -0.2396
 1844SOL    HW117168   1.857   2.337   7.808  0.9383  3.3275  3.1218
 1844SOL    HW217169   1.936   2.334   7.929 -2.5213 -0.2299  0.1574
 1845SOL     OW17170   4.686   2.441  10.932 -0.2662 -0.5173 -0.4658
 1845SOL    HW117171   4.702   2.355  10.894  1.8426  0.5814 -2.0517
 1845SOL    HW217172   4.664   2.412  11.021  4.7778  0.3365  1.0415
 1846SOL     OW17173   4.081   0.388   5.239 -0.5341 -0.2192 -0.0499
 1846SOL    HW117174   4.036   0.341   5.168  1.0397 -2.1592  0.2046
 1846SOL    HW217175   4.095   0.468   5.189  1.8151  0.1378  1.1640
 1847SOL     OW17176   1.670   4.275   6.173 -0.3590 -0.3634 -0.1787
 1847SOL    HW117177   1.735   4.209   6.150  0.0239  0.1232 -0.5003
 1847SOL    HW217178   1.584   4.240   6.149 -0.2634  0.7751 -2.1501
 1848SOL     OW17179   1.502   2.158   2.658  0.0240  0.6467  0.6435
 1848SOL    HW117180   1.531   2.213   2.585  2.0394 -0.8821  0.2677
 1848SOL    HW217181   1.580   2.173   2.711  0.5903 -0.1378  0.0334
 1849SOL     OW17182   3.756   3.887  11.402 -0.8188 -0.1894 -0.0155
 1849SOL    HW117183   3.718   3.838  11.475  0.3798  0.6686  1.1813
 1849SOL    HW217184   3.731   3.838  11.323  0.7017  0.5587 -0.9678
 1850SOL     OW17185   3.991   1.469  14.734  0.0602  0.2086  0.2294
 1850SOL    HW117186   3.939   1.469  14.814  0.3062 -1.6615  0.3807
 1850SOL    HW217187   4.025   1.558  14.741  1.0112 -0.1679  0.4063
 1851SOL     OW17188   2.067   0.299   2.163  0.0645 -0.1363 -0.3639
 1851SOL    HW117189   1.983   0.256   2.147 -0.8927  1.1609  1.1397
 1851SOL    HW217190   2.124   0.262   2.096  3.7488  0.5899  2.3847
 1852SOL     OW17191   2.334   0.944   2.163  0.0223 -0.0715 -0.4177
 1852SOL    HW117192   2.329   0.849   2.157  0.7578 -0.0642 -1.1071
 1852SOL    HW217193   2.412   0.955   2.218 -0.3877  0.8004 -0.0093
 1853SOL     OW17194   1.849   1.736  12.778  0.3637 -0.2559 -0.1971
 1853SOL    HW117195   1.760   1.731  12.744  0.7188 -0.1236 -1.1527
 1853SOL    HW217196   1.878   1.646  12.768 -1.0003 -0.7807  0.5396
 1854SOL     OW17197   4.270   0.110  14.364 -0.3547  0.6305  0.4371
 1854SOL    HW117198   4.282   0.196  14.405 -1.7309  0.9035  0.2693
 1854SOL    HW217199   4.216   0.138  14.290  0.5380  0.1078 -0.4127
 1855SOL     OW17200   1.741   1.163  17.717 -0.3533  0.3045 -0.4972
 1855SOL    HW117201   1.730   1.235  17.655 -1.8587  0.1745 -0.3854
 1855SOL    HW217202   1.809   1.184   0.041 -0.9271 -1.9961  0.8626
 1856SOL     OW17203   0.155   1.354   3.211 -0.2937 -0.1662  0.2874
 1856SOL    HW117204   0.189   1.386   3.127  0.8488  1.6290  1.4390
 1856SOL    HW217205   0.082   1.297   3.186  1.2205 -1.1723 -1.8849
 1857SOL     OW17206   2.214   3.886   6.846 -0.2318 -0.0088 -0.2291
 1857SOL    HW117207   2.298   3.922   6.818  0.4811 -1.6413 -0.1338
 1857SOL    HW217208   2.148   3.891   6.777  1.3076  0.3088 -1.6693
 1858SOL     OW17209   1.430   1.780   1.884 -0.7363  0.3434  0.3297
 1858SOL    HW117210   1.453   1.688   1.900  2.3218  1.0161 -0.1910
 1858SOL    HW217211   1.433   1.780   1.789 -0.9481 -3.1395  0.3306
 1859SOL     OW17212   4.191   0.385   2.461 -0.5642 -0.7024 -0.1266
 1859SOL    HW117213   4.192   0.292   2.485 -0.5585  0.0092  2.5689
 1859SOL    HW217214   4.105   0.421   2.480  0.1598  0.4803  0.9482
 1860SOL     OW17215   1.793   0.972   7.678 -0.2608 -0.1508  0.0943
 1860SOL    HW117216   1.725   0.952   7.613 -0.4660  0.2595  0.1875
 1860SOL    HW217217   1.855   0.904   7.651 -1.4378 -0.6411 -1.4152
 1861SOL     OW17218   2.048   3.395   5.806 -0.6872  0.1810 -0.2331
 1861SOL    HW117219   2.030   3.303   5.828 -0.7534  0.0685 -0.7534
 1861SOL    HW217220   1.971   3.447   5.832  0.2926  1.1067  0.7805
 1862SOL     OW17221   4.619   0.313   2.227 -0.3440  0.1446 -0.2673
 1862SOL    HW117222   4.562   0.360   2.165  0.1807 -1.9181 -2.3429
 1862SOL    HW217223   4.704   0.330   2.185  0.5915  1.7867  2.2993
 1863SOL     OW17224   3.532   1.220  17.632 -0.5882  0.1934  0.4723
 1863SOL    HW117225   3.516   1.290  17.696 -0.0684  1.3103 -0.6038
 1863SOL    HW217226   3.445   1.181  17.642  0.6039 -2.2587  1.0871
 1864SOL     OW17227   0.592   1.102   9.033  0.1168 -0.6269 -0.1931
 1864SOL    HW117228   0.627   1.025   8.988  2.6702 -0.5919  1.7891
 1864SOL    HW217229   0.557   1.053   9.108 -0.4803 -0.6063 -0.4548
 1865SOL     OW17230   0.967   2.499   5.030  0.4430  0.6251 -0.0388
 1865SOL    HW117231   0.908   2.447   4.976  0.1858  0.7981  0.0782
 1865SOL    HW217232   0.934   2.586   5.006  0.6418  0.5576 -0.5726
 1866SOL     OW17233   2.482   2.479   0.519 -0.5640 -0.5191 -0.5033
 1866SOL    HW117234   2.393   2.497   0.489  0.8850  2.2305 -3.0758
 1866SOL    HW217235   2.476   2.543   0.590 -1.0413  0.2473 -1.2310
 1867SOL     OW17236   4.307   3.782   5.617 -0.4105  0.0248 -0.4044
 1867SOL    HW117237   4.349   3.765   5.532  0.7966 -0.2141  0.2478
 1867SOL    HW217238   4.370   3.843   5.654 -1.8659  0.0720  1.9654
 1868SOL     OW17239   2.726   0.192   0.033 -0.0910 -0.3051  0.2078
 1868SOL    HW117240   2.676   0.159   0.107  0.4211  1.2853  1.2681
 1868SOL    HW217241   2.665   0.188  17.700  1.5416 -0.3126 -1.1608
 1869SOL     OW17242   2.484   0.722   4.550 -0.3160  0.0670 -0.4248
 1869SOL    HW117243   2.418   0.782   4.516  0.8724  2.9056  2.2302
 1869SOL    HW217244   2.553   0.782   4.579 -0.9741 -0.3938  2.1782
 1870SOL     OW17245   3.768   2.892   0.793 -0.0420  0.4583  0.0701
 1870SOL    HW117246   3.830   2.821   0.776  0.5518  1.1357 -0.5826
 1870SOL    HW217247   3.789   2.941   0.713  2.5621  2.5185  2.0497
 1871SOL     OW17248   0.040   2.829   3.987 -0.1184  0.4344  0.0457
 1871SOL    HW117249   0.086   2.879   4.055  0.6018 -1.8520  1.2367
 1871SOL    HW217250   4.696   2.881   3.976  0.6645  2.0054  1.6110
 1872SOL     OW17251   3.601   1.370   6.695 -0.1295  0.1592  0.3036
 1872SOL    HW117252   3.675   1.429   6.687  1.4636 -2.0048 -1.0009
 1872SOL    HW217253   3.553   1.402   6.619  0.0343 -1.0286 -0.3101
 1873SOL     OW17254   3.838   3.833   5.524 -0.2289 -0.4257  0.3047
 1873SOL    HW117255   3.904   3.791   5.580 -0.4419  0.7184  1.4227
 1873SOL    HW217256   3.795   3.883   5.593 -1.8521  0.4276 -1.3424
 1874SOL     OW17257   2.350   4.642  16.999  0.6861  0.1166 -0.0906
 1874SOL    HW117258   2.311   4.597  16.924  0.3829 -1.2592  0.8973
 1874SOL    HW217259   2.345   4.731  16.965 -0.4821  0.7014  1.6234
 1875SOL     OW17260   2.156   3.707  12.004  0.2901 -1.0522  0.2270
 1875SOL    HW117261   2.132   3.800  12.002 -0.0644 -1.1505 -0.2296
 1875SOL    HW217262   2.208   3.704  12.084 -0.9630 -0.3186  1.0582
 1876SOL     OW17263   3.898   2.954   2.809  0.1269  0.2334 -0.4365
 1876SOL    HW117264   3.862   3.043   2.798  0.8079  0.5311 -0.2459
 1876SOL    HW217265   3.834   2.902   2.760 -0.3412  1.1189 -0.7676
 1877SOL     OW17266   1.825   1.591   3.853 -0.1823  1.0148  0.1954
 1877SOL    HW117267   1.786   1.630   3.774  0.3382 -0.8747 -0.9853
 1877SOL    HW217268   1.750   1.601   3.912  0.4766  1.7976  0.9038
 1878SOL     OW17269   0.713   0.724   1.837 -0.0904 -0.1284 -0.0329
 1878SOL    HW117270   0.782   0.756   1.779 -1.7017  0.4171 -1.6647
 1878SOL    HW217271   0.642   0.682   1.787 -1.2943  0.7378  0.9411
 1879SOL     OW17272   4.246   1.519   3.545 -0.3526  0.0101 -0.2324
 1879SOL    HW117273   4.232   1.487   3.634 -0.0059 -1.0512 -0.5591
 1879SOL    HW217274   4.166   1.571   3.534 -1.6485 -1.2029  3.1342
 1880SOL     OW17275   4.494   1.482   3.844  0.3211  0.1412 -0.1404
 1880SOL    HW117276   4.411   1.449   3.879 -1.0959  1.4419 -2.2257
 1880SOL    HW217277   4.559   1.454   3.909  0.0981  0.4171  0.2022
 1881SOL     OW17278   0.615   1.687   3.634 -0.0542 -0.5364 -0.1726
 1881SOL    HW117279   0.577   1.720   3.553 -0.2079 -0.5048 -0.0883
 1881SOL    HW217280   0.709   1.687   3.616  0.5051  1.8159  2.6316
 1882SOL     OW17281   4.522   3.246   9.328  0.3397 -0.2679  0.2315
 1882SOL    HW117282   4.445   3.300   9.343  0.8699  0.3644  0.6764
 1882SOL    HW217283   4.482   3.170   9.287 -1.5860  0.7443  0.2434
 1883SOL     OW17284   2.966   3.699   8.684  0.3058 -0.2245  0.7327
 1883SOL    HW117285   2.914   3.659   8.615 -0.1448  0.7743  0.4974
 1883SOL    HW217286   3.040   3.730   8.631  0.7525 -1.2891  0.7331
 1884SOL     OW17287   4.696   1.889   2.800 -0.3343  0.3574  0.2995
 1884SOL    HW117288   4.691   1.866   2.707 -0.3751  0.6562  0.2273
 1884SOL    HW217289   0.056   1.888   2.814 -0.0112 -0.5812 -1.9467
 1885SOL     OW17290   3.361   2.628   8.702 -0.0449  0.0431 -0.8280
 1885SOL    HW117291   3.445   2.634   8.749  1.1217 -2.4991 -2.5946
 1885SOL    HW217292   3.391   2.586   8.621 -0.4521  0.5195 -1.2225
 1886SOL     OW17293   4.081   4.496  13.819 -0.5870  0.2027  0.3403
 1886SOL    HW117294   4.094   4.555  13.894  0.7730  1.6696 -1.0325
 1886SOL    HW217295   3.992   4.463  13.824 -0.0849 -1.5840 -2.7450
 1887SOL     OW17296   0.990   0.355   6.385 -0.4165  0.3635  0.0076
 1887SOL    HW117297   1.021   0.296   6.453 -1.5234 -2.4643 -1.9705
 1887SOL    HW217298   0.911   0.311   6.356 -0.3443 -0.1385  0.5648
 1888SOL     OW17299   0.104   0.813  13.046  0.0769  0.0495  0.9981
 1888SOL    HW117300   0.091   0.838  13.137  1.0389 -1.0986  1.4412
 1888SOL    HW217301   0.192   0.776  13.054  1.4079  2.7277 -0.9205
 1889SOL     OW17302   2.126   1.403  10.313  0.6881 -0.7891  0.1345
 1889SOL    HW117303   2.060   1.350  10.359 -0.6574  0.4942 -0.3381
 1889SOL    HW217304   2.092   1.408  10.224  0.8169 -0.2128  0.1203
 1890SOL     OW17305   2.608   4.666   7.203  0.5642  0.3153  0.1831
 1890SOL    HW117306   2.565   4.639   7.285  0.6782 -0.6610 -0.0836
 1890SOL    HW217307   2.661   0.003   7.235  0.0703  1.1471 -0.9007
 1891SOL     OW17308   1.165   2.381  16.744 -0.1871 -0.0829 -0.0397
 1891SOL    HW117309   1.248   2.428  16.743 -0.4544  0.4047  0.9181
 1891SOL    HW217310   1.151   2.386  16.649  0.7100  0.6166 -0.1385
 1892SOL     OW17311   0.229   0.233   0.438  0.2062  0.6991  0.2753
 1892SOL    HW117312   0.178   0.297   0.388 -0.9506 -1.4624 -1.3244
 1892SOL    HW217313   0.255   0.282   0.516  1.5853 -0.7866  0.7504
 1893SOL     OW17314   2.131   2.758   7.922 -0.4992 -0.4845 -0.1023
 1893SOL    HW117315   2.058   2.772   7.982  0.4683 -1.0929  1.2127
 1893SOL    HW217316   2.174   2.844   7.915 -0.0941 -0.3948  3.5359
 1894SOL     OW17317   3.489   4.140   6.280 -0.6417  0.4996 -0.1793
 1894SOL    HW117318   3.563   4.102   6.233 -0.5502  1.9402 -1.1861
 1894SOL    HW217319   3.521   4.227   6.301 -0.9765  0.1092  1.9463
 1895SOL     OW17320   3.033   4.208   4.271  0.0398  0.1945 -0.4712
 1895SOL    HW117321   2.967   4.212   4.340  1.5073  2.3412  0.8198
 1895SOL    HW217322   3.109   4.244   4.318 -0.3917 -0.9997  1.1610
 1896SOL     OW17323   3.289   1.502  10.108  0.3658  0.2863  0.7222
 1896SOL    HW117324   3.249   1.588  10.097  3.3143  1.3771 -1.6635
 1896SOL    HW217325   3.263   1.478  10.197 -0.6838  0.6834  0.5213
 1897SOL     OW17326   2.526   0.683  11.444 -0.1099  0.0390  0.4625
 1897SOL    HW117327   2.439   0.710  11.474  0.7260  1.6072  1.5003
 1897SOL    HW217328   2.512   0.591  11.421  0.8138  0.1820 -0.6709
 1898SOL     OW17329   2.411   3.026   9.134 -0.1215 -0.2283 -0.1768
 1898SOL    HW117330   2.343   3.047   9.070  1.8485 -0.2131 -2.2622
 1898SOL    HW217331   2.462   2.956   9.093  1.0736 -0.4090  1.6160
 1899SOL     OW17332   2.324   1.355  11.136  0.2570 -0.2964  0.3096
 1899SOL    HW117333   2.357   1.405  11.211  0.4358 -1.2211  0.8538
 1899SOL    HW217334   2.399   1.297  11.126  1.2751  1.6488 -3.2995
 1900SOL     OW17335   1.277   4.130  15.157  0.2073 -0.1543  0.4032
 1900SOL    HW117336   1.359   4.119  15.206  0.7713 -1.8333 -0.9023
 1900SOL    HW217337   1.295   4.211  15.110 -1.1307 -0.5070 -0.7250
 1901SOL     OW17338   1.940   4.313   5.258 -0.8450  0.7876  0.1956
 1901SOL    HW117339   1.988   4.333   5.177  2.0782 -0.2940  1.6558
 1901SOL    HW217340   2.012   4.326   5.319 -0.4293 -0.0841 -0.1009
 1902SOL     OW17341   0.213   0.995   3.054 -0.1408  0.7458  0.6961
 1902SOL    HW117342   0.148   1.049   3.098 -0.0185  0.8935  0.6943
 1902SOL    HW217343   0.175   0.907   3.056 -0.8621  1.0410 -0.2285
 1903SOL     OW17344   1.435   1.305   2.733 -0.0623  0.0930 -0.1096
 1903SOL    HW117345   1.450   1.396   2.758 -2.2217  0.1592  0.9294
 1903SOL    HW217346   1.492   1.256   2.792  0.6680 -0.2822 -1.1382
 1904SOL     OW17347   4.396   2.598   2.860  0.4660  0.1994  0.6344
 1904SOL    HW117348   4.301   2.588   2.847  0.6992 -1.5110  0.2746
 1904SOL    HW217349   4.400   2.601   2.956  1.1032 -0.0069  0.6122
 1905SOL     OW17350   1.723   2.795  12.785  0.9941  0.0639  0.3177
 1905SOL    HW117351   1.702   2.703  12.774  0.8804  0.0402  0.7294
 1905SOL    HW217352   1.819   2.795  12.774  1.2028  0.2746  2.1670
 1906SOL     OW17353   2.961   0.755   3.270 -0.2899 -0.4705 -0.5953
 1906SOL    HW117354   2.902   0.733   3.342  1.9795  0.3072  1.4715
 1906SOL    HW217355   2.895   0.783   3.205 -0.7440 -0.0058  0.0671
 1907SOL     OW17356   1.380   1.377   3.087  0.4577 -0.0043 -0.1228
 1907SOL    HW117357   1.352   1.292   3.053  2.0343 -1.0187  1.1432
 1907SOL    HW217358   1.474   1.372   3.074  0.8700 -1.5927  3.4383
 1908SOL     OW17359   3.892   2.477  12.953  0.2604  0.5073 -0.0127
 1908SOL    HW117360   3.936   2.559  12.929  0.4264  0.5308  0.3851
 1908SOL    HW217361   3.934   2.419  12.889 -1.9496 -0.3922 -0.6126
 1909SOL     OW17362   0.064   0.396   1.751  0.1730  0.3303  0.2199
 1909SOL    HW117363   0.100   0.329   1.693 -3.0710 -0.4711 -0.9171
 1909SOL    HW217364   0.125   0.370   1.819  0.1674 -1.1734 -0.3528
 1910SOL     OW17365   1.607   2.905   4.957 -0.1530 -0.4398 -0.0317
 1910SOL    HW117366   1.656   2.920   4.876  0.0316 -2.0633 -0.2295
 1910SOL    HW217367   1.665   2.928   5.030  0.9457  2.3701 -1.7825
 1911SOL     OW17368   4.353   0.775   3.009 -0.8698  0.1345  0.2335
 1911SOL    HW117369   4.448   0.786   2.999 -0.6691 -0.2669  1.6530
 1911SOL    HW217370   4.338   0.683   2.986  1.7750 -0.5812  1.3492
 1912SOL     OW17371   0.611   0.531  11.212  0.1401 -0.6847 -0.1982
 1912SOL    HW117372   0.567   0.468  11.267 -0.2029  1.5607  2.1014
 1912SOL    HW217373   0.536   0.566  11.164  1.0750  2.2356  0.4471
 1913SOL     OW17374   3.428   0.969   9.052  0.5721  0.5018  0.1155
 1913SOL    HW117375   3.469   0.925   9.127 -1.3291  0.3631  1.0779
 1913SOL    HW217376   3.402   1.049   9.097  0.2493 -0.4530  1.6340
 1914SOL     OW17377   2.565   1.144   1.348  0.5533  0.2554 -0.2914
 1914SOL    HW117378   2.614   1.068   1.317 -0.4385 -0.5183  0.0269
 1914SOL    HW217379   2.515   1.172   1.271 -0.0915 -2.1175 -0.7386
 1915SOL     OW17380   0.295   0.792   2.719  0.3702 -0.2549  0.3688
 1915SOL    HW117381   0.231   0.723   2.738 -0.0008  0.0273  0.1398
 1915SOL    HW217382   0.375   0.752   2.751  0.8435  0.4527  0.0500
 1916SOL     OW17383   4.003   2.780  11.483 -0.1188  0.1197 -0.1746
 1916SOL    HW117384   4.077   2.841  11.490  1.0980 -1.2225 -1.5098
 1916SOL    HW217385   3.947   2.843  11.437  1.4651  0.9833 -0.9327
 1917SOL     OW17386   3.967   3.602   8.711  0.2347  0.0490 -0.6503
 1917SOL    HW117387   3.936   3.692   8.709 -0.7148 -0.2925 -1.1866
 1917SOL    HW217388   3.910   3.563   8.645  1.3148 -2.2484 -0.2533
 1918SOL     OW17389   0.283   3.608  11.562 -0.4179  0.1538  0.2253
 1918SOL    HW117390   0.322   3.667  11.498  1.4084  0.4036  1.5685
 1918SOL    HW217391   0.263   3.541  11.497 -2.1497  0.4574  0.4419
 1919SOL     OW17392   3.722   4.381   1.125  0.2245  0.0842 -0.1296
 1919SOL    HW117393   3.681   4.461   1.095  1.3824  0.5980 -0.3420
 1919SOL    HW217394   3.787   4.414   1.188 -1.8287  0.4956  1.7814
 1920SOL     OW17395   2.840   0.655   8.055 -0.0509 -0.0919  0.0548
 1920SOL    HW117396   2.882   0.591   8.111 -1.3962 -0.6120  0.4656
 1920SOL    HW217397   2.759   0.606   8.039 -0.5391  1.1853 -1.4583
 1921SOL     OW17398   0.415   2.966   9.641  0.0100  0.1896  0.5607
 1921SOL    HW117399   0.501   3.007   9.643 -0.5449  1.4520 -1.0654
 1921SOL    HW217400   0.353   3.039   9.637  0.4653  0.5139 -0.4008
 1922SOL     OW17401   2.604   3.941   5.272  0.4020  0.0384 -1.2890
 1922SOL    HW117402   2.648   3.864   5.307  0.0003  0.5581  0.3486
 1922SOL    HW217403   2.607   3.994   5.351  2.7313 -0.2378 -1.1785
 1923SOL     OW17404   2.814   0.250   4.304 -0.2496 -0.3631 -0.0130
 1923SOL    HW117405   2.804   0.336   4.262 -1.3309 -0.0908  0.8179
 1923SOL    HW217406   2.767   0.275   4.384 -1.3648 -0.0502 -0.7587
 1924SOL     OW17407   2.828   4.723  16.578 -0.4426 -0.4537  0.4421
 1924SOL    HW117408   2.755   4.730  16.639 -0.1323 -0.5459  0.8261
 1924SOL    HW217409   2.852   4.631  16.588  0.8824 -0.4361 -2.5288
 1925SOL     OW17410   2.652   2.747   6.114 -0.0830 -0.2725 -0.5355
 1925SOL    HW117411   2.609   2.661   6.109 -3.1986  1.1667  1.4113
 1925SOL    HW217412   2.688   2.746   6.025 -1.5345 -1.6543 -1.1086
 1926SOL     OW17413   3.165   1.632  15.041  0.0389  0.3906 -0.4046
 1926SOL    HW117414   3.082   1.603  15.079 -0.8919  0.1554 -2.6272
 1926SOL    HW217415   3.165   1.584  14.958  0.3408  1.0549 -0.7864
 1927SOL     OW17416   1.580   0.643   6.681  0.0699  0.2895 -0.0019
 1927SOL    HW117417   1.580   0.580   6.754  2.2395  0.7066  0.3452
 1927SOL    HW217418   1.590   0.580   6.610 -0.1225 -0.5125  0.6735
 1928SOL     OW17419   0.832   0.148  13.968  0.5113 -0.5836  0.4376
 1928SOL    HW117420   0.894   0.192  13.909  0.8539 -1.2153  0.3128
 1928SOL    HW217421   0.780   0.223  13.995  0.3924 -1.1519  1.8021
 1929SOL     OW17422   4.552   4.202   8.235  0.1352  0.6680  0.1981
 1929SOL    HW117423   4.621   4.212   8.170 -0.6716 -1.4917 -0.9812
 1929SOL    HW217424   4.571   4.121   8.283  3.0258  1.6000  0.6267
 1930SOL     OW17425   2.497   3.982   4.845 -0.5836  0.0883  0.4948
 1930SOL    HW117426   2.431   3.913   4.843 -1.0102  0.4701  1.8711
 1930SOL    HW217427   2.471   4.029   4.924 -2.0258 -1.1131  0.7274
 1931SOL     OW17428   2.888   3.350   6.802 -0.6220  0.3298  0.4730
 1931SOL    HW117429   2.937   3.423   6.840 -1.5579  1.0390  0.3329
 1931SOL    HW217430   2.941   3.336   6.724  0.3084  0.8248  1.0229
 1932SOL     OW17431   4.119   4.682  14.018  0.3652  0.0866  0.4737
 1932SOL    HW117432   4.086   0.013  14.079  0.3138  0.7737 -0.3065
 1932SOL    HW217433   4.212   4.704  14.015  0.2422  0.6002  0.3079
 1933SOL     OW17434   1.605   1.364   1.345 -0.4900 -0.0117 -0.1222
 1933SOL    HW117435   1.509   1.356   1.341 -0.4540 -0.1504 -0.7580
 1933SOL    HW217436   1.614   1.401   1.257  0.8547  1.1136  0.4950
 1934SOL     OW17437   4.658   4.142  17.589  0.3471 -0.0626 -0.3268
 1934SOL    HW117438   4.700   4.228  17.589 -1.1630  0.6769  0.6726
 1934SOL    HW217439   4.571   4.168  17.558  0.0608  1.1596  1.4731
 1935SOL     OW17440   2.976   3.055   5.612  0.1320  0.1883 -0.3237
 1935SOL    HW117441   2.936   3.127   5.564  0.4766 -0.3010 -1.3342
 1935SOL    HW217442   2.905   3.002   5.650  0.2952  1.3963  1.6401
 1936SOL     OW17443   1.575   1.883  16.895 -0.5077  0.0219 -0.3872
 1936SOL    HW117444   1.590   1.975  16.918  1.4951 -0.5366  0.6358
 1936SOL    HW217445   1.594   1.883  16.801 -0.0923 -0.3578 -0.3041
 1937SOL     OW17446   2.606   0.235   8.507  0.4326  0.7581 -0.2266
 1937SOL    HW117447   2.530   0.253   8.451 -1.3324  0.7791  2.1456
 1937SOL    HW217448   2.611   0.140   8.500 -2.2987  0.6366 -0.5002
 1938SOL     OW17449   1.168   1.257  11.181  0.1902 -0.4609  0.2113
 1938SOL    HW117450   1.092   1.252  11.238 -1.4666  0.4001 -1.9255
 1938SOL    HW217451   1.218   1.324  11.228 -0.1254 -0.1904  0.1598
 1939SOL     OW17452   4.393   1.150   2.693  0.2437 -0.3721  0.4544
 1939SOL    HW117453   4.299   1.140   2.710  0.0202 -0.7600 -1.0545
 1939SOL    HW217454   4.398   1.080   2.628 -0.3147 -1.0148  1.0911
 1940SOL     OW17455   2.857   4.066   9.676  0.0758  0.1618  0.0085
 1940SOL    HW117456   2.822   3.992   9.626  0.1346  0.3004 -0.2368
 1940SOL    HW217457   2.782   4.108   9.718 -0.6149 -0.8693 -0.1863
 1941SOL     OW17458   0.120   1.781   9.756 -0.2198  0.0010  0.2290
 1941SOL    HW117459   0.172   1.777   9.676 -0.8954  1.8842 -0.3045
 1941SOL    HW217460   0.149   1.698   9.793  0.3223  0.1187  0.0694
 1942SOL     OW17461   3.697   2.166   6.305 -0.1958 -0.1896  0.8029
 1942SOL    HW117462   3.757   2.154   6.232  1.5244  1.6596  1.9025
 1942SOL    HW217463   3.750   2.222   6.362  1.8268 -1.1554 -0.0960
 1943SOL     OW17464   4.041   0.780   3.318  0.3893  0.5636 -0.0081
 1943SOL    HW117465   4.064   0.799   3.227  0.4664  0.6659  0.0329
 1943SOL    HW217466   4.122   0.755   3.362  0.5355  0.3343 -0.4087
 1944SOL     OW17467   1.961   3.160   5.901  0.0358 -0.1462  0.0816
 1944SOL    HW117468   2.016   3.087   5.928  1.1443  0.7156  0.1386
 1944SOL    HW217469   1.898   3.119   5.842 -1.7795  1.6514  0.7273
 1945SOL     OW17470   1.450   1.377   4.851  0.3000  0.0910 -0.9814
 1945SOL    HW117471   1.464   1.468   4.879  0.3827 -0.2903  0.2043
 1945SOL    HW217472   1.504   1.334   4.916 -1.4176 -1.4028 -0.5400
 1946SOL     OW17473   0.947   1.046   4.323 -0.4546  0.7238  0.0621
 1946SOL    HW117474   0.860   1.044   4.284 -0.7220 -0.9818  0.7565
 1946SOL    HW217475   0.997   0.973   4.284 -1.4186 -0.1762  0.5033
 1947SOL     OW17476   2.539   4.643   2.993 -0.2246 -0.2489  0.5201
 1947SOL    HW117477   2.626   4.655   3.032 -0.4541 -0.2891  1.0432
 1947SOL    HW217478   2.490   4.598   3.062  0.6120 -0.5374  0.9291
 1948SOL     OW17479   4.006   4.157  15.967  0.2362 -0.1130  0.2707
 1948SOL    HW117480   3.962   4.077  15.997  0.0704  0.0024  0.3355
 1948SOL    HW217481   3.997   4.146  15.872 -0.2669 -2.2605  0.5576
 1949SOL     OW17482   1.009   4.345   7.703 -0.0804  0.3069 -0.2436
 1949SOL    HW117483   1.068   4.420   7.709 -0.8942  0.8538  0.7205
 1949SOL    HW217484   0.987   4.328   7.794  1.6257 -0.6730 -0.0152
 1950SOL     OW17485   3.832   4.437   1.856  0.0919  1.1406 -0.0556
 1950SOL    HW117486   3.820   4.522   1.898  0.7210  1.2034  0.0092
 1950SOL    HW217487   3.901   4.467   1.797 -0.3498  1.6807 -0.2987
 1951SOL     OW17488   1.279   4.578  12.067 -0.2297 -1.2671 -0.6856
 1951SOL    HW117489   1.203   4.526  12.093 -1.1914  1.1686  1.4354
 1951SOL    HW217490   1.289   4.651  12.128  2.0691 -1.9501 -0.2630
 1952SOL     OW17491   2.220   4.514   7.478 -0.6399 -0.5015  0.7079
 1952SOL    HW117492   2.148   4.575   7.466 -0.6439 -0.2721  1.9178
 1952SOL    HW217493   2.189   4.445   7.419 -0.3985 -0.7459  0.8597
 1953SOL     OW17494   3.249   2.848   2.310 -0.6270 -0.1881 -0.2584
 1953SOL    HW117495   3.203   2.809   2.236 -0.8625 -0.1842 -0.1127
 1953SOL    HW217496   3.224   2.939   2.293  0.2335  0.0507 -0.2427
 1954SOL     OW17497   3.498   2.601   2.739  0.1389 -0.2385 -0.2586
 1954SOL    HW117498   3.423   2.579   2.683 -1.8149 -1.9644  3.0054
 1954SOL    HW217499   3.520   2.523   2.790 -1.1314 -1.0083 -0.8971
 1955SOL     OW17500   0.556   0.837   9.000  0.5944  0.6988  0.2115
 1955SOL    HW117501   0.604   0.772   8.949  1.7564  1.0547  0.8408
 1955SOL    HW217502   0.483   0.863   8.943  0.1146 -0.5134  0.2883
 1956SOL     OW17503   3.261   0.889   1.029  0.1161 -0.1506 -0.1524
 1956SOL    HW117504   3.266   0.802   1.068 -0.9178  0.2267  0.8042
 1956SOL    HW217505   3.211   0.937   1.095 -0.3569 -0.9628  0.0844
 1957SOL     OW17506   3.180   2.500   6.035  0.1014 -0.4443  0.5341
 1957SOL    HW117507   3.183   2.408   6.062 -0.7072 -0.3455  0.9686
 1957SOL    HW217508   3.171   2.484   5.941 -0.7887 -1.2642  0.7619
 1958SOL     OW17509   0.348   3.499  10.700  0.1799 -0.3853  0.0366
 1958SOL    HW117510   0.315   3.429  10.755 -2.6638 -0.9990 -2.4519
 1958SOL    HW217511   0.276   3.502  10.638 -0.4237  1.2802  0.8070
 1959SOL     OW17512   1.948   2.241  16.822  0.0200 -0.2947  0.4311
 1959SOL    HW117513   1.946   2.325  16.775 -1.6571  0.0943  1.1968
 1959SOL    HW217514   2.033   2.218  16.783  0.0146 -2.0085  1.4627
 1960SOL     OW17515   3.378   1.154   9.452  0.6603  0.6265 -0.1438
 1960SOL    HW117516   3.446   1.107   9.500 -1.0133 -0.0328  1.5582
 1960SOL    HW217517   3.392   1.236   9.498 -1.6726  0.7325  0.3804
 1961SOL     OW17518   4.543   1.778  15.276  0.0106  0.1166 -0.2861
 1961SOL    HW117519   4.496   1.764  15.358  0.4460 -0.0180 -0.0546
 1961SOL    HW217520   4.564   1.686  15.259  1.1860  0.1335  0.9934
 1962SOL     OW17521   2.598   2.293   2.660  0.2081 -0.2101  1.0503
 1962SOL    HW117522   2.578   2.199   2.661  0.3886 -0.2643 -1.0238
 1962SOL    HW217523   2.536   2.330   2.723 -0.6680  0.1581 -0.0237
 1963SOL     OW17524   1.934   0.638   2.900 -0.0792  0.1650  0.3170
 1963SOL    HW117525   1.964   0.565   2.846 -2.8182  0.6543 -1.9181
 1963SOL    HW217526   2.013   0.675   2.938  0.5900  0.1628 -1.0550
 1964SOL     OW17527   0.446   0.742   6.234  0.2276  0.4170 -0.6488
 1964SOL    HW117528   0.519   0.690   6.268 -0.2263 -0.7023 -1.3947
 1964SOL    HW217529   0.469   0.741   6.141 -2.6287 -0.9228 -1.3574
 1965SOL     OW17530   1.266   4.257  13.701  0.2348  0.0955 -0.0522
 1965SOL    HW117531   1.216   4.339  13.696 -2.5172 -1.5704  0.0620
 1965SOL    HW217532   1.301   4.257  13.791 -0.8355 -0.2435  0.3651
 1966SOL     OW17533   2.859   3.395  12.028 -0.3344  0.3321  0.2047
 1966SOL    HW117534   2.765   3.396  12.009 -0.7965 -2.8326  2.3662
 1966SOL    HW217535   2.886   3.448  11.953 -2.0023  0.0136 -0.6047
 1967SOL     OW17536   1.921   1.651   4.158  0.2017 -0.7488 -0.4438
 1967SOL    HW117537   1.948   1.570   4.201  1.5088 -0.6080 -1.0070
 1967SOL    HW217538   1.828   1.640   4.139 -0.0200 -1.4797  1.0153
 1968SOL     OW17539   3.519   2.029   3.913  0.3042 -0.3016  0.4068
 1968SOL    HW117540   3.433   2.072   3.914  0.5329  0.1548  0.1923
 1968SOL    HW217541   3.514   1.983   3.828 -0.6300  2.1042 -0.8409
 1969SOL     OW17542   4.496   1.563  13.411 -0.1687  0.4901 -0.0651
 1969SOL    HW117543   4.489   1.624  13.485 -0.6955  0.7932 -0.3609
 1969SOL    HW217544   4.520   1.624  13.341 -0.5691 -0.7113 -1.2508
 1970SOL     OW17545   0.416   3.511   2.043  0.5398 -0.5507  0.8055
 1970SOL    HW117546   0.345   3.563   2.004  1.5419  2.2105  2.6626
 1970SOL    HW217547   0.486   3.540   1.984 -0.9742  0.6737 -0.4053
 1971SOL     OW17548   0.986   3.878  11.137 -0.5691 -0.3339 -0.2443
 1971SOL    HW117549   1.080   3.862  11.138 -0.7941 -1.2161  4.2473
 1971SOL    HW217550   0.971   3.920  11.052 -0.1112 -0.9089 -0.6076
 1972SOL     OW17551   2.813   4.231   8.670  0.0544 -0.6034  0.4384
 1972SOL    HW117552   2.765   4.314   8.672  0.3101 -0.4403 -0.1275
 1972SOL    HW217553   2.898   4.275   8.676 -1.4069  2.0628  1.3224
 1973SOL     OW17554   0.688   1.013   7.360 -0.4864 -0.7386 -0.1505
 1973SOL    HW117555   0.729   1.033   7.275  0.5095 -1.6458  0.1187
 1973SOL    HW217556   0.698   0.918   7.361 -1.1874 -0.8078  0.3174
 1974SOL     OW17557   4.652   3.961   6.397 -0.0451  0.2927 -0.1589
 1974SOL    HW117558   4.578   3.902   6.384  0.1560 -0.1163  0.5745
 1974SOL    HW217559   4.642   4.007   6.480  0.8627  0.1267  0.0435
 1975SOL     OW17560   2.197   2.336   8.268  0.2099  0.3459  0.2332
 1975SOL    HW117561   2.284   2.351   8.304 -0.5803  0.2022  2.1653
 1975SOL    HW217562   2.163   2.425   8.270 -0.0748  0.2134  1.1176
 1976SOL     OW17563   2.600   2.976   7.086 -0.3569 -0.4168 -0.1488
 1976SOL    HW117564   2.653   3.051   7.057  0.8647 -1.3689 -0.3736
 1976SOL    HW217565   2.570   2.944   7.000  0.0531 -1.4206  0.0853
 1977SOL     OW17566   3.170   2.148  12.036  0.0364  0.1465  0.0602
 1977SOL    HW117567   3.144   2.062  12.003 -2.2971  1.2458 -0.9742
 1977SOL    HW217568   3.257   2.134  12.073 -0.1736  0.3659  0.6356
 1978SOL     OW17569   0.425   3.825  12.448 -0.0740 -0.1515  0.1200
 1978SOL    HW117570   0.491   3.839  12.379 -0.0112  0.4588  0.3013
 1978SOL    HW217571   0.413   3.915  12.478  1.0520 -0.8527  2.6568
 1979SOL     OW17572   4.093   0.497   6.388  0.2566 -0.6111  0.2530
 1979SOL    HW117573   4.154   0.555   6.342 -0.2120 -1.6462 -1.7133
 1979SOL    HW217574   4.015   0.537   6.349  0.5661  0.4659  0.7531
 1980SOL     OW17575   1.379   0.878   8.577 -0.0555 -0.8460  0.4236
 1980SOL    HW117576   1.346   0.965   8.602  3.2333  0.3582  0.5993
 1980SOL    HW217577   1.420   0.901   8.494  1.2429 -0.6719  1.1086
 1981SOL     OW17578   4.657   2.408   9.717 -0.3853  0.4429 -0.3456
 1981SOL    HW117579   0.011   2.441   9.728 -0.3872  0.5623 -0.6665
 1981SOL    HW217580   4.647   2.357   9.797  1.4959  1.9917  0.8734
 1982SOL     OW17581   1.249   2.146   2.695 -0.4023  0.0485 -0.5152
 1982SOL    HW117582   1.340   2.139   2.668 -1.2553 -2.3741 -2.7720
 1982SOL    HW217583   1.251   2.065   2.746  1.2635 -1.1562 -2.5003
 1983SOL     OW17584   3.613   3.218   9.116  0.3680  0.0706 -0.3721
 1983SOL    HW117585   3.678   3.280   9.150  0.6703  0.6332 -1.9748
 1983SOL    HW217586   3.534   3.228   9.169 -0.8924 -0.4686 -2.1510
 1984SOL     OW17587   0.313   1.567   2.086 -0.6534 -0.1709 -0.1033
 1984SOL    HW117588   0.338   1.586   2.177  2.1939 -2.4369 -0.4305
 1984SOL    HW217589   0.334   1.474   2.084  1.4914  0.2795  1.5041
 1985SOL     OW17590   0.223   1.040   2.036 -0.0077 -0.4803 -0.6819
 1985SOL    HW117591   0.195   1.053   1.946  1.2741  0.9983 -0.8687
 1985SOL    HW217592   0.246   0.947   2.038 -0.2551 -0.5755 -2.3709
 1986SOL     OW17593   2.332   1.771  16.379 -0.7029 -0.3173  0.2505
 1986SOL    HW117594   2.419   1.734  16.394 -1.1559 -0.2962  3.0220
 1986SOL    HW217595   2.296   1.705  16.321  0.8431 -0.1836 -0.8563
 1987SOL     OW17596   2.027   4.640  10.825 -0.3352 -0.0888  0.4154
 1987SOL    HW117597   2.025   4.735  10.829  0.4370 -0.0172 -1.0189
 1987SOL    HW217598   1.958   4.609  10.885 -1.1840  1.7451  0.3902
 1988SOL     OW17599   1.877   3.720   3.725 -0.0537 -0.4814 -0.4557
 1988SOL    HW117600   1.875   3.644   3.666  0.2660  0.6506 -1.9127
 1988SOL    HW217601   1.912   3.673   3.801 -0.3189  2.1663  1.2852
 1989SOL     OW17602   3.565   0.336   6.683 -0.2774 -0.8081  0.4298
 1989SOL    HW117603   3.533   0.425   6.665  0.4950 -0.1851  2.0602
 1989SOL    HW217604   3.506   0.279   6.635  0.8080 -1.5592  0.0090
 1990SOL     OW17605   4.043   2.473  11.159  0.8359 -0.4048  0.1142
 1990SOL    HW117606   3.987   2.433  11.225 -0.0944  0.2685 -0.2739
 1990SOL    HW217607   4.040   2.406  11.091  0.0296 -1.5813  1.3139
 1991SOL     OW17608   3.976   1.271  11.138 -0.0861  0.1937 -0.0927
 1991SOL    HW117609   3.969   1.311  11.052 -0.9532  0.5192  0.1297
 1991SOL    HW217610   3.921   1.194  11.129 -1.3063  0.8376  1.8061
 1992SOL     OW17611   4.177   3.635   8.149 -0.3026  0.6796 -0.1649
 1992SOL    HW117612   4.180   3.564   8.213  0.6865  2.6404  1.9402
 1992SOL    HW217613   4.174   3.706   8.213  2.4059  1.5585 -1.0239
 1993SOL     OW17614   3.921   0.023   8.757 -0.4312 -0.6153 -0.1446
 1993SOL    HW117615   3.893   0.017   8.849 -1.2982  1.6887 -0.2527
 1993SOL    HW217616   3.849   0.073   8.720 -0.9685 -0.2089  1.4667
 1994SOL     OW17617   4.246   1.934   2.085 -0.4735  0.3616 -0.0532
 1994SOL    HW117618   4.291   2.010   2.049  0.3574  0.0794  0.3824
 1994SOL    HW217619   4.216   1.887   2.007 -2.4219  0.7753  0.4464
 1995SOL     OW17620   2.811   2.629   9.281 -0.1116  0.0570  0.0605
 1995SOL    HW117621   2.767   2.714   9.274  0.8260  0.7112  2.0340
 1995SOL    HW217622   2.867   2.628   9.204 -1.8116  1.6097 -1.1868
 1996SOL     OW17623   2.723   3.963   1.463 -0.5370 -0.1867  0.1138
 1996SOL    HW117624   2.761   3.958   1.375  1.4218 -1.7459  1.0645
 1996SOL    HW217625   2.788   3.920   1.518  2.0929  1.0187 -2.0639
 1997SOL     OW17626   3.842   0.217   1.783  0.7995 -0.0320 -0.0552
 1997SOL    HW117627   3.879   0.195   1.869 -1.7821  1.9331  1.5493
 1997SOL    HW217628   3.794   0.136   1.766 -0.2998  0.5150  0.4346
 1998SOL     OW17629   2.756   4.519   6.245  0.0033 -0.4247 -0.8326
 1998SOL    HW117630   2.710   4.595   6.209 -0.1974  0.5936  1.6052
 1998SOL    HW217631   2.695   4.447   6.229  1.8840 -2.2624  0.2234
 1999SOL     OW17632   4.722   4.359   7.994  0.3082 -0.4629 -0.1302
 1999SOL    HW117633   4.664   4.417   8.043  0.7224 -0.7770  0.7317
 1999SOL    HW217634   4.704   4.381   7.902  1.7638 -0.3331 -0.3742
 2000SOL     OW17635   3.681   2.873  11.573 -0.0617  0.1358  0.0346
 2000SOL    HW117636   3.721   2.900  11.490 -0.6216 -1.0949 -0.6505
 2000SOL    HW217637   3.644   2.952  11.611 -2.0779 -0.2549 -1.0920
 2001SOL     OW17638   4.411   3.224   2.734 -0.2732 -0.5074  0.5296
 2001SOL    HW117639   4.467   3.292   2.771 -0.4424  0.4322 -0.9421
 2001SOL    HW217640   4.393   3.170   2.811 -0.1097 -0.7059  0.4300
 2002SOL     OW17641   0.850   3.795   7.478  0.0208 -0.2711  0.0633
 2002SOL    HW117642   0.895   3.869   7.518  2.1783 -2.1901  1.1181
 2002SOL    HW217643   0.848   3.818   7.385  3.4952 -3.0469 -0.6821
 2003SOL     OW17644   2.481   3.216   5.711  0.1555  0.1962 -0.2098
 2003SOL    HW117645   2.506   3.304   5.739  2.5530 -0.0824 -1.4522
 2003SOL    HW217646   2.446   3.177   5.791  0.2264  2.1369  0.7740
 2004SOL     OW17647   2.007   0.985   7.295 -0.6759  0.0056 -0.0902
 2004SOL    HW117648   1.941   0.964   7.229  0.2280  1.1443 -1.3578
 2004SOL    HW217649   2.071   0.914   7.291 -0.0213  0.5255  1.0946
 2005SOL     OW17650   4.284   1.641   7.696 -0.0991 -0.5839  0.0450
 2005SOL    HW117651   4.208   1.585   7.707 -2.1343  2.0200 -0.7599
 2005SOL    HW217652   4.347   1.580   7.734 -0.5424 -1.1057 -0.0629
 2006SOL     OW17653   3.987   1.540   4.532 -0.2788 -0.0684 -0.4564
 2006SOL    HW117654   3.948   1.541   4.619 -0.8076 -0.0285 -0.6888
 2006SOL    HW217655   4.076   1.514   4.555  0.0807  1.0596 -0.5815
 2007SOL     OW17656   3.084   1.949   2.702  0.1280 -0.2792 -0.0771
 2007SOL    HW117657   3.067   2.038   2.673 -0.0958 -0.1448  0.4815
 2007SOL    HW217658   3.027   1.942   2.778 -1.3875 -0.7502 -1.2487
 2008SOL     OW17659   3.820   4.160   5.918 -0.2447 -0.4344 -0.2633
 2008SOL    HW117660   3.725   4.163   5.931 -0.0552  0.8139  0.8029
 2008SOL    HW217661   3.841   4.164   5.825 -1.7963  0.0578 -0.5919
 2009SOL     OW17662   0.701   1.942   7.693  0.9198  0.0327  0.2169
 2009SOL    HW117663   0.652   1.903   7.620 -0.0536 -1.0136  1.4342
 2009SOL    HW217664   0.770   1.994   7.652  0.3135 -0.7759 -1.8686
 2010SOL     OW17665   0.896   0.218   1.832  0.0118 -0.2177  0.1759
 2010SOL    HW117666   0.813   0.176   1.853 -0.4511 -0.0095 -1.2222
 2010SOL    HW217667   0.871   0.310   1.841 -0.5830 -0.3799  0.1491
 2011SOL     OW17668   2.530   0.119  12.533  0.4483 -0.2258  0.0300
 2011SOL    HW117669   2.568   0.108  12.446  2.1473  2.4131  0.4196
 2011SOL    HW217670   2.439   0.140  12.513  0.2239 -2.4184 -1.2356
 2012SOL     OW17671   0.158   4.299   7.109  0.4998 -0.2331  0.5825
 2012SOL    HW117672   0.105   4.304   7.188  0.5291  2.3009  0.4369
 2012SOL    HW217673   0.175   4.391   7.087 -2.0108 -0.2142 -1.2439
 2013SOL     OW17674   4.066   1.881   7.300 -0.1362  0.4610 -0.4172
 2013SOL    HW117675   4.125   1.906   7.229  0.8648 -0.3785  0.1269
 2013SOL    HW217676   3.977   1.883   7.263 -1.6274 -1.2554  3.0974
 2014SOL     OW17677   1.408   3.406   5.629  0.4723  0.4061 -0.0655
 2014SOL    HW117678   1.439   3.329   5.676 -0.5557 -0.8830 -1.5202
 2014SOL    HW217679   1.378   3.364   5.549 -0.3909  1.5054 -0.3134
 2015SOL     OW17680   0.899   0.078  11.991  0.1131 -0.3762  0.4406
 2015SOL    HW117681   0.928   0.155  11.941  2.5452 -2.6747 -1.6459
 2015SOL    HW217682   0.946   0.005  11.952  0.9237  0.1851  0.3610
 2016SOL     OW17683   4.213   0.503   2.189  1.1158  0.5905 -0.4431
 2016SOL    HW117684   4.199   0.468   2.277  1.7004  0.2104 -0.5031
 2016SOL    HW217685   4.222   0.595   2.213 -0.2647  0.6617 -0.1921
 2017SOL     OW17686   3.436   4.041   0.098  0.1499  0.0685 -0.4620
 2017SOL    HW117687   3.486   4.066   0.020  0.2690  2.8032  0.5238
 2017SOL    HW217688   3.506   4.013   0.157 -0.5551  1.9809  1.2726
 2018SOL     OW17689   2.346   2.664  11.588  0.2585  0.0526  0.0011
 2018SOL    HW117690   2.439   2.641  11.581  0.7427  1.8275  0.5184
 2018SOL    HW217691   2.314   2.591  11.640  0.4382 -1.2270 -1.6917
 2019SOL     OW17692   0.711   2.813   8.473 -0.3542 -0.1970 -0.8445
 2019SOL    HW117693   0.780   2.842   8.413 -0.5740  1.7894 -0.1451
 2019SOL    HW217694   0.692   2.894   8.521 -0.4608  0.4899 -2.0529
 2020SOL     OW17695   0.301   0.033  14.321  0.3539  0.3208 -0.1220
 2020SOL    HW117696   0.370   0.088  14.284  0.5091 -0.8789 -1.6367
 2020SOL    HW217697   0.342   4.683  14.331  0.9662  0.2618 -3.0623
 2021SOL     OW17698   4.064   1.601   1.575  0.4441 -0.0315 -0.0105
 2021SOL    HW117699   4.125   1.532   1.602 -1.8802 -2.5698 -1.2468
 2021SOL    HW217700   3.991   1.576   1.631 -1.6457  0.0872 -2.7095
 2022SOL     OW17701   3.100   3.137   2.677  0.3457  0.4423 -0.0442
 2022SOL    HW117702   3.075   3.055   2.719 -0.7696  0.1660 -1.2411
 2022SOL    HW217703   3.050   3.137   2.595  1.1717  0.8310 -0.5517
 2023SOL     OW17704   3.570   3.571   5.790  0.3197  0.5053 -0.2696
 2023SOL    HW117705   3.521   3.521   5.725 -0.8136 -0.3218  1.2191
 2023SOL    HW217706   3.644   3.511   5.800 -1.3514 -1.8725 -2.0667
 2024SOL     OW17707   3.967   2.671   2.549  0.3466 -0.0245 -0.4681
 2024SOL    HW117708   4.022   2.691   2.473  2.7965 -1.5536  0.9112
 2024SOL    HW217709   4.032   2.661   2.618 -0.7278 -2.0564  0.2410
 2025SOL     OW17710   3.837   0.701  10.007  0.8813  0.7351 -0.6286
 2025SOL    HW117711   3.830   0.795   9.996  0.6551  1.0434  2.0096
 2025SOL    HW217712   3.811   0.677   9.918  0.3584 -1.7155  0.1784
 2026SOL     OW17713   3.539   1.018   3.770 -0.1863 -0.0483 -0.2812
 2026SOL    HW117714   3.500   1.045   3.687  0.0856 -2.1982 -1.1162
 2026SOL    HW217715   3.533   1.099   3.821  0.7938 -0.4488  0.4661
 2027SOL     OW17716   4.207   1.046   5.468 -0.1791  0.0125  0.0324
 2027SOL    HW117717   4.147   1.067   5.396 -0.4367  1.0581  0.5514
 2027SOL    HW217718   4.182   1.113   5.531  0.2000 -0.8194  1.0611
 2028SOL     OW17719   1.055   3.950   6.148  0.4881 -0.1658 -0.1582
 2028SOL    HW117720   1.133   3.944   6.203  2.0194  0.7477 -2.2385
 2028SOL    HW217721   0.994   3.929   6.219  2.2468  0.8369  1.6321
 2029SOL     OW17722   2.453   3.845  12.353 -0.2292 -0.7343 -0.1990
 2029SOL    HW117723   2.393   3.791  12.303  0.5081 -0.7267 -1.0956
 2029SOL    HW217724   2.397   3.857  12.430  0.2181  0.9159 -0.1280
 2030SOL     OW17725   2.323   0.500   2.553  0.1753 -0.1549 -0.2478
 2030SOL    HW117726   2.338   0.425   2.610  1.0177  0.8682  0.8881
 2030SOL    HW217727   2.229   0.488   2.542  0.2406 -0.0695 -0.9606
 2031SOL     OW17728   3.718   1.370  16.314  0.6002  0.6189 -0.5946
 2031SOL    HW117729   3.775   1.440  16.281  2.2262 -1.3079 -1.8329
 2031SOL    HW217730   3.730   1.380  16.409 -0.0660 -0.4973 -0.3930
 2032SOL     OW17731   2.365   0.431  13.614 -0.1773 -0.4688 -0.5333
 2032SOL    HW117732   2.329   0.517  13.634 -1.3402 -1.2222  0.5341
 2032SOL    HW217733   2.336   0.433  13.523  0.6846 -2.3271 -0.8545
 2033SOL     OW17734   4.591   3.242  17.169 -0.1355  0.1807 -0.6930
 2033SOL    HW117735   4.621   3.316  17.221  0.3722 -0.6085  0.1463
 2033SOL    HW217736   4.661   3.236  17.104  1.2342 -0.0954  0.8144
 2034SOL     OW17737   3.082   4.438  10.205  0.2118 -0.2356 -0.6870
 2034SOL    HW117738   3.129   4.520  10.222 -0.2810 -0.7111  3.0846
 2034SOL    HW217739   2.999   4.452  10.250  0.7578 -1.6863  0.8016
 2035SOL     OW17740   0.824   0.283  10.290 -0.2664 -0.8073  0.6431
 2035SOL    HW117741   0.800   0.355  10.231  0.7778 -1.3028 -0.3748
 2035SOL    HW217742   0.816   0.206  10.234 -0.4433 -0.2721 -0.0661
 2036SOL     OW17743   3.740   1.533  16.552  0.5301  0.4086 -0.5154
 2036SOL    HW117744   3.670   1.484  16.594  1.0062  0.4642  0.3413
 2036SOL    HW217745   3.811   1.529  16.615  2.3098  1.2442 -2.4465
 2037SOL     OW17746   3.930   4.357   7.800  1.2439  0.2469  0.2008
 2037SOL    HW117747   3.843   4.334   7.831  0.4902  1.4327 -1.0409
 2037SOL    HW217748   3.899   4.401   7.721 -0.0918 -0.4300  0.3549
 2038SOL     OW17749   3.112   1.733   3.665  0.4705  0.3237 -0.5677
 2038SOL    HW117750   3.151   1.671   3.603  0.3982 -1.1680  0.8563
 2038SOL    HW217751   3.193   1.751   3.713  1.4070 -0.5238 -1.8263
 2039SOL     OW17752   4.595   1.749  10.431 -0.1188 -0.3599 -0.3499
 2039SOL    HW117753   4.561   1.838  10.441  2.8880  0.8760 -0.8253
 2039SOL    HW217754   4.621   1.730  10.521 -2.8653 -2.6795 -0.0772
 2040SOL     OW17755   4.344   2.781   2.604  0.1962  0.0357 -0.5170
 2040SOL    HW117756   4.352   2.701   2.655 -0.2976 -0.3812 -1.1003
 2040SOL    HW217757   4.294   2.836   2.665  1.4559 -0.7543  1.2181
 2041SOL     OW17758   3.222   1.603   6.988  0.4493  0.4625  0.6378
 2041SOL    HW117759   3.129   1.588   7.006  0.2211  1.4345  0.2417
 2041SOL    HW217760   3.255   1.517   6.960 -1.6688  0.0330 -0.5236
 2042SOL     OW17761   3.152   0.819   2.682 -0.0192 -0.7429  0.8286
 2042SOL    HW117762   3.081   0.835   2.743 -0.1028 -0.6682  0.7124
 2042SOL    HW217763   3.155   0.724   2.670  0.3487 -0.5324 -0.7939
 2043SOL     OW17764   1.456   1.708   7.031 -0.3073  0.1203  0.0482
 2043SOL    HW117765   1.519   1.659   6.977  0.1646  1.7349 -0.8968
 2043SOL    HW217766   1.409   1.633   7.066 -2.1020  1.7861  1.1474
 2044SOL     OW17767   1.723   1.201  11.945 -0.4229 -0.0282 -0.1896
 2044SOL    HW117768   1.778   1.249  11.883  1.3137 -2.3621 -0.4869
 2044SOL    HW217769   1.677   1.144  11.883  0.1323  0.4451 -1.0341
 2045SOL     OW17770   1.737   1.418  14.340  0.5270  0.6323  0.1087
 2045SOL    HW117771   1.696   1.478  14.402 -1.3705 -0.7128  0.1473
 2045SOL    HW217772   1.694   1.338  14.369 -1.3666  1.9917  1.0808
 2046SOL     OW17773   0.579   1.940   4.771 -0.0083 -0.3204 -0.2728
 2046SOL    HW117774   0.553   1.848   4.769  0.8528 -0.5826  0.4195
 2046SOL    HW217775   0.674   1.932   4.765  0.0041 -1.2819  1.1218
 2047SOL     OW17776   1.162   1.308   2.828 -0.2292  0.4359 -0.1526
 2047SOL    HW117777   1.159   1.244   2.899 -2.8744 -0.4307 -1.0663
 2047SOL    HW217778   1.242   1.277   2.784  0.2610 -0.0004  1.0498
 2048SOL     OW17779   3.077   4.232   7.676 -0.6734  0.0651 -0.2080
 2048SOL    HW117780   3.172   4.233   7.666 -0.7712 -0.3616 -1.1341
 2048SOL    HW217781   3.048   4.256   7.588 -0.9779 -0.1676 -0.1685
 2049SOL     OW17782   3.542   2.326   3.343 -0.0754 -0.8145  0.0535
 2049SOL    HW117783   3.549   2.248   3.288  2.3190 -0.5906  0.0400
 2049SOL    HW217784   3.561   2.288   3.429  0.8374 -0.3645  0.0560
 2050SOL     OW17785   1.726   1.300   8.577  0.3715  0.3946  0.1150
 2050SOL    HW117786   1.681   1.222   8.611 -0.9202 -0.1567 -2.9264
 2050SOL    HW217787   1.759   1.268   8.493 -1.3731  0.9125 -0.7673
 2051SOL     OW17788   2.542   2.224   8.080 -0.2812 -0.1036 -0.2432
 2051SOL    HW117789   2.621   2.201   8.032 -0.5347  0.1073 -0.7556
 2051SOL    HW217790   2.470   2.226   8.017 -2.1450  1.0404  1.8877
 2052SOL     OW17791   2.616   0.332   3.449  0.2527  0.4953  0.5580
 2052SOL    HW117792   2.553   0.333   3.520  0.2472  3.2811  0.5238
 2052SOL    HW217793   2.695   0.320   3.501  2.1941 -0.0586 -2.4990
 2053SOL     OW17794   1.607   1.170  17.169  0.3459 -0.4452  0.1778
 2053SOL    HW117795   1.661   1.104  17.126  0.2030 -1.2704  1.2649
 2053SOL    HW217796   1.557   1.197  17.093  1.5774  0.2423 -0.3857
 2054SOL     OW17797   1.622   3.083   4.075  0.1395  0.3015 -0.5078
 2054SOL    HW117798   1.555   3.149   4.059  0.3362  0.7990  0.6937
 2054SOL    HW217799   1.639   3.104   4.167 -1.0003 -3.2766  0.5235
 2055SOL     OW17800   4.016   3.037  11.145 -0.5841 -0.1957 -0.2328
 2055SOL    HW117801   4.052   2.966  11.091  3.1567  1.2954  0.3072
 2055SOL    HW217802   4.089   3.098  11.141 -2.0973  1.6378 -0.1175
 2056SOL     OW17803   4.635   3.709   8.382 -0.2678  0.2765 -0.4249
 2056SOL    HW117804   4.641   3.621   8.345 -1.6404 -0.3946  0.9591
 2056SOL    HW217805   4.689   3.696   8.460 -1.5360  0.1691  0.4283
 2057SOL     OW17806   2.620   1.686   0.175 -0.7365  0.2509  0.2659
 2057SOL    HW117807   2.559   1.757   0.156 -0.2324 -0.0888 -2.7307
 2057SOL    HW217808   2.699   1.722   0.135 -0.3851  0.3422  1.0508
 2058SOL     OW17809   2.262   1.069   5.780  0.1876 -0.6125 -0.7610
 2058SOL    HW117810   2.238   1.002   5.844  1.2798 -1.5163 -1.3049
 2058SOL    HW217811   2.346   1.036   5.750  1.4635  0.4512  1.5618
 2059SOL     OW17812   1.438   2.346  15.013  0.0921 -0.1603 -0.2501
 2059SOL    HW117813   1.356   2.337  14.964 -0.3888  0.9608  0.3405
 2059SOL    HW217814   1.408   2.379  15.098  3.0323 -1.0935  1.1487
 2060SOL     OW17815   4.708   2.839   1.777  0.0550 -0.6063 -0.0652
 2060SOL    HW117816   0.032   2.888   1.719  0.9530 -0.0121  1.3726
 2060SOL    HW217817   0.035   2.801   1.839  1.0102  0.5317 -0.3224
 2061SOL     OW17818   2.538   2.388   5.793  0.2011 -0.2353 -0.1178
 2061SOL    HW117819   2.591   2.381   5.713 -1.2247 -0.3895 -1.0385
 2061SOL    HW217820   2.500   2.473   5.772 -1.5788 -0.3145  2.7317
 2062SOL     OW17821   2.839   1.643  15.062 -0.2030 -0.2728 -0.1020
 2062SOL    HW117822   2.826   1.555  15.028  1.1780 -0.6082  0.2670
 2062SOL    HW217823   2.853   1.688  14.978 -1.1103 -1.7021 -1.0281
 2063SOL     OW17824   0.434   4.098   4.827 -0.2555  0.5196 -0.0686
 2063SOL    HW117825   0.502   4.100   4.894  2.0772  0.7050 -2.4442
 2063SOL    HW217826   0.401   4.188   4.832 -0.2129  0.5079  0.4767
 2064SOL     OW17827   0.804   0.001   2.879  0.3612 -0.4396 -0.4055
 2064SOL    HW117828   0.760   0.079   2.842 -1.6872  0.8607  4.8166
 2064SOL    HW217829   0.852   0.038   2.953  0.1464 -0.2300 -0.3679
 2065SOL     OW17830   3.286   0.436   9.965 -0.4981 -0.2108 -0.0990
 2065SOL    HW117831   3.267   0.464   9.876  1.3739 -2.0513 -1.0716
 2065SOL    HW217832   3.214   0.467  10.019 -0.3058 -0.9131  0.5660
 2066SOL     OW17833   2.726   0.901   7.987 -0.3515 -0.2526  0.1825
 2066SOL    HW117834   2.792   0.967   7.966 -0.6962 -0.6333 -2.0651
 2066SOL    HW217835   2.774   0.820   8.007  1.4180  0.3745 -1.5470
 2067SOL     OW17836   4.639   3.830   0.289 -0.0473 -0.0491  0.1887
 2067SOL    HW117837   4.621   3.767   0.219 -0.8833  0.0339  0.3202
 2067SOL    HW217838   4.659   3.908   0.237 -0.5691 -1.0733 -1.5503
 2068SOL     OW17839   1.807   0.059   4.586  0.4876 -0.2179  0.3955
 2068SOL    HW117840   1.763   0.114   4.652  1.4312  0.7111  0.2462
 2068SOL    HW217841   1.728   0.026   4.543  0.3475  3.6236 -2.2852
 2069SOL     OW17842   3.195   1.113  12.110  0.5905 -0.1566 -0.1185
 2069SOL    HW117843   3.195   1.023  12.143  0.9838 -0.1944 -0.2208
 2069SOL    HW217844   3.272   1.116  12.054 -0.8423  2.2904 -1.9740
 2070SOL     OW17845   2.682   4.490   0.111 -0.5367  0.4779 -0.2857
 2070SOL    HW117846   2.601   4.442   0.127 -0.5876 -0.1047 -2.3031
 2070SOL    HW217847   2.654   4.519   0.024 -2.0005  2.8934  0.9874
 2071SOL     OW17848   1.260   1.315   7.252 -0.5304  1.1179 -0.3289
 2071SOL    HW117849   1.172   1.297   7.285 -0.0653  1.5894  1.2098
 2071SOL    HW217850   1.301   1.352   7.331 -0.5872 -2.0324  1.1626
 2072SOL     OW17851   1.760   0.206   3.495  0.5147 -0.0475  0.3948
 2072SOL    HW117852   1.771   0.117   3.462 -0.9395 -0.9949  2.5167
 2072SOL    HW217853   1.678   0.196   3.544 -1.0861  0.9712 -2.0512
 2073SOL     OW17854   2.564   0.618   0.883  0.2190 -0.0259  0.7390
 2073SOL    HW117855   2.562   0.522   0.888  0.0871 -0.0302  0.5988
 2073SOL    HW217856   2.558   0.633   0.789  0.0884  0.6737  0.8601
 2074SOL     OW17857   3.132   1.085   1.171  0.1346  0.0716 -0.1489
 2074SOL    HW117858   3.051   1.093   1.222  1.3281 -1.3935  2.0019
 2074SOL    HW217859   3.194   1.132   1.226 -0.3550  0.6946 -0.1378
 2075SOL     OW17860   1.058   2.870   7.106 -0.3956 -0.6526  0.7344
 2075SOL    HW117861   1.123   2.809   7.070  1.8653  0.1639  3.4379
 2075SOL    HW217862   1.001   2.819   7.164  0.3295 -0.8208  1.3003
 2076SOL     OW17863   2.426   2.754   9.519  0.3875 -0.1853 -0.3223
 2076SOL    HW117864   2.434   2.664   9.551 -1.3307 -0.1775  0.1839
 2076SOL    HW217865   2.465   2.806   9.590  0.3335 -0.1583 -0.3121
 2077SOL     OW17866   1.005   4.632   7.460  0.0325 -0.2867  0.4433
 2077SOL    HW117867   1.028   4.634   7.554 -0.4636  2.0365  0.5220
 2077SOL    HW217868   1.082   4.584   7.429  0.1735  0.4122 -0.2867
 2078SOL     OW17869   3.040   1.744   9.442  0.3112  0.0558  0.5811
 2078SOL    HW117870   2.962   1.779   9.399  0.3730 -0.5049  0.0247
 2078SOL    HW217871   3.077   1.826   9.473  0.4217  0.9077 -1.8216
 2079SOL     OW17872   3.257   1.280   6.077  0.4782 -0.2020 -0.6957
 2079SOL    HW117873   3.247   1.199   6.127 -1.8876 -0.8615 -2.2813
 2079SOL    HW217874   3.249   1.345   6.146  1.7719 -0.8207  0.0326
 2080SOL     OW17875   4.624   3.660   3.547 -0.2726  0.3870 -0.4129
 2080SOL    HW117876   4.626   3.650   3.452  0.0445  2.4173 -0.6356
 2080SOL    HW217877   4.679   3.584   3.565  1.0607  1.5509  0.3752
 2081SOL     OW17878   1.025   2.529   1.883 -0.0549 -0.8650  0.3435
 2081SOL    HW117879   1.101   2.512   1.828 -0.3803  2.7519 -1.1611
 2081SOL    HW217880   0.980   2.444   1.884 -0.1963 -0.8183 -2.9582
 2082SOL     OW17881   4.317   3.807   0.141  0.0955  0.3507  0.2364
 2082SOL    HW117882   4.340   3.899   0.124  0.9945  0.2425  0.8804
 2082SOL    HW217883   4.401   3.769   0.167  0.6554  0.1055 -1.9321
 2083SOL     OW17884   1.514   2.804   1.321 -0.0725  0.2374 -0.0017
 2083SOL    HW117885   1.531   2.859   1.397  0.3204  2.2731 -1.5883
 2083SOL    HW217886   1.595   2.813   1.270 -0.7677 -0.8369 -1.2893
 2084SOL     OW17887   3.571   4.346  11.463 -0.1048 -0.4102  0.4491
 2084SOL    HW117888   3.543   4.280  11.399 -3.6281  1.3985  0.0951
 2084SOL    HW217889   3.534   4.428  11.429 -1.7626  0.0484  3.3639
 2085SOL     OW17890   2.593   1.591   7.063 -0.1784  0.1032 -0.0985
 2085SOL    HW117891   2.604   1.607   7.157 -0.4297  0.5280 -0.1384
 2085SOL    HW217892   2.525   1.653   7.036 -1.2827 -0.5342  1.2701
 2086SOL     OW17893   0.937   3.973   1.617 -0.4885  0.5172  0.4254
 2086SOL    HW117894   0.865   4.036   1.623  0.6749  1.8665  0.2691
 2086SOL    HW217895   0.886   3.895   1.640  1.0630  0.0532  2.2291
 2087SOL     OW17896   4.675   1.175   7.960  0.0402 -0.1441 -0.3726
 2087SOL    HW117897   4.651   1.084   7.944 -2.9493  0.3087  1.4577
 2087SOL    HW217898   4.609   1.198   8.025  0.8336 -1.0038  0.7225
 2088SOL     OW17899   1.901   2.620  13.607 -0.2391  0.2145  0.1247
 2088SOL    HW117900   1.965   2.652  13.542 -1.7382 -2.1564 -2.4883
 2088SOL    HW217901   1.913   2.527  13.588 -0.0079  0.1198  0.7413
 2089SOL     OW17902   2.230   2.872   2.687 -0.2697 -0.2331  0.1316
 2089SOL    HW117903   2.294   2.830   2.630 -1.8555 -2.2134 -0.1813
 2089SOL    HW217904   2.258   2.964   2.686 -0.7012 -0.0757  1.4987
 2090SOL     OW17905   3.384   0.860   2.830  0.1848 -0.2334  0.0770
 2090SOL    HW117906   3.362   0.767   2.841  2.6728 -0.8844 -0.2100
 2090SOL    HW217907   3.308   0.881   2.776  0.9053  1.7188 -0.1658
 2091SOL     OW17908   1.720   0.578   4.946  0.6315  0.2283 -0.4351
 2091SOL    HW117909   1.793   0.569   5.007  0.0760  0.4171  0.2549
 2091SOL    HW217910   1.741   0.525   4.869  2.2717  2.6901 -1.6792
 2092SOL     OW17911   1.921   1.779   3.474  0.1462  0.2625 -0.2639
 2092SOL    HW117912   1.936   1.692   3.437 -0.7755  0.3977 -0.9392
 2092SOL    HW217913   1.932   1.826   3.392 -2.8388  0.9147 -0.3073
 2093SOL     OW17914   4.301   1.963   7.016  0.3820 -0.1605 -0.6124
 2093SOL    HW117915   4.348   1.956   6.933  1.0464 -1.4775 -0.1229
 2093SOL    HW217916   4.329   1.876   7.045 -0.7572 -0.8294 -1.5074
 2094SOL     OW17917   3.196   4.188   6.259 -0.0160 -0.0493  0.0270
 2094SOL    HW117918   3.183   4.280   6.280  2.5823 -0.1756  2.1928
 2094SOL    HW217919   3.286   4.171   6.287 -0.0384  0.3450  0.3340
 2095SOL     OW17920   2.725   1.617  10.077  0.1675 -0.2884 -0.3972
 2095SOL    HW117921   2.643   1.582  10.110 -0.1148  0.1473 -0.6322
 2095SOL    HW217922   2.695   1.664  10.000 -1.2453 -0.4044  0.0771
 2096SOL     OW17923   1.272   4.513   8.702 -0.0945  0.2670 -0.3720
 2096SOL    HW117924   1.252   4.555   8.619 -0.2352 -2.0508 -1.5085
 2096SOL    HW217925   1.365   4.494   8.697 -0.3210  0.1774 -4.0726
 2097SOL     OW17926   1.102   0.314   6.107 -0.2975 -0.1392  0.3390
 2097SOL    HW117927   1.061   0.386   6.059 -0.5637 -0.1783  0.5103
 2097SOL    HW217928   1.117   0.351   6.194  1.9952  0.6133 -0.3843
 2098SOL     OW17929   2.979   3.387   7.488  0.0066 -0.2828 -0.4486
 2098SOL    HW117930   2.888   3.395   7.514  0.0406 -0.7597 -0.1893
 2098SOL    HW217931   3.020   3.447   7.551  1.0190 -3.1112  1.5609
 2099SOL     OW17932   0.859   2.510  15.978 -0.1531  0.4338 -0.0448
 2099SOL    HW117933   0.865   2.508  15.882 -2.5197 -1.1150 -0.1653
 2099SOL    HW217934   0.924   2.445  16.002 -0.1400  0.7909  0.8768
 2100SOL     OW17935   1.741   0.018   1.794 -0.2604  0.3782  0.3872
 2100SOL    HW117936   1.680   0.046   1.862 -0.3735  0.8377  0.0982
 2100SOL    HW217937   1.825   0.010   1.839 -0.6790 -0.6146  0.9953
 2101SOL     OW17938   0.815   4.296   4.285 -0.4620 -0.0699  0.6381
 2101SOL    HW117939   0.805   4.375   4.337  0.0776  0.4614 -0.0749
 2101SOL    HW217940   0.870   4.327   4.213 -0.7226 -1.5659 -0.2223
 2102SOL     OW17941   2.400   3.669   6.015  0.0998  0.5919  0.4588
 2102SOL    HW117942   2.307   3.686   6.026 -0.5032 -0.6673 -2.7347
 2102SOL    HW217943   2.435   3.696   6.100 -1.7940  0.1875  1.3523
 2103SOL     OW17944   0.591   3.863   2.635  0.0271 -0.1387  0.0785
 2103SOL    HW117945   0.655   3.894   2.570 -1.0350  1.0341 -0.4115
 2103SOL    HW217946   0.585   3.767   2.628 -0.1550 -0.2737  2.0802
 2104SOL     OW17947   2.117   4.298  13.403 -0.5147 -0.1690  0.4171
 2104SOL    HW117948   2.198   4.281  13.451  0.2710 -1.2496 -1.2900
 2104SOL    HW217949   2.069   4.311  13.484  1.5825  0.3507  1.5945
 2105SOL     OW17950   3.688   2.254   3.859 -1.0590 -0.3185 -0.1057
 2105SOL    HW117951   3.635   2.176   3.875 -1.0063 -0.5926 -1.2700
 2105SOL    HW217952   3.758   2.215   3.806 -1.3112 -0.3937 -0.3825
 2106SOL     OW17953   4.367   0.169   8.984  0.1312  0.0089  0.0790
 2106SOL    HW117954   4.387   0.230   9.056  0.4289  1.1194 -0.9312
 2106SOL    HW217955   4.393   0.082   9.013  1.0590  0.6166  1.0863
 2107SOL     OW17956   4.290   0.413  16.795 -0.7783  0.2284  0.1519
 2107SOL    HW117957   4.282   0.508  16.796  0.7933  0.3398  2.8107
 2107SOL    HW217958   4.299   0.391  16.702 -0.8331 -2.0125  0.6734
 2108SOL     OW17959   0.795   2.942   0.361 -0.1361  0.2024  0.2680
 2108SOL    HW117960   0.861   2.967   0.425  0.3345  0.2044 -0.2188
 2108SOL    HW217961   0.795   2.848   0.378  1.5440  0.2397  0.4735
 2109SOL     OW17962   0.905   2.943   3.086 -0.2718 -0.4444  0.8051
 2109SOL    HW117963   0.833   2.905   3.137 -1.1133  1.1891  0.8645
 2109SOL    HW217964   0.961   2.866   3.079 -0.1765 -0.3021  0.0282
 2110SOL     OW17965   0.505   4.331   1.984 -0.0752 -0.0394  0.3008
 2110SOL    HW117966   0.476   4.253   1.937  0.5858 -0.3929  0.4787
 2110SOL    HW217967   0.533   4.294   2.068  0.9949  1.7134  0.7180
 2111SOL     OW17968   0.757   3.342   6.167 -0.0044  0.0653 -0.3539
 2111SOL    HW117969   0.797   3.316   6.250 -0.9151  1.0245  0.3840
 2111SOL    HW217970   0.830   3.309   6.113  1.0995  1.3129  0.3753
 2112SOL     OW17971   3.264   3.460   8.528 -0.0526 -0.0335  0.7881
 2112SOL    HW117972   3.173   3.442   8.552 -0.6025  2.7161  0.7789
 2112SOL    HW217973   3.318   3.424   8.599  1.2053 -0.0956 -0.2092
 2113SOL     OW17974   2.951   2.400   2.437 -0.3109  0.2349  0.0140
 2113SOL    HW117975   2.963   2.324   2.381  0.4228 -0.8559  1.6741
 2113SOL    HW217976   2.871   2.438   2.399 -0.6951 -0.4402  0.1625
 2114SOL     OW17977   1.424   1.574   2.824 -0.4324 -0.4497  0.1564
 2114SOL    HW117978   1.389   1.609   2.742 -0.6313  1.0091  0.8647
 2114SOL    HW217979   1.352   1.599   2.881 -1.5419  0.5613 -1.6916
 2115SOL     OW17980   3.012   3.800   7.530 -0.0976  0.0943  0.1055
 2115SOL    HW117981   2.930   3.758   7.505 -1.1242  1.5044  1.1042
 2115SOL    HW217982   3.055   3.812   7.445 -1.5601 -0.5117 -0.7087
 2116SOL     OW17983   2.473   2.070  10.209  0.3550 -0.1987 -0.3656
 2116SOL    HW117984   2.534   2.097  10.140 -0.7289 -2.2220 -2.1089
 2116SOL    HW217985   2.391   2.047  10.165  0.4817  0.0312 -0.7198
 2117SOL     OW17986   4.575   1.931   7.764 -0.1148  0.3829 -0.3153
 2117SOL    HW117987   4.548   2.015   7.800 -0.0171  0.9950 -1.7133
 2117SOL    HW217988   4.562   1.927   7.670 -2.0287  2.0031 -0.1175
 2118SOL     OW17989   0.188   1.150  16.400  0.1183 -0.1767 -0.2976
 2118SOL    HW117990   0.254   1.220  16.406  1.2785 -1.4040  1.1739
 2118SOL    HW217991   0.196   1.133  16.307  1.3802  0.9057 -0.3974
 2119SOL     OW17992   3.955   1.941   2.163 -0.0373  0.6590 -0.3966
 2119SOL    HW117993   4.041   1.939   2.122  0.1398 -2.0804  0.0950
 2119SOL    HW217994   3.901   1.958   2.085 -1.6325  0.2250  0.6098
 2120SOL     OW17995   2.735   0.297   1.851  0.1326 -0.2145  0.2470
 2120SOL    HW117996   2.805   0.347   1.892  1.1934 -0.1362 -1.6453
 2120SOL    HW217997   2.779   0.261   1.774  0.4086 -0.5899  0.5834
 2121SOL     OW17998   1.719   1.271   3.464  0.1955  0.4439  0.6150
 2121SOL    HW117999   1.715   1.180   3.495  1.7521 -0.6441 -2.3756
 2121SOL    HW218000   1.682   1.266   3.376  1.5730  2.4697 -0.0682
 2122SOL     OW18001   0.555   1.002   1.148 -0.0082  0.2363 -0.1916
 2122SOL    HW118002   0.619   0.930   1.146  0.6611  0.8587 -0.8386
 2122SOL    HW218003   0.592   1.060   1.214 -2.0273  1.2436  0.0622
 2123SOL     OW18004   1.218   4.666  16.196 -0.3224  0.6721 -0.0534
 2123SOL    HW118005   1.143   4.627  16.151  0.2850 -1.4316  0.7612
 2123SOL    HW218006   1.215   0.021  16.165  2.4205  0.5163 -0.7364
 2124SOL     OW18007   2.138   3.379   6.780 -0.1583 -0.6660 -0.8402
 2124SOL    HW118008   2.140   3.323   6.857 -0.8555 -2.5767 -2.2218
 2124SOL    HW218009   2.180   3.459   6.812  0.6774 -0.6009 -2.0823
 2125SOL     OW18010   2.775   2.703   6.333  0.6661  0.0437  0.1375
 2125SOL    HW118011   2.836   2.646   6.287  0.8199  0.0297  0.3597
 2125SOL    HW218012   2.733   2.735   6.254  0.6804 -1.5463 -0.5057
 2126SOL     OW18013   4.496   0.763   4.928 -0.3124  0.9678 -0.0787
 2126SOL    HW118014   4.552   0.832   4.964  3.3479 -2.5339  0.9526
 2126SOL    HW218015   4.532   0.683   4.966 -1.5821  0.5464  0.2248
 2127SOL     OW18016   0.795   1.302   8.977 -0.0575  0.3378  0.1329
 2127SOL    HW118017   0.742   1.230   9.012  0.2163 -0.2826 -0.7161
 2127SOL    HW218018   0.851   1.329   9.049  0.6499 -0.0773 -0.2575
 2128SOL     OW18019   1.307   0.942  12.012  0.7362 -0.4173 -0.1614
 2128SOL    HW118020   1.240   0.876  11.994 -0.3202  0.4557  0.5472
 2128SOL    HW218021   1.317   0.946  12.107  1.4529 -0.3831 -0.2346
 2129SOL     OW18022   4.684   0.348   2.521  0.4426 -0.1039 -0.2990
 2129SOL    HW118023   4.658   0.275   2.465  1.3045 -2.8934  2.9157
 2129SOL    HW218024   4.595   0.359   2.554  0.5673 -0.4074  0.1486
 2130SOL     OW18025   4.033   3.165   2.973  0.8233 -0.0131 -0.4760
 2130SOL    HW118026   4.047   3.240   3.032 -2.2256  0.8582 -0.8594
 2130SOL    HW218027   4.000   3.213   2.898 -0.5382  0.0884  0.1818
 2131SOL     OW18028   4.323   3.371   3.553  0.0525  0.2510  0.3533
 2131SOL    HW118029   4.396   3.344   3.609 -2.4164 -0.9053  3.0311
 2131SOL    HW218030   4.281   3.446   3.595 -0.7272 -0.4819  0.8781
 2132SOL     OW18031   3.334   3.553   4.045  0.3978  0.3831 -0.1572
 2132SOL    HW118032   3.360   3.467   4.012  2.5918  2.2085 -3.1861
 2132SOL    HW218033   3.261   3.577   3.987  0.4470 -0.5589 -0.6168
 2133SOL     OW18034   4.447   3.266   5.715 -0.0337 -0.3054 -0.7448
 2133SOL    HW118035   4.429   3.319   5.793  2.4179 -0.9914  0.3075
 2133SOL    HW218036   4.360   3.239   5.685 -0.4490 -0.1853  0.3600
 2134SOL     OW18037   3.342   0.935  17.070 -0.0652 -0.5621  0.6387
 2134SOL    HW118038   3.389   0.973  16.996  1.7436 -2.2148  0.9440
 2134SOL    HW218039   3.375   0.989  17.141  1.3294 -0.4123 -0.1235
 2135SOL     OW18040   4.195   0.143   7.902 -0.3874  0.1001  0.3447
 2135SOL    HW118041   4.132   0.134   7.974 -0.9174  0.2848 -0.0990
 2135SOL    HW218042   4.186   0.055   7.867  0.9995 -0.4403  1.3320
 2136SOL     OW18043   4.002   4.075   6.546  0.1607 -0.1534 -0.2179
 2136SOL    HW118044   3.945   4.041   6.616  1.1388  0.6228  0.9697
 2136SOL    HW218045   3.986   4.168   6.531 -0.2528 -0.6886 -2.9601
 2137SOL     OW18046   0.452   4.502   9.284 -0.2505  0.4544 -0.1009
 2137SOL    HW118047   0.384   4.569   9.277  0.4716  1.1558 -0.4140
 2137SOL    HW218048   0.391   4.432   9.306  1.1736 -0.3157  1.3687
 2138SOL     OW18049   3.726   3.371   0.167 -0.2855 -0.8092 -0.3159
 2138SOL    HW118050   3.670   3.442   0.134  3.0865  1.2365 -1.6010
 2138SOL    HW218051   3.660   3.303   0.182  0.5842 -1.1868  1.7536
 2139SOL     OW18052   4.266   2.731   7.988 -0.2350  0.3251  0.8890
 2139SOL    HW118053   4.344   2.744   7.934 -0.0605  2.4341  1.6550
 2139SOL    HW218054   4.267   2.814   8.035 -0.3244  1.4353 -1.0592
 2140SOL     OW18055   4.500   1.655   4.437 -0.2525 -0.4490 -0.3702
 2140SOL    HW118056   4.561   1.719   4.473 -4.4347  1.8575  2.5248
 2140SOL    HW218057   4.453   1.711   4.375 -1.2936 -0.6740  0.2158
 2141SOL     OW18058   4.609   1.808   3.929  0.1916  0.5994 -0.0689
 2141SOL    HW118059   4.603   1.758   4.011  1.5001  2.9179  1.4526
 2141SOL    HW218060   4.688   1.777   3.886 -0.6775 -1.1603 -0.3973
 2142SOL     OW18061   2.110   4.330   5.488  0.1974 -0.1534  0.2395
 2142SOL    HW118062   2.060   4.265   5.537  0.4901  0.1156  0.8990
 2142SOL    HW218063   2.195   4.320   5.530 -0.1792 -1.1896  0.7647
 2143SOL     OW18064   1.781   1.037   3.576 -0.2956  0.1301 -0.1422
 2143SOL    HW118065   1.868   1.075   3.579  0.2235 -1.1030  0.7242
 2143SOL    HW218066   1.769   1.024   3.670  0.6773 -0.0314 -0.0431
 2144SOL     OW18067   1.235   1.769  12.723 -0.0060  0.0720  0.2184
 2144SOL    HW118068   1.247   1.703  12.791 -1.8229 -0.8454 -0.3394
 2144SOL    HW218069   1.150   1.752  12.680 -1.0792  2.5226  1.3969
 2145SOL     OW18070   2.878   0.749   8.436 -0.2833  0.2262 -0.4329
 2145SOL    HW118071   2.930   0.829   8.428 -0.8331  0.5916 -0.3622
 2145SOL    HW218072   2.935   0.699   8.494  0.5558  1.3149 -0.3120
 2146SOL     OW18073   4.003   3.860   2.834  0.4402 -0.5268 -0.3590
 2146SOL    HW118074   3.944   3.858   2.759 -1.0867  0.6417  0.8098
 2146SOL    HW218075   4.038   3.771   2.837  1.5278 -0.1462 -1.5104
 2147SOL     OW18076   0.183   4.239   7.815  0.1141 -0.3551  0.6351
 2147SOL    HW118077   0.214   4.150   7.835  0.9531  0.2905  2.2107
 2147SOL    HW218078   0.142   4.261   7.899  1.8749 -2.6912  2.1131
 2148SOL     OW18079   2.581   4.082   8.026  0.1184  0.0532  0.1499
 2148SOL    HW118080   2.551   4.042   7.944  2.9593  1.6532 -1.6586
 2148SOL    HW218081   2.499   4.117   8.061 -0.3850 -0.1540 -0.8279
 2149SOL     OW18082   0.934   4.211   5.757 -0.3541 -0.3714  0.3927
 2149SOL    HW118083   0.973   4.141   5.809 -0.3583  0.1703  1.1325
 2149SOL    HW218084   1.000   4.192   5.691 -0.4114  1.6714 -0.2612
 2150SOL     OW18085   2.944   0.730   8.812 -0.1406 -0.7689  0.3552
 2150SOL    HW118086   2.998   0.791   8.862 -1.4475 -1.1755  2.2849
 2150SOL    HW218087   2.889   0.694   8.882 -0.3007 -4.0779 -1.4518
 2151SOL     OW18088   0.651   2.505  13.027 -0.4035 -0.3282 -0.8288
 2151SOL    HW118089   0.737   2.465  13.039  0.6219  2.2452  0.4339
 2151SOL    HW218090   0.670   2.584  12.976 -3.0929 -0.0869 -1.4932
 2152SOL     OW18091   2.510   2.635   6.554 -0.0011  0.0382  0.3243
 2152SOL    HW118092   2.554   2.594   6.480 -0.4134 -0.7933  0.5355
 2152SOL    HW218093   2.450   2.568   6.588  0.1657 -0.7019 -0.8599
 2153SOL     OW18094   0.428   1.484   9.762 -0.2774 -0.1029  0.7429
 2153SOL    HW118095   0.476   1.566   9.750  0.0755 -0.5089 -0.6166
 2153SOL    HW218096   0.342   1.511   9.792 -0.5638 -0.7425  0.4990
 2154SOL     OW18097   1.573   0.047   3.211  0.2479  0.0108 -0.0157
 2154SOL    HW118098   1.507   0.003   3.158  0.2508  0.4044 -0.3449
 2154SOL    HW218099   1.530   0.133   3.214  3.2394  1.4657  1.3753
 2155SOL     OW18100   3.732   0.461  11.608  0.0069 -0.5812  0.6476
 2155SOL    HW118101   3.822   0.484  11.631  0.7120 -1.9761 -0.7251
 2155SOL    HW218102   3.746   0.462  11.513 -1.2404  0.8046  0.4718
 2156SOL     OW18103   2.419   3.281   7.038  0.3631  0.7828  0.8356
 2156SOL    HW118104   2.390   3.249   6.952  0.0061 -1.3695  1.7631
 2156SOL    HW218105   2.484   3.343   7.004  0.4274  0.2741  0.0217
 2157SOL     OW18106   2.970   3.053   9.583  0.0873  0.2838 -0.0435
 2157SOL    HW118107   2.968   2.959   9.598 -0.5176  0.3656  0.4155
 2157SOL    HW218108   2.879   3.067   9.554 -0.2745  0.3403  1.1207
 2158SOL     OW18109   0.581   3.378  12.728  0.2217  0.2734 -0.3754
 2158SOL    HW118110   0.533   3.449  12.684  2.4420  1.1597 -1.3671
 2158SOL    HW218111   0.627   3.335  12.656  0.5435  1.2327 -0.7408
 2159SOL     OW18112   4.387   0.220   2.805 -0.1288 -0.4108  0.2367
 2159SOL    HW118113   4.407   0.215   2.899  0.0504 -0.5990  0.1905
 2159SOL    HW218114   4.433   0.139   2.782 -1.1757 -0.8472 -0.3224
 2160SOL     OW18115   1.723   0.509   8.236 -0.0387 -0.2825 -0.4054
 2160SOL    HW118116   1.723   0.589   8.288 -1.4091  0.2088 -1.1722
 2160SOL    HW218117   1.629   0.506   8.217 -0.3111  1.5072  0.6075
 2161SOL     OW18118   1.664   3.593   5.007  0.3257  0.1102 -0.9092
 2161SOL    HW118119   1.696   3.655   5.072 -0.3996 -2.4742  1.9235
 2161SOL    HW218120   1.748   3.550   4.993  0.8974  0.6564  0.9401
 2162SOL     OW18121   4.575   1.529   3.184  0.5290  0.9380  0.0799
 2162SOL    HW118122   4.608   1.528   3.273 -0.8747 -0.0426  0.5968
 2162SOL    HW218123   4.482   1.546   3.198  0.4420  0.3805  0.1852
 2163SOL     OW18124   2.236   3.620   4.134  0.1418 -0.6841  0.0035
 2163SOL    HW118125   2.225   3.538   4.182 -0.7790  1.2575  3.0970
 2163SOL    HW218126   2.325   3.648   4.158 -0.4425  0.1246  1.2205
 2164SOL     OW18127   4.612   3.666   2.205  0.6021 -0.0263  0.4650
 2164SOL    HW118128   4.551   3.729   2.166  2.3620  1.0438 -0.5771
 2164SOL    HW218129   4.556   3.589   2.206  0.8607 -0.2159  0.3941
 2165SOL     OW18130   0.319   0.197   4.066 -0.3257 -0.1704  0.0636
 2165SOL    HW118131   0.253   0.164   4.127 -0.6815  1.6877  0.7074
 2165SOL    HW218132   0.385   0.128   4.066 -1.6594 -1.4397 -1.4482
 2166SOL     OW18133   3.677   0.721  14.175 -0.0670 -0.6582 -0.2005
 2166SOL    HW118134   3.741   0.791  14.187 -1.2205  0.1720  1.1576
 2166SOL    HW218135   3.724   0.657  14.122 -1.3888 -1.3929 -0.4678
 2167SOL     OW18136   0.489   0.480  10.271 -0.3887 -0.1282 -0.8140
 2167SOL    HW118137   0.474   0.434  10.188  1.4502 -0.6144 -0.8778
 2167SOL    HW218138   0.558   0.543  10.249  1.5226 -1.3268  1.7229
 2168SOL     OW18139   3.889   4.735   4.149 -0.4448 -0.4118 -0.3562
 2168SOL    HW118140   3.840   0.082   4.159 -0.1278 -0.2889  0.1599
 2168SOL    HW218141   3.855   4.701   4.066  0.5091 -0.2220 -0.8221
 2169SOL     OW18142   1.027   4.275  10.486 -0.2909  0.3134 -0.2574
 2169SOL    HW118143   1.079   4.198  10.462 -0.7823 -0.8152  2.2679
 2169SOL    HW218144   1.034   4.309  10.397 -2.5834 -1.2778 -1.0372
 2170SOL     OW18145   3.906   3.173  13.697  0.3077 -0.2692  0.0716
 2170SOL    HW118146   3.904   3.201  13.606 -1.3379  1.0112  0.5070
 2170SOL    HW218147   3.941   3.084  13.685  1.1479  0.1024 -0.2123
 2171SOL     OW18148   0.775   0.432  12.163  0.2847  0.1805  0.0278
 2171SOL    HW118149   0.849   0.490  12.181  0.4096 -0.0403  0.2324
 2171SOL    HW218150   0.802   0.359  12.219  0.1862  0.1120 -0.0144
 2172SOL     OW18151   3.658   0.572   8.034  0.4466  0.2658  0.4799
 2172SOL    HW118152   3.644   0.526   8.117 -0.4650 -0.4575 -0.0803
 2172SOL    HW218153   3.565   0.578   8.013  0.6692  0.8248 -0.3584
 2173SOL     OW18154   3.502   3.138   2.170 -0.6110 -0.0816 -0.1132
 2173SOL    HW118155   3.424   3.145   2.225 -0.6332 -3.2440  0.2876
 2173SOL    HW218156   3.553   3.072   2.217 -1.1810 -0.5610 -0.1652
 2174SOL     OW18157   2.696   4.459  11.958  0.2345 -0.5094 -0.5789
 2174SOL    HW118158   2.785   4.491  11.948  0.2546 -0.2326  0.5050
 2174SOL    HW218159   2.675   4.509  12.037  0.2651 -1.5134  0.0509
 2175SOL     OW18160   0.397   2.043   4.511  0.3539  0.3029  0.3679
 2175SOL    HW118161   0.453   2.119   4.497 -3.7984  3.1362 -0.8442
 2175SOL    HW218162   0.442   1.999   4.583 -1.2554  0.0548  1.2306
 2176SOL     OW18163   0.928   4.288   7.948 -0.0325 -0.1651 -0.0587
 2176SOL    HW118164   0.954   4.230   8.019 -1.2458 -0.4474  0.1534
 2176SOL    HW218165   0.836   4.264   7.942 -0.0986  0.2405 -0.7174
 2177SOL     OW18166   3.382   1.036   8.499 -0.5420  0.5722  0.5646
 2177SOL    HW118167   3.407   0.994   8.416  1.2545 -0.0520  1.4187
 2177SOL    HW218168   3.433   1.116   8.488  0.2686  0.2972  2.3561
 2178SOL     OW18169   0.154   4.082   8.676  0.1094  0.2722  0.6772
 2178SOL    HW118170   0.218   4.143   8.639 -1.1525  1.1809  0.0107
 2178SOL    HW218171   0.196   4.075   8.762  2.5275 -0.0739 -0.5097
 2179SOL     OW18172   4.612   3.656   3.275 -0.3053 -0.0318 -0.3179
 2179SOL    HW118173   4.557   3.578   3.269 -1.0351  0.5271 -0.8252
 2179SOL    HW218174   4.676   3.637   3.206  0.2542  1.8610 -0.3049
 2180SOL     OW18175   2.996   4.414   3.191  0.4344  0.2382  0.1566
 2180SOL    HW118176   2.962   4.327   3.212 -0.6136  0.4433 -0.6918
 2180SOL    HW218177   3.091   4.403   3.188  0.5954  1.1698  1.8593
 2181SOL     OW18178   1.327   2.582  16.784  0.6992 -0.4372 -0.6165
 2181SOL    HW118179   1.349   2.670  16.752  0.8876 -0.9050 -1.7762
 2181SOL    HW218180   1.353   2.592  16.876  2.9129 -1.4069 -1.1452
 2182SOL     OW18181   3.161   0.675   9.123 -0.1982  0.2185  0.5079
 2182SOL    HW118182   3.115   0.662   9.040  0.1976  0.6135  0.2271
 2182SOL    HW218183   3.252   0.659   9.099 -0.2630  1.4964 -0.5743
 2183SOL     OW18184   1.015   4.515  11.539  0.2738 -0.1989 -0.0088
 2183SOL    HW118185   1.065   4.465  11.474 -1.4594 -1.5195 -0.3147
 2183SOL    HW218186   0.949   4.565  11.490  0.4436  1.8574  1.8508
 2184SOL     OW18187   1.531   0.576   5.240 -0.6915  0.4983  0.0633
 2184SOL    HW118188   1.532   0.606   5.331  1.6694  2.5193 -0.6245
 2184SOL    HW218189   1.612   0.614   5.207 -1.3261  1.1339 -0.7657
 2185SOL     OW18190   3.555   0.123  15.921  0.2898  0.3551 -0.1514
 2185SOL    HW118191   3.611   0.051  15.952 -0.8261 -0.5243 -0.2201
 2185SOL    HW218192   3.628   0.181  15.896  0.7893  0.8298  2.3633
 2186SOL     OW18193   3.466   4.639  12.970 -0.1554 -0.6479  0.2308
 2186SOL    HW118194   3.449   4.697  12.896 -0.0267 -1.0604 -0.1222
 2186SOL    HW218195   3.403   4.680  13.029  0.0325 -0.7059  0.4744
 2187SOL     OW18196   3.745   1.618   4.359 -0.0592  0.3716  0.2269
 2187SOL    HW118197   3.682   1.591   4.293  0.6392  0.4917 -0.4841
 2187SOL    HW218198   3.755   1.709   4.330  0.5028  0.3228  0.2597
 2188SOL     OW18199   0.576   3.567   8.964 -0.0219 -0.4566  0.6392
 2188SOL    HW118200   0.586   3.562   8.869 -2.3428 -1.4244  0.4645
 2188SOL    HW218201   0.655   3.517   8.985  0.9269  0.8710  0.2362
 2189SOL     OW18202   2.073   0.440   2.787  0.0685  0.3938  0.7678
 2189SOL    HW118203   2.062   0.368   2.850  0.4401  0.0037  0.3818
 2189SOL    HW218204   2.156   0.478   2.817 -0.3836  1.1469  1.0525
 2190SOL     OW18205   4.162   3.252   1.542  0.1835 -0.0458 -0.1354
 2190SOL    HW118206   4.093   3.298   1.590  0.7875  0.3470  0.3550
 2190SOL    HW218207   4.158   3.166   1.584  1.9009  0.1981  0.5400
 2191SOL     OW18208   1.086   2.964   1.363 -0.0334 -0.1648 -0.2788
 2191SOL    HW118209   1.061   3.053   1.339 -0.9671 -0.5403 -0.7119
 2191SOL    HW218210   1.032   2.928   1.433 -0.6654 -0.2908 -0.8292
 2192SOL     OW18211   3.964   1.627   8.310 -0.1100  0.0033  0.1140
 2192SOL    HW118212   3.975   1.677   8.228 -0.6024  2.7547  1.7216
 2192SOL    HW218213   4.006   1.545   8.286  0.3795 -0.2423  1.8100
 2193SOL     OW18214   4.585   2.218   3.666 -0.1577  0.1774  0.0057
 2193SOL    HW118215   4.587   2.127   3.637 -0.7157  0.4539 -0.8821
 2193SOL    HW218216   4.597   2.207   3.760  0.4881  0.5628 -0.0254
 2194SOL     OW18217   2.015   0.813  17.183  0.0051  0.3001  0.2104
 2194SOL    HW118218   2.002   0.773  17.097  1.6072 -1.3788  0.7293
 2194SOL    HW218219   1.971   0.896  17.166 -1.6832 -0.1853  2.2086
 2195SOL     OW18220   0.914   3.419   4.061 -0.6669 -0.0395 -0.3961
 2195SOL    HW118221   0.917   3.339   4.009 -0.6599 -1.8040  2.3225
 2195SOL    HW218222   0.846   3.469   4.016  0.5482 -0.2045 -2.3935
 2196SOL     OW18223   2.929   0.101   1.709 -0.0417  0.1677 -0.2660
 2196SOL    HW118224   2.934   0.049   1.628  0.2872  1.0424 -0.8050
 2196SOL    HW218225   2.996   0.060   1.765 -0.6620 -0.9968 -0.3719
 2197SOL     OW18226   1.355   2.380   4.558 -0.1626  0.0934  0.2989
 2197SOL    HW118227   1.395   2.359   4.474 -2.1123  1.7078 -1.0319
 2197SOL    HW218228   1.279   2.322   4.561 -1.5382  1.9799  1.8890
 2198SOL     OW18229   4.662   2.303   8.154  0.0153  0.1263  0.1015
 2198SOL    HW118230   4.709   2.232   8.110  0.3411  0.1908  0.3477
 2198SOL    HW218231   4.730   2.324   8.217 -0.4981  2.1455 -0.0205
 2199SOL     OW18232   4.692   4.729   5.474 -0.2393  0.2251  0.0636
 2199SOL    HW118233   4.663   4.727   5.566 -1.5735 -0.4179 -0.3728
 2199SOL    HW218234   4.664   0.085   5.462 -0.2096  0.5926  2.6740
 2200SOL     OW18235   2.967   2.908   5.308  0.2616  0.0788 -0.5761
 2200SOL    HW118236   3.020   2.912   5.388 -1.6154 -0.8206  0.7141
 2200SOL    HW218237   2.895   2.970   5.324  1.8217  1.8373 -0.3245
 2201SOL     OW18238   1.537   0.973   7.962  0.1746  0.2097  0.4233
 2201SOL    HW118239   1.631   0.955   7.956  0.2386  1.4417 -2.3061
 2201SOL    HW218240   1.522   0.998   7.871  1.7589 -0.5325 -0.0291
 2202SOL     OW18241   3.529   4.098   2.187  0.6777 -0.4231  0.1771
 2202SOL    HW118242   3.590   4.171   2.194 -0.8227  0.9302 -0.8041
 2202SOL    HW218243   3.451   4.153   2.175  1.1204 -0.1127 -1.2562
 2203SOL     OW18244   2.788   2.063   8.312  0.1190 -0.4859  0.6241
 2203SOL    HW118245   2.728   1.988   8.310  0.0501 -0.4667  1.8618
 2203SOL    HW218246   2.781   2.093   8.222  3.6798  0.2421  0.6022
 2204SOL     OW18247   1.779   3.181   2.994  0.1828 -0.3458 -0.0428
 2204SOL    HW118248   1.731   3.165   2.912 -0.0739 -0.5236  0.1408
 2204SOL    HW218249   1.863   3.138   2.977  0.2074  0.9105 -3.0598
 2205SOL     OW18250   2.288   3.407  12.340  0.0423 -0.1223 -0.1665
 2205SOL    HW118251   2.341   3.349  12.395  1.4946  0.1930 -1.1988
 2205SOL    HW218252   2.258   3.352  12.268  1.6694 -0.9972 -0.1853
 2206SOL     OW18253   2.959   2.983   2.268  0.0418  0.3550  0.1653
 2206SOL    HW118254   2.926   3.036   2.195 -0.9811 -1.0994 -0.4279
 2206SOL    HW218255   2.966   3.054   2.332 -1.7057  0.4461  0.2528
 2207SOL     OW18256   1.014   4.618   1.784  0.2773  0.1158  0.0989
 2207SOL    HW118257   1.033   4.595   1.693  0.7212 -1.9793  0.7048
 2207SOL    HW218258   0.937   4.562   1.795  0.2949  0.1533  0.4254
 2208SOL     OW18259   2.402   0.992   2.937  0.4461  0.1746  0.6628
 2208SOL    HW118260   2.393   0.993   2.841 -0.0653  2.6846  0.7211
 2208SOL    HW218261   2.309   0.973   2.945 -0.0257  2.2836  0.3562
 2209SOL     OW18262   1.529   1.374   8.038  0.0611 -0.4200 -0.2738
 2209SOL    HW118263   1.493   1.350   7.952 -0.1530 -1.2246  0.0375
 2209SOL    HW218264   1.472   1.321   8.094  0.2822 -2.8402 -2.3475
 2210SOL     OW18265   0.021   1.422   2.212 -0.5293  0.0658  0.3601
 2210SOL    HW118266   4.722   1.374   2.287  0.5472 -0.2836  0.6322
 2210SOL    HW218267   0.087   1.362   2.178  1.4387  3.9861 -2.6807
 2211SOL     OW18268   4.329   3.216   4.105 -0.4367 -0.4555 -0.6900
 2211SOL    HW118269   4.358   3.305   4.127 -2.3272 -0.0321  0.1457
 2211SOL    HW218270   4.242   3.238   4.071 -0.0713  0.1675 -1.2369
 2212SOL     OW18271   2.692   3.167   7.976  0.2660  0.0986  0.0707
 2212SOL    HW118272   2.734   3.209   8.052 -0.0442  0.7464 -0.1194
 2212SOL    HW218273   2.750   3.091   7.974 -0.8653 -0.7175 -1.3885
 2213SOL     OW18274   2.455   2.150  15.199  0.1648 -0.6433  0.3817
 2213SOL    HW118275   2.469   2.245  15.193 -1.2751 -0.4007  0.9361
 2213SOL    HW218276   2.418   2.139  15.111  0.9805 -0.3142 -0.0070
 2214SOL     OW18277   1.773   2.584  16.992  0.0008 -0.1536  0.0986
 2214SOL    HW118278   1.739   2.570  16.904  0.2404  1.2302 -0.2166
 2214SOL    HW218279   1.769   2.680  17.000 -0.2622 -0.0408 -1.3441
 2215SOL     OW18280   1.422   3.859   7.094 -0.0539  0.4548 -0.5911
 2215SOL    HW118281   1.406   3.846   7.001  0.5622  0.4507 -0.6902
 2215SOL    HW218282   1.517   3.858   7.088 -0.0083 -1.0378  0.2589
 2216SOL     OW18283   2.461   1.697   4.672  0.0425 -0.5184  0.0078
 2216SOL    HW118284   2.390   1.640   4.642 -0.1387  1.3054 -3.0097
 2216SOL    HW218285   2.472   1.758   4.600 -0.7027  0.7562  0.9791
 2217SOL     OW18286   2.372   3.251   6.462 -0.2040 -0.1352 -0.3153
 2217SOL    HW118287   2.385   3.299   6.380  1.0391  1.1582  0.6509
 2217SOL    HW218288   2.279   3.268   6.477 -0.0416  0.2246  0.2548
 2218SOL     OW18289   2.982   0.744  13.092 -0.1181  0.0330  0.1711
 2218SOL    HW118290   2.971   0.814  13.157 -0.8486  1.2030 -1.2007
 2218SOL    HW218291   3.010   0.668  13.142  3.0932 -0.1487 -1.9219
 2219SOL     OW18292   1.473   0.408   4.994 -0.0082  0.3763 -0.4161
 2219SOL    HW118293   1.483   0.380   5.085 -0.5422  1.1356 -0.1247
 2219SOL    HW218294   1.535   0.482   4.995  0.0445  0.3403 -1.1522
 2220SOL     OW18295   0.183   1.737   4.812 -0.2955 -0.0054 -0.3300
 2220SOL    HW118296   0.205   1.755   4.721  0.0937 -0.5203 -0.3416
 2220SOL    HW218297   0.097   1.700   4.796 -1.4277  2.7107 -0.4943
 2221SOL     OW18298   0.795   1.739   2.521  0.1987  0.2503 -0.1943
 2221SOL    HW118299   0.764   1.661   2.477  0.3356 -0.2779  0.6435
 2221SOL    HW218300   0.707   1.774   2.536  0.3430  0.4580  0.1723
 2222SOL     OW18301   3.113   2.454   5.773 -0.0462  0.4480  0.3662
 2222SOL    HW118302   3.025   2.473   5.743 -0.4872  0.0694  1.3910
 2222SOL    HW218303   3.144   2.381   5.718 -0.3203  0.3728  0.3120
 2223SOL     OW18304   0.017   3.747  13.206 -0.1785 -0.5526  0.1341
 2223SOL    HW118305   4.660   3.723  13.200 -0.6201  1.1387  0.1895
 2223SOL    HW218306   0.010   3.839  13.179  1.3570 -0.6893 -0.7082
 2224SOL     OW18307   3.922   1.312   2.185  0.4907  0.4858 -0.4045
 2224SOL    HW118308   4.007   1.311   2.230 -0.1917 -0.6982  0.8349
 2224SOL    HW218309   3.868   1.376   2.231 -0.7935 -0.4439 -0.6170
 2225SOL     OW18310   1.740   3.048   7.468 -0.1021  0.2605 -0.0147
 2225SOL    HW118311   1.695   3.125   7.504 -0.0555  0.8792 -1.2866
 2225SOL    HW218312   1.774   3.024   7.555  1.7029  0.1296 -0.7586
 2226SOL     OW18313   4.517   4.466   8.168 -0.2722 -0.0396  0.5610
 2226SOL    HW118314   4.513   4.388   8.223  1.9084 -0.2530  0.4196
 2226SOL    HW218315   4.424   4.488   8.169 -1.1890 -3.8221 -2.1984
 2227SOL     OW18316   3.504   1.695  13.241 -0.2294 -0.4844 -0.1655
 2227SOL    HW118317   3.420   1.652  13.224  0.9842 -3.0024  0.3071
 2227SOL    HW218318   3.479   1.774  13.289  2.8422 -0.1804  0.8819
 2228SOL     OW18319   1.343   0.231   4.045 -0.6195 -0.1486  0.3652
 2228SOL    HW118320   1.277   0.261   4.107 -1.1540  0.6900 -0.6116
 2228SOL    HW218321   1.281   0.171   4.004  0.6157 -0.8234 -0.5539
 2229SOL     OW18322   2.402   1.192  13.557 -0.8290  0.0900  0.2384
 2229SOL    HW118323   2.494   1.187  13.580 -0.2765 -1.4064 -2.2735
 2229SOL    HW218324   2.378   1.275  13.598  1.4051  1.6069 -1.5322
 2230SOL     OW18325   4.248   1.769   2.295 -0.5573 -0.7328 -0.0381
 2230SOL    HW118326   4.224   1.837   2.231 -0.6553 -2.2916 -1.6380
 2230SOL    HW218327   4.273   1.825   2.369 -2.1430 -1.7062  1.2100
 2231SOL     OW18328   3.791   2.665   4.288 -0.1142  0.1971  0.8017
 2231SOL    HW118329   3.831   2.695   4.369  0.5929 -1.1262  0.9388
 2231SOL    HW218330   3.824   2.576   4.284 -1.1356 -0.1721  0.5331
 2232SOL     OW18331   2.507   3.562  11.807 -0.2154  0.5794 -0.1865
 2232SOL    HW118332   2.487   3.471  11.784 -1.1773  0.6780  0.2402
 2232SOL    HW218333   2.579   3.586  11.748 -0.4862  1.2034 -0.2658
 2233SOL     OW18334   4.327   1.127   2.996 -0.0233  0.4133 -0.3121
 2233SOL    HW118335   4.333   1.041   2.955 -0.0791 -0.5311  1.6453
 2233SOL    HW218336   4.409   1.139   3.044 -0.0898 -0.0587 -0.0756
 2234SOL     OW18337   3.467   1.011   1.373 -0.1160  0.0321  0.3234
 2234SOL    HW118338   3.381   1.017   1.415  0.0268  1.5495  0.4179
 2234SOL    HW218339   3.535   1.018   1.440  0.2186 -1.4755  0.1408
 2235SOL     OW18340   1.455   4.109   6.157 -0.0995 -0.3681 -0.8780
 2235SOL    HW118341   1.400   4.039   6.192 -2.0757  1.8800  0.5533
 2235SOL    HW218342   1.394   4.173   6.120 -0.2305  1.4660  2.5004
 2236SOL     OW18343   4.291   2.121  10.592 -0.2065 -0.1641 -0.3938
 2236SOL    HW118344   4.227   2.070  10.642  1.6351  0.1260  2.2115
 2236SOL    HW218345   4.267   2.211  10.613 -0.5060 -0.6400  1.2922
 2237SOL     OW18346   2.125   2.222   9.846  0.6718 -0.1417  0.4131
 2237SOL    HW118347   2.109   2.291   9.781 -0.7463 -0.0738  0.8472
 2237SOL    HW218348   2.218   2.243   9.855  0.8615 -0.6809 -0.2735
 2238SOL     OW18349   4.457   0.727   5.917 -0.0953  0.2695 -0.0532
 2238SOL    HW118350   4.547   0.709   5.945  0.3172 -0.0356 -1.5471
 2238SOL    HW218351   4.466   0.820   5.897 -0.2302  0.0710 -1.0167
 2239SOL     OW18352   1.919   0.983   8.505  0.1744 -0.5812 -0.1144
 2239SOL    HW118353   1.949   0.921   8.571 -0.7145 -0.6022  0.2729
 2239SOL    HW218354   1.832   1.002   8.540  0.4377 -1.4349  0.9884
 2240SOL     OW18355   2.574   3.236  15.468  0.0003 -0.4413 -0.0989
 2240SOL    HW118356   2.609   3.148  15.453 -0.7961 -0.7532 -0.1437
 2240SOL    HW218357   2.637   3.298  15.431 -1.1698  0.7993  0.0006
 2241SOL     OW18358   1.431   4.552  11.082  0.0834 -0.0636  0.0488
 2241SOL    HW118359   1.500   4.531  11.145  0.6574  1.5317 -0.0480
 2241SOL    HW218360   1.478   4.601  11.014 -1.9400 -1.5553 -2.3981
 2242SOL     OW18361   3.513   4.073   9.591  0.0966 -0.1803  0.3799
 2242SOL    HW118362   3.429   4.119   9.586 -0.3852 -0.8381  2.3479
 2242SOL    HW218363   3.491   3.981   9.572  0.6857 -0.2771  0.1763
 2243SOL     OW18364   1.094   2.537  16.948  0.0971 -0.0050  0.4369
 2243SOL    HW118365   1.092   2.621  16.902 -1.6723 -0.2292  0.1033
 2243SOL    HW218366   1.123   2.487  16.871  3.0490  1.2734  0.7128
 2244SOL     OW18367   0.307   2.221   3.975  0.3307 -0.1488 -0.0280
 2244SOL    HW118368   0.215   2.208   4.000  0.2351 -1.0174 -0.8300
 2244SOL    HW218369   0.319   2.132   3.942  0.0972 -0.6202  1.1351
 2245SOL     OW18370   3.099   2.296   1.868  0.3787  0.2097 -0.2323
 2245SOL    HW118371   3.080   2.388   1.884  1.1798 -0.0790  2.2702
 2245SOL    HW218372   3.156   2.273   1.941  0.7705 -0.2091 -0.6734
 2246SOL     OW18373   2.593   0.332   4.816 -0.3590 -0.2983  0.2960
 2246SOL    HW118374   2.628   0.246   4.842 -2.6478 -1.6795 -1.2368
 2246SOL    HW218375   2.670   0.389   4.815 -0.8599  0.3851  0.7373
 2247SOL     OW18376   2.488   1.598  10.182 -0.2673 -0.1435  0.1913
 2247SOL    HW118377   2.403   1.614  10.142  0.4706 -1.6114 -1.9947
 2247SOL    HW218378   2.474   1.656  10.256 -2.5264 -1.0129  0.4439
 2248SOL     OW18379   3.718   1.174   6.869 -0.1313 -0.3161  0.2559
 2248SOL    HW118380   3.737   1.148   6.779  0.3229  1.5971 -0.1982
 2248SOL    HW218381   3.629   1.208   6.861 -0.1160  0.5171  3.4099
 2249SOL     OW18382   4.671   1.638   4.743 -0.1143  0.4971  0.0481
 2249SOL    HW118383   4.694   1.545   4.732 -2.2183  0.2609 -2.4549
 2249SOL    HW218384   4.609   1.635   4.815  0.1908 -0.2182  0.2884
 2250SOL     OW18385   4.563   4.154   3.663  0.5102  0.1429  0.6830
 2250SOL    HW118386   4.592   4.211   3.734  0.8721  0.4164  0.3177
 2250SOL    HW218387   4.468   4.162   3.672  0.0544 -1.5495 -2.7629
 2251SOL     OW18388   0.075   0.084   8.376 -0.1389  0.6791  0.1421
 2251SOL    HW118389   4.723   0.047   8.360 -0.5051  0.5498  2.3854
 2251SOL    HW218390   0.063   0.160   8.319  0.9054  0.3727 -0.4614
 2252SOL     OW18391   2.663   3.865   9.908  0.5211 -0.1760 -0.0297
 2252SOL    HW118392   2.701   3.872   9.996 -0.8043 -2.6087  0.7578
 2252SOL    HW218393   2.568   3.871   9.917  0.4929  1.5764 -1.7001
 2253SOL     OW18394   4.517   1.252  14.667 -0.0226 -0.3011 -0.2183
 2253SOL    HW118395   4.603   1.288  14.644  0.0018  0.3141  0.8595
 2253SOL    HW218396   4.535   1.223  14.756 -0.2422 -0.3194 -0.1814
 2254SOL     OW18397   0.764   1.309   2.723 -0.0999 -0.4384  0.2701
 2254SOL    HW118398   0.805   1.227   2.694 -3.3550 -1.8134 -0.4254
 2254SOL    HW218399   0.838   1.369   2.714 -0.5351  0.0154 -0.2374
 2255SOL     OW18400   4.302   0.971   4.128  0.1289 -0.4250  0.5366
 2255SOL    HW118401   4.225   1.024   4.105  0.4167 -0.2282  0.0112
 2255SOL    HW218402   4.322   1.003   4.216 -0.5319  0.3241  0.4124
 2256SOL     OW18403   3.496   4.681   9.294  0.1589 -0.4785  0.1305
 2256SOL    HW118404   3.452   4.694   9.209  0.2946  0.7307  0.2432
 2256SOL    HW218405   3.455   4.599   9.321  1.5545 -1.5283 -0.9052
 2257SOL     OW18406   3.676   0.357   7.445 -0.2488  0.1047  0.0513
 2257SOL    HW118407   3.696   0.324   7.357 -2.6005 -0.4477 -0.2844
 2257SOL    HW218408   3.651   0.447   7.425 -1.5939 -0.3677 -0.3937
 2258SOL     OW18409   3.446   0.232   2.079 -0.3770  0.0992 -0.7429
 2258SOL    HW118410   3.473   0.148   2.116 -0.4510  1.6182  2.8125
 2258SOL    HW218411   3.518   0.292   2.101  0.8293 -0.7361 -2.4345
 2259SOL     OW18412   4.567   4.457   2.690  0.0471  0.0749 -0.4829
 2259SOL    HW118413   4.559   4.364   2.673 -0.2776 -0.4196  2.3262
 2259SOL    HW218414   4.660   4.469   2.673  0.1849 -0.4125 -0.0599
 2260SOL     OW18415   0.540   2.578   6.956  0.2964 -0.2864 -0.7347
 2260SOL    HW118416   0.505   2.594   6.868  0.5265  0.1686 -0.7431
 2260SOL    HW218417   0.467   2.606   7.011  0.1289  2.6129 -2.4247
 2261SOL     OW18418   2.539   3.116   7.616  0.0583  0.1071  0.0213
 2261SOL    HW118419   2.493   3.098   7.535 -0.4215  0.3878  0.2318
 2261SOL    HW218420   2.565   3.207   7.601  0.5244 -0.1317 -0.6090
 2262SOL     OW18421   3.532   1.871   4.145 -0.0583 -0.5182  0.0832
 2262SOL    HW118422   3.619   1.892   4.179 -0.7203 -0.6299  1.8432
 2262SOL    HW218423   3.531   1.932   4.071 -1.9499  0.7784  1.1688
 2263SOL     OW18424   3.765   3.962   8.111  0.5368  0.7793 -0.2188
 2263SOL    HW118425   3.786   3.918   8.029 -1.1684 -0.1704 -0.1565
 2263SOL    HW218426   3.808   3.897   8.167 -2.0444 -0.2147  0.6348
 2264SOL     OW18427   0.542   4.120  15.461 -0.2143  0.0584  0.0665
 2264SOL    HW118428   0.608   4.051  15.453 -2.3216 -2.0936  0.8509
 2264SOL    HW218429   0.473   4.069  15.417  1.3744  0.0088 -2.3983
 2265SOL     OW18430   3.895   3.318   4.094 -0.1460 -0.0708  0.1123
 2265SOL    HW118431   3.888   3.393   4.152  0.7113  0.0955 -0.0019
 2265SOL    HW218432   3.805   3.308   4.065 -0.8065 -1.2779  2.5977
 2266SOL     OW18433   3.529   1.252   3.917 -0.1503  0.0137 -0.2795
 2266SOL    HW118434   3.480   1.314   3.970  1.9157  1.5362 -0.1537
 2266SOL    HW218435   3.610   1.258   3.967 -0.7841 -0.0172  0.7394
 2267SOL     OW18436   1.845   0.353   5.525 -0.3053  0.6919  0.4620
 2267SOL    HW118437   1.821   0.261   5.522 -0.7100  0.7932  0.6081
 2267SOL    HW218438   1.894   0.367   5.606 -0.7446  1.1038  0.6605
 2268SOL     OW18439   4.381   4.031   7.743 -0.4207 -0.0522  0.1424
 2268SOL    HW118440   4.319   3.959   7.733 -1.0560  0.2609  1.9010
 2268SOL    HW218441   4.449   4.003   7.805 -0.6140  0.2007  0.4702
 2269SOL     OW18442   2.266   1.861   7.936  0.0262  0.3293  0.6600
 2269SOL    HW118443   2.206   1.855   7.861  1.3025  1.1631 -0.4458
 2269SOL    HW218444   2.219   1.932   7.979  0.9528 -0.8239  3.5193
 2270SOL     OW18445   4.280   2.419  16.094 -0.6814 -0.2498  0.1960
 2270SOL    HW118446   4.253   2.500  16.138 -0.6923 -1.4194  2.3081
 2270SOL    HW218447   4.286   2.352  16.162 -0.1157 -1.6769 -1.2836
 2271SOL     OW18448   3.103   0.918  13.884 -0.2615  0.1769 -0.0123
 2271SOL    HW118449   3.040   0.988  13.864 -1.0398 -0.6771 -0.5495
 2271SOL    HW218450   3.174   0.952  13.830 -0.8817 -0.0764 -0.9808
 2272SOL     OW18451   1.612   4.460   5.974  0.2189  0.0886 -0.1251
 2272SOL    HW118452   1.699   4.430   5.947  0.8673 -0.8637  2.9508
 2272SOL    HW218453   1.567   4.383   6.009 -0.0275  0.7260  0.9627
 2273SOL     OW18454   3.992   4.399   5.048  0.2686 -0.5253  0.0536
 2273SOL    HW118455   4.038   4.462   5.104  0.6267  0.2616 -1.1398
 2273SOL    HW218456   4.028   4.418   4.961  0.9863  0.1332  0.4879
 2274SOL     OW18457   1.103   1.719   3.737  0.0796  0.2208 -0.2343
 2274SOL    HW118458   1.163   1.668   3.792 -1.0215  0.5773  1.3104
 2274SOL    HW218459   1.151   1.762   3.667 -1.0557 -2.8281 -2.9130
 2275SOL     OW18460   4.706   0.776   1.625  0.0017  0.2711 -0.2413
 2275SOL    HW118461   4.704   0.864   1.588  1.4782 -0.7170 -2.6601
 2275SOL    HW218462   4.619   0.743   1.600 -0.2097  0.5499  0.1206
 2276SOL     OW18463   4.400   0.657   5.354 -0.1770 -0.3942  0.0012
 2276SOL    HW118464   4.471   0.625   5.410 -0.7825  0.6405  1.3902
 2276SOL    HW218465   4.415   0.608   5.274  1.9866 -2.6672  1.8039
 2277SOL     OW18466   3.770   2.277   8.687  0.2213 -0.0308  0.6028
 2277SOL    HW118467   3.840   2.299   8.625 -0.8227  1.1463 -0.1462
 2277SOL    HW218468   3.705   2.262   8.619 -1.0639 -0.3149  1.8805
 2278SOL     OW18469   2.574   1.404   3.059  0.3265 -0.5670  0.6280
 2278SOL    HW118470   2.597   1.437   3.146  1.0217  1.7610 -0.4141
 2278SOL    HW218471   2.650   1.419   3.003 -0.8532  0.4191 -0.7290
 2279SOL     OW18472   3.738   2.683   7.273 -0.1316  0.3029 -0.1961
 2279SOL    HW118473   3.657   2.663   7.225 -0.4811  0.5307  0.2899
 2279SOL    HW218474   3.744   2.778   7.261 -1.1257  0.3354 -0.4922
 2280SOL     OW18475   2.956   1.122   7.989  0.3140  0.9053 -0.1852
 2280SOL    HW118476   2.908   1.195   8.027 -0.2101  0.2588  0.4037
 2280SOL    HW218477   2.998   1.087   8.068  1.9252 -0.1936 -1.5208
 2281SOL     OW18478   3.936   0.290   5.027  0.4003 -0.2382 -0.6957
 2281SOL    HW118479   3.855   0.281   5.076  0.6107 -0.4452 -0.3861
 2281SOL    HW218480   3.916   0.336   4.945  1.6172  1.5368 -0.0135
 2282SOL     OW18481   2.912   1.155   6.384  0.0128  0.1203 -0.1516
 2282SOL    HW118482   2.976   1.137   6.315  0.3537 -0.9005  0.4301
 2282SOL    HW218483   2.965   1.162   6.463  2.1442  1.1115 -1.6985
 2283SOL     OW18484   0.254   3.145   9.180  0.3100  0.2167  0.0754
 2283SOL    HW118485   0.303   3.064   9.194  2.8085  1.3978 -1.7404
 2283SOL    HW218486   0.185   3.137   9.246 -1.1179 -0.6718 -1.5129
 2284SOL     OW18487   0.486   4.429   8.878 -0.2443  0.2231  0.2794
 2284SOL    HW118488   0.495   4.342   8.838  0.4612  0.8226 -0.8704
 2284SOL    HW218489   0.397   4.451   8.852 -0.0270  0.6380 -0.1142
 2285SOL     OW18490   1.376   1.153   4.144 -0.0026  0.1185  0.3493
 2285SOL    HW118491   1.411   1.065   4.132  0.9867  0.3680  1.3811
 2285SOL    HW218492   1.327   1.168   4.063  0.5483  1.8090  0.3206
 2286SOL     OW18493   2.991   2.445   4.088  0.3411  0.0360 -0.0069
 2286SOL    HW118494   3.029   2.391   4.018  1.2175 -0.3807  0.7977
 2286SOL    HW218495   3.063   2.468   4.146 -0.0919 -0.0789  0.5689
 2287SOL     OW18496   1.106   2.735   0.814 -0.2223  0.0464 -0.1818
 2287SOL    HW118497   1.069   2.719   0.901 -0.2724 -0.6958 -0.3393
 2287SOL    HW218498   1.160   2.658   0.794 -0.6928 -0.2024 -0.4747
 2288SOL     OW18499   3.149   3.451  17.249 -0.2472 -0.2028 -0.1200
 2288SOL    HW118500   3.193   3.531  17.221  1.8237 -0.2486  2.8861
 2288SOL    HW218501   3.130   3.473  17.340 -1.5085 -0.5064 -0.3210
 2289SOL     OW18502   2.891   2.975   4.547 -0.2342 -0.0115  0.4251
 2289SOL    HW118503   2.927   2.905   4.602 -1.8194 -0.0362  1.4158
 2289SOL    HW218504   2.923   3.054   4.591 -2.1337 -0.3053  2.3371
 2290SOL     OW18505   3.435   4.428  12.440 -0.6910  0.2866  0.9094
 2290SOL    HW118506   3.379   4.352  12.425  0.2526 -0.0065 -1.1698
 2290SOL    HW218507   3.503   4.408  12.505  2.2360 -2.5574 -3.0361
 2291SOL     OW18508   4.257   1.682   4.569 -0.0620 -0.3473  0.2921
 2291SOL    HW118509   4.345   1.647   4.556 -0.1370 -0.4254 -0.0043
 2291SOL    HW218510   4.260   1.727   4.653  1.3832  0.7006 -0.3252
 2292SOL     OW18511   4.339   1.096  16.231  0.4344 -0.1376 -0.2651
 2292SOL    HW118512   4.364   1.086  16.323  1.6344  1.5408 -0.4147
 2292SOL    HW218513   4.424   1.083  16.188  1.3198  1.2254  1.0907
 2293SOL     OW18514   1.517   2.295   3.757 -0.1504 -0.4290  0.5477
 2293SOL    HW118515   1.502   2.253   3.672 -1.3941 -1.4729  1.2609
 2293SOL    HW218516   1.599   2.337   3.733 -0.0835 -1.8700 -1.6817
 2294SOL     OW18517   4.246   3.979   6.931 -0.0426 -0.0534 -0.4007
 2294SOL    HW118518   4.265   3.899   6.981  1.9323  1.4001  1.1724
 2294SOL    HW218519   4.314   4.044   6.950  0.1542 -0.8513  1.6806
 2295SOL     OW18520   0.660   3.021   8.184 -0.0975 -0.4172  0.4396
 2295SOL    HW118521   0.715   2.954   8.224  0.1444  0.0753  0.9428
 2295SOL    HW218522   0.580   2.967   8.183 -0.9317  0.8000  0.7901
 2296SOL     OW18523   1.883   3.031   1.819  0.0350 -0.2283 -0.1632
 2296SOL    HW118524   1.878   2.949   1.869 -1.2008 -0.0511 -0.0183
 2296SOL    HW218525   1.814   3.028   1.753 -0.5834  0.4221  0.4593
 2297SOL     OW18526   3.156   2.513   0.584 -0.2024  0.5562  0.1814
 2297SOL    HW118527   3.077   2.532   0.534  0.1513  1.4149 -0.0484
 2297SOL    HW218528   3.170   2.596   0.629  1.4342 -0.9211  2.4134
 2298SOL     OW18529   4.085   2.017   4.393  0.2817  0.3702 -0.2441
 2298SOL    HW118530   4.159   2.035   4.451  1.0443  0.8189 -1.3468
 2298SOL    HW218531   4.104   1.928   4.363  0.2730 -0.0349  0.9654
 2299SOL     OW18532   2.633   1.353  16.818 -0.1348 -0.2799 -0.1108
 2299SOL    HW118533   2.706   1.412  16.800  0.3293 -1.8557 -3.3675
 2299SOL    HW218534   2.584   1.361  16.737  1.6037  1.4550 -1.0035
 2300SOL     OW18535   2.175   3.261   8.587  0.1484  0.0766  0.3707
 2300SOL    HW118536   2.182   3.348   8.626 -1.3607  0.6596 -0.6430
 2300SOL    HW218537   2.086   3.246   8.619  0.2846  1.6224  1.5118
 2301SOL     OW18538   0.726   3.103   7.892  0.1938 -0.7255  0.1202
 2301SOL    HW118539   0.755   3.068   7.977  1.0339  1.0337  0.5621
 2301SOL    HW218540   0.793   3.170   7.882 -0.1226 -0.4012  0.2082
 2302SOL     OW18541   2.916   2.518   6.168 -0.0205  0.0474  0.4792
 2302SOL    HW118542   3.004   2.507   6.131  0.2772  0.2879  1.1163
 2302SOL    HW218543   2.867   2.489   6.091  1.4331  0.1311 -0.5067
 2303SOL     OW18544   0.802   4.521   8.439 -0.6251 -0.4482  0.3345
 2303SOL    HW118545   0.856   4.575   8.497 -0.2057 -0.3418 -0.1534
 2303SOL    HW218546   0.751   4.594   8.403 -0.9351 -2.1639 -2.6912
 2304SOL     OW18547   3.763   1.748   9.492  0.2266 -0.4439 -0.3237
 2304SOL    HW118548   3.693   1.735   9.428 -1.5690  0.2402  1.4933
 2304SOL    HW218549   3.724   1.697   9.563  1.4992  1.2654  1.5957
 2305SOL     OW18550   1.168   3.460   2.215 -0.5185  0.4457  0.4271
 2305SOL    HW118551   1.202   3.395   2.153  1.7600  0.1993  1.9164
 2305SOL    HW218552   1.126   3.404   2.280 -1.4695  0.3319 -0.2877
 2306SOL     OW18553   0.260   4.607   6.143 -0.5435  0.2159 -0.7739
 2306SOL    HW118554   0.277   4.561   6.226 -1.4440  0.8184 -0.2660
 2306SOL    HW218555   0.231   4.688   6.184 -1.7427 -0.9936  0.7747
 2307SOL     OW18556   3.383   3.450   5.611  0.2777  0.5277  0.1058
 2307SOL    HW118557   3.300   3.414   5.641 -0.0674  1.5732  0.4229
 2307SOL    HW218558   3.347   3.523   5.561  1.2779  0.5166 -0.6238
 2308SOL     OW18559   0.539   2.976   7.486 -0.0305  0.9313  0.9968
 2308SOL    HW118560   0.617   3.016   7.447 -1.2584  1.6242 -0.7681
 2308SOL    HW218561   0.575   2.907   7.541  1.1304  0.6441 -0.1306
 2309SOL     OW18562   2.793   3.967   8.522  0.0213 -0.5883 -0.3425
 2309SOL    HW118563   2.836   4.053   8.521 -0.3508 -0.4365 -3.3247
 2309SOL    HW218564   2.708   3.994   8.486 -1.0878 -1.5385  1.5848
 2310SOL     OW18565   4.316   0.900   8.963 -0.9532 -0.2386  0.3271
 2310SOL    HW118566   4.334   0.967   9.028  1.1502 -1.9869  1.5498
 2310SOL    HW218567   4.396   0.847   8.972 -0.3295  0.8636  1.2312
 2311SOL     OW18568   3.873   2.528   4.889 -0.3259  0.3158  0.6581
 2311SOL    HW118569   3.950   2.475   4.870  0.1860  1.6758 -0.9751
 2311SOL    HW218570   3.824   2.465   4.942 -1.9748  0.4016 -0.7575
 2312SOL     OW18571   4.643   1.712   5.671 -0.4503  0.0462 -0.3081
 2312SOL    HW118572   4.609   1.679   5.754 -0.3137 -4.1470 -1.9453
 2312SOL    HW218573   4.625   1.805   5.688 -2.9323 -0.7897  1.6552
 2313SOL     OW18574   1.586   3.750  12.458 -0.1454  0.3922  0.2112
 2313SOL    HW118575   1.574   3.762  12.364  1.0998 -1.5231 -0.1780
 2313SOL    HW218576   1.561   3.840  12.481 -0.9311 -0.5364  3.0886
 2314SOL     OW18577   1.092   1.003   2.315  0.2933  0.1288  0.0391
 2314SOL    HW118578   1.017   0.947   2.336 -1.2509  1.5878 -1.5836
 2314SOL    HW218579   1.066   1.038   2.230 -0.8884  0.5102  0.5583
 2315SOL     OW18580   2.915   1.491   4.887 -0.1331  0.2376 -0.1994
 2315SOL    HW118581   2.953   1.545   4.957  0.0855  0.4357 -0.4739
 2315SOL    HW218582   2.826   1.524   4.875  0.9037  2.3418 -2.0067
 2316SOL     OW18583   1.608   2.856   7.998  0.4072 -0.6710 -0.4971
 2316SOL    HW118584   1.665   2.918   7.952  0.3356  0.6703  1.2099
 2316SOL    HW218585   1.527   2.868   7.948 -0.9353  0.3058  1.9091
 2317SOL     OW18586   2.263   0.655  15.235  0.1654  0.3904 -0.3114
 2317SOL    HW118587   2.334   0.716  15.255  0.1249  0.0961  0.7140
 2317SOL    HW218588   2.248   0.604  15.315  0.0392 -0.5071 -0.8999
 2318SOL     OW18589   1.981   1.208   6.959  0.5798 -0.0265 -0.0001
 2318SOL    HW118590   2.069   1.241   6.974  0.9597 -0.4087 -1.3531
 2318SOL    HW218591   1.944   1.289   6.926 -0.0851 -0.7397 -1.0371
 2319SOL     OW18592   3.552   1.719  11.681 -0.2671  0.0010  0.1022
 2319SOL    HW118593   3.557   1.715  11.776 -0.3165  1.9019  0.1901
 2319SOL    HW218594   3.615   1.648  11.668  0.9289  1.1470 -0.4348
 2320SOL     OW18595   1.947   1.042   4.620  0.1997  0.2459 -0.3119
 2320SOL    HW118596   1.898   1.075   4.544 -0.5165 -0.6356 -0.2297
 2320SOL    HW218597   1.975   0.956   4.589  0.7454  0.0301  0.7830
 2321SOL     OW18598   3.472   1.648   2.532 -0.3411 -0.7369  0.0668
 2321SOL    HW118599   3.508   1.599   2.606  0.2013  0.2139  0.4413
 2321SOL    HW218600   3.410   1.705   2.577 -0.3065 -1.1196  0.6000
 2322SOL     OW18601   4.710   0.919   5.016  0.7167  0.3121 -0.0779
 2322SOL    HW118602   4.734   1.005   5.049  1.8556  0.9347 -2.5331
 2322SOL    HW218603   0.024   0.912   4.934  2.1795  0.8453  0.7730
 2323SOL     OW18604   3.517   3.385   1.834  0.2529  0.6936  0.0557
 2323SOL    HW118605   3.518   3.444   1.758  0.2032  1.1877  0.4380
 2323SOL    HW218606   3.488   3.304   1.792 -0.8093  1.8612 -1.4844
 2324SOL     OW18607   3.882   3.334   8.931  0.7051  0.4582  0.1270
 2324SOL    HW118608   3.817   3.266   8.912  2.3110 -0.8070 -0.8552
 2324SOL    HW218609   3.955   3.289   8.888  1.5864 -0.4124  2.5165
 2325SOL     OW18610   3.170   4.511   3.525  0.3057  0.7298  0.6169
 2325SOL    HW118611   3.244   4.544   3.574  2.7031  2.9248 -4.4423
 2325SOL    HW218612   3.189   4.553   3.441 -0.4689  1.7893  0.9687
 2326SOL     OW18613   2.584   0.787   7.179 -0.6039 -0.3621 -0.5942
 2326SOL    HW118614   2.526   0.711   7.170  1.6991 -2.2996  0.7203
 2326SOL    HW218615   2.525   0.826   7.243 -2.7748 -0.3505 -2.6284
 2327SOL     OW18616   4.493   4.646   7.710  0.4409 -0.2474  0.1391
 2327SOL    HW118617   4.428   4.577   7.696 -0.4994  0.4309  1.2745
 2327SOL    HW218618   4.566   4.598   7.749 -0.4133  1.1112  3.3485
 2328SOL     OW18619   4.423   0.278   3.834  0.5310  0.3512 -0.9075
 2328SOL    HW118620   4.432   0.370   3.811  1.1735  0.6897  0.6951
 2328SOL    HW218621   4.403   0.288   3.927 -1.1653  1.1086 -1.3424
 2329SOL     OW18622   2.381   0.114  14.084 -0.3530 -0.2421  0.5812
 2329SOL    HW118623   2.397   0.057  14.009  0.7625 -0.2640  0.8382
 2329SOL    HW218624   2.297   0.076  14.112 -1.4171  2.1219  0.5731
 2330SOL     OW18625   3.678   2.641  14.070 -0.2299  0.6805  0.2485
 2330SOL    HW118626   3.642   2.641  13.981  1.3954  1.7751 -0.4091
 2330SOL    HW218627   3.612   2.583  14.107  0.0537 -0.6665 -1.3546
 2331SOL     OW18628   1.201   0.616   0.217 -0.3434  0.2868 -0.1014
 2331SOL    HW118629   1.111   0.606   0.188 -0.1530 -0.3222 -0.4700
 2331SOL    HW218630   1.239   0.551   0.158  0.4610 -0.2411  0.9981
 2332SOL     OW18631   2.557   3.530   3.596 -0.9367 -0.3975 -0.9026
 2332SOL    HW118632   2.505   3.573   3.528 -1.9984 -1.2804 -0.6492
 2332SOL    HW218633   2.637   3.583   3.590  0.2967 -2.1250  0.2455
 2333SOL     OW18634   0.662   0.681   8.811  0.1118 -0.0634 -0.4021
 2333SOL    HW118635   0.584   0.625   8.805  1.2287 -1.5088 -1.4954
 2333SOL    HW218636   0.734   0.621   8.792 -0.5860 -0.4073 -1.9491
 2334SOL     OW18637   1.903   2.385   6.044 -0.1222 -0.2787 -0.5239
 2334SOL    HW118638   1.830   2.328   6.065  1.2409 -0.9592  2.3148
 2334SOL    HW218639   1.928   2.440   6.118 -1.2374  1.1416 -1.2050
 2335SOL     OW18640   0.593   3.382  10.642  0.0772 -0.2742  0.3479
 2335SOL    HW118641   0.620   3.437  10.568  0.4088  0.9282  1.3588
 2335SOL    HW218642   0.508   3.425  10.654  0.1331 -0.3395  1.0094
 2336SOL     OW18643   0.680   1.212  14.637 -0.0524  0.1705  0.1564
 2336SOL    HW118644   0.775   1.219  14.646 -0.2800  1.3057  1.7765
 2336SOL    HW218645   0.660   1.172  14.722 -0.8090  0.7692  0.2619
 2337SOL     OW18646   2.112   1.340   5.090 -0.3000 -0.4088  0.1923
 2337SOL    HW118647   2.101   1.339   4.994 -0.0394 -2.2686  0.1829
 2337SOL    HW218648   2.158   1.257   5.104  2.4044  0.8973 -0.7922
 2338SOL     OW18649   0.485   1.833   3.437  0.2011  0.8525 -0.5013
 2338SOL    HW118650   0.463   1.860   3.348  0.1505  0.0733 -0.7227
 2338SOL    HW218651   0.503   1.917   3.479  4.3870 -0.5312  0.5562
 2339SOL     OW18652   4.249   1.346  11.305 -0.0358 -0.0624  0.1262
 2339SOL    HW118653   4.209   1.312  11.225 -2.1957  0.3913  1.0181
 2339SOL    HW218654   4.265   1.437  11.283  2.8685 -0.3161  1.2049
 2340SOL     OW18655   2.342   1.659   6.570  0.2488 -0.2883  0.0976
 2340SOL    HW118656   2.347   1.656   6.475 -1.6225 -1.4001  0.0424
 2340SOL    HW218657   2.436   1.645   6.587  0.4262 -0.2055 -0.8336
 2341SOL     OW18658   0.733   2.406   6.842 -0.0401  0.9705 -0.2176
 2341SOL    HW118659   0.682   2.483   6.869 -1.5686 -0.1702  0.1461
 2341SOL    HW218660   0.816   2.447   6.864  0.1895  0.1820  0.3701
 2342SOL     OW18661   1.925   4.388   6.724 -0.4679  0.3413  0.2555
 2342SOL    HW118662   1.869   4.316   6.753 -0.1722 -1.1076 -2.7774
 2342SOL    HW218663   1.971   4.334   6.660 -1.6949 -1.3867  0.8215
 2343SOL     OW18664   2.740   0.933   1.546  0.0691 -0.6483 -0.1369
 2343SOL    HW118665   2.821   0.963   1.587  0.0822 -0.9050  0.0258
 2343SOL    HW218666   2.673   0.915   1.613  0.1634 -1.4649 -0.2544
 2344SOL     OW18667   2.311   0.201  17.732  0.5615  0.2963  0.0220
 2344SOL    HW118668   2.370   0.199  17.657  1.2828 -2.0232  0.6524
 2344SOL    HW218669   2.303   0.107   0.005  1.0343  0.4894  1.6778
 2345SOL     OW18670   1.453   0.527  10.961  0.1940 -0.1762 -0.8453
 2345SOL    HW118671   1.527   0.509  10.904  1.4509 -0.5754  0.9307
 2345SOL    HW218672   1.434   0.617  10.937 -0.6653  0.3458  1.7973
 2346SOL     OW18673   0.522   2.999   3.648  0.2167 -0.5667  0.2186
 2346SOL    HW118674   0.565   3.061   3.589  0.2052  0.5518  1.3813
 2346SOL    HW218675   0.518   3.051   3.729  1.3721  0.1884 -0.1970
 2347SOL     OW18676   0.687   2.995  16.137  0.0482 -0.1841 -0.0405
 2347SOL    HW118677   0.622   2.958  16.077  1.6552  0.1157 -1.9739
 2347SOL    HW218678   0.651   2.991  16.226 -0.0553 -3.4040 -0.2421
 2348SOL     OW18679   4.507   0.548   4.388  0.0834 -0.1909 -0.0588
 2348SOL    HW118680   4.509   0.619   4.452 -1.3406  1.0426 -1.3807
 2348SOL    HW218681   4.413   0.550   4.373  0.3668  0.5443 -1.7895
 2349SOL     OW18682   1.549   4.361   6.516 -0.3876  0.0076 -0.3466
 2349SOL    HW118683   1.467   4.373   6.469 -1.4824 -2.1070  1.0508
 2349SOL    HW218684   1.563   4.267   6.509 -0.4791 -0.1452  1.3062
 2350SOL     OW18685   3.916   3.117  15.753  0.1728 -0.6038 -0.4582
 2350SOL    HW118686   3.985   3.179  15.728 -0.2774 -0.6891 -1.8788
 2350SOL    HW218687   3.888   3.080  15.669  2.1471  0.9610 -1.8141
 2351SOL     OW18688   3.886   2.905   8.723  0.3739 -0.6630 -0.3805
 2351SOL    HW118689   3.902   2.820   8.682 -1.4587 -1.3434  0.3416
 2351SOL    HW218690   3.861   2.961   8.650  1.6502  0.1510 -0.1895
 2352SOL     OW18691   0.356   4.602   5.169  0.7759  0.4346 -0.0457
 2352SOL    HW118692   0.292   4.533   5.186  0.3243  1.6738  3.3890
 2352SOL    HW218693   0.326   4.660   5.239 -0.0852 -1.7997  1.4690
 2353SOL     OW18694   2.367   1.141   3.572 -0.1548 -0.5053 -0.2680
 2353SOL    HW118695   2.318   1.221   3.552 -0.3762 -0.4777  0.3945
 2353SOL    HW218696   2.362   1.108   3.482  0.6602 -0.6885 -0.2403
 2354SOL     OW18697   2.226   0.997   1.257 -0.0983 -0.0338  0.3405
 2354SOL    HW118698   2.186   1.012   1.342  0.1921  2.0597  0.1274
 2354SOL    HW218699   2.225   0.902   1.245 -0.2035  0.2026 -1.5305
 2355SOL     OW18700   2.494   4.193   3.300 -0.4112 -0.4360  0.2583
 2355SOL    HW118701   2.584   4.220   3.315 -0.0996 -2.0155  1.1389
 2355SOL    HW218702   2.505   4.171   3.207 -0.7112 -2.0729  0.6151
 2356SOL     OW18703   3.911   1.559   2.960 -0.1967 -0.0595  0.3478
 2356SOL    HW118704   3.934   1.590   2.872  0.1087  0.7859  0.7304
 2356SOL    HW218705   3.883   1.472   2.931 -0.5994 -0.2973  1.4574
 2357SOL     OW18706   3.938   3.028   1.017 -0.1029 -0.9431  0.3759
 2357SOL    HW118707   3.897   3.008   1.101  0.4011  3.9712  1.8120
 2357SOL    HW218708   3.898   2.970   0.953 -2.2912 -1.2586  2.0154
 2358SOL     OW18709   2.402   2.517   2.730  0.3394 -0.4354  0.0299
 2358SOL    HW118710   2.431   2.558   2.812 -1.8351 -0.4467  0.8172
 2358SOL    HW218711   2.431   2.570   2.656  0.9004  0.7648  1.1020
 2359SOL     OW18712   3.042   2.841  17.139 -0.2655  0.5159 -0.2063
 2359SOL    HW118713   3.046   2.761  17.191 -2.8389  0.1945 -0.4878
 2359SOL    HW218714   2.947   2.835  17.125 -0.3975 -1.1682  1.3871
 2360SOL     OW18715   2.669   2.372   5.543 -0.2612  0.1239  0.5939
 2360SOL    HW118716   2.586   2.411   5.514 -0.1167 -0.1494 -0.1693
 2360SOL    HW218717   2.673   2.293   5.489 -2.1093 -2.2757  3.9066
 2361SOL     OW18718   0.865   3.364   0.457 -0.1248  0.1059  0.5496
 2361SOL    HW118719   0.946   3.313   0.452 -0.3824  0.0347 -3.3756
 2361SOL    HW218720   0.848   3.387   0.365  0.8577 -0.0659  0.3281
 2362SOL     OW18721   3.199   3.232  15.777 -0.4471 -0.2569 -0.3979
 2362SOL    HW118722   3.274   3.280  15.742  0.3298  0.0374  1.6377
 2362SOL    HW218723   3.142   3.308  15.787 -0.5042 -0.4432  0.7275
 2363SOL     OW18724   3.815   3.071  15.481 -0.4157 -0.0209  0.1740
 2363SOL    HW118725   3.807   3.144  15.421 -1.7178  0.8823  1.4477
 2363SOL    HW218726   3.889   3.020  15.447 -0.8867  0.7460 -1.9909
 2364SOL     OW18727   0.687   4.646  15.700 -0.1367 -0.4880  0.3920
 2364SOL    HW118728   0.632   4.711  15.745 -0.4290  0.3560 -1.1908
 2364SOL    HW218729   0.640   4.660  15.618  0.5688  2.8586  0.5592
 2365SOL     OW18730   0.092   3.714   7.758  0.2819  0.0371 -0.2268
 2365SOL    HW118731   0.165   3.737   7.815 -0.9115 -1.2011  1.8032
 2365SOL    HW218732   0.141   3.671   7.688 -0.0321  2.9314 -2.2287
 2366SOL     OW18733   2.541   2.944  17.028 -0.2547 -0.8850 -0.1164
 2366SOL    HW118734   2.534   2.954  16.934 -1.3860  3.2215  0.4320
 2366SOL    HW218735   2.451   2.962  17.054  0.1627 -0.5956  1.1365
 2367SOL     OW18736   2.092   0.561   2.196 -0.3632  0.2790  0.2328
 2367SOL    HW118737   2.045   0.560   2.279 -1.5992  0.0209 -0.4818
 2367SOL    HW218738   2.094   0.468   2.175  1.3554  0.7224 -1.5983
 2368SOL     OW18739   1.721   2.217   6.169 -0.0309  0.3260 -0.1477
 2368SOL    HW118740   1.755   2.255   6.250  3.4548 -1.4033 -0.7747
 2368SOL    HW218741   1.637   2.260   6.155 -0.5749  0.1429  2.5562
 2369SOL     OW18742   2.237   0.293   6.499  0.3616 -0.8891  0.0650
 2369SOL    HW118743   2.287   0.211   6.502  1.3633 -0.2376  1.7064
 2369SOL    HW218744   2.174   0.279   6.429  0.2775 -3.4268  0.6392
 2370SOL     OW18745   3.394   2.911  16.597 -0.4117 -0.0329  0.0538
 2370SOL    HW118746   3.340   2.958  16.533  0.0613 -1.7680 -1.6468
 2370SOL    HW218747   3.359   2.953  16.675  1.2674  0.8246  0.3239
 2371SOL     OW18748   3.393   2.317  13.531  0.4211  0.7520  0.0902
 2371SOL    HW118749   3.371   2.338  13.440  0.6777 -0.5424 -0.2671
 2371SOL    HW218750   3.485   2.344  13.538 -0.5469  3.4332  2.6349
 2372SOL     OW18751   3.147   2.346   2.822 -0.3183 -0.6449 -0.2340
 2372SOL    HW118752   3.177   2.418   2.878 -1.6767  0.6908 -1.1955
 2372SOL    HW218753   3.217   2.282   2.828 -1.0279 -1.4288 -0.3633
 2373SOL     OW18754   4.541   1.138  13.130  0.8928  0.5411 -0.0553
 2373SOL    HW118755   4.621   1.118  13.082  0.8709  0.4116 -0.0356
 2373SOL    HW218756   4.577   1.197  13.197  0.0301  1.0855 -0.0761
 2374SOL     OW18757   0.780   3.661   6.246  0.2044  0.3948  0.2425
 2374SOL    HW118758   0.783   3.722   6.319  0.5850  1.1762 -0.4299
 2374SOL    HW218759   0.857   3.612   6.274 -0.2042 -0.9092 -0.8895
 2375SOL     OW18760   1.532   0.013   6.273  0.4143  0.2610 -0.3714
 2375SOL    HW118761   1.517   4.716   6.362 -1.0576  0.3197 -0.5956
 2375SOL    HW218762   1.448   4.721   6.236  0.5459 -2.0784  1.0623
 2376SOL     OW18763   2.914   2.984  15.045  0.1004 -0.1437 -0.6237
 2376SOL    HW118764   2.971   3.040  15.097  0.4888  0.7278 -1.9805
 2376SOL    HW218765   2.977   2.948  14.982 -0.7951 -0.7280 -1.1885
 2377SOL     OW18766   3.306   0.698   0.402 -0.0971  0.0906  0.2587
 2377SOL    HW118767   3.357   0.751   0.341  0.7566 -1.5374 -0.4436
 2377SOL    HW218768   3.363   0.623   0.418  1.1635  1.5032  2.3131
 2378SOL     OW18769   2.683   0.118  10.221  0.2938  0.6289  0.0944
 2378SOL    HW118770   2.701   0.026  10.240 -0.8978  1.0491  3.4583
 2378SOL    HW218771   2.771   0.151  10.206  0.4113 -0.0866 -0.7622
 2379SOL     OW18772   0.645   1.787   8.295  0.0231  0.3089 -0.2753
 2379SOL    HW118773   0.720   1.844   8.276  0.5495  0.4055  2.0347
 2379SOL    HW218774   0.588   1.833   8.356 -1.7246 -2.5685  0.2470
 2380SOL     OW18775   0.794   1.028  11.205 -0.3516 -0.5678  0.1961
 2380SOL    HW118776   0.754   1.087  11.269 -0.6509 -1.1561  0.5540
 2380SOL    HW218777   0.782   0.944  11.248  0.0211 -0.1024  1.2075
 2381SOL     OW18778   2.205   2.306  17.345 -0.2429  0.0590 -0.7321
 2381SOL    HW118779   2.267   2.313  17.272  0.9418  2.3900  0.5131
 2381SOL    HW218780   2.138   2.287  17.279  0.0422  0.6516 -1.1989
 2382SOL     OW18781   1.959   3.370   7.739 -0.0786  0.2514  0.4833
 2382SOL    HW118782   1.990   3.296   7.792 -1.9812 -0.0328  1.1869
 2382SOL    HW218783   1.873   3.340   7.709  1.2841 -2.7459 -0.3904
 2383SOL     OW18784   3.864   0.479   3.239  0.5257  0.4333  0.2210
 2383SOL    HW118785   3.812   0.440   3.309  1.1386  0.1145  0.4885
 2383SOL    HW218786   3.901   0.560   3.274 -2.0547  1.2324  1.1100
 2384SOL     OW18787   4.466   1.585   8.907  0.2845  0.0844  0.3423
 2384SOL    HW118788   4.438   1.654   8.846 -0.0139  0.1587  0.5624
 2384SOL    HW218789   4.521   1.621   8.976  0.4023 -0.7654  0.6919
 2385SOL     OW18790   4.626   4.729  12.717  0.3137  0.4932  0.4589
 2385SOL    HW118791   4.561   4.684  12.663  0.7198  1.0784 -0.5292
 2385SOL    HW218792   4.623   4.676  12.796 -0.0141 -0.8739 -0.4765
 2386SOL     OW18793   1.732   4.689   8.098 -0.2280 -0.2637 -0.8956
 2386SOL    HW118794   1.723   4.634   8.176 -1.7251  0.3286 -0.6438
 2386SOL    HW218795   1.798   4.640   8.048  2.3467 -0.6119  2.8220
 2387SOL     OW18796   1.738   2.336   0.279 -0.1817 -0.1618 -0.0815
 2387SOL    HW118797   1.731   2.294   0.193 -1.6498 -0.3534  0.1278
 2387SOL    HW218798   1.650   2.371   0.289  0.5820  1.6431  0.2923
 2388SOL     OW18799   1.593   2.838   0.962  0.6009 -0.2967 -0.4113
 2388SOL    HW118800   1.510   2.876   0.932  0.9517  1.1786  0.4541
 2388SOL    HW218801   1.567   2.758   1.008 -1.3191 -0.0091 -0.9982
 2389SOL     OW18802   4.170   3.570   8.536  0.3700  0.0751 -0.1543
 2389SOL    HW118803   4.108   3.595   8.604  0.5763 -1.1281  0.4803
 2389SOL    HW218804   4.128   3.618   8.465 -0.2837 -0.5536 -0.1986
 2390SOL     OW18805   0.731   0.587   3.718 -0.0628 -0.0743 -0.9967
 2390SOL    HW118806   0.787   0.519   3.755  0.7555  2.5144  2.4737
 2390SOL    HW218807   0.643   0.559   3.744  0.5487  0.7508  1.9865
 2391SOL     OW18808   2.225   2.741   8.877  0.9009 -0.6355  0.3509
 2391SOL    HW118809   2.238   2.836   8.872  0.3978 -0.5387  0.9676
 2391SOL    HW218810   2.307   2.703   8.844 -0.3599 -2.5594 -0.5558
 2392SOL     OW18811   4.711   1.465   6.261  0.4210  0.4663  0.2045
 2392SOL    HW118812   0.040   1.525   6.224 -0.3683  0.6996 -0.7912
 2392SOL    HW218813   4.679   1.503   6.343 -1.6874  1.7058 -1.2096
 2393SOL     OW18814   1.334   2.221  12.529 -0.8523 -0.0942  0.3155
 2393SOL    HW118815   1.276   2.188  12.461  0.1436  0.4175 -0.7694
 2393SOL    HW218816   1.421   2.226  12.489  0.0509  2.5977  2.6508
 2394SOL     OW18817   2.751   1.807   2.735  0.0372 -0.6134 -0.1157
 2394SOL    HW118818   2.659   1.830   2.744 -0.3479 -0.7829 -3.6143
 2394SOL    HW218819   2.767   1.859   2.656 -0.2581 -0.7275 -0.2493
 2395SOL     OW18820   0.306   4.641   2.495 -0.0352  0.2033  0.6488
 2395SOL    HW118821   0.313   4.551   2.528  1.4581  0.2827  0.5488
 2395SOL    HW218822   0.373   4.641   2.427  1.2909  1.1577  1.9550
 2396SOL     OW18823   2.420   4.704   4.222  0.0312 -0.3147  0.0672
 2396SOL    HW118824   2.459   0.007   4.143 -0.2944 -0.0525  0.0340
 2396SOL    HW218825   2.352   0.033   4.242  0.4266 -0.0191  0.4635
 2397SOL     OW18826   4.089   0.036   6.973 -0.0910  0.0688 -0.2233
 2397SOL    HW118827   4.052   0.124   6.977  3.5520  1.6862 -2.0059
 2397SOL    HW218828   4.096   0.017   6.879 -0.1702  0.2751 -0.2691
 2398SOL     OW18829   3.047   0.054   6.146 -0.5172  0.1022 -0.4530
 2398SOL    HW118830   2.991   0.102   6.085  0.0746 -1.1340 -1.9808
 2398SOL    HW218831   3.022   0.087   6.232  0.8904 -1.6941  0.6523
 2399SOL     OW18832   3.253   1.884   0.180  0.0613 -0.2239  0.7755
 2399SOL    HW118833   3.165   1.909   0.152  1.4683 -1.2154 -4.4824
 2399SOL    HW218834   3.274   1.947   0.249  0.2575  1.7832 -1.1205
 2400SOL     OW18835   3.960   3.478   8.285 -0.6466  0.0957  0.4842
 2400SOL    HW118836   3.893   3.441   8.228  0.5693 -0.9084 -0.2651
 2400SOL    HW218837   3.914   3.506   8.365 -2.2091  1.4519 -0.9006
 2401SOL     OW18838   4.125   3.544   7.666  0.0893 -0.3164 -0.7040
 2401SOL    HW118839   4.173   3.462   7.659  0.3786 -0.3083  1.2079
 2401SOL    HW218840   4.085   3.536   7.753 -2.0360 -0.8788 -1.7304
 2402SOL     OW18841   0.678   2.909   9.792  0.1564 -0.4765  0.2685
 2402SOL    HW118842   0.667   2.995   9.833  0.1393 -0.0254 -0.6922
 2402SOL    HW218843   0.717   2.938   9.710 -2.0672  1.2535 -0.1699
 2403SOL     OW18844   1.496   1.044  14.927 -0.1896 -0.3349 -0.1744
 2403SOL    HW118845   1.548   1.021  14.850 -1.1394  0.2657 -0.9850
 2403SOL    HW218846   1.548   1.118  14.956 -0.8628  0.4735 -1.0375
 2404SOL     OW18847   3.294   4.392   2.346 -0.4032 -0.7126  0.1763
 2404SOL    HW118848   3.378   4.393   2.392 -0.1287  0.5819 -0.3572
 2404SOL    HW218849   3.243   4.357   2.419  0.9504  0.3584  1.6513
 2405SOL     OW18850   3.082   3.938   6.305 -0.2127 -0.5078  0.0244
 2405SOL    HW118851   3.090   3.891   6.223 -0.4664  0.5807 -0.6257
 2405SOL    HW218852   3.139   4.009   6.275 -0.6640 -0.1158  0.0978
 2406SOL     OW18853   1.771   1.204   5.596  0.1265 -0.2757  0.0464
 2406SOL    HW118854   1.781   1.249   5.513  1.1992 -0.8537 -0.1330
 2406SOL    HW218855   1.859   1.204   5.633  0.0962 -0.8985  0.1208
 2407SOL     OW18856   1.328   2.003   3.583  0.1151 -0.0079 -0.1908
 2407SOL    HW118857   1.312   1.918   3.542 -0.7888  0.2984 -0.4580
 2407SOL    HW218858   1.364   1.979   3.669  1.1341  2.8302  0.1787
 2408SOL     OW18859   3.659   0.604   8.696 -0.4717  0.1930  0.0624
 2408SOL    HW118860   3.661   0.687   8.744  0.5997  0.1626  0.0830
 2408SOL    HW218861   3.723   0.553   8.745 -0.4075  0.8021  0.6264
 2409SOL     OW18862   2.541   2.638   3.460 -0.4115  0.2133 -0.2440
 2409SOL    HW118863   2.479   2.685   3.404  2.5650  3.3373 -0.9022
 2409SOL    HW218864   2.612   2.701   3.451  0.2014 -0.4858 -0.3555
 2410SOL     OW18865   0.354   3.429   4.225  0.1776  0.1172  0.2530
 2410SOL    HW118866   0.406   3.416   4.146 -0.9041 -0.5563 -0.3383
 2410SOL    HW218867   0.275   3.381   4.202 -0.3333  1.1190 -0.0836
 2411SOL     OW18868   1.953   1.163  10.457  0.0706 -0.4156 -0.0990
 2411SOL    HW118869   2.017   1.115  10.405  0.6037  1.2813 -1.0118
 2411SOL    HW218870   1.924   1.108  10.529  0.8886  2.9252  2.7652
 2412SOL     OW18871   2.658   1.172   6.493  0.0335 -0.0511  0.4419
 2412SOL    HW118872   2.684   1.123   6.572 -0.4843 -1.5302 -0.3072
 2412SOL    HW218873   2.745   1.185   6.455  0.7564 -0.6373  1.8867
 2413SOL     OW18874   1.664   2.711   8.425 -0.4681  0.5437 -0.6468
 2413SOL    HW118875   1.621   2.631   8.397 -2.2916  0.7308  1.5809
 2413SOL    HW218876   1.691   2.696   8.516  1.2368  1.0313 -1.0681
 2414SOL     OW18877   2.284   2.803   9.302  0.2564  0.1022  0.1762
 2414SOL    HW118878   2.315   2.894   9.302  0.0384  0.1800  0.9625
 2414SOL    HW218879   2.330   2.764   9.376 -0.2786 -1.7900 -0.4849
 2415SOL     OW18880   2.726   4.339   6.894 -0.8609  0.2283  0.6279
 2415SOL    HW118881   2.657   4.313   6.955 -1.4228 -0.4765 -0.2852
 2415SOL    HW218882   2.796   4.343   6.958  2.1402 -2.6590 -2.4904
 2416SOL     OW18883   1.458   1.150   1.688 -0.2421  0.0183  0.3600
 2416SOL    HW118884   1.528   1.154   1.623 -1.6735  0.0500 -1.1751
 2416SOL    HW218885   1.388   1.100   1.646  2.4046 -1.8735 -1.7553
 2417SOL     OW18886   2.072   1.030   6.404 -0.0148 -0.5746  0.6453
 2417SOL    HW118887   1.976   1.026   6.404 -0.0533  0.2330  0.5534
 2417SOL    HW218888   2.103   0.979   6.479  0.1979 -1.4072 -0.0147
 2418SOL     OW18889   3.247   2.094  13.147 -0.2710 -0.1494 -0.0324
 2418SOL    HW118890   3.176   2.038  13.115  0.5265  0.1825 -2.3749
 2418SOL    HW218891   3.215   2.183  13.135  2.1095  0.8126  0.8036
 2419SOL     OW18892   2.412   0.910   7.377  0.5481 -0.2062 -0.6825
 2419SOL    HW118893   2.329   0.866   7.358  0.3680  0.3682 -1.2340
 2419SOL    HW218894   2.414   0.893   7.471  2.2162  0.9324 -0.5039
 2420SOL     OW18895   2.722   3.601  11.650  0.4389 -0.1474  0.3675
 2420SOL    HW118896   2.807   3.596  11.695  0.5816 -1.6418 -0.0603
 2420SOL    HW218897   2.728   3.548  11.570  1.5211 -2.9110  2.3153
 2421SOL     OW18898   4.588   1.384   4.125  0.1008 -0.5603  1.0481
 2421SOL    HW118899   4.609   1.292   4.109  0.9400  0.2643 -2.5703
 2421SOL    HW218900   4.537   1.373   4.206 -0.7999  2.7765  0.9419
 2422SOL     OW18901   4.176   0.672   2.739 -0.1373 -0.6717 -0.1292
 2422SOL    HW118902   4.234   0.604   2.774  2.0494  0.2548 -1.9382
 2422SOL    HW218903   4.195   0.742   2.802 -1.8539 -1.2486  1.0133
 2423SOL     OW18904   0.584   4.657   3.421  0.0481 -0.0158  0.0265
 2423SOL    HW118905   0.511   4.712   3.393  1.4941  1.7833 -0.1679
 2423SOL    HW218906   0.666   4.696   3.390  0.6176 -0.5019  0.9027
 2424SOL     OW18907   3.313   4.123   8.781  0.4857  0.5851  0.4790
 2424SOL    HW118908   3.219   4.134   8.793  0.4447 -0.3026  0.9824
 2424SOL    HW218909   3.320   4.028   8.771 -0.7803  0.4486  0.9854
 2425SOL     OW18910   3.553   1.006  13.251  0.9050 -0.1392  0.2436
 2425SOL    HW118911   3.625   1.005  13.188 -0.0212  1.1916 -0.8545
 2425SOL    HW218912   3.484   0.978  13.190  0.7895  2.7655 -0.9983
 2426SOL     OW18913   2.805   1.905  10.654 -0.4517 -0.3540  0.3020
 2426SOL    HW118914   2.770   1.833  10.602  0.4112  0.8082 -1.8692
 2426SOL    HW218915   2.722   1.921  10.701 -1.4402  1.6046 -2.1351
 2427SOL     OW18916   1.781   2.551   4.672  0.4021 -0.2504 -0.8497
 2427SOL    HW118917   1.695   2.560   4.714  0.3996 -3.2499 -0.2292
 2427SOL    HW218918   1.757   2.538   4.581 -1.4654  0.2266 -0.4306
 2428SOL     OW18919   2.635   0.588   3.766  0.6882 -0.0498  0.0554
 2428SOL    HW118920   2.730   0.597   3.775  0.6288 -0.4544  1.0493
 2428SOL    HW218921   2.619   0.578   3.859  1.5806  0.0068  0.2189
 2429SOL     OW18922   3.967   2.701   1.895  0.8272  0.2541  0.4084
 2429SOL    HW118923   3.873   2.712   1.910  0.4302 -1.1774 -1.1390
 2429SOL    HW218924   3.997   2.791   1.909  0.7937  0.6926 -2.5224
 2430SOL     OW18925   0.481   3.373   2.287  0.3049  0.0018  0.1137
 2430SOL    HW118926   0.520   3.401   2.204  1.4484  0.0078  0.6514
 2430SOL    HW218927   0.410   3.437   2.297  0.2591 -0.1299  0.6375
 2431SOL     OW18928   1.729   2.070   9.115 -0.8148  0.1864 -0.8176
 2431SOL    HW118929   1.683   2.097   9.194 -1.0234 -2.1352 -0.1260
 2431SOL    HW218930   1.820   2.074   9.143 -1.5674  1.6791  1.4303
 2432SOL     OW18931   0.876   0.985   0.680 -0.1496  0.6810 -0.2976
 2432SOL    HW118932   0.812   0.916   0.664  0.2357  0.0429  0.9018
 2432SOL    HW218933   0.939   0.932   0.729 -0.9878  0.3240  0.3741
 2433SOL     OW18934   2.019   1.492   8.119 -0.2040  0.0959 -0.1430
 2433SOL    HW118935   2.046   1.583   8.108  2.6638 -0.9811 -1.9204
 2433SOL    HW218936   1.942   1.476   8.065 -1.3565  1.6073  1.0518
 2434SOL     OW18937   3.928   2.509  11.416 -0.2101  0.2721  0.0140
 2434SOL    HW118938   3.855   2.488  11.474  0.8047 -0.9371  0.8450
 2434SOL    HW218939   3.952   2.600  11.432 -1.3376  0.9128 -1.9389
 2435SOL     OW18940   3.139   4.406   5.133 -0.1108  0.0872  0.2266
 2435SOL    HW118941   3.093   4.346   5.191 -0.4341 -1.6605 -1.8381
 2435SOL    HW218942   3.223   4.370   5.107 -1.1974 -1.4050 -1.1658
 2436SOL     OW18943   0.824   0.887   1.094 -0.5490  0.2623  0.2361
 2436SOL    HW118944   0.901   0.843   1.058 -1.7889 -0.0304 -2.0719
 2436SOL    HW218945   0.876   0.964   1.118 -0.4997  0.1204  0.5821
 2437SOL     OW18946   2.790   0.333  15.491  0.0160 -0.6198  0.2518
 2437SOL    HW118947   2.810   0.417  15.449  1.3654 -0.6305  0.8956
 2437SOL    HW218948   2.701   0.320  15.456 -0.0810 -0.1667  0.3294
 2438SOL     OW18949   0.900   2.870   4.372 -0.2952  0.5202  0.0911
 2438SOL    HW118950   0.949   2.814   4.432 -1.8273  1.2954  2.0827
 2438SOL    HW218951   0.977   2.894   4.320  0.0410 -1.3248 -0.2542
 2439SOL     OW18952   4.515   3.067   8.869  0.2161 -0.2834  0.7725
 2439SOL    HW118953   4.566   3.029   8.797  2.7426  3.2172  0.6867
 2439SOL    HW218954   4.585   3.084   8.932 -0.0597  0.9144  0.7645
 2440SOL     OW18955   0.411   0.756   7.186  0.1759  0.1840  0.0335
 2440SOL    HW118956   0.392   0.670   7.147 -1.5699  0.4140  0.3465
 2440SOL    HW218957   0.353   0.804   7.127  0.3953 -0.2639 -0.5583
 2441SOL     OW18958   2.863   0.317  16.658 -0.1253 -0.1075  0.0197
 2441SOL    HW118959   2.925   0.245  16.674 -1.5572 -1.5548 -0.8311
 2441SOL    HW218960   2.908   0.397  16.633  0.8169 -0.6264  0.0312
 2442SOL     OW18961   1.676   0.336   6.269 -0.1378  0.2982 -0.6438
 2442SOL    HW118962   1.707   0.359   6.182 -0.4133 -0.0737 -0.8405
 2442SOL    HW218963   1.753   0.290   6.303 -0.3109  0.7528  0.3842
 2443SOL     OW18964   4.436   2.745   6.634  0.3388 -0.2119  0.3945
 2443SOL    HW118965   4.384   2.803   6.691 -0.7772  0.5052 -1.3407
 2443SOL    HW218966   4.527   2.767   6.653  0.1830  1.5773 -0.9190
 2444SOL     OW18967   3.646   0.941   4.535  0.0948  0.6336  0.8703
 2444SOL    HW118968   3.709   0.979   4.474 -2.4568  0.6548 -1.7424
 2444SOL    HW218969   3.598   0.876   4.483  0.4660  1.4917 -0.5321
 2445SOL     OW18970   3.932   1.390  13.552 -0.4538  0.0579  0.1687
 2445SOL    HW118971   3.996   1.371  13.620 -1.2201  0.5643  1.0397
 2445SOL    HW218972   3.864   1.326  13.574 -0.8515  0.4792  0.1872
 2446SOL     OW18973   3.497   2.993   0.773 -0.1202  0.2306 -0.3161
 2446SOL    HW118974   3.478   3.077   0.815  0.0918  0.2631 -0.2868
 2446SOL    HW218975   3.583   2.975   0.810 -0.9994 -1.6272  0.8208
 2447SOL     OW18976   4.501   1.109   6.260 -0.1581 -0.0344  0.3969
 2447SOL    HW118977   4.472   1.142   6.345  0.4600  0.4084  0.4380
 2447SOL    HW218978   4.584   1.068   6.286  0.1408  0.6868  0.5668
 2448SOL     OW18979   3.643   0.881   0.406  0.0709  0.1160  0.5689
 2448SOL    HW118980   3.572   0.935   0.440  0.8871  1.9221 -0.5939
 2448SOL    HW218981   3.641   0.898   0.311 -0.6536  0.5841  0.6710
 2449SOL     OW18982   2.381   1.541   2.891 -0.1386 -0.3718 -0.1611
 2449SOL    HW118983   2.433   1.517   2.967  1.9657  1.6605 -0.9462
 2449SOL    HW218984   2.343   1.459   2.861 -0.9171  0.0585 -0.3433
 2450SOL     OW18985   4.661   2.120   6.694  0.5900  0.5036  0.0765
 2450SOL    HW118986   4.725   2.184   6.723 -0.9568  1.2040  1.9631
 2450SOL    HW218987   4.724   2.048   6.688 -0.4179 -0.4825  1.1758
 2451SOL     OW18988   0.589   0.862   6.966 -0.0818 -0.2350  0.3069
 2451SOL    HW118989   0.570   0.956   6.969  1.5152  0.1215 -1.4767
 2451SOL    HW218990   0.540   0.840   7.046 -1.8656 -0.0017 -0.7210
 2452SOL     OW18991   3.717   0.593   3.798 -0.2576  0.6836 -0.2777
 2452SOL    HW118992   3.736   0.686   3.810  2.8739 -0.0680  0.4832
 2452SOL    HW218993   3.751   0.571   3.712 -1.1976  1.8238 -0.9496
 2453SOL     OW18994   0.722   0.969   4.199  0.4904  0.2090  0.4626
 2453SOL    HW118995   0.751   0.930   4.117  1.5803  1.2751  0.3551
 2453SOL    HW218996   0.661   0.904   4.235  0.3356  0.8244  1.2969
 2454SOL     OW18997   2.746   4.273   5.168 -0.4160 -0.2041 -0.2298
 2454SOL    HW118998   2.784   4.252   5.253 -1.4691 -0.1101  0.2657
 2454SOL    HW218999   2.729   4.367   5.173  1.5173  0.1316 -0.1551
 2455SOL     OW19000   1.815   3.168   6.355 -0.0322 -0.3051  0.3744
 2455SOL    HW119001   1.727   3.204   6.350  0.2569  0.4623  0.8558
 2455SOL    HW219002   1.843   3.190   6.444  0.9370 -0.7402  0.1802
 2456SOL     OW19003   3.607   3.039   8.038  0.6348  0.4742  0.2380
 2456SOL    HW119004   3.548   2.965   8.051 -0.4275  1.3677  0.4419
 2456SOL    HW219005   3.552   3.103   7.993 -0.2816 -0.8318 -0.5028
 2457SOL     OW19006   4.702   2.889   4.332  0.0714  0.2921 -0.5297
 2457SOL    HW119007   4.698   2.964   4.392  0.0738  0.8500 -1.2307
 2457SOL    HW219008   4.611   2.881   4.304 -0.5626  1.0534  1.2891
 2458SOL     OW19009   2.642   1.251  15.228 -0.3434 -0.4818 -0.1533
 2458SOL    HW119010   2.700   1.254  15.304 -1.0766  2.8492  0.2478
 2458SOL    HW219011   2.557   1.261  15.269 -0.3914 -3.0115  0.3772
 2459SOL     OW19012   1.709   2.027   0.740  0.0218 -0.5277  0.2061
 2459SOL    HW119013   1.639   1.992   0.684  0.5427  0.1649 -0.8855
 2459SOL    HW219014   1.749   1.952   0.785  0.5451  0.8664  2.0528
 2460SOL     OW19015   3.746   0.297  15.856  0.2727 -0.0978  0.0647
 2460SOL    HW119016   3.789   0.369  15.903  0.2087  1.1110 -1.7644
 2460SOL    HW219017   3.825   0.244  15.867 -0.8701 -1.2889  2.6466
 2461SOL     OW19018   4.172   2.357   7.726 -0.3102 -0.0178  0.1934
 2461SOL    HW119019   4.109   2.324   7.790 -0.4255 -0.2271 -0.0297
 2461SOL    HW219020   4.121   2.396   7.655 -3.6015 -2.7711  1.0711
 2462SOL     OW19021   2.746   3.755  17.071 -0.2174 -0.1933 -0.4898
 2462SOL    HW119022   2.839   3.751  17.045 -0.2057 -0.8511 -0.3357
 2462SOL    HW219023   2.751   3.683  17.134 -0.7753 -0.3464 -0.6188
 2463SOL     OW19024   0.858   0.271   0.482 -0.4145 -0.1126 -0.7081
 2463SOL    HW119025   0.769   0.240   0.470  0.1747 -1.9199 -0.3916
 2463SOL    HW219026   0.896   0.197   0.530  2.5720  0.8848 -1.5199
 2464SOL     OW19027   0.180   3.180   8.062 -0.0413 -0.2121 -0.0850
 2464SOL    HW119028   0.193   3.266   8.022 -0.2281 -0.3467 -0.4324
 2464SOL    HW219029   0.265   3.141   8.040 -0.8650 -2.4680  0.7828
 2465SOL     OW19030   2.084   2.580   8.297 -0.3120 -0.3474 -0.0053
 2465SOL    HW119031   2.148   2.651   8.311  0.5507 -1.3884  1.3152
 2465SOL    HW219032   2.044   2.574   8.384 -1.6351 -1.2186 -0.6919
 2466SOL     OW19033   0.088   3.053  13.084 -0.0432 -0.1864  0.2538
 2466SOL    HW119034   0.112   3.034  13.175  1.1545  0.2410  0.0313
 2466SOL    HW219035   0.109   3.146  13.092  0.6012 -0.3905  0.9201
 2467SOL     OW19036   3.505   3.244   6.774  0.1030 -0.4548  0.3262
 2467SOL    HW119037   3.560   3.302   6.826  0.5216 -0.7139  0.1749
 2467SOL    HW219038   3.425   3.296   6.764  0.5425 -0.3639 -2.7731
 2468SOL     OW19039   1.589   2.013   5.998  0.5650 -0.1169 -0.2227
 2468SOL    HW119040   1.497   2.030   6.019  0.6495  0.3360 -0.2071
 2468SOL    HW219041   1.628   2.098   6.020 -0.0294  0.0168  0.3368
 2469SOL     OW19042   4.402   0.152   2.253  0.0743  0.1095 -0.5780
 2469SOL    HW119043   4.481   0.203   2.237 -1.3151  1.8708 -1.7142
 2469SOL    HW219044   4.422   0.123   2.342 -1.9144 -0.2602 -0.2563
 2470SOL     OW19045   0.687   4.427   2.312 -0.2163  0.0955  0.2534
 2470SOL    HW119046   0.775   4.412   2.346  0.8391 -1.6381 -3.2224
 2470SOL    HW219047   0.655   4.339   2.292  0.7531  0.0151 -0.9589
 2471SOL     OW19048   2.841   0.080  16.336  0.3783 -0.2747  0.0116
 2471SOL    HW119049   2.833   0.050  16.427 -1.6909 -2.9700 -1.0453
 2471SOL    HW219050   2.883   0.164  16.355 -3.3920  2.0788 -2.1888
 2472SOL     OW19051   1.729   0.004   1.518 -0.1339 -0.6259  0.4259
 2472SOL    HW119052   1.720   0.003   1.613 -0.1091  0.8988  0.4419
 2472SOL    HW219053   1.820   0.027   1.497  0.4145 -2.5487  0.7637
 2473SOL     OW19054   2.253   0.739   5.114  0.2785  0.3786  0.4301
 2473SOL    HW119055   2.166   0.779   5.110  1.1994  2.3826  0.4494
 2473SOL    HW219056   2.275   0.724   5.022  0.8160  1.8025  0.3292
 2474SOL     OW19057   4.154   4.277   2.084 -0.2746 -0.3228  0.7283
 2474SOL    HW119058   4.155   4.331   2.005 -1.7036 -0.4656  0.6230
 2474SOL    HW219059   4.067   4.240   2.098  0.1174 -0.7347  2.0733
 2475SOL     OW19060   0.571   1.458   5.466  0.1624  0.1071  0.1011
 2475SOL    HW119061   0.561   1.503   5.382  0.6309 -1.3134 -0.7181
 2475SOL    HW219062   0.648   1.406   5.442 -1.7153 -1.8103 -1.8020
 2476SOL     OW19063   0.282   2.371   7.978 -0.1545 -0.0997  0.0136
 2476SOL    HW119064   0.331   2.358   7.897 -0.6891  0.5524 -0.4152
 2476SOL    HW219065   0.191   2.368   7.947 -0.4374  0.7739  0.7635
 2477SOL     OW19066   0.324   3.814   1.949 -0.2700 -0.4026 -0.5335
 2477SOL    HW119067   0.372   3.771   2.020  1.1529  2.3449  0.1419
 2477SOL    HW219068   0.261   3.744   1.931  0.0261 -0.5797 -0.8867
 2478SOL     OW19069   2.591   3.562   6.538 -0.3498  0.0274  0.5169
 2478SOL    HW119070   2.685   3.562   6.519 -0.4932 -1.1808 -0.1576
 2478SOL    HW219071   2.578   3.470   6.558 -1.2706 -0.5273 -2.6219
 2479SOL     OW19072   2.316   3.095  11.081  0.6608  0.4012  0.9430
 2479SOL    HW119073   2.315   3.131  11.169 -0.8789  3.1134 -0.1903
 2479SOL    HW219074   2.388   3.032  11.082 -1.0476 -1.5810 -0.7709
 2480SOL     OW19075   3.155   2.728   8.464  0.0954  0.2171  0.5201
 2480SOL    HW119076   3.094   2.798   8.442 -2.8467 -2.2888  0.5754
 2480SOL    HW219077   3.102   2.648   8.459  1.9865 -0.8986 -1.4453
 2481SOL     OW19078   3.698   4.359   6.865  0.3461  0.0452  0.5997
 2481SOL    HW119079   3.625   4.414   6.837 -0.2076  0.6744  3.2815
 2481SOL    HW219080   3.770   4.410   6.828 -0.9811  0.8778 -0.8507
 2482SOL     OW19081   2.948   4.102   2.438 -0.0675  0.4115 -0.7132
 2482SOL    HW119082   2.926   4.013   2.466  0.2336 -0.3169 -2.7860
 2482SOL    HW219083   2.993   4.081   2.356  2.5728  0.1164  0.7955
 2483SOL     OW19084   0.448   0.419   6.469 -0.3588  0.5171 -0.3932
 2483SOL    HW119085   0.486   0.403   6.382  0.1214  0.0840 -0.1000
 2483SOL    HW219086   0.501   0.494   6.497 -1.2918  0.1204  2.4383
 2484SOL     OW19087   1.113   0.720  15.324 -0.0869  0.1246  0.2553
 2484SOL    HW119088   1.122   0.666  15.402 -0.3700  0.4980  0.5471
 2484SOL    HW219089   1.168   0.797  15.341  2.7903 -1.9755  0.4874
 2485SOL     OW19090   0.094   0.665   6.665  0.1517  0.0005 -0.0787
 2485SOL    HW119091   0.164   0.679   6.729  1.8084  0.4940 -1.9580
 2485SOL    HW219092   0.137   0.591   6.622  0.5526 -0.6048  1.3912
 2486SOL     OW19093   3.932   1.566   9.309  0.0140  0.1758  0.8631
 2486SOL    HW119094   3.841   1.546   9.328  0.4583 -2.0966  0.5593
 2486SOL    HW219095   3.955   1.632   9.374 -1.8274  2.3326 -0.6630
 2487SOL     OW19096   3.116   4.721   9.975 -0.3402  0.5901 -0.6907
 2487SOL    HW119097   3.037   4.697   9.927  0.1419  0.7531 -1.5626
 2487SOL    HW219098   3.177   4.727   9.901 -1.7786  3.7555 -1.6296
 2488SOL     OW19099   4.538   0.155   6.994  0.0228 -0.0119  0.7112
 2488SOL    HW119100   4.481   0.175   7.068 -2.2900 -3.9955 -0.0250
 2488SOL    HW219101   4.502   0.069   6.975  0.1224 -0.0841  0.8545
 2489SOL     OW19102   2.535   0.951   3.933 -0.5940  0.2361  0.1810
 2489SOL    HW119103   2.532   1.010   3.857  3.3489  0.6573  0.3813
 2489SOL    HW219104   2.628   0.933   3.944 -0.6779  0.9903  2.1364
 2490SOL     OW19105   0.183   1.493  15.226  0.1927  0.3100  0.5475
 2490SOL    HW119106   0.091   1.498  15.202 -0.0934 -1.2985  1.3202
 2490SOL    HW219107   0.203   1.578  15.187  0.9581  0.9725  2.3786
 2491SOL     OW19108   0.576   4.402   3.459 -0.2798  0.3105  0.1697
 2491SOL    HW119109   0.527   4.362   3.387  0.0310 -0.4478  0.3819
 2491SOL    HW219110   0.564   4.496   3.447 -0.8942  0.1606 -0.3773
 2492SOL     OW19111   4.266   3.590  12.677 -0.7731  0.0441 -0.0090
 2492SOL    HW119112   4.246   3.663  12.736  1.3334 -0.1650  0.9397
 2492SOL    HW219113   4.361   3.581  12.670 -0.4446  2.0096  1.9428
 2493SOL     OW19114   0.285   3.255  15.499 -0.2963 -0.4875  0.1035
 2493SOL    HW119115   0.353   3.318  15.521 -0.0199 -0.4613 -0.8455
 2493SOL    HW219116   0.295   3.201  15.578 -0.2569  1.2788  1.2935
 2494SOL     OW19117   4.006   0.886   5.745  0.3154  0.3531 -0.3575
 2494SOL    HW119118   3.966   0.916   5.827  1.2935 -0.1190  0.3056
 2494SOL    HW219119   4.063   0.816   5.779  1.9342  0.6185 -2.5503
 2495SOL     OW19120   3.864   0.467   4.811 -0.2764  0.3262 -0.9061
 2495SOL    HW119121   3.778   0.481   4.851 -0.4800 -0.1614 -1.1808
 2495SOL    HW219122   3.891   0.558   4.799 -1.2806  1.0642  2.3592
 2496SOL     OW19123   3.660   4.193   0.914 -0.5979 -0.5412 -0.2997
 2496SOL    HW119124   3.696   4.226   0.997  0.5170 -0.1601 -0.9274
 2496SOL    HW219125   3.728   4.228   0.856  0.4631 -0.2730  1.0983
 2497SOL     OW19126   1.748   0.871   4.066  0.0681 -0.2909 -0.4977
 2497SOL    HW119127   1.827   0.886   4.118 -0.2475  2.8258 -0.9572
 2497SOL    HW219128   1.767   0.778   4.048  0.6610 -0.0360 -1.1753
 2498SOL     OW19129   3.615   2.038   4.469  0.1972 -0.2988  0.0295
 2498SOL    HW119130   3.616   2.091   4.389 -1.3790  0.6183  0.6156
 2498SOL    HW219131   3.676   2.084   4.527  2.0562 -1.4284 -1.0604
 2499SOL     OW19132   2.319   0.131   1.490  0.0248 -0.3396 -0.3277
 2499SOL    HW119133   2.253   0.073   1.451 -0.4968 -1.2133  1.8549
 2499SOL    HW219134   2.279   0.216   1.506  0.6422  0.3834 -2.6539
 2500SOL     OW19135   1.243   1.713  15.306  0.4434  0.1514  0.4400
 2500SOL    HW119136   1.330   1.684  15.275  0.5904 -1.2472  2.1377
 2500SOL    HW219137   1.272   1.796  15.343  0.3896  1.0314 -1.4685
 2501SOL     OW19138   0.989   2.862   2.814 -0.2265  0.4398 -0.4631
 2501SOL    HW119139   1.068   2.820   2.847 -1.2474  0.1520  1.5812
 2501SOL    HW219140   0.924   2.839   2.880  1.1528 -4.0188 -0.6695
 2502SOL     OW19141   4.201   4.341   6.012 -0.5244  0.0596  0.2720
 2502SOL    HW119142   4.259   4.316   6.084  1.0366  0.1428 -0.9699
 2502SOL    HW219143   4.259   4.390   5.955  0.1272 -2.7192 -1.4281
 2503SOL     OW19144   4.683   4.041   0.122  0.5102  0.2170  0.3797
 2503SOL    HW119145   4.676   4.058   0.028 -1.7756 -2.4256  0.0601
 2503SOL    HW219146   4.670   4.131   0.151  1.9070  0.2156  1.0288
 2504SOL     OW19147   3.967   3.522   2.527 -0.0461 -0.1853 -0.0846
 2504SOL    HW119148   3.922   3.485   2.451 -1.3893  3.9534 -1.3505
 2504SOL    HW219149   4.035   3.575   2.486 -0.0900 -0.5652 -0.6489
 2505SOL     OW19150   3.782   4.159   7.009 -0.5591 -0.3229 -0.2654
 2505SOL    HW119151   3.756   4.236   6.958  0.3175  1.2970  1.7516
 2505SOL    HW219152   3.872   4.160   6.976 -0.0030  1.3803  1.3364
 2506SOL     OW19153   0.242   3.178   9.581  0.0652  0.3336  0.2832
 2506SOL    HW119154   0.200   3.146   9.501  2.2595 -1.7285 -0.0367
 2506SOL    HW219155   0.187   3.250   9.611 -4.0657 -1.4179 -3.1178
 2507SOL     OW19156   4.202   4.622   8.091  0.2346  0.3993  0.2035
 2507SOL    HW119157   4.193   4.605   8.184  0.8240 -0.8537  0.0252
 2507SOL    HW219158   4.141   4.557   8.057  0.5920 -0.4345  1.1666
 2508SOL     OW19159   1.239   2.514   5.440 -0.2940  0.4056 -0.2152
 2508SOL    HW119160   1.244   2.426   5.401  1.6402  0.9857 -1.2815
 2508SOL    HW219161   1.144   2.511   5.446 -0.3106  0.6623 -0.4159
 2509SOL     OW19162   0.015   2.984   7.242 -0.4748  0.4146  0.1371
 2509SOL    HW119163   4.675   2.941   7.280 -0.0312  0.1074  0.6609
 2509SOL    HW219164   0.088   2.937   7.281 -0.5503 -0.8246 -1.2165
 2510SOL     OW19165   2.417   1.434   2.561 -0.1705  0.3514  1.1223
 2510SOL    HW119166   2.323   1.419   2.549 -0.2960  2.7401 -0.8454
 2510SOL    HW219167   2.420   1.390   2.646  2.3701 -1.6557  0.0080
 2511SOL     OW19168   0.986   2.660  17.591 -0.4337 -0.1741  0.4389
 2511SOL    HW119169   0.943   2.647  17.676 -0.8379 -0.6283  0.1684
 2511SOL    HW219170   0.919   2.684  17.527  0.0517  0.4716  0.1748
 2512SOL     OW19171   3.957   3.090   7.352  0.1668 -0.7738 -0.2368
 2512SOL    HW119172   3.893   3.074   7.283 -0.1104  2.2053 -0.6721
 2512SOL    HW219173   3.910   3.037   7.417 -0.4750  0.4955  0.3285
 2513SOL     OW19174   3.664   0.650   3.361  0.1039 -0.4412 -0.1625
 2513SOL    HW119175   3.621   0.717   3.414  0.5364  0.6852 -1.2471
 2513SOL    HW219176   3.595   0.636   3.296 -1.4363  2.0725  0.9295
 2514SOL     OW19177   0.867   1.954   9.410  0.2041 -0.0069 -0.8246
 2514SOL    HW119178   0.842   2.029   9.357 -3.6808 -1.5765 -1.1897
 2514SOL    HW219179   0.855   1.874   9.358  0.5526  0.6324 -1.8705
 2515SOL     OW19180   4.448   4.509   1.865 -0.6247 -0.4472 -0.1894
 2515SOL    HW119181   4.497   4.471   1.937 -0.5694 -1.0156 -0.5289
 2515SOL    HW219182   4.464   4.603   1.874  0.6098 -0.9767  2.9269
 2516SOL     OW19183   2.909   0.303   7.909 -0.6802 -0.5562 -0.3285
 2516SOL    HW119184   2.942   0.352   7.984 -1.3639  1.6515 -1.4772
 2516SOL    HW219185   2.884   0.367   7.842 -2.7465  1.3442  2.2949
 2517SOL     OW19186   1.166   2.056   8.188 -0.3982 -0.1671 -0.4216
 2517SOL    HW119187   1.131   2.122   8.247 -0.9174  0.1102 -1.0334
 2517SOL    HW219188   1.239   2.016   8.234  0.4049  1.7101 -0.0973
 2518SOL     OW19189   1.352   3.928   3.713  0.2634 -0.2797  0.0009
 2518SOL    HW119190   1.316   3.866   3.776  1.6122 -0.0841  0.9840
 2518SOL    HW219191   1.281   3.990   3.696 -1.1012 -1.5186  1.2040
 2519SOL     OW19192   3.167   4.443   0.576 -0.0542 -0.1083 -0.1072
 2519SOL    HW119193   3.257   4.418   0.595 -0.1700 -1.5559 -1.4612
 2519SOL    HW219194   3.175   4.449   0.481  1.4890  1.5177  0.1160
 2520SOL     OW19195   1.733   0.489  13.917 -0.6576  0.2237 -0.3687
 2520SOL    HW119196   1.661   0.437  13.954 -0.4271  1.2142  1.4779
 2520SOL    HW219197   1.800   0.425  13.941 -1.1308  0.4897  1.6883
 2521SOL     OW19198   0.815   3.641   8.591  0.0773  0.4308  0.7369
 2521SOL    HW119199   0.835   3.551   8.614  0.1292  0.1110 -0.5373
 2521SOL    HW219200   0.894   3.673   8.546  0.7448 -0.5159  1.2457
 2522SOL     OW19201   3.013   1.520   3.320  0.9188  0.6607  0.1390
 2522SOL    HW119202   2.939   1.579   3.308 -0.4004 -1.0109  0.1154
 2522SOL    HW219203   2.991   1.454   3.255  0.4808  2.8455 -1.9193
 2523SOL     OW19204   2.817   0.894   4.373  0.4392  0.1578  0.2025
 2523SOL    HW119205   2.852   0.950   4.443  0.9605 -0.9507  0.8395
 2523SOL    HW219206   2.748   0.942   4.329  0.1449 -1.2107 -0.8172
 2524SOL     OW19207   4.487   4.095  16.915  0.1668  0.0085  0.2153
 2524SOL    HW119208   4.396   4.091  16.887  0.0290  0.4162  0.6221
 2524SOL    HW219209   4.464   4.120  17.004  0.5093 -3.0442  1.1531
 2525SOL     OW19210   2.638   3.087   2.838 -0.4348  0.6565 -0.0691
 2525SOL    HW119211   2.582   3.126   2.905  0.3340  2.1793 -0.3233
 2525SOL    HW219212   2.619   2.997   2.864  0.8861  0.7634  1.3244
 2526SOL     OW19213   1.488   2.770   3.619  0.1059 -0.6667 -0.2816
 2526SOL    HW119214   1.583   2.761   3.630 -0.2485 -0.8383  2.8399
 2526SOL    HW219215   1.479   2.822   3.539 -2.1772 -0.5530  0.0522
 2527SOL     OW19216   0.755   0.970   8.325  0.0995 -0.1064 -0.3303
 2527SOL    HW119217   0.682   0.941   8.271 -0.0900 -0.3478  0.0541
 2527SOL    HW219218   0.758   1.066   8.320 -0.9002 -0.1183 -1.0282
 2528SOL     OW19219   4.075   0.861   2.572 -0.0639  0.0550 -0.1405
 2528SOL    HW119220   4.057   0.913   2.650  0.1053  0.6597 -0.5075
 2528SOL    HW219221   4.111   0.782   2.614  2.3699  2.1777  1.8004
 2529SOL     OW19222   3.356   0.862  12.785  0.4800  0.2732 -0.1311
 2529SOL    HW119223   3.421   0.800  12.816 -1.7280 -0.0948  3.8435
 2529SOL    HW219224   3.272   0.836  12.824 -1.0868  0.2200 -3.5226
 2530SOL     OW19225   1.009   3.317  13.224 -0.2839  0.7703 -0.1257
 2530SOL    HW119226   1.097   3.294  13.252  0.3601  2.7407 -0.5335
 2530SOL    HW219227   1.013   3.413  13.225  1.0233  0.6763  2.6038
 2531SOL     OW19228   2.561   2.984   2.132 -0.3850  0.0863 -0.3807
 2531SOL    HW119229   2.595   3.058   2.184 -0.4134  1.2517 -2.0183
 2531SOL    HW219230   2.505   2.957   2.205  0.3691 -0.8932 -0.1680
 2532SOL     OW19231   2.066   1.430   0.292 -0.3557 -0.3871  0.1652
 2532SOL    HW119232   2.120   1.422   0.213  1.7475 -0.8504  1.6337
 2532SOL    HW219233   1.993   1.370   0.273 -0.7953  0.6783 -1.4813
 2533SOL     OW19234   3.408   0.633   8.050  0.0878 -0.1633 -0.6066
 2533SOL    HW119235   3.395   0.618   8.143  2.5927  1.3527 -0.0000
 2533SOL    HW219236   3.347   0.704   8.031 -1.0234 -0.6362  1.2518
 2534SOL     OW19237   1.302   0.470   4.266 -0.2459  0.6720  0.5941
 2534SOL    HW119238   1.390   0.434   4.264  0.5753  2.5298  3.2814
 2534SOL    HW219239   1.282   0.484   4.359  0.5991  0.3159  0.8255
 2535SOL     OW19240   4.256   1.062   6.646  0.0622  0.0671 -0.1631
 2535SOL    HW119241   4.287   0.982   6.604  0.7200 -0.6770  1.7802
 2535SOL    HW219242   4.177   1.026   6.687  0.2086  0.9720  0.9032
 2536SOL     OW19243   1.915   4.534   7.990  0.3944  0.1747 -0.1673
 2536SOL    HW119244   1.935   4.444   7.965 -0.2953  0.5848 -2.1263
 2536SOL    HW219245   2.000   4.566   8.022  1.1976 -0.0540 -2.1163
 2537SOL     OW19246   3.978   3.718   9.454 -0.0206  0.0159  0.3342
 2537SOL    HW119247   3.947   3.808   9.442  0.4772  0.2924  1.0760
 2537SOL    HW219248   3.904   3.679   9.501  0.1868 -0.6408  0.1130
 2538SOL     OW19249   0.819   0.420  11.340  0.3371 -0.2391  0.2544
 2538SOL    HW119250   0.870   0.500  11.351  1.4557 -0.7149 -1.4716
 2538SOL    HW219251   0.766   0.431  11.261  2.1215 -0.2776 -0.9456
 2539SOL     OW19252   1.964   2.123   3.979  0.3658  0.1834  0.2865
 2539SOL    HW119253   1.932   2.154   3.894  0.1609  0.2831  0.4006
 2539SOL    HW219254   1.898   2.058   4.005  1.2067 -0.6867  0.2541
 2540SOL     OW19255   0.904   3.047   6.902 -0.6432  0.1392 -0.4303
 2540SOL    HW119256   0.969   3.116   6.901 -1.6307  1.0811  0.7727
 2540SOL    HW219257   0.941   2.977   6.956  0.0902  0.4147 -0.5855
 2541SOL     OW19258   1.298   1.953  17.064  0.3849 -0.3298  0.1656
 2541SOL    HW119259   1.240   1.879  17.086 -3.4842  2.1071 -1.7801
 2541SOL    HW219260   1.315   1.993  17.150  4.2597 -1.1763 -0.2351
 2542SOL     OW19261   0.646   2.506  14.593 -0.5623 -0.0989  0.0339
 2542SOL    HW119262   0.593   2.427  14.580 -0.4389  0.0865 -1.5786
 2542SOL    HW219263   0.736   2.475  14.599 -0.3575  0.9523  2.1268
 2543SOL     OW19264   2.746   3.637   5.037 -0.4069 -0.1281  0.1438
 2543SOL    HW119265   2.755   3.723   4.995 -1.7708  0.1399  0.3730
 2543SOL    HW219266   2.703   3.580   4.973  2.2059 -2.7414  0.7390
 2544SOL     OW19267   0.639   4.423   7.434 -0.2860  0.1917 -0.2592
 2544SOL    HW119268   0.655   4.508   7.476 -1.0860  1.5957 -2.8211
 2544SOL    HW219269   0.673   4.371   7.507 -0.7099 -0.8856 -0.8401
 2545SOL     OW19270   0.454   4.255  16.116  0.8252 -0.1164  0.0267
 2545SOL    HW119271   0.456   4.177  16.060 -1.9826 -0.9318  1.0725
 2545SOL    HW219272   0.428   4.214  16.198  0.6888  1.3900  0.7298
 2546SOL     OW19273   1.856   4.497  11.007  0.2116 -0.1968  0.1394
 2546SOL    HW119274   1.846   4.561  11.078 -0.3137 -1.7801  1.4691
 2546SOL    HW219275   1.781   4.439  11.015  0.4136 -0.5202 -0.2792
 2547SOL     OW19276   2.948   3.691   8.221  0.4496  0.1053  0.0433
 2547SOL    HW119277   2.950   3.786   8.215 -2.4351  0.2816  1.6571
 2547SOL    HW219278   2.996   3.669   8.141  3.4958  0.6224  1.7484
 2548SOL     OW19279   4.706   1.467  16.514  0.1261 -0.4110  0.0866
 2548SOL    HW119280   4.731   1.377  16.495 -0.2217 -0.9130  1.9568
 2548SOL    HW219281   4.699   1.465  16.610 -1.0593 -0.2861 -0.0058
 2549SOL     OW19282   0.444   2.293   3.369 -0.0906 -0.5156  0.4505
 2549SOL    HW119283   0.430   2.228   3.437 -0.3551 -0.7874  0.1376
 2549SOL    HW219284   0.479   2.365   3.422  2.5618 -1.1381 -0.4605
 2550SOL     OW19285   1.689   4.114  13.345  0.1332 -0.6199  0.3879
 2550SOL    HW119286   1.770   4.102  13.395  1.6414  2.7602 -1.2523
 2550SOL    HW219287   1.620   4.127  13.411 -0.1074 -0.5309  0.1197
 2551SOL     OW19288   1.536   1.031   4.594 -0.2372 -0.1162 -0.4797
 2551SOL    HW119289   1.523   0.944   4.632 -4.0617  1.3254  1.5048
 2551SOL    HW219290   1.482   1.094   4.641  0.4641  0.1050  0.0218
 2552SOL     OW19291   3.250   3.249  17.091  0.2642 -0.0213  0.6846
 2552SOL    HW119292   3.208   3.292  17.165  0.4703  0.2176  0.6627
 2552SOL    HW219293   3.331   3.301  17.086 -0.3824  1.0915  1.7139
 2553SOL     OW19294   4.138   4.553   9.443  0.6232  0.5511  0.1563
 2553SOL    HW119295   4.163   4.628   9.390  1.2683  0.4144  0.2644
 2553SOL    HW219296   4.190   4.589   9.515  1.2929 -1.2776  0.6107
 2554SOL     OW19297   2.506   0.244   3.701 -0.8419 -0.2117  0.2117
 2554SOL    HW119298   2.423   0.244   3.747 -0.3176 -0.8337  1.1589
 2554SOL    HW219299   2.559   0.307   3.750 -0.1630  2.1615 -3.5483
 2555SOL     OW19300   0.271   3.597  10.116 -0.4547 -0.0190  0.1033
 2555SOL    HW119301   0.345   3.637  10.070 -1.7777  0.4693 -1.5944
 2555SOL    HW219302   0.227   3.552  10.044 -0.1815 -0.1885  0.0421
 2556SOL     OW19303   4.045   3.694   5.584  0.3743  0.6152  0.1020
 2556SOL    HW119304   4.049   3.653   5.498  0.8174  1.4487 -0.2714
 2556SOL    HW219305   4.138   3.713   5.595 -0.0619  1.5334  2.2200
 2557SOL     OW19306   0.402   2.826   5.438  0.2088  0.6061 -0.2008
 2557SOL    HW119307   0.347   2.767   5.386  0.4812  1.5655 -1.5782
 2557SOL    HW219308   0.479   2.836   5.381  1.4930 -1.3622  1.1489
 2558SOL     OW19309   3.236   0.247   7.649  0.4119  0.3345  0.7428
 2558SOL    HW119310   3.167   0.181   7.646 -0.1277  1.0431 -2.3821
 2558SOL    HW219311   3.270   0.242   7.559  1.4481  2.0381  1.0337
 2559SOL     OW19312   0.907   4.358   6.803 -0.2537  0.2054  0.3229
 2559SOL    HW119313   0.980   4.412   6.833 -1.4209  0.0607  3.4505
 2559SOL    HW219314   0.828   4.392   6.844 -0.8066 -0.1142 -0.4841
 2560SOL     OW19315   1.244   2.813   2.290  0.1452  0.0337 -0.1648
 2560SOL    HW119316   1.167   2.866   2.271 -0.2593 -0.1251  1.0495
 2560SOL    HW219317   1.209   2.724   2.285 -0.6175  0.3122  0.2385
 2561SOL     OW19318   2.179   2.281   7.171 -0.1897  0.2897 -0.6195
 2561SOL    HW119319   2.143   2.241   7.251 -1.8724 -1.8208 -2.4357
 2561SOL    HW219320   2.258   2.323   7.205 -0.1440  0.0253 -0.3962
 2562SOL     OW19321   0.988   3.247   1.952  0.2665 -0.0940 -0.2004
 2562SOL    HW119322   1.028   3.174   1.906 -1.0628 -0.8332 -0.1662
 2562SOL    HW219323   1.064   3.305   1.949  0.3730 -0.1312  1.4644
 2563SOL     OW19324   2.542   3.036   6.351  0.3840 -0.5091 -0.4336
 2563SOL    HW119325   2.497   2.974   6.408 -0.6225  0.7614  0.1415
 2563SOL    HW219326   2.517   3.124   6.376  0.2008 -1.1097  1.4468
 2564SOL     OW19327   0.136   3.279   6.715 -1.2829 -0.0137 -0.1182
 2564SOL    HW119328   0.190   3.226   6.774  0.3863  0.4395 -1.2381
 2564SOL    HW219329   0.075   3.216   6.678 -1.0686  0.1243 -0.7051
 2565SOL     OW19330   0.696   0.877   3.742  0.1688  0.6075 -0.4937
 2565SOL    HW119331   0.687   0.782   3.749 -0.6848  0.5886 -1.7548
 2565SOL    HW219332   0.757   0.886   3.815 -2.9776 -0.4503  2.2795
 2566SOL     OW19333   2.547   3.100   4.668 -0.1907  0.0136  0.2594
 2566SOL    HW119334   2.591   3.132   4.590  1.1972 -1.7803  0.2902
 2566SOL    HW219335   2.607   3.141   4.731  0.5309 -0.4254 -0.1475
 2567SOL     OW19336   0.549   0.001  17.040 -0.1963 -0.1770 -0.6624
 2567SOL    HW119337   0.525   0.059  16.967 -0.9901 -0.2158 -0.4322
 2567SOL    HW219338   0.546   4.651  16.998 -2.1835  0.4463 -1.7806
 2568SOL     OW19339   2.467   4.430   4.221 -0.0445  0.2613  0.1004
 2568SOL    HW119340   2.486   4.522   4.203 -2.4701  1.4143  3.3559
 2568SOL    HW219341   2.467   4.391   4.134 -0.0963  3.0684 -1.1580
 2569SOL     OW19342   3.148   4.536   7.058  0.0336  0.2662 -0.2059
 2569SOL    HW119343   3.138   4.616   7.110  2.8199  0.8367 -0.5547
 2569SOL    HW219344   3.069   4.541   7.004  0.5331 -3.9998 -1.3775
 2570SOL     OW19345   3.755   2.119  17.065 -0.2548  0.1230 -0.2642
 2570SOL    HW119346   3.839   2.077  17.083 -0.2437  1.8221  3.5564
 2570SOL    HW219347   3.775   2.210  17.087  1.8832 -0.9191  2.1037
 2571SOL     OW19348   4.514   3.461   7.700  0.4571  0.0966  0.2501
 2571SOL    HW119349   4.446   3.448   7.765  0.5942 -0.2337  0.3290
 2571SOL    HW219350   4.512   3.556   7.689  0.5491  0.3012  2.0190
 2572SOL     OW19351   0.809   3.216   6.406 -0.5989 -0.9620 -0.2455
 2572SOL    HW119352   0.856   3.223   6.489 -1.4863 -1.9103  0.3352
 2572SOL    HW219353   0.732   3.262   6.438 -0.7317  0.4847 -2.6089
 2573SOL     OW19354   4.643   1.412   5.044 -0.0918 -0.0408  0.2857
 2573SOL    HW119355   4.548   1.418   5.054 -0.2040  0.5856 -1.0982
 2573SOL    HW219356   4.668   1.478   5.109 -0.4456  0.3327  0.0416
 2574SOL     OW19357   3.775   2.320  16.006 -0.5879 -0.2904  0.1624
 2574SOL    HW119358   3.778   2.260  15.932  0.8052  0.2685 -0.2365
 2574SOL    HW219359   3.868   2.342  16.002 -0.6934  0.2689  0.6736
 2575SOL     OW19360   2.233   1.327   1.824 -0.2995 -0.0759  0.3089
 2575SOL    HW119361   2.239   1.232   1.832  1.4651 -0.0078 -0.1659
 2575SOL    HW219362   2.166   1.332   1.891 -0.9428 -0.0239 -0.3384
 2576SOL     OW19363   4.290   2.770  15.319  0.2992 -0.5315  0.1268
 2576SOL    HW119364   4.306   2.687  15.365  1.2114  0.0363  0.8342
 2576SOL    HW219365   4.230   2.744  15.249  0.1277  0.9326 -0.2690
 2577SOL     OW19366   4.645   4.484  14.988 -0.1664 -0.5639  0.0458
 2577SOL    HW119367   4.590   4.431  15.047 -1.2654 -1.0902 -1.4508
 2577SOL    HW219368   4.575   4.525  14.937 -0.3116 -1.5273 -0.5167
 2578SOL     OW19369   3.767   0.345   2.758 -0.4728  0.1226  0.1651
 2578SOL    HW119370   3.743   0.363   2.849  1.2997  0.0400  0.6462
 2578SOL    HW219371   3.689   0.302   2.723 -1.5925  1.8690  0.4971
 2579SOL     OW19372   2.524   2.477   3.979 -0.0600 -0.1187 -0.2674
 2579SOL    HW119373   2.618   2.490   3.964  0.2502 -1.3780  0.5733
 2579SOL    HW219374   2.497   2.550   4.035  1.6847 -0.5554  1.1363
 2580SOL     OW19375   0.312   1.397  16.360  0.1975 -0.0864  0.6104
 2580SOL    HW119376   0.293   1.489  16.340 -1.9859 -0.8338 -0.7348
 2580SOL    HW219377   0.271   1.387  16.446  0.4100  0.1030  0.7329
 2581SOL     OW19378   1.476   4.173  14.172 -0.3278  0.1874 -0.0312
 2581SOL    HW119379   1.410   4.117  14.213  1.1121  0.4029  2.6139
 2581SOL    HW219380   1.555   4.153  14.221  0.0237  2.8087  0.4979
 2582SOL     OW19381   4.106   0.268  10.004  0.7262  0.5173  0.0693
 2582SOL    HW119382   4.123   0.352   9.962  0.5011  1.8495  2.6471
 2582SOL    HW219383   4.018   0.288  10.035  1.1838  1.7163  0.5758
 2583SOL     OW19384   3.929   0.018  15.461 -0.2953 -0.0759 -0.1602
 2583SOL    HW119385   3.860   0.018  15.527  2.9737  0.9367  3.2998
 2583SOL    HW219386   3.905   4.681  15.403  0.8034 -1.0123  0.5561
 2584SOL     OW19387   3.672   2.785   3.043  0.2699  0.0985 -0.7462
 2584SOL    HW119388   3.652   2.877   3.028  1.0795  0.4752  0.4595
 2584SOL    HW219389   3.582   2.752   3.047  0.2840 -0.2528 -3.5442
 2585SOL     OW19390   0.999   2.187   2.165  0.2911 -0.5827  0.1354
 2585SOL    HW119391   1.032   2.276   2.161  0.1331 -0.5174  0.2896
 2585SOL    HW219392   0.997   2.183   2.260 -1.2848  0.3976  0.1425
 2586SOL     OW19393   2.271   1.949   2.843  0.3704  0.2073 -0.4746
 2586SOL    HW119394   2.229   1.923   2.925 -1.5631 -0.3708 -1.6470
 2586SOL    HW219395   2.267   1.865   2.798 -0.3405 -0.4297  0.7768
 2587SOL     OW19396   4.581   0.742   6.805 -0.6597  0.2659 -0.1279
 2587SOL    HW119397   4.523   0.792   6.748  1.5053  1.5048 -1.2507
 2587SOL    HW219398   4.663   0.790   6.794 -0.9515  0.7909 -0.0180
 2588SOL     OW19399   3.274   4.368   6.853 -0.2425  0.0521 -0.0738
 2588SOL    HW119400   3.226   4.386   6.934 -1.4623  2.0239 -1.2387
 2588SOL    HW219401   3.236   4.444   6.810 -0.0472  0.6238  0.7705
 2589SOL     OW19402   1.585   4.457  15.703 -0.2210  0.1240 -0.9838
 2589SOL    HW119403   1.499   4.415  15.704 -0.6775  1.0370 -2.4706
 2589SOL    HW219404   1.557   4.540  15.663  0.9595  2.0284  2.0779
 2590SOL     OW19405   0.561   3.133   2.382 -0.3026  0.1959  0.0867
 2590SOL    HW119406   0.542   3.178   2.465 -2.1641  0.2564 -0.3898
 2590SOL    HW219407   0.554   3.207   2.322 -0.7562  1.3703  1.5795
 2591SOL     OW19408   1.813   0.918   7.950 -0.0106  0.3344 -0.2924
 2591SOL    HW119409   1.805   0.935   7.856 -1.6586  0.6016 -0.1042
 2591SOL    HW219410   1.897   0.960   7.969  1.3369 -2.5225  0.1259
 2592SOL     OW19411   2.100   3.373   6.276 -0.3019 -0.1893  0.3864
 2592SOL    HW119412   2.154   3.379   6.198 -0.7626 -3.2269 -0.1899
 2592SOL    HW219413   2.053   3.296   6.243  0.5992 -0.6161  0.0923
 2593SOL     OW19414   0.783   3.342  13.530 -0.4851  0.4414  0.0143
 2593SOL    HW119415   0.745   3.309  13.448 -1.7776  0.1015  0.7572
 2593SOL    HW219416   0.746   3.430  13.537  1.0786  0.9889  1.4081
 2594SOL     OW19417   2.687   2.406   4.770  0.2882  0.3854  0.2155
 2594SOL    HW119418   2.750   2.417   4.842  1.1550  3.2326 -0.9978
 2594SOL    HW219419   2.658   2.496   4.756 -1.7229 -0.1113  1.2178
 2595SOL     OW19420   0.800   2.950  13.494  0.8456 -0.4138  0.5571
 2595SOL    HW119421   0.809   3.036  13.453  0.3888  0.2724  1.8953
 2595SOL    HW219422   0.709   2.931  13.474  0.9363  0.2821 -0.5086
 2596SOL     OW19423   0.104   1.443   0.704 -0.4697 -0.0580  0.4340
 2596SOL    HW119424   0.083   1.510   0.639  1.3035  2.6808  2.6973
 2596SOL    HW219425   0.139   1.377   0.644  1.5852  0.2606  1.2753
 2597SOL     OW19426   0.661   0.455   9.195  0.6491 -0.0082  0.0157
 2597SOL    HW119427   0.648   0.372   9.149  0.7376  1.5302 -2.7875
 2597SOL    HW219428   0.739   0.489   9.151 -0.1437  1.1844 -0.4492
 2598SOL     OW19429   2.378   4.618   0.281  0.3205  0.9194  0.2640
 2598SOL    HW119430   2.341   4.530   0.276  2.3073  0.0540  0.5418
 2598SOL    HW219431   2.300   4.672   0.267  1.1882  2.6636  1.9977
 2599SOL     OW19432   0.144   1.995   8.901  0.2490  0.1883  0.0293
 2599SOL    HW119433   0.239   1.992   8.910  0.1976 -1.6794  0.0739
 2599SOL    HW219434   0.122   1.979   8.993 -0.4836 -0.0304 -0.1837
 2600SOL     OW19435   0.059   3.944   2.630 -0.0611  0.0913  0.2379
 2600SOL    HW119436   0.067   3.878   2.561  0.7432  0.0062  0.4074
 2600SOL    HW219437   0.146   3.984   2.638 -1.5492  2.9748  1.8401
 2601SOL     OW19438   2.519   3.724   6.258  0.4720 -0.0694  0.7194
 2601SOL    HW119439   2.600   3.673   6.253 -0.3319 -1.4539  2.1147
 2601SOL    HW219440   2.478   3.695   6.339  0.5664 -1.0110  0.4298
 2602SOL     OW19441   0.541   0.154  16.805 -0.1446  0.5851  0.2338
 2602SOL    HW119442   0.572   0.243  16.789  0.7003  0.3651  0.6467
 2602SOL    HW219443   0.621   0.115  16.769 -1.2379 -0.5232 -1.0686
 2603SOL     OW19444   0.976   2.775  11.953  0.5209 -0.0998  0.2192
 2603SOL    HW119445   0.996   2.865  11.930  2.6028 -0.9399 -1.3249
 2603SOL    HW219446   1.024   2.733  11.881  2.5913  0.4747  1.2840
 2604SOL     OW19447   4.727   4.081   7.034 -0.0807 -0.0637 -0.1998
 2604SOL    HW119448   0.049   4.154   7.056 -2.9019  1.7230  1.1967
 2604SOL    HW219449   4.689   4.106   6.949 -3.0307  1.0254  1.4347
 2605SOL     OW19450   2.209   1.921   6.038  0.2065 -0.6298  0.1599
 2605SOL    HW119451   2.120   1.888   6.036 -0.0507  0.0342  0.6586
 2605SOL    HW219452   2.204   2.010   6.002  0.9032 -0.6216  0.0722
 2606SOL     OW19453   2.364   0.640  12.976  0.6235  0.6808 -0.3313
 2606SOL    HW119454   2.303   0.587  12.926 -0.4527 -0.3712  2.0949
 2606SOL    HW219455   2.376   0.708  12.910  3.5990 -0.1215 -0.6303
 2607SOL     OW19456   0.418   3.463  13.389 -0.5736 -0.6738 -0.1231
 2607SOL    HW119457   0.353   3.498  13.329 -2.9838 -2.7948  1.2468
 2607SOL    HW219458   0.363   3.470  13.468 -0.7138 -3.3911  0.0053
 2608SOL     OW19459   1.267   3.317   4.890 -0.1085  0.1788  0.0165
 2608SOL    HW119460   1.197   3.269   4.933  0.9375 -1.1145  0.2933
 2608SOL    HW219461   1.211   3.367   4.831 -0.2757  0.6766  0.6026
 2609SOL     OW19462   1.358   1.662   8.670  0.5136  0.3597  0.3547
 2609SOL    HW119463   1.345   1.576   8.708  0.9319  0.4070  0.6051
 2609SOL    HW219464   1.368   1.643   8.576 -0.0429 -1.1522  0.6032
 2610SOL     OW19465   2.527   3.125  16.777  0.6221 -0.0385  0.6138
 2610SOL    HW119466   2.496   3.206  16.735 -1.4240 -1.6343 -0.9393
 2610SOL    HW219467   2.577   3.091  16.703  2.1571 -1.2614  2.2129
 2611SOL     OW19468   0.381   1.999   1.966  0.4704 -0.7243  0.4369
 2611SOL    HW119469   0.335   2.068   2.013 -0.4948 -2.0203  1.4037
 2611SOL    HW219470   0.341   1.921   2.005 -0.1581 -0.3126  0.6211
 2612SOL     OW19471   0.382   2.980   2.577 -0.2048 -0.4208  0.3116
 2612SOL    HW119472   0.369   2.889   2.604  0.2318 -0.5183  0.1974
 2612SOL    HW219473   0.345   2.987   2.489 -2.2978 -0.8554  1.1561
 2613SOL     OW19474   0.819   3.193   1.365 -0.1045  0.3421 -0.1046
 2613SOL    HW119475   0.812   3.141   1.285 -1.4560 -2.3356  1.7669
 2613SOL    HW219476   0.724   3.208   1.373 -0.6279 -1.7913 -2.3662
 2614SOL     OW19477   2.490   3.212  12.177  0.1501  0.3246  0.0162
 2614SOL    HW119478   2.533   3.274  12.118 -0.0111 -0.0230 -0.4653
 2614SOL    HW219479   2.525   3.134  12.136  3.4749  0.4938  2.5782
 2615SOL     OW19480   0.870   2.583   2.709 -0.6012  0.2159 -0.1807
 2615SOL    HW119481   0.832   2.601   2.795 -0.9357  0.9374 -0.4792
 2615SOL    HW219482   0.796   2.591   2.650 -0.6971  1.6530  0.1406
 2616SOL     OW19483   3.446   3.224   0.923  0.5947 -0.1343  0.2410
 2616SOL    HW119484   3.404   3.263   1.000  2.3261  1.4661  0.3715
 2616SOL    HW219485   3.460   3.305   0.875  0.4280  0.1910  0.7439
 2617SOL     OW19486   4.360   2.101  16.516  0.0745 -0.3398  0.2334
 2617SOL    HW119487   4.404   2.024  16.552  0.3423 -1.2903 -2.1331
 2617SOL    HW219488   4.340   2.154  16.593 -2.1108 -0.9159  0.0673
 2618SOL     OW19489   0.215   0.604  10.580 -0.5464 -0.1249 -0.0241
 2618SOL    HW119490   0.201   0.667  10.509 -0.7983 -3.1370 -2.6090
 2618SOL    HW219491   0.310   0.595  10.584 -0.6483  0.3161  3.3246
 2619SOL     OW19492   2.812   0.322   2.861  0.0160 -0.4654  0.4381
 2619SOL    HW119493   2.733   0.281   2.828 -1.0471  2.3118 -0.4469
 2619SOL    HW219494   2.855   0.262   2.921 -1.2531 -1.9910 -0.1888
 2620SOL     OW19495   4.466   2.537  11.599  0.0781 -0.1243 -0.2469
 2620SOL    HW119496   4.404   2.595  11.642 -1.2518 -0.7626 -1.2942
 2620SOL    HW219497   4.406   2.464  11.583  0.3001 -0.5232  0.7029
 2621SOL     OW19498   4.148   1.905   8.463  0.0067  1.0649  0.3661
 2621SOL    HW119499   4.170   1.967   8.393 -0.2549  0.0994 -0.5650
 2621SOL    HW219500   4.195   1.944   8.537  0.3896  1.3536 -0.0266
 2622SOL     OW19501   1.286   4.221   9.881  0.0241 -0.4387  0.3118
 2622SOL    HW119502   1.355   4.224   9.947 -0.1642 -3.7377  0.6741
 2622SOL    HW219503   1.340   4.216   9.803 -1.9763 -0.2721 -1.0931
 2623SOL     OW19504   3.755   4.166   1.833  0.3853 -0.2029  0.6458
 2623SOL    HW119505   3.789   4.254   1.851  1.9976 -0.1600 -2.6876
 2623SOL    HW219506   3.695   4.185   1.762  1.4716  0.4364 -0.1091
 2624SOL     OW19507   2.893   2.558  14.896 -0.3835  0.2314  0.0076
 2624SOL    HW119508   2.912   2.522  14.810  0.7081  2.4364 -0.6838
 2624SOL    HW219509   2.973   2.607  14.914  0.8872 -2.1746  0.9429
 2625SOL     OW19510   3.506   1.005   9.647  0.0919 -0.2343  0.2808
 2625SOL    HW119511   3.547   0.930   9.690  3.0123  0.1159 -1.8721
 2625SOL    HW219512   3.422   1.014   9.692 -0.5017 -0.5162 -0.7813
 2626SOL     OW19513   2.890   3.203   4.254 -0.2729  0.3616  0.3362
 2626SOL    HW119514   2.915   3.213   4.162  1.9140 -1.1456  0.7673
 2626SOL    HW219515   2.935   3.281   4.287  1.5982 -1.1526  1.3533
 2627SOL     OW19516   1.046   2.659   4.185 -0.0756 -0.4036 -0.5453
 2627SOL    HW119517   1.033   2.578   4.235  0.6810  0.9612  1.8724
 2627SOL    HW219518   1.096   2.628   4.109 -0.9371  0.1182 -1.3211
 2628SOL     OW19519   4.563   0.965   5.728  0.0243 -0.3743 -0.0059
 2628SOL    HW119520   4.472   0.995   5.735  0.2975 -0.0960  2.1200
 2628SOL    HW219521   4.616   1.007   5.795 -2.2375  1.5184  0.5699
 2629SOL     OW19522   2.230   1.132   9.366  0.2265 -0.1016 -0.1046
 2629SOL    HW119523   2.305   1.096   9.414 -1.3076 -1.1518  1.4999
 2629SOL    HW219524   2.209   1.191   9.439  0.5973 -0.7479  0.5263
 2630SOL     OW19525   2.017   2.781   7.244  0.0786  0.1103 -0.2158
 2630SOL    HW119526   1.985   2.784   7.334  0.5281  0.2856 -0.0602
 2630SOL    HW219527   2.073   2.703   7.245 -0.6650 -0.4224 -0.9287
 2631SOL     OW19528   1.338   0.189   9.998  0.4756 -0.4181  0.0553
 2631SOL    HW119529   1.269   0.168  10.061  0.0108  2.6933  0.6223
 2631SOL    HW219530   1.375   0.262  10.049  0.1239 -0.2998  0.1407
 2632SOL     OW19531   4.024   1.814   9.630  0.4446  0.4585  0.0884
 2632SOL    HW119532   4.093   1.766   9.585 -0.9678 -0.8366 -0.6852
 2632SOL    HW219533   3.947   1.790   9.580  1.0105 -0.7558 -0.1900
 2633SOL     OW19534   4.354   1.037   7.805 -0.3252  0.3515  0.0110
 2633SOL    HW119535   4.266   1.002   7.791  0.0235 -0.4013 -0.2970
 2633SOL    HW219536   4.348   1.063   7.897 -3.3046  1.9631 -0.6375
 2634SOL     OW19537   0.909   0.435   3.352 -0.4368  0.1911 -0.0762
 2634SOL    HW119538   0.846   0.504   3.374 -0.0236  0.4106  0.4086
 2634SOL    HW219539   0.893   0.420   3.259 -1.4953 -3.0783  0.6495
 2635SOL     OW19540   4.491   3.238   8.216 -0.0397 -0.3890 -0.1248
 2635SOL    HW119541   4.417   3.287   8.180 -0.3029  1.0482  2.3864
 2635SOL    HW219542   4.446   3.181   8.279 -1.2938 -0.0269 -0.7017
 2636SOL     OW19543   3.907   3.917   1.697 -0.1235 -0.2425  0.4493
 2636SOL    HW119544   3.963   3.988   1.726  0.5076 -0.6720  0.2746
 2636SOL    HW219545   3.836   3.963   1.652  2.3875  3.2469  0.0638
 2637SOL     OW19546   3.693   1.746   1.874 -0.9787  0.0882  0.2302
 2637SOL    HW119547   3.778   1.786   1.893 -0.3463 -0.6663 -1.0554
 2637SOL    HW219548   3.681   1.763   1.781  2.3419  1.4256  0.0396
 2638SOL     OW19549   2.856   1.753  14.818  0.4709  0.5018  0.7539
 2638SOL    HW119550   2.804   1.693  14.764 -0.0834 -0.3008  2.1703
 2638SOL    HW219551   2.913   1.788  14.750  1.6220 -1.1538  0.8567
 2639SOL     OW19552   0.237   1.701   2.573  0.5156  0.0268  0.0037
 2639SOL    HW119553   0.160   1.721   2.521 -0.8919 -0.9645  1.6894
 2639SOL    HW219554   0.198   1.657   2.649  2.8011 -1.4406  0.3491
 2640SOL     OW19555   2.382   0.744   2.670 -0.8676  0.2192  0.5708
 2640SOL    HW119556   2.385   0.708   2.758 -2.0640  0.4639  0.7095
 2640SOL    HW219557   2.364   0.661   2.625  1.0956  0.5601 -0.8771
 2641SOL     OW19558   0.788   3.633   6.543 -0.1662  0.3546 -0.1273
 2641SOL    HW119559   0.849   3.581   6.595  0.6649  0.6859 -0.7818
 2641SOL    HW219560   0.763   3.705   6.602  0.5394  0.0126  0.5888
 2642SOL     OW19561   3.103   0.024   9.031 -0.8402  0.2579 -0.1919
 2642SOL    HW119562   3.187   4.715   9.044 -1.1727 -0.5476 -0.8185
 2642SOL    HW219563   3.057   4.696   9.086  0.3509  0.5089  1.1152
 2643SOL     OW19564   3.804   4.659  17.581 -0.0424 -0.0698  0.4464
 2643SOL    HW119565   3.768   4.571  17.573  0.2548 -0.3867  2.5942
 2643SOL    HW219566   3.808   4.681  17.487  1.3106 -0.6836  0.3644
 2644SOL     OW19567   1.467   0.712   0.729  0.1013 -0.2159 -0.4753
 2644SOL    HW119568   1.552   0.694   0.689 -0.0777  0.0792 -0.9933
 2644SOL    HW219569   1.406   0.705   0.655 -3.6292  1.3625  2.4355
 2645SOL     OW19570   2.740   3.588   1.209  0.1282 -0.2141 -0.1308
 2645SOL    HW119571   2.711   3.655   1.147  0.6727  0.3639  0.2363
 2645SOL    HW219572   2.651   3.570   1.240  1.5276 -2.0704  2.7854
 2646SOL     OW19573   2.982   1.905   5.590 -0.1679 -0.4482  0.9424
 2646SOL    HW119574   3.075   1.910   5.610  0.1871  1.5801 -1.2539
 2646SOL    HW219575   2.937   1.967   5.646  0.1431 -0.2987  1.0256
 2647SOL     OW19576   3.778   0.710  17.729 -0.5807  0.3724  0.8190
 2647SOL    HW119577   3.770   0.620  17.698  0.7981  0.5380 -0.0476
 2647SOL    HW219578   3.716   0.744  17.664 -0.1824  0.3073  0.4057
 2648SOL     OW19579   4.064   0.824  15.544  0.0398  0.1125 -0.0061
 2648SOL    HW119580   3.995   0.863  15.491 -0.6191  0.6120  1.2213
 2648SOL    HW219581   4.102   0.898  15.591  0.9537 -0.7318  0.6113
 2649SOL     OW19582   0.156   2.760   8.754 -0.3532  0.1130 -0.5516
 2649SOL    HW119583   0.251   2.755   8.744 -0.0903  1.9332  1.2560
 2649SOL    HW219584   0.127   2.735   8.666 -2.8691  0.2021  0.2515
 2650SOL     OW19585   0.210   3.518   4.424  0.1225 -1.2644 -0.0759
 2650SOL    HW119586   0.125   3.537   4.385 -0.0625 -2.3998 -0.2225
 2650SOL    HW219587   0.260   3.497   4.346  0.9083  2.2975 -0.5426
 2651SOL     OW19588   0.922   3.951   2.145  0.1448 -0.4394 -0.7522
 2651SOL    HW119589   0.846   3.900   2.117 -0.0311  0.4778 -1.9407
 2651SOL    HW219590   0.956   3.900   2.219 -0.8325  2.1796  1.4801
 2652SOL     OW19591   4.111   3.182   2.450  0.0122  0.0664  0.3867
 2652SOL    HW119592   4.068   3.215   2.528  0.9652 -0.4933  1.1418
 2652SOL    HW219593   4.202   3.175   2.478  0.8165  0.8016 -1.9883
 2653SOL     OW19594   4.337   0.367  14.443  0.2642  0.7734  0.1922
 2653SOL    HW119595   4.320   0.459  14.422  0.2758  0.7980  0.2904
 2653SOL    HW219596   4.349   0.359  14.538  2.5485 -1.8944 -0.3085
 2654SOL     OW19597   3.740   0.842   3.837 -0.7052  0.5774  0.5378
 2654SOL    HW119598   3.787   0.923   3.860  1.5720 -0.4637 -0.4877
 2654SOL    HW219599   3.660   0.894   3.823 -1.8366 -1.1692  0.4600
 2655SOL     OW19600   3.208   3.344  12.659  0.1759 -0.2962  0.4572
 2655SOL    HW119601   3.231   3.252  12.648 -0.8855 -0.5617  0.4970
 2655SOL    HW219602   3.182   3.363  12.569 -0.0944  0.7153  0.7527
 2656SOL     OW19603   1.155   1.224  14.272 -0.7690 -0.0645  0.0404
 2656SOL    HW119604   1.136   1.305  14.319 -1.4537 -0.5139  0.5269
 2656SOL    HW219605   1.120   1.166  14.339 -1.0483 -1.3725 -1.2249
 2657SOL     OW19606   3.927   4.035   3.819  0.7077 -0.8011  0.6276
 2657SOL    HW119607   4.013   3.995   3.807  2.6074  2.6247  2.5928
 2657SOL    HW219608   3.881   3.960   3.856 -2.9857  1.2697  0.2602
 2658SOL     OW19609   2.350   0.327   2.955 -0.1653 -0.1228  0.3848
 2658SOL    HW119610   2.399   0.246   2.944  0.8090  0.3977  0.9017
 2658SOL    HW219611   2.352   0.342   3.049 -2.5130  1.8638  0.1060
 2659SOL     OW19612   0.845   4.312   8.982  0.2363 -0.1302  0.3894
 2659SOL    HW119613   0.797   4.336   8.903  0.2435 -0.4417  0.2918
 2659SOL    HW219614   0.773   4.332   9.042 -0.8889 -0.0061 -1.0105
 2660SOL     OW19615   2.149   4.483  11.610 -0.1389 -0.4603  0.5213
 2660SOL    HW119616   2.196   4.553  11.566 -1.1798  1.8130  3.0497
 2660SOL    HW219617   2.066   4.531  11.614 -0.0933 -0.2570 -1.0912
 2661SOL     OW19618   4.163   3.810  11.322 -0.6497  0.0418 -0.1870
 2661SOL    HW119619   4.093   3.834  11.261 -1.7306  1.2873  1.5376
 2661SOL    HW219620   4.239   3.848  11.279 -0.7366  1.6903  1.1642
 2662SOL     OW19621   3.592   4.592   3.121 -0.2875  0.1402 -0.4833
 2662SOL    HW119622   3.680   4.628   3.110  0.6422 -1.9289  0.2437
 2662SOL    HW219623   3.546   4.674   3.139  0.0376  0.0550  0.7341
 2663SOL     OW19624   2.202   2.715  14.376 -0.4194  0.2220  0.2453
 2663SOL    HW119625   2.253   2.636  14.394  0.7887  0.9816  0.0728
 2663SOL    HW219626   2.120   2.671  14.351  0.6595 -1.7394  0.1418
 2664SOL     OW19627   1.490   1.427  15.069 -0.1945 -0.4179  0.0478
 2664SOL    HW119628   1.454   1.460  14.987  0.8798  1.0271  0.1523
 2664SOL    HW219629   1.458   1.500  15.122 -0.2853 -0.5450  0.1701
 2665SOL     OW19630   2.448   2.837   8.012 -0.0919 -0.3969 -0.2009
 2665SOL    HW119631   2.531   2.834   8.058 -0.7909  2.3838  1.2733
 2665SOL    HW219632   2.463   2.917   7.961  1.4627 -0.3264  0.3923
 2666SOL     OW19633   2.383   1.655   7.479  0.0532 -0.3690  0.1042
 2666SOL    HW119634   2.341   1.741   7.480  0.0117 -0.3686 -1.6459
 2666SOL    HW219635   2.328   1.605   7.539  0.2332  1.0263  1.4376
 2667SOL     OW19636   3.936   2.711   3.324  0.0785  0.2475 -0.0651
 2667SOL    HW119637   3.958   2.774   3.256  0.7124 -0.9082 -0.9191
 2667SOL    HW219638   3.847   2.683   3.303 -0.5373  3.0113 -1.1149
 2668SOL     OW19639   4.120   0.754   6.535 -0.1126 -0.2105 -0.0002
 2668SOL    HW119640   4.114   0.669   6.578 -3.0900 -0.6336 -1.2094
 2668SOL    HW219641   4.030   0.781   6.513 -0.2764  0.3720  1.3667
 2669SOL     OW19642   3.108   1.638  11.276 -0.4830  0.5802  0.0279
 2669SOL    HW119643   3.075   1.550  11.292  0.6987  0.2851  0.8241
 2669SOL    HW219644   3.047   1.695  11.323 -3.2873 -0.9934 -1.6839
 2670SOL     OW19645   1.099   4.294  12.983 -0.3397 -0.6074  0.6094
 2670SOL    HW119646   1.052   4.210  12.986  0.9601 -1.3113  1.3113
 2670SOL    HW219647   1.185   4.275  12.946  0.7448  7.0480 -0.7217
 2671SOL     OW19648   3.936   0.355   6.619 -0.0795  0.5947 -0.0147
 2671SOL    HW119649   3.891   0.392   6.544 -3.4858 -1.0266  1.2364
 2671SOL    HW219650   3.973   0.434   6.658 -1.4557  2.0690 -1.7000
 2672SOL     OW19651   2.731   2.916   7.615 -0.1535 -0.3630 -0.1252
 2672SOL    HW119652   2.676   2.842   7.590 -1.0083  0.1677  0.2037
 2672SOL    HW219653   2.665   2.981   7.639  0.5122 -0.1776  1.1698
 2673SOL     OW19654   0.876   4.065   8.127  0.3088  0.1135 -0.4145
 2673SOL    HW119655   0.864   3.990   8.068  1.7521 -0.1621 -0.3434
 2673SOL    HW219656   0.952   4.030   8.174 -2.5318 -1.8892  2.6896
 2674SOL     OW19657   3.280   2.805   0.115 -0.0034  0.5448 -0.0605
 2674SOL    HW119658   3.230   2.848   0.045  1.0273  0.4207 -0.8644
 2674SOL    HW219659   3.352   2.774   0.060 -0.8957 -2.5990  0.5701
 2675SOL     OW19660   0.116   3.557   4.995 -0.1947  0.0844 -0.4898
 2675SOL    HW119661   0.038   3.612   4.983 -3.1589 -3.9753  0.4812
 2675SOL    HW219662   0.154   3.567   4.908 -0.6170 -1.6848 -0.8588
 2676SOL     OW19663   0.194   0.557   5.122  0.0730 -0.0731 -0.4058
 2676SOL    HW119664   0.154   0.575   5.037 -0.5476  2.1050  0.3633
 2676SOL    HW219665   0.288   0.549   5.106 -0.0286  0.8856 -1.4248
 2677SOL     OW19666   3.380   4.499  16.666 -0.8811 -0.2540  0.0410
 2677SOL    HW119667   3.290   4.532  16.655 -0.6827  0.2671 -0.0365
 2677SOL    HW219668   3.376   4.431  16.733  0.5947 -0.9343 -0.5655
 2678SOL     OW19669   2.701   3.199   2.236 -0.5099 -0.0525  0.5193
 2678SOL    HW119670   2.676   3.280   2.192 -0.2308  0.1085  0.6510
 2678SOL    HW219671   2.760   3.158   2.173  1.0837  3.2183 -0.1407
 2679SOL     OW19672   0.787   2.166  12.079 -0.3656 -0.5438  0.4517
 2679SOL    HW119673   0.824   2.138  11.995  2.7495  0.5549  1.4654
 2679SOL    HW219674   0.716   2.102  12.086 -1.1661  0.0382 -2.4143
 2680SOL     OW19675   4.726   2.321  10.389 -0.3881 -0.1677 -0.6572
 2680SOL    HW119676   4.698   2.332  10.298  3.1192  2.5294 -1.4064
 2680SOL    HW219677   4.658   2.363  10.443  0.4915  1.2322 -0.6275
 2681SOL     OW19678   2.703   3.206   4.851 -0.0204 -0.0211 -0.2866
 2681SOL    HW119679   2.646   3.276   4.884  0.5702  1.1805 -1.8077
 2681SOL    HW219680   2.751   3.170   4.926 -1.8486 -1.2363  0.2895
 2682SOL     OW19681   4.396   4.137   2.780 -0.0996 -0.1108 -0.3593
 2682SOL    HW119682   4.345   4.095   2.711 -0.2978  0.0418 -0.3030
 2682SOL    HW219683   4.480   4.095   2.759  0.5227  0.2732  1.3313
 2683SOL     OW19684   1.290   0.116  12.155 -0.1599  0.6335  0.2996
 2683SOL    HW119685   1.284   0.187  12.218 -1.7240 -0.7765  1.7500
 2683SOL    HW219686   1.352   0.154  12.093 -0.5487  0.1804 -0.3702
 2684SOL     OW19687   2.635   2.609   5.296  0.1064 -0.1919  0.0322
 2684SOL    HW119688   2.669   2.530   5.254 -1.0932  0.1618 -1.6365
 2684SOL    HW219689   2.548   2.572   5.305  0.0069  0.3482  1.3165
 2685SOL     OW19690   2.658   1.321   4.484  0.0506  0.6091 -0.7814
 2685SOL    HW119691   2.671   1.330   4.390  0.1055 -0.3174 -0.8625
 2685SOL    HW219692   2.675   1.414   4.499  1.4027  0.1847  0.2431
 2686SOL     OW19693   0.665   2.414   9.082  0.4288 -0.5546 -0.3956
 2686SOL    HW119694   0.697   2.336   9.129 -0.9047 -1.3489 -0.7966
 2686SOL    HW219695   0.739   2.473   9.097 -2.1086  2.7567 -0.9301
 2687SOL     OW19696   0.725   2.915   5.357 -0.4148 -0.3653  0.2846
 2687SOL    HW119697   0.807   2.928   5.310 -1.6518  1.9541 -1.2475
 2687SOL    HW219698   0.656   2.948   5.299  1.3208  0.2279 -1.4419
 2688SOL     OW19699   1.675   0.940  17.444  0.3784 -0.1504  0.1828
 2688SOL    HW119700   1.755   0.888  17.440  0.3937 -0.0091 -1.6292
 2688SOL    HW219701   1.625   0.914  17.366  1.0542  2.7647 -1.2236
 2689SOL     OW19702   0.185   3.187   1.253  0.6091 -0.3651  0.3664
 2689SOL    HW119703   0.116   3.126   1.224 -0.5074  0.9196  0.3317
 2689SOL    HW219704   0.263   3.140   1.221 -1.1329 -1.9416 -1.5621
 2690SOL     OW19705   1.842   3.115  15.603 -0.3657 -0.0448 -0.7028
 2690SOL    HW119706   1.776   3.058  15.642 -0.7220  1.4552  0.9015
 2690SOL    HW219707   1.920   3.080  15.647 -1.5366 -2.8391 -0.8908
 2691SOL     OW19708   2.594   0.827  17.564 -0.3878  0.3277 -0.0303
 2691SOL    HW119709   2.599   0.819  17.659  0.2793  0.4047 -0.0556
 2691SOL    HW219710   2.503   0.804  17.547 -0.6584  2.3386 -1.2946
 2692SOL     OW19711   4.490   2.682   9.919 -0.3436 -0.3891  0.5364
 2692SOL    HW119712   4.513   2.770   9.888  1.9127 -0.9360  0.6425
 2692SOL    HW219713   4.438   2.648   9.846 -2.4773  1.8134  1.0536
 2693SOL     OW19714   4.446   4.605   3.274 -0.5571  0.8022  0.2878
 2693SOL    HW119715   4.527   4.564   3.305 -0.3444  0.7399 -0.3436
 2693SOL    HW219716   4.412   4.541   3.212  0.5185 -1.5769  2.1625
 2694SOL     OW19717   1.453   4.268   1.908 -0.0679  0.6466 -0.1318
 2694SOL    HW119718   1.428   4.320   1.832 -0.5527 -1.2148 -1.2188
 2694SOL    HW219719   1.527   4.320   1.942  0.4750 -0.6513  0.6630
 2695SOL     OW19720   2.386   2.291   6.356  0.0486  0.0942 -0.4157
 2695SOL    HW119721   2.320   2.330   6.299 -0.2720  1.3841  0.8461
 2695SOL    HW219722   2.348   2.203   6.353 -0.4273  0.3115 -0.7882
 2696SOL     OW19723   1.940   3.220   6.603  0.1982 -0.0132  0.5914
 2696SOL    HW119724   2.028   3.200   6.635  1.0874  0.3313 -1.6739
 2696SOL    HW219725   1.950   3.313   6.583 -0.0776  0.2175  1.5036
 2697SOL     OW19726   2.928   4.205   6.772  0.0485 -0.4180  0.2007
 2697SOL    HW119727   2.954   4.124   6.817  0.3289 -0.2886  0.2735
 2697SOL    HW219728   2.854   4.236   6.824  1.4448  1.1096  1.2893
 2698SOL     OW19729   1.817   0.410   9.947  0.1174 -0.1025  0.9425
 2698SOL    HW119730   1.723   0.425   9.941  0.0870 -0.6819 -0.1090
 2698SOL    HW219731   1.856   0.493   9.919 -0.4331 -0.6461 -1.4736
 2699SOL     OW19732   1.095   4.260   9.018 -0.4149  0.5953  0.0187
 2699SOL    HW119733   1.134   4.229   8.936  0.2339  2.9840 -0.5757
 2699SOL    HW219734   1.004   4.283   8.998 -0.4691 -0.7757 -1.3530
 2700SOL     OW19735   4.030   4.333   7.131 -0.7785  0.6700 -0.2444
 2700SOL    HW119736   4.018   4.266   7.064 -2.2793  0.4180  0.2900
 2700SOL    HW219737   3.993   4.291   7.208  1.3110  2.5435  1.7840
 2701SOL     OW19738   2.987   2.228   2.224  0.2270 -0.3255  0.3532
 2701SOL    HW119739   2.978   2.137   2.254  0.7605 -1.7252 -3.7856
 2701SOL    HW219740   3.054   2.217   2.157 -1.0517 -0.0806 -0.9721
 2702SOL     OW19741   0.664   1.159   1.382  0.1517  0.4175 -0.1612
 2702SOL    HW119742   0.627   1.247   1.371 -1.3581 -0.3025 -0.8409
 2702SOL    HW219743   0.597   1.096   1.409 -0.9580  0.1014 -3.6260
 2703SOL     OW19744   0.917   1.308   3.962 -0.8273 -0.3783 -0.6162
 2703SOL    HW119745   0.934   1.362   3.885  1.4585  0.7317  0.6766
 2703SOL    HW219746   0.843   1.258   3.928 -0.4885 -2.4586  1.7333
 2704SOL     OW19747   4.061   2.437  15.181 -0.2281  0.3773  0.5217
 2704SOL    HW119748   4.077   2.528  15.156 -2.2438  0.5185 -0.2817
 2704SOL    HW219749   3.979   2.418  15.136 -1.4289  0.6480  2.5723
 2705SOL     OW19750   3.898   0.908  12.838  0.2526 -0.0049 -0.5544
 2705SOL    HW119751   3.833   0.916  12.768  0.3145  0.3090 -0.5752
 2705SOL    HW219752   3.949   0.840  12.794 -2.1407 -1.2766 -1.3337
 2706SOL     OW19753   4.064   0.143   1.637 -0.3324  0.2707  0.0409
 2706SOL    HW119754   4.112   0.226   1.633 -0.8352  0.5263 -0.6585
 2706SOL    HW219755   4.002   0.173   1.703 -1.5030 -1.1236 -0.4332
 2707SOL     OW19756   3.363   3.598  15.409  0.6731  0.0244  0.2774
 2707SOL    HW119757   3.408   3.602  15.325  0.8987 -1.2576  0.3343
 2707SOL    HW219758   3.405   3.526  15.457 -1.4766 -0.1263  1.9499
 2708SOL     OW19759   4.351   1.532   0.281  0.0587  0.3350 -0.2470
 2708SOL    HW119760   4.358   1.606   0.341  0.9535  0.4998 -0.5447
 2708SOL    HW219761   4.261   1.506   0.297 -0.4682  1.4165 -1.5069
 2709SOL     OW19762   1.811   0.199   2.134 -0.5873  0.0370  0.3065
 2709SOL    HW119763   1.723   0.173   2.107 -0.8960 -0.1373  1.5245
 2709SOL    HW219764   1.815   0.187   2.228  0.9207  0.0426  0.2441
 2710SOL     OW19765   3.879   3.591   1.938 -0.0629  0.2583 -0.1466
 2710SOL    HW119766   3.922   3.653   1.997  1.3573  0.0465 -0.9457
 2710SOL    HW219767   3.873   3.508   1.985  0.8977 -0.7240 -1.7132
 2711SOL     OW19768   3.315   2.797   9.606  0.3140 -0.0824 -0.0171
 2711SOL    HW119769   3.394   2.843   9.636 -0.4509  1.8135 -0.9126
 2711SOL    HW219770   3.282   2.870   9.555  0.5108 -0.6737 -0.9866
 2712SOL     OW19771   4.309   2.139  13.773 -0.7839  0.0802 -0.5333
 2712SOL    HW119772   4.261   2.220  13.752  0.3812  1.1765  1.0454
 2712SOL    HW219773   4.381   2.174  13.826 -1.2729 -0.0235  0.1944
 2713SOL     OW19774   0.647   4.351  15.933 -0.1661 -0.6096 -0.0040
 2713SOL    HW119775   0.617   4.336  15.844 -0.9910  0.4438  0.0962
 2713SOL    HW219776   0.575   4.328  15.991  0.3678 -1.2057  0.4275
 2714SOL     OW19777   3.737   0.195   8.674  0.0645 -0.1437 -0.1337
 2714SOL    HW119778   3.731   0.260   8.744 -1.0701  0.9486 -1.2346
 2714SOL    HW219779   3.647   0.178   8.649 -0.1540  0.5216  0.2084
 2715SOL     OW19780   1.831   1.457   5.083 -0.2356  0.0757 -0.4241
 2715SOL    HW119781   1.757   1.509   5.112  0.5373  0.2913  1.2003
 2715SOL    HW219782   1.909   1.510   5.103  0.1917 -1.0909  1.0489
 2716SOL     OW19783   3.483   2.565   4.667 -0.4256  0.2323  0.0606
 2716SOL    HW119784   3.454   2.507   4.597  1.8571  0.4901 -1.0836
 2716SOL    HW219785   3.577   2.562   4.650 -0.0760  0.5550  1.9448
 2717SOL     OW19786   2.799   1.980   3.337  0.0080 -0.0634 -0.0818
 2717SOL    HW119787   2.721   1.973   3.283  0.9748 -0.4423 -1.4397
 2717SOL    HW219788   2.804   2.074   3.353 -0.9269 -0.1520  0.6936
 2718SOL     OW19789   1.719   1.899  16.675 -0.3106  0.5015  0.1438
 2718SOL    HW119790   1.732   1.838  16.603 -1.1981  0.6881 -0.1679
 2718SOL    HW219791   1.741   1.983  16.637  1.2642 -0.7121 -1.6463
 2719SOL     OW19792   2.402   2.654   4.167 -0.2041 -0.6423  0.0927
 2719SOL    HW119793   2.309   2.667   4.149 -0.2762  1.3021  2.0104
 2719SOL    HW219794   2.404   2.592   4.240  0.1250 -1.1406 -0.3363
 2720SOL     OW19795   0.403   4.238   8.624 -0.1446  0.4391 -0.2605
 2720SOL    HW119796   0.453   4.311   8.587 -1.2456  2.5568  2.4430
 2720SOL    HW219797   0.460   4.217   8.697 -1.7530 -1.4795  0.4491
 2721SOL     OW19798   0.104   1.307   9.394  0.0085  0.5746  0.3929
 2721SOL    HW119799   0.140   1.218   9.395  1.3445  1.1105 -2.1083
 2721SOL    HW219800   0.158   1.348   9.327 -0.6029  2.4390  1.0400
 2722SOL     OW19801   3.886   0.478   8.826  0.2485 -0.3847  0.3590
 2722SOL    HW119802   3.957   0.434   8.873  0.0615  1.2022  2.1120
 2722SOL    HW219803   3.936   0.530   8.763 -1.2500 -0.0870 -0.5888
 2723SOL     OW19804   3.292   0.058   5.678 -0.0398 -0.0965 -0.7180
 2723SOL    HW119805   3.216   0.042   5.734  1.9488  0.7955  2.2336
 2723SOL    HW219806   3.258   0.126   5.620 -0.5675  1.5734  1.5646
 2724SOL     OW19807   2.835   3.887   4.481 -0.1819 -0.5995 -0.2308
 2724SOL    HW119808   2.916   3.925   4.517 -0.3672 -0.0435 -0.3985
 2724SOL    HW219809   2.780   3.903   4.558 -1.9715 -0.0136 -1.6380
 2725SOL     OW19810   0.072   2.521   2.323  0.2766  0.8197 -0.3058
 2725SOL    HW119811   4.724   2.473   2.322  2.3899 -2.7807 -1.5751
 2725SOL    HW219812   0.061   2.567   2.240  0.2178 -1.2320 -1.4289
 2726SOL     OW19813   0.304   1.445   4.089 -0.0982 -0.7825 -0.2117
 2726SOL    HW119814   0.397   1.451   4.113 -0.5575  1.9991  0.8883
 2726SOL    HW219815   0.271   1.388   4.158  0.4504  0.3464  0.9822
 2727SOL     OW19816   2.598   2.352   2.277 -0.0605 -0.2805  0.1077
 2727SOL    HW119817   2.592   2.348   2.372  1.4287 -2.4729  0.1154
 2727SOL    HW219818   2.663   2.421   2.267 -1.8635  1.2781 -0.9171
 2728SOL     OW19819   4.505   2.522  13.748 -0.2735 -0.3786 -0.1354
 2728SOL    HW119820   4.418   2.548  13.718  0.0536  0.9585  0.0487
 2728SOL    HW219821   4.536   2.596  13.801 -0.2238  0.4556 -1.3217
 2729SOL     OW19822   4.445   4.306   4.357 -0.1223 -0.0421 -0.6858
 2729SOL    HW119823   4.379   4.374   4.345  0.8428  0.8658 -0.8984
 2729SOL    HW219824   4.416   4.264   4.439  1.3599 -1.0995 -0.7016
 2730SOL     OW19825   3.236   2.822   9.225  0.5270 -0.3340 -0.2275
 2730SOL    HW119826   3.234   2.786   9.314 -1.6778 -2.4778 -1.1418
 2730SOL    HW219827   3.331   2.812   9.213  0.3075 -0.1228 -2.2141
 2731SOL     OW19828   1.401   2.161   7.404 -0.0070  0.4597  0.1094
 2731SOL    HW119829   1.413   2.067   7.413  0.9918  0.6551  0.8558
 2731SOL    HW219830   1.312   2.161   7.368 -0.3579 -1.2623  0.9752
 2732SOL     OW19831   1.952   0.841   5.917 -0.0954  0.3085 -0.0101
 2732SOL    HW119832   1.913   0.898   5.983 -1.0166 -2.0088  1.4501
 2732SOL    HW219833   1.899   0.867   5.841 -0.9864 -3.1386 -0.5565
 2733SOL     OW19834   3.341   2.419   7.332  0.2689 -0.3829  0.3567
 2733SOL    HW119835   3.258   2.439   7.376  0.2072 -0.5986  0.3391
 2733SOL    HW219836   3.402   2.475   7.380 -1.1400  1.2631  0.2197
 2734SOL     OW19837   3.073   0.095   7.857 -0.4238  0.3550 -0.0807
 2734SOL    HW119838   3.027   0.031   7.802  0.1835 -0.5546  0.4746
 2734SOL    HW219839   3.020   0.174   7.858 -1.6481 -0.4441 -0.5724
 2735SOL     OW19840   3.511   2.268   6.650  0.2700 -0.3489 -0.1750
 2735SOL    HW119841   3.471   2.245   6.566 -0.0555 -3.0778  0.7286
 2735SOL    HW219842   3.569   2.194   6.670  1.0647 -0.1017 -1.5603
 2736SOL     OW19843   0.355   2.827  17.515  0.1005 -0.0783 -0.4672
 2736SOL    HW119844   0.319   2.794  17.433  1.1438 -0.3436 -0.8157
 2736SOL    HW219845   0.441   2.861  17.488  0.7178  0.5268  2.2751
 2737SOL     OW19846   2.902   3.001   4.954  0.1100  0.6560 -0.1652
 2737SOL    HW119847   2.836   2.941   4.919  0.1139  1.3784 -1.4044
 2737SOL    HW219848   2.948   2.935   5.006 -0.9193  0.1688  0.1263
 2738SOL     OW19849   2.494   2.031   2.643  0.2653  0.0332 -0.5734
 2738SOL    HW119850   2.402   2.022   2.618 -0.1467 -1.9431  1.6398
 2738SOL    HW219851   2.510   1.958   2.703 -0.7425 -0.5841 -1.0538
 2739SOL     OW19852   3.505   0.160   4.368 -0.1330 -0.0544 -0.0369
 2739SOL    HW119853   3.437   0.199   4.314 -1.1659 -2.8456 -0.7179
 2739SOL    HW219854   3.563   0.234   4.386  1.6889 -1.1342 -1.4342
 2740SOL     OW19855   3.681   3.872   3.541  0.1078  0.6229  0.5128
 2740SOL    HW119856   3.738   3.829   3.478 -0.9392  1.6395 -1.1411
 2740SOL    HW219857   3.687   3.838   3.630 -1.1939  0.2861  0.4775
 2741SOL     OW19858   2.570   4.117   3.006  0.1728  0.3834 -0.0697
 2741SOL    HW119859   2.646   4.137   2.951  1.3377 -0.2897  1.2991
 2741SOL    HW219860   2.545   4.039   2.958 -0.3707  0.0032  0.8420
 2742SOL     OW19861   0.717   2.809   3.802 -0.5552  0.4375  0.0165
 2742SOL    HW119862   0.675   2.856   3.730 -1.2204  0.3676  0.3663
 2742SOL    HW219863   0.778   2.874   3.838 -1.9776  1.0092  1.3992
 2743SOL     OW19864   3.690   1.856  13.156 -0.3804 -0.3731  0.2126
 2743SOL    HW119865   3.645   1.933  13.122  1.2366  0.8124  0.7510
 2743SOL    HW219866   3.622   1.790  13.170  0.4998 -0.8350  2.3065
 2744SOL     OW19867   2.340   3.833   9.090 -0.4033  0.3369 -0.3386
 2744SOL    HW119868   2.320   3.812   8.998 -0.4740 -1.1523  0.0253
 2744SOL    HW219869   2.263   3.796   9.132  2.1252 -2.1706  2.0365
 2745SOL     OW19870   1.609   3.363  11.654  0.0720  0.0862 -0.0074
 2745SOL    HW119871   1.597   3.294  11.719  2.3148  0.8458  1.1826
 2745SOL    HW219872   1.677   3.419  11.692 -0.2716  2.6629 -3.0784
 2746SOL     OW19873   0.149   1.191  14.418 -0.2416 -0.0490 -0.3855
 2746SOL    HW119874   0.103   1.132  14.359 -1.6712  0.4248  0.2486
 2746SOL    HW219875   0.199   1.247  14.358  1.4032 -2.8488 -1.6185
 2747SOL     OW19876   3.216   2.558   9.756  0.2593 -0.6214 -0.1152
 2747SOL    HW119877   3.240   2.647   9.729  1.1859 -0.2609  1.9352
 2747SOL    HW219878   3.264   2.497   9.700 -1.3166 -2.0777  0.1184
 2748SOL     OW19879   3.625   0.639  14.876 -0.4001 -0.3768  0.5875
 2748SOL    HW119880   3.572   0.595  14.810  0.1283  0.3635 -0.3286
 2748SOL    HW219881   3.710   0.607  14.843 -1.8783 -2.9663 -0.6758
 2749SOL     OW19882   4.427   2.913  16.676  0.0579  0.3815  0.2223
 2749SOL    HW119883   4.407   2.934  16.585 -3.0955 -1.2053  0.5478
 2749SOL    HW219884   4.417   2.818  16.681  0.9509  0.1712 -2.0312
 2750SOL     OW19885   0.086   3.523   1.409 -0.5601 -0.4535 -0.2547
 2750SOL    HW119886   0.067   3.528   1.316 -3.5750  3.0789  0.5346
 2750SOL    HW219887   0.001   3.534   1.452 -1.9033 -1.8017 -2.5892
 2751SOL     OW19888   3.067   0.676   4.970 -0.8142  0.4947  0.3086
 2751SOL    HW119889   3.026   0.601   5.013 -0.4450 -0.9182 -1.8095
 2751SOL    HW219890   3.155   0.642   4.952 -0.4773  1.8840 -0.6250
 2752SOL     OW19891   1.743   0.698   0.618  0.1543 -0.1808 -0.1757
 2752SOL    HW119892   1.785   0.655   0.692 -0.2034  0.1491  0.2192
 2752SOL    HW219893   1.781   0.786   0.621 -0.4687  0.1114 -0.8910
 2753SOL     OW19894   2.193   2.904  11.603 -0.1124 -0.3163 -0.1468
 2753SOL    HW119895   2.217   2.812  11.601 -0.0134 -0.2511 -2.4237
 2753SOL    HW219896   2.268   2.946  11.645  0.7240 -0.0667 -1.8504
 2754SOL     OW19897   4.625   1.049   7.149  0.1161  0.3337 -0.4637
 2754SOL    HW119898   4.705   1.050   7.098  1.6139 -1.1245  1.8613
 2754SOL    HW219899   4.658   0.990   7.217 -0.9294  0.0957 -0.1541
 2755SOL     OW19900   1.785   1.781   7.676  0.3019  0.7183  0.3013
 2755SOL    HW119901   1.771   1.867   7.717 -1.2243 -0.3531  1.9956
 2755SOL    HW219902   1.694   1.758   7.659  0.1941  1.4735 -0.1393
 2756SOL     OW19903   1.421   0.593   6.259  0.5413 -0.1907 -0.0446
 2756SOL    HW119904   1.509   0.609   6.291  0.2865  1.7193 -0.3272
 2756SOL    HW219905   1.380   0.679   6.257 -2.4245 -1.6133 -1.5629
 2757SOL     OW19906   3.056   3.383   5.388  0.1360 -0.4260 -0.6274
 2757SOL    HW119907   2.978   3.431   5.361  0.4732  0.9668  0.8655
 2757SOL    HW219908   3.114   3.452   5.421 -0.4822 -0.3959  0.4105
 2758SOL     OW19909   2.032   3.702   2.147 -0.2912 -0.5133  0.1510
 2758SOL    HW119910   1.962   3.678   2.086 -0.9536  1.2231  0.2238
 2758SOL    HW219911   1.993   3.724   2.231  1.1955 -0.1917  0.7660
 2759SOL     OW19912   3.011   1.669  10.559  0.0730 -0.2365  0.6403
 2759SOL    HW119913   3.050   1.754  10.539  0.5397 -0.5761  0.1140
 2759SOL    HW219914   3.018   1.680  10.654 -0.1514  0.2127  0.6054
 2760SOL     OW19915   4.584   1.630  13.097  0.2443 -0.2063 -0.1966
 2760SOL    HW119916   4.582   1.718  13.059 -1.2502 -0.4053 -0.6044
 2760SOL    HW219917   4.524   1.581  13.041 -0.6599  1.4802 -0.7300
 2761SOL     OW19918   4.352   3.767   1.346  0.0484 -0.2365 -0.4674
 2761SOL    HW119919   4.265   3.738   1.374  1.2045 -1.0978  2.2440
 2761SOL    HW219920   4.387   3.687   1.307 -0.9711 -0.7899 -0.2301
 2762SOL     OW19921   4.491   1.068  13.611  0.4280 -0.4940  0.2236
 2762SOL    HW119922   4.441   1.071  13.529  0.3130 -0.9553  0.2785
 2762SOL    HW219923   4.504   0.976  13.630  2.9796  0.0974  1.2541
 2763SOL     OW19924   4.046   2.449   9.388 -0.5736 -0.2645 -0.5662
 2763SOL    HW119925   4.111   2.454   9.458 -0.8847  0.9404 -0.3522
 2763SOL    HW219926   3.971   2.464   9.446  0.4572  1.5311  0.3146
 2764SOL     OW19927   0.838   2.126   1.307 -0.1603  0.2612 -0.8343
 2764SOL    HW119928   0.855   2.220   1.301 -1.4652  0.4440 -1.6558
 2764SOL    HW219929   0.929   2.101   1.295 -0.6783 -1.6515 -0.9306
 2765SOL     OW19930   4.593   0.155   0.574 -0.2202  0.1210 -0.7851
 2765SOL    HW119931   4.640   0.088   0.524 -0.7001 -1.0480  0.3276
 2765SOL    HW219932   4.553   0.207   0.504  0.0736  1.0235 -0.2792
 2766SOL     OW19933   3.366   4.627   3.678 -0.5027  0.4579 -0.2827
 2766SOL    HW119934   3.378   4.591   3.766 -0.9035 -2.0226 -1.2358
 2766SOL    HW219935   3.455   4.634   3.643 -1.0216 -2.3863 -2.1902
 2767SOL     OW19936   0.697   1.502   2.385  0.3680 -0.5963  0.3106
 2767SOL    HW119937   0.684   1.407   2.390 -0.7373 -0.4670 -0.0571
 2767SOL    HW219938   0.608   1.529   2.363  1.4234  3.2523  0.7496
 2768SOL     OW19939   2.847   3.816  10.881 -0.3650  0.3798 -0.0401
 2768SOL    HW119940   2.942   3.811  10.878 -0.4447 -0.5829 -0.8951
 2768SOL    HW219941   2.849   3.910  10.864 -2.4435  0.1974 -1.2938
 2769SOL     OW19942   0.312   2.193   9.035 -0.2941 -0.5387  0.1252
 2769SOL    HW119943   0.277   2.281   9.022  4.5856  1.6999  2.1462
 2769SOL    HW219944   0.365   2.188   8.956 -1.5682 -2.3055 -0.6088
 2770SOL     OW19945   3.225   0.461   9.707 -0.5827 -0.0854  0.0576
 2770SOL    HW119946   3.163   0.389   9.697 -0.0391 -0.3933 -1.1259
 2770SOL    HW219947   3.237   0.493   9.617  2.7173 -0.5791  0.2975
 2771SOL     OW19948   2.017   4.081   4.809 -0.0605 -0.5752 -0.0966
 2771SOL    HW119949   2.096   4.133   4.793 -1.0370 -0.4196 -4.3917
 2771SOL    HW219950   2.033   4.050   4.898 -1.9086 -1.1645  0.0322
 2772SOL     OW19951   0.811   3.402   7.661  0.4721 -1.2715  0.1689
 2772SOL    HW119952   0.724   3.418   7.697  0.5166 -0.6330 -0.0116
 2772SOL    HW219953   0.814   3.462   7.587 -0.1581 -2.4813 -0.8332
 2773SOL     OW19954   2.384   2.347  17.136 -0.7644  0.2583  0.2763
 2773SOL    HW119955   2.308   2.381  17.090 -0.2327  1.3181  0.1793
 2773SOL    HW219956   2.430   2.310  17.061 -2.1855  0.9426 -0.9348
 2774SOL     OW19957   1.610   3.944   8.742 -0.4626 -0.1035 -0.0671
 2774SOL    HW119958   1.673   3.979   8.805  1.3122  0.8445 -2.3843
 2774SOL    HW219959   1.546   4.011   8.763 -0.6931 -0.1800 -0.5348
 2775SOL     OW19960   1.129   2.138   7.345  0.2248  0.2824 -0.3790
 2775SOL    HW119961   1.063   2.168   7.281 -0.8291  2.3270  1.6774
 2775SOL    HW219962   1.111   2.203   7.412 -1.6286 -3.2236  2.5402
 2776SOL     OW19963   3.213   3.840   6.913  0.7442  0.2188 -0.1919
 2776SOL    HW119964   3.124   3.876   6.905 -0.7600 -3.6280 -0.5668
 2776SOL    HW219965   3.264   3.887   6.847 -1.1915 -0.3590 -2.0815
 2777SOL     OW19966   1.797   2.596  12.992 -0.7062  0.1221  0.1559
 2777SOL    HW119967   1.718   2.634  13.030 -1.1568  3.0512 -3.7016
 2777SOL    HW219968   1.858   2.643  13.049 -0.7045  0.6324 -0.2715
 2778SOL     OW19969   1.865   2.900   2.518 -0.2486 -0.2406  0.1385
 2778SOL    HW119970   1.858   2.839   2.445  1.3229 -0.1221 -0.0991
 2778SOL    HW219971   1.816   2.973   2.480  1.3458  1.1879  0.8472
 2779SOL     OW19972   0.708   0.407   2.642 -0.2100 -0.1133 -0.2978
 2779SOL    HW119973   0.685   0.333   2.585  3.1030 -0.8983 -0.5796
 2779SOL    HW219974   0.664   0.483   2.605  0.5487 -0.0366 -1.0265
 2780SOL     OW19975   1.927   1.986   5.650  0.4223 -0.6860 -0.0259
 2780SOL    HW119976   1.936   1.897   5.617 -0.9241 -0.9103  0.2109
 2780SOL    HW219977   1.832   1.994   5.665  0.4943  1.0952 -0.5040
 2781SOL     OW19978   4.213   3.925   3.012 -0.2445 -0.6511 -0.3440
 2781SOL    HW119979   4.135   3.932   2.957  0.2000 -0.3253 -0.9416
 2781SOL    HW219980   4.198   3.835   3.040  0.3632 -0.8223 -0.5724
 2782SOL     OW19981   2.935   0.097   9.296  0.2068 -0.6414  0.3303
 2782SOL    HW119982   2.925   0.178   9.246 -0.9406 -0.9700  0.0232
 2782SOL    HW219983   3.027   0.112   9.318  0.5939 -2.1795 -0.2340
 2783SOL     OW19984   3.217   1.338   8.071 -0.3113 -0.2563  0.2218
 2783SOL    HW119985   3.191   1.246   8.075 -1.1562 -0.0472 -0.3234
 2783SOL    HW219986   3.302   1.339   8.113  0.2775  1.9990 -0.9882
 2784SOL     OW19987   1.839   2.425   5.767  0.1045 -0.4150  0.4518
 2784SOL    HW119988   1.838   2.390   5.856 -2.2970 -0.6749  0.3222
 2784SOL    HW219989   1.782   2.366   5.718  0.0681 -0.6690  0.8033
 2785SOL     OW19990   2.971   0.669  14.681  0.4314 -0.4672 -0.3782
 2785SOL    HW119991   2.931   0.589  14.645 -0.5736  0.2374 -0.8206
 2785SOL    HW219992   2.953   0.650  14.773 -2.8478  1.5219 -0.6333
 2786SOL     OW19993   0.979   2.523   9.014  0.7084  0.3377  0.2056
 2786SOL    HW119994   0.937   2.575   8.946 -2.0430 -0.4543  1.3120
 2786SOL    HW219995   1.014   2.456   8.956  0.2548 -0.0084  0.3320
 2787SOL     OW19996   2.350   3.089   3.312 -0.1818  0.2859 -0.0494
 2787SOL    HW119997   2.402   3.167   3.333 -0.7070  0.6898 -0.2469
 2787SOL    HW219998   2.263   3.130   3.312 -0.4731 -0.3367  1.2824
 2788SOL     OW19999   1.313   1.136   8.593 -0.6510  0.0976 -0.2128
 2788SOL    HW120000   1.365   1.185   8.530 -1.7628  0.9243 -0.4639
 2788SOL    HW220001   1.367   1.142   8.673 -1.4926 -0.3988  0.3928
 2789SOL     OW20002   2.387   1.612   5.225 -0.3639  0.3894 -0.3159
 2789SOL    HW120003   2.425   1.558   5.156 -0.1180  1.0327 -0.6876
 2789SOL    HW220004   2.402   1.696   5.182 -0.3644  1.2874  1.4429
 2790SOL     OW20005   4.091   4.600   5.212  0.5320 -0.0461  1.0672
 2790SOL    HW120006   4.003   4.619   5.242 -0.9420  0.0433 -3.2496
 2790SOL    HW220007   4.140   4.582   5.292  1.2883 -0.3406  0.5413
 2791SOL     OW20008   3.646   2.253   7.599  0.2778 -0.2569 -0.4554
 2791SOL    HW120009   3.628   2.273   7.507  0.0603 -1.7588 -0.7454
 2791SOL    HW220010   3.729   2.206   7.591  0.7556  0.8935 -2.2432
 2792SOL     OW20011   3.978   0.617   1.604 -0.4534  0.4280  0.1489
 2792SOL    HW120012   3.973   0.669   1.524  2.7581 -2.5053 -1.9916
 2792SOL    HW220013   3.900   0.561   1.601 -0.9864  0.9430  3.8894
 2793SOL     OW20014   3.293   0.862   9.361  0.1088  0.0278  0.4268
 2793SOL    HW120015   3.329   0.950   9.370  2.7570 -1.0680  0.5451
 2793SOL    HW220016   3.286   0.868   9.266 -1.8995 -1.6359  0.4566
 2794SOL     OW20017   3.062   0.245   9.627 -0.4842  0.1206 -0.0582
 2794SOL    HW120018   3.047   0.275   9.537 -1.8541  0.6140  0.3332
 2794SOL    HW220019   3.130   0.181   9.606  0.7069  1.2807  0.2700
 2795SOL     OW20020   0.560   0.497   3.025 -0.1336 -0.0289  0.1988
 2795SOL    HW120021   0.607   0.526   3.104  0.8892 -0.4518 -0.2521
 2795SOL    HW220022   0.540   0.574   2.971 -0.4372 -1.1807 -1.3277
 2796SOL     OW20023   2.306   3.903   6.256 -0.3157  0.6437 -0.0807
 2796SOL    HW120024   2.318   3.964   6.328 -2.4153 -1.1447  1.7698
 2796SOL    HW220025   2.372   3.834   6.261 -0.7014  0.5061  2.6786
 2797SOL     OW20026   3.332   0.342   5.802 -0.2394 -0.2653  0.3938
 2797SOL    HW120027   3.383   0.268   5.768 -2.7862 -1.1699 -1.4268
 2797SOL    HW220028   3.390   0.418   5.791 -1.5498  0.7468  0.5277
 2798SOL     OW20029   1.282   3.389   8.622  0.0086 -0.5738 -0.5602
 2798SOL    HW120030   1.241   3.470   8.654  1.9017  0.6204 -1.1733
 2798SOL    HW220031   1.226   3.330   8.673 -1.6193  0.4165 -1.2092
 2799SOL     OW20032   2.273   0.589  13.398 -0.1581 -0.6969 -1.0942
 2799SOL    HW120033   2.362   0.623  13.387 -0.0862  0.2846  2.5501
 2799SOL    HW220034   2.233   0.648  13.335 -1.1124 -2.7974 -2.4427
 2800SOL     OW20035   0.545   0.737   4.162  0.2308  0.8394  0.1107
 2800SOL    HW120036   0.637   0.719   4.178  0.0044  1.9184  2.7108
 2800SOL    HW220037   0.512   0.647   4.166  1.4248  0.4588  1.5921
 2801SOL     OW20038   3.711   3.437   2.290 -0.4885  0.3450  0.4789
 2801SOL    HW120039   3.636   3.399   2.336 -0.4334 -0.7850 -0.3732
 2801SOL    HW220040   3.664   3.463   2.211  0.0974  2.3930  0.8060
 2802SOL     OW20041   4.224   3.797   7.777 -0.1354  0.0891 -0.1034
 2802SOL    HW120042   4.189   3.735   7.713 -0.0594  1.6216 -1.6259
 2802SOL    HW220043   4.300   3.748   7.809  1.4847  1.9253 -1.0990
 2803SOL     OW20044   3.865   3.440   9.837  0.3992  0.0027  0.0949
 2803SOL    HW120045   3.770   3.438   9.829  0.2898  0.7639  1.2323
 2803SOL    HW220046   3.877   3.401   9.750 -2.3460 -0.2355 -0.1955
 2804SOL     OW20047   0.638   0.392  16.790  0.4170  0.2428  0.2586
 2804SOL    HW120048   0.681   0.466  16.748 -0.1750  0.0504 -0.6886
 2804SOL    HW220049   0.693   0.390  16.868  0.3366  0.0706  0.3104
 2805SOL     OW20050   2.132   3.918   2.568 -0.0283  0.4141 -0.1702
 2805SOL    HW120051   2.122   3.995   2.512  0.5823  0.2097 -0.5672
 2805SOL    HW220052   2.045   3.907   2.607 -0.5329  0.8532 -1.1839
 2806SOL     OW20053   0.890   2.934   8.292  0.2335 -0.1898 -0.4856
 2806SOL    HW120054   0.917   2.996   8.224  1.4315  0.8539  0.9422
 2806SOL    HW220055   0.974   2.893   8.310 -0.0853  0.5640  2.8739
 2807SOL     OW20056   3.401   2.707  11.027 -0.5746 -0.1391  0.3331
 2807SOL    HW120057   3.422   2.705  11.120  3.1269 -0.2662 -0.4854
 2807SOL    HW220058   3.314   2.746  11.034  0.8240  3.1068 -0.4382
 2808SOL     OW20059   3.506   3.284  15.910 -0.2586 -0.0803 -0.5847
 2808SOL    HW120060   3.454   3.243  15.979 -1.2233 -0.2362 -1.3917
 2808SOL    HW220061   3.578   3.221  15.914  2.1828  2.7537 -0.4112
 2809SOL     OW20062   1.454   2.119   7.842 -0.4244 -0.0453  0.4975
 2809SOL    HW120063   1.380   2.096   7.899 -2.4065 -0.4435 -2.2060
 2809SOL    HW220064   1.455   2.213   7.861 -1.7541  0.3133 -1.1436
 2810SOL     OW20065   0.192   3.245  14.070  0.3851  0.2475 -0.0281
 2810SOL    HW120066   0.261   3.197  14.115 -0.0276  0.5256  0.8941
 2810SOL    HW220067   0.207   3.335  14.096  1.5751  0.7337 -2.4138
 2811SOL     OW20068   3.924   0.785   5.181 -0.6049 -0.2620 -0.8377
 2811SOL    HW120069   3.960   0.738   5.106  1.3238  0.4209 -0.3314
 2811SOL    HW220070   3.994   0.788   5.246 -1.3792  1.6135 -0.1072
 2812SOL     OW20071   3.723   1.838   4.802 -0.3755 -0.3554 -0.0519
 2812SOL    HW120072   3.714   1.845   4.707 -1.8805 -0.4111  0.0805
 2812SOL    HW220073   3.634   1.817   4.830 -0.3718  0.7171  0.7437
 2813SOL     OW20074   4.584   4.575   6.194  0.2684  0.8159  0.1154
 2813SOL    HW120075   4.531   4.556   6.117 -1.2051  2.9259  0.6211
 2813SOL    HW220076   4.621   4.495   6.232  1.5778  1.3754  0.0468
 2814SOL     OW20077   3.363   3.760   1.486  0.6408 -0.1726 -0.4837
 2814SOL    HW120078   3.269   3.762   1.470  0.5362  2.1143  0.3609
 2814SOL    HW220079   3.389   3.815   1.412  0.9380  2.6624  1.7243
 2815SOL     OW20080   4.059   2.060  11.295  0.0780 -0.7250 -0.3876
 2815SOL    HW120081   4.091   2.105  11.373 -1.6805  1.0599 -0.7225
 2815SOL    HW220082   4.025   1.981  11.338 -1.9703 -0.9622 -2.4797
 2816SOL     OW20083   4.042   1.647  12.976 -0.1496  0.1190  0.2241
 2816SOL    HW120084   4.066   1.554  12.974 -0.3888 -0.0024  2.2329
 2816SOL    HW220085   4.048   1.680  12.887 -0.2541  0.8856  0.4958
 2817SOL     OW20086   1.984   0.442   5.074  0.3055 -0.4309 -0.1354
 2817SOL    HW120087   1.969   0.407   4.986 -2.0908 -0.1618  0.1684
 2817SOL    HW220088   2.078   0.460   5.074  0.3072 -0.4331  1.9468
 2818SOL     OW20089   0.966   3.822   6.804 -0.0361 -0.0217 -0.1796
 2818SOL    HW120090   0.871   3.817   6.794 -0.0573 -1.6373  0.8819
 2818SOL    HW220091   0.969   3.915   6.825  2.1499  0.1212 -1.1285
 2819SOL     OW20092   3.209   2.493   9.354  0.4400  0.0132  0.4760
 2819SOL    HW120093   3.234   2.400   9.353 -0.4942 -0.2261 -1.6574
 2819SOL    HW220094   3.291   2.542   9.351 -0.5067  1.5444 -0.5674
 2820SOL     OW20095   3.085   3.625   6.380  0.1485 -0.3241  0.1435
 2820SOL    HW120096   3.118   3.701   6.428 -0.6813 -0.3567  0.7668
 2820SOL    HW220097   3.166   3.575   6.367 -0.2208 -1.2741  1.4356
 2821SOL     OW20098   4.560   3.299   2.070 -0.1139  0.1839 -0.0600
 2821SOL    HW120099   4.550   3.394   2.067  0.6637  0.2550 -0.2611
 2821SOL    HW220100   4.480   3.270   2.114 -0.0222 -1.9354 -1.3086
 2822SOL     OW20101   0.234   1.607   1.841  0.6193  0.1408 -0.5873
 2822SOL    HW120102   0.226   1.583   1.933  2.4994  1.5603 -0.0545
 2822SOL    HW220103   0.328   1.612   1.821  1.1444 -1.5650  1.5161
 2823SOL     OW20104   4.660   2.198   3.152 -0.4053 -0.9001 -0.1136
 2823SOL    HW120105   4.636   2.126   3.211 -0.7851  0.6074  1.5737
 2823SOL    HW220106   4.594   2.191   3.083  1.5066 -0.7061 -1.9579
 2824SOL     OW20107   1.955   4.613   9.282  0.5102  0.1563 -0.1032
 2824SOL    HW120108   1.937   4.532   9.330 -0.5804  0.6697  0.3682
 2824SOL    HW220109   2.015   4.658   9.341  1.2752 -0.2414 -0.5755
 2825SOL     OW20110   4.058   4.556   7.590  0.1148 -0.4103  0.0695
 2825SOL    HW120111   4.076   4.636   7.541 -0.7482 -0.9139 -1.1085
 2825SOL    HW220112   4.035   4.513   7.507  0.3708  0.6219 -0.5313
 2826SOL     OW20113   3.433   3.456  10.930 -0.4707 -0.0871 -0.3337
 2826SOL    HW120114   3.464   3.421  11.014 -3.0451  1.1494  1.1249
 2826SOL    HW220115   3.379   3.383  10.901 -0.2829 -1.1279  1.8999
 2827SOL     OW20116   0.033   1.171   5.078 -0.6500 -0.0938  0.3314
 2827SOL    HW120117   4.728   1.257   5.069 -0.2543  0.2072  1.3878
 2827SOL    HW220118   0.102   1.189   5.142 -0.8081 -0.3513  0.5771
 2828SOL     OW20119   3.268   0.209   6.053 -0.4956 -0.6159  0.3880
 2828SOL    HW120120   3.259   0.216   5.957  0.8685 -1.4931  0.2018
 2828SOL    HW220121   3.189   0.168   6.087 -1.5049 -0.9207 -2.3400
 2829SOL     OW20122   4.665   2.465   3.205 -0.0443  0.1314 -0.0861
 2829SOL    HW120123   0.019   2.459   3.239 -0.0695 -0.6103 -0.1456
 2829SOL    HW220124   4.654   2.374   3.180 -1.1414  0.0251  0.8199
 2830SOL     OW20125   1.506   0.397   2.852  0.1045  0.3355  0.3721
 2830SOL    HW120126   1.474   0.421   2.938 -2.2749 -1.6070  0.0223
 2830SOL    HW220127   1.431   0.348   2.818 -0.1801 -0.0991  1.6359
 2831SOL     OW20128   0.599   0.021   4.544  0.4368  0.1455  0.5778
 2831SOL    HW120129   0.634   4.705   4.617  0.2959  2.2684  2.1184
 2831SOL    HW220130   0.570   0.091   4.601 -1.7162 -0.5043  0.2772
 2832SOL     OW20131   0.242   3.963   5.499  0.2837  0.4391  0.0993
 2832SOL    HW120132   0.171   3.911   5.462  2.0752 -1.2976 -0.9436
 2832SOL    HW220133   0.254   3.925   5.586 -2.5876 -0.9612 -0.1472
 2833SOL     OW20134   3.933   0.356   8.510 -0.1368 -0.0561  0.0831
 2833SOL    HW120135   3.907   0.285   8.568 -2.2709  1.7434  1.3172
 2833SOL    HW220136   3.849   0.398   8.494 -0.6038 -0.9853  0.1140
 2834SOL     OW20137   1.474   0.582  11.962 -0.2078 -0.3125  0.0807
 2834SOL    HW120138   1.536   0.655  11.966  0.7072 -1.0934  0.1417
 2834SOL    HW220139   1.535   0.507  11.964 -0.2967 -0.4198 -1.3559
 2835SOL     OW20140   1.647   1.125   2.829 -0.4953 -0.5096 -0.1331
 2835SOL    HW120141   1.680   1.117   2.919 -0.4857  0.4466 -0.0581
 2835SOL    HW220142   1.618   1.036   2.808 -3.5695  0.4691  0.0410
 2836SOL     OW20143   3.510   3.413  16.514 -0.7759 -0.1991  0.0038
 2836SOL    HW120144   3.601   3.431  16.538 -0.6050 -1.1849  0.0572
 2836SOL    HW220145   3.476   3.419  16.603 -1.6126  1.8085 -0.4319
 2837SOL     OW20146   3.684   3.835   4.368 -0.6212 -0.1131  0.3910
 2837SOL    HW120147   3.778   3.845   4.381 -0.9937 -1.5788  4.1953
 2837SOL    HW220148   3.663   3.792   4.451 -3.3002 -0.2061 -0.3271
 2838SOL     OW20149   0.907   2.502  14.673 -0.0347 -0.4385  0.2185
 2838SOL    HW120150   0.958   2.513  14.593 -0.8508  0.5480 -0.1687
 2838SOL    HW220151   0.953   2.427  14.712  0.7685  0.2864  0.6620
 2839SOL     OW20152   1.234   2.160  10.393  0.8452  0.2889 -0.0751
 2839SOL    HW120153   1.301   2.133  10.456  0.4253 -0.2292  0.1516
 2839SOL    HW220154   1.269   2.246  10.372 -1.5043  1.6625  1.6190
 2840SOL     OW20155   3.313   4.732  15.276  0.3520 -0.4513  0.1603
 2840SOL    HW120156   3.218   0.009  15.284  0.6212  3.2183 -2.0606
 2840SOL    HW220157   3.317   4.666  15.345 -1.2548 -0.5779  0.1403
 2841SOL     OW20158   0.691   1.414  11.088 -0.1837  0.2642 -0.1073
 2841SOL    HW120159   0.599   1.393  11.070  0.2423 -0.6050 -1.2928
 2841SOL    HW220160   0.726   1.453  11.009  0.0158 -0.2089 -0.2494
 2842SOL     OW20161   1.512   3.926   4.381  0.7361 -0.0405 -0.2026
 2842SOL    HW120162   1.586   3.883   4.339  1.7923  0.9679  0.6112
 2842SOL    HW220163   1.453   3.851   4.371  0.7213 -0.3882  2.5843
 2843SOL     OW20164   4.006   2.130   6.455  0.5570 -0.2124 -0.1481
 2843SOL    HW120165   3.911   2.135   6.464  0.7409  0.2004  1.5661
 2843SOL    HW220166   4.025   2.212   6.500  1.1698 -1.5036  1.9261
 2844SOL     OW20167   4.692   1.384   9.628  0.5700  0.2609  1.0652
 2844SOL    HW120168   0.009   1.363   9.551 -3.2573 -0.8682 -1.2029
 2844SOL    HW220169   4.616   1.327   9.615 -2.3575  3.7301  2.8240
 2845SOL     OW20170   1.174   3.162   9.400  0.8768  0.2361 -0.6801
 2845SOL    HW120171   1.260   3.136   9.432  0.7696 -0.2913 -0.8232
 2845SOL    HW220172   1.122   3.086   9.427  2.8314 -0.0993  2.1302
 2846SOL     OW20173   3.963   3.178   5.234 -0.3615 -0.3091 -0.2988
 2846SOL    HW120174   3.991   3.093   5.202  0.2169 -0.5563  0.8776
 2846SOL    HW220175   3.894   3.191   5.169  0.0229  2.9106 -0.1033
 2847SOL     OW20176   1.653   1.806   1.189  0.0438 -0.0599  0.5037
 2847SOL    HW120177   1.740   1.845   1.199  0.6793 -1.4308  0.4123
 2847SOL    HW220178   1.629   1.855   1.110 -0.8019  1.3436  1.6446
 2848SOL     OW20179   3.539   3.266  11.112 -0.0160 -0.3693 -0.1574
 2848SOL    HW120180   3.591   3.235  11.037  1.2088  0.8123  0.2202
 2848SOL    HW220181   3.589   3.231  11.185 -0.3200 -0.8370 -0.1720
 2849SOL     OW20182   2.537   0.552   1.618  0.7423 -0.2752 -0.8798
 2849SOL    HW120183   2.531   0.585   1.707  0.5063  0.8583 -1.3228
 2849SOL    HW220184   2.625   0.516   1.612  0.8196  0.0663 -1.8486
 2850SOL     OW20185   1.697   4.105  12.156 -0.1814 -0.3103  0.2974
 2850SOL    HW120186   1.717   4.093  12.249  0.6827 -0.3656  0.1044
 2850SOL    HW220187   1.774   4.057  12.126 -0.3622 -0.7522  0.5419
 2851SOL     OW20188   1.794   3.083   5.124  0.4647  0.1557  0.0001
 2851SOL    HW120189   1.838   3.131   5.194 -0.3016 -0.7593  1.1008
 2851SOL    HW220190   1.747   3.154   5.080  0.2156 -0.2598 -0.4054
 2852SOL     OW20191   1.072   2.561  15.265 -0.3147  0.1299 -0.3260
 2852SOL    HW120192   1.097   2.647  15.232 -1.1398  0.6406  0.3985
 2852SOL    HW220193   1.060   2.525  15.177 -1.8851 -0.7149  0.2378
 2853SOL     OW20194   4.647   0.201   0.833 -0.0551  0.0024  0.0018
 2853SOL    HW120195   4.631   0.112   0.865  1.8809 -0.9333 -1.5782
 2853SOL    HW220196   4.621   0.181   0.742 -0.4771 -1.6234  0.4685
 2854SOL     OW20197   2.971   0.170  15.599  0.0874  0.2189 -0.3032
 2854SOL    HW120198   2.906   0.219  15.549  0.1174  1.3122  0.7264
 2854SOL    HW220199   2.971   0.089  15.547 -1.5288  1.9169 -2.9330
 2855SOL     OW20200   3.069   0.132   3.892 -0.3559  0.6668 -0.3594
 2855SOL    HW120201   3.121   0.056   3.919 -1.6405 -0.1627 -0.2255
 2855SOL    HW220202   3.125   0.161   3.820  0.4488  3.0842  1.2422
 2856SOL     OW20203   3.206   1.809   2.358  0.0117  0.0770  0.3012
 2856SOL    HW120204   3.256   1.843   2.284  0.4595  1.7874  1.3880
 2856SOL    HW220205   3.125   1.772   2.324  0.6420 -0.6710 -0.3957
 2857SOL     OW20206   3.951   1.407   5.456  0.5528 -0.2973 -0.1157
 2857SOL    HW120207   3.963   1.500   5.470 -0.2728  0.1127 -2.1024
 2857SOL    HW220208   3.963   1.407   5.361 -0.4764 -3.8207 -0.2493
 2858SOL     OW20209   0.633   4.391  15.446  0.3299 -0.4529 -0.0337
 2858SOL    HW120210   0.564   4.337  15.407 -1.2128  1.7704 -0.4134
 2858SOL    HW220211   0.671   4.419  15.362 -1.1410 -0.9712 -0.8878
 2859SOL     OW20212   1.860   2.612   9.154  0.2174  0.4610  0.0616
 2859SOL    HW120213   1.844   2.521   9.176  0.8139 -0.2132 -2.2322
 2859SOL    HW220214   1.955   2.614   9.166  0.3830  2.9293 -1.6288
 2860SOL     OW20215   2.819   0.933   3.091  0.6504  0.1498  0.2906
 2860SOL    HW120216   2.729   0.965   3.101 -0.1677 -2.9089  2.7933
 2860SOL    HW220217   2.857   1.002   3.036  0.9649  0.1788  0.5458
 2861SOL     OW20218   1.235   1.205   4.485  0.4179  0.0392 -0.3585
 2861SOL    HW120219   1.253   1.111   4.492 -0.7659 -0.0113  1.7608
 2861SOL    HW220220   1.258   1.236   4.572 -1.0266  0.2066 -0.0307
 2862SOL     OW20221   2.376   1.088   3.302 -0.2695 -0.4105  0.5321
 2862SOL    HW120222   2.393   0.994   3.290 -1.2522 -0.2751 -1.7540
 2862SOL    HW220223   2.412   1.122   3.221 -1.8177  2.2573  0.9730
 2863SOL     OW20224   2.947   0.960   7.774  0.7560  0.0691 -0.4995
 2863SOL    HW120225   2.878   1.004   7.723  0.4217  1.2723  0.9936
 2863SOL    HW220226   2.951   1.012   7.854 -0.2616 -0.2923 -0.2111
 2864SOL     OW20227   3.250   1.650   7.871 -0.3844  0.1813  0.5219
 2864SOL    HW120228   3.227   1.662   7.963 -0.1541 -0.1182  0.6185
 2864SOL    HW220229   3.177   1.692   7.826 -0.1142 -0.6482 -0.6823
 2865SOL     OW20230   2.341   3.759   4.381  0.0960  0.1611  0.3810
 2865SOL    HW120231   2.333   3.830   4.445  1.3064 -0.9178  1.7310
 2865SOL    HW220232   2.268   3.705   4.410 -0.2939  1.1155  1.2009
 2866SOL     OW20233   1.805   2.892   9.241 -0.3074 -0.0586 -0.0907
 2866SOL    HW120234   1.800   2.826   9.172 -0.3235 -0.7924  0.6162
 2866SOL    HW220235   1.897   2.919   9.243 -0.3794  0.2153 -0.5961
 2867SOL     OW20236   0.165   3.292   8.322  0.2848  0.7688 -0.0954
 2867SOL    HW120237   0.153   3.214   8.377 -0.3988  1.6251  0.9867
 2867SOL    HW220238   0.173   3.243   8.240 -0.6895 -0.4394  0.5230
 2868SOL     OW20239   1.357   3.725   3.516 -0.0282  0.4588  0.0254
 2868SOL    HW120240   1.452   3.714   3.503 -0.0060  1.2246 -0.4786
 2868SOL    HW220241   1.358   3.800   3.575 -0.6236  0.4977 -0.0232
 2869SOL     OW20242   1.398   3.913   4.044 -0.2917  0.7774 -0.6402
 2869SOL    HW120243   1.453   3.844   4.082 -1.5636  0.8856  1.4131
 2869SOL    HW220244   1.330   3.851   4.018  0.4792 -0.0474 -0.7250
 2870SOL     OW20245   1.053   2.836   7.968 -0.1563 -0.2322  0.2338
 2870SOL    HW120246   1.066   2.858   7.876  0.5592 -1.0022  0.1562
 2870SOL    HW220247   1.067   2.922   8.009 -1.8603 -0.3044  0.9515
 2871SOL     OW20248   1.741   2.604   0.904  0.1070 -0.0774 -0.4556
 2871SOL    HW120249   1.667   2.569   0.853 -0.1786  0.2435 -0.2582
 2871SOL    HW220250   1.757   2.528   0.959 -1.5963 -0.0946  0.0186
 2872SOL     OW20251   4.581   1.240   6.874  0.2442 -0.3667  0.7461
 2872SOL    HW120252   4.641   1.312   6.855 -0.4751 -0.3128 -1.2610
 2872SOL    HW220253   4.604   1.221   6.965 -1.4347 -0.2513  1.1891
 2873SOL     OW20254   2.434   0.067  14.929 -0.0527 -0.2986  0.0738
 2873SOL    HW120255   2.388   0.012  14.865  2.3451 -1.5332 -0.5887
 2873SOL    HW220256   2.526   0.042  14.923 -0.0929 -0.3613 -0.2956
 2874SOL     OW20257   2.179   4.243   4.135 -0.7452 -0.2828 -0.0216
 2874SOL    HW120258   2.155   4.154   4.111  2.1153 -0.4518 -2.2932
 2874SOL    HW220259   2.274   4.242   4.142 -0.9278 -0.4383  2.4370
 2875SOL     OW20260   3.226   0.972   2.464  0.0896 -0.4669 -0.4721
 2875SOL    HW120261   3.257   1.057   2.498 -0.8088 -0.1535 -0.4520
 2875SOL    HW220262   3.197   0.926   2.542 -3.1820  1.1389 -0.7655
 2876SOL     OW20263   1.603   3.560   4.730 -1.0552 -0.0132 -0.2147
 2876SOL    HW120264   1.564   3.616   4.797 -0.4041 -0.8531  0.8735
 2876SOL    HW220265   1.684   3.609   4.712 -0.4666 -0.9492 -0.1173
 2877SOL     OW20266   0.320   4.013   8.899  0.3096  0.2717 -0.1140
 2877SOL    HW120267   0.384   3.944   8.919  0.7099  0.8894  0.6974
 2877SOL    HW220268   0.351   4.080   8.959 -2.8161  0.7815  0.9291
 2878SOL     OW20269   1.989   2.085   5.386 -0.3098  0.0920  0.5794
 2878SOL    HW120270   1.975   2.074   5.480 -3.4800 -1.2822 -0.0634
 2878SOL    HW220271   2.025   1.999   5.367 -0.3428  0.4835 -1.1910
 2879SOL     OW20272   3.891   2.626   8.683  0.1622 -0.5388  0.0259
 2879SOL    HW120273   3.849   2.591   8.605 -0.0224 -2.1904  0.8553
 2879SOL    HW220274   3.959   2.560   8.696  0.2448 -0.3251  0.6933
 2880SOL     OW20275   0.933   4.376   2.821  0.2574 -0.1146 -0.1570
 2880SOL    HW120276   0.844   4.372   2.856  1.3160  0.6836  2.5449
 2880SOL    HW220277   0.981   4.312   2.872 -1.9269 -1.8295 -0.2481
 2881SOL     OW20278   1.331   2.072   6.086 -0.4637 -0.1152  0.0919
 2881SOL    HW120279   1.289   2.086   6.171 -2.1936 -0.0827 -0.7677
 2881SOL    HW220280   1.273   2.131   6.038  0.1273  0.5061  0.1441
 2882SOL     OW20281   0.195   0.846   0.252 -0.2275  0.1714  0.0140
 2882SOL    HW120282   0.176   0.765   0.298 -3.7127  1.4320  0.7976
 2882SOL    HW220283   0.287   0.865   0.270  0.2118 -2.7869  0.7459
 2883SOL     OW20284   0.863   2.087   2.413 -0.3937  0.0113  0.0635
 2883SOL    HW120285   0.878   2.128   2.499  0.2847 -0.3634  0.1232
 2883SOL    HW220286   0.932   2.022   2.427  0.7482  0.8425 -1.6899
 2884SOL     OW20287   4.006   4.054  13.942 -0.0971  0.2633  0.6677
 2884SOL    HW120288   4.020   4.045  14.036 -1.9804  0.0189  0.9207
 2884SOL    HW220289   4.090   4.018  13.914  0.3831  0.5033  1.8008
 2885SOL     OW20290   1.994   2.911   4.582 -0.2681  0.5307 -0.8967
 2885SOL    HW120291   1.990   2.849   4.509  1.2989  0.8060 -1.2141
 2885SOL    HW220292   2.049   2.979   4.543  1.5158  0.7097  1.9552
 2886SOL     OW20293   1.992   3.757   4.908  0.8853 -0.2778  0.1146
 2886SOL    HW120294   1.946   3.825   4.957 -0.1991 -1.1971  0.3680
 2886SOL    HW220295   2.079   3.753   4.949  0.6358  0.8097  0.7533
 2887SOL     OW20296   1.904   1.979   7.331  0.3194 -0.6422  0.1730
 2887SOL    HW120297   1.891   1.940   7.245 -2.2666  1.7999 -0.5555
 2887SOL    HW220298   1.826   2.034   7.345  1.2999  0.7075  0.3254
 2888SOL     OW20299   0.715   0.727   6.215 -0.2630  0.0206  0.2013
 2888SOL    HW120300   0.722   0.639   6.178  1.5855  0.4776 -0.5629
 2888SOL    HW220301   0.806   0.747   6.193  0.5960 -1.4020  2.5394
 2889SOL     OW20302   3.271   2.741   1.340 -0.0017 -0.1086 -0.5112
 2889SOL    HW120303   3.187   2.759   1.382  1.8987  0.3413  3.1016
 2889SOL    HW220304   3.238   2.692   1.265  0.3761 -2.7214  1.0446
 2890SOL     OW20305   1.261   3.163   3.860  0.7177 -0.2205 -0.1565
 2890SOL    HW120306   1.200   3.227   3.822 -1.4716  0.0611  3.8666
 2890SOL    HW220307   1.287   3.114   3.782  0.4815  3.8904 -2.8403
 2891SOL     OW20308   2.221   1.844   9.246 -0.0496  0.1191 -0.1826
 2891SOL    HW120309   2.161   1.771   9.263 -2.6333  2.9758  2.7151
 2891SOL    HW220310   2.190   1.871   9.160 -1.8841  1.5313  0.9350
 2892SOL     OW20311   4.016   3.543   7.408 -0.3427  0.2722 -0.2681
 2892SOL    HW120312   4.057   3.460   7.383  1.9153  1.3293 -0.1426
 2892SOL    HW220313   4.037   3.543   7.502  0.8378 -1.0975 -0.5256
 2893SOL     OW20314   3.640   3.240   3.995  0.2838 -0.2702 -0.0576
 2893SOL    HW120315   3.596   3.284   3.923  1.1544 -0.6758 -0.8416
 2893SOL    HW220316   3.679   3.162   3.956  0.4665 -0.3159  0.2134
 2894SOL     OW20317   3.321   2.410   3.600 -0.0179 -0.4986  0.1014
 2894SOL    HW120318   3.403   2.363   3.585 -1.2456 -3.2253  2.1327
 2894SOL    HW220319   3.324   2.423   3.695 -1.5855 -0.6201  0.1625
 2895SOL     OW20320   4.220   3.673  17.571 -0.3066  0.9655 -0.2293
 2895SOL    HW120321   4.315   3.670  17.562 -0.0372 -0.5919  3.0304
 2895SOL    HW220322   4.208   3.687  17.665 -1.0280 -0.5963 -0.1020
 2896SOL     OW20323   2.572   1.762   7.736 -0.1208 -0.3165  0.1350
 2896SOL    HW120324   2.647   1.724   7.691 -1.1415 -1.7426 -0.3469
 2896SOL    HW220325   2.526   1.798   7.660  1.1754 -1.2620 -1.0885
 2897SOL     OW20326   0.299   0.109   1.578 -0.1317 -0.7354 -0.0224
 2897SOL    HW120327   0.313   0.016   1.558  0.7574 -0.2759 -1.5378
 2897SOL    HW220328   0.220   0.120   1.525  0.0054  0.9998  0.1224
 2898SOL     OW20329   0.899   2.305   4.065  0.4994  0.0547 -0.1799
 2898SOL    HW120330   0.985   2.263   4.063 -0.2260 -1.4146 -0.7972
 2898SOL    HW220331   0.924   2.397   4.068  4.9172 -1.1530  0.7410
 2899SOL     OW20332   3.300   4.322   1.572 -0.1130  0.4432 -0.0480
 2899SOL    HW120333   3.253   4.352   1.650  0.2200  0.4794  0.1419
 2899SOL    HW220334   3.322   4.230   1.584 -1.3381  0.2955  1.0786
 2900SOL     OW20335   2.621   4.081   8.350  1.1323  0.0473  0.1016
 2900SOL    HW120336   2.542   4.031   8.329  1.5925 -1.0447  1.0126
 2900SOL    HW220337   2.686   4.048   8.289  0.5177 -2.3536  0.7520
 2901SOL     OW20338   4.028   0.432   0.881  0.8021 -0.5726 -0.0806
 2901SOL    HW120339   4.040   0.392   0.968  0.3438 -0.4247  0.0494
 2901SOL    HW220340   3.996   0.518   0.909 -0.8065 -0.5886 -1.9267
 2902SOL     OW20341   4.091   1.405   8.216  0.2275  0.6068  0.1090
 2902SOL    HW120342   4.083   1.346   8.141 -0.4999  1.8116 -0.7616
 2902SOL    HW220343   4.131   1.343   8.278  1.3820  1.3856  0.1350
 2903SOL     OW20344   2.448   3.122  17.707 -0.0759  0.4414  0.0057
 2903SOL    HW120345   2.476   3.113  17.616  1.7716  0.7908  0.5369
 2903SOL    HW220346   2.369   3.068  17.716 -1.0323  1.6946 -0.9816
 2904SOL     OW20347   0.579   3.265   4.534 -0.3848 -0.0064 -0.1484
 2904SOL    HW120348   0.549   3.349   4.570  1.0693  0.5062 -0.1431
 2904SOL    HW220349   0.662   3.258   4.581  1.9205  1.7890 -3.9496
 2905SOL     OW20350   1.550   3.274   3.122 -0.4352  0.4475 -0.2614
 2905SOL    HW120351   1.633   3.242   3.088 -1.0492 -1.4667  0.0732
 2905SOL    HW220352   1.554   3.357   3.074 -1.5963  0.7589  0.1699
 2906SOL     OW20353   2.139   1.586   2.517 -0.3349  0.3767  0.4271
 2906SOL    HW120354   2.136   1.603   2.611  0.0670 -0.5255  0.6081
 2906SOL    HW220355   2.095   1.501   2.504 -0.0868  0.7676 -2.8698
 2907SOL     OW20356   4.369   3.308   7.484  0.1650 -0.1220 -0.1828
 2907SOL    HW120357   4.417   3.229   7.509 -0.2798 -0.4503 -0.3770
 2907SOL    HW220358   4.423   3.366   7.539 -2.1601 -0.3950  2.3903
 2908SOL     OW20359   1.014   4.144   2.626  0.3246 -0.2329 -0.2388
 2908SOL    HW120360   1.037   4.059   2.665  0.4797 -0.0652  0.0307
 2908SOL    HW220361   1.022   4.201   2.702 -2.0411 -1.6419  1.0679
 2909SOL     OW20362   0.483   2.097   5.202  0.0894  0.1891  0.1155
 2909SOL    HW120363   0.547   2.132   5.265 -1.0861  1.3098  0.6897
 2909SOL    HW220364   0.438   2.030   5.252 -0.0681  1.1432  1.2540
 2910SOL     OW20365   3.748   0.365   3.031  0.2269  0.2141 -0.2326
 2910SOL    HW120366   3.663   0.368   3.074 -0.4515 -2.6201 -1.3253
 2910SOL    HW220367   3.797   0.421   3.092 -1.4934  1.1654  0.2603
 2911SOL     OW20368   1.040   1.532   5.682  0.2588  0.5653  0.1839
 2911SOL    HW120369   1.049   1.446   5.641  1.6491  1.4336 -1.3268
 2911SOL    HW220370   1.082   1.524   5.767  1.2494 -0.4303 -0.4026
 2912SOL     OW20371   2.715   0.297   6.727  0.3881  0.2754  0.5469
 2912SOL    HW120372   2.692   0.225   6.785 -1.4801 -0.1331 -0.7108
 2912SOL    HW220373   2.688   0.269   6.639  2.4861  0.9980 -0.3440
 2913SOL     OW20374   0.837   3.494   3.490  0.7294 -0.0435 -0.3073
 2913SOL    HW120375   0.842   3.530   3.402 -0.4942 -0.5171 -0.5622
 2913SOL    HW220376   0.743   3.480   3.501  0.2597  1.6891 -2.2557
 2914SOL     OW20377   3.287   3.019   6.788 -0.3628 -1.0182 -0.1886
 2914SOL    HW120378   3.306   2.937   6.742  2.0030 -0.5150 -0.1039
 2914SOL    HW220379   3.266   3.071   6.711 -0.6503 -2.2352 -0.9241
 2915SOL     OW20380   0.277   3.901   4.892 -0.2113 -0.3913 -0.5778
 2915SOL    HW120381   0.313   3.987   4.868 -1.2701  0.7182  1.8402
 2915SOL    HW220382   0.355   3.875   4.941 -0.5895  1.3826  0.9701
 2916SOL     OW20383   4.172   1.580   4.943  0.3393 -0.2979  0.2732
 2916SOL    HW120384   4.099   1.582   4.882 -0.4764  0.0504  1.2466
 2916SOL    HW220385   4.142   1.626   5.021  0.3739  1.8324 -0.9768
 2917SOL     OW20386   4.383   0.890   8.470  0.5883 -0.2142  0.0694
 2917SOL    HW120387   4.462   0.944   8.463  0.2674  0.1478 -0.6580
 2917SOL    HW220388   4.354   0.910   8.559  1.3960  0.3188  0.2160
 2918SOL     OW20389   1.153   2.411   2.127  0.8567 -0.4561  0.0771
 2918SOL    HW120390   1.231   2.364   2.097  1.4507  0.5590  0.0315
 2918SOL    HW220391   1.170   2.496   2.087  0.6592  0.4156  1.8458
 2919SOL     OW20392   3.578   3.726   8.455 -0.4626 -0.5052 -0.3444
 2919SOL    HW120393   3.525   3.703   8.531  1.3413 -1.1466  0.7178
 2919SOL    HW220394   3.546   3.812   8.425 -0.2316  0.3646  1.9344
 2920SOL     OW20395   2.024   2.544   8.735  0.0057  0.1223  0.4068
 2920SOL    HW120396   2.049   2.562   8.826  2.5967 -2.5282  0.1921
 2920SOL    HW220397   2.066   2.619   8.693 -1.6188  0.9162  0.1951
 2921SOL     OW20398   0.358   1.059  14.560 -0.3611  0.2054  0.4480
 2921SOL    HW120399   0.274   1.077  14.517  1.4107  0.5047 -2.7920
 2921SOL    HW220400   0.427   1.082  14.499 -0.9156 -0.0230 -0.2666
 2922SOL     OW20401   2.988   3.980   4.077  0.1133 -0.0939 -0.2038
 2922SOL    HW120402   2.994   4.064   4.122 -0.8372 -0.7277  1.0895
 2922SOL    HW220403   2.897   3.977   4.046  0.0466 -2.4792  0.2475
 2923SOL     OW20404   1.903   2.737   5.374 -0.0410 -0.0127 -0.4413
 2923SOL    HW120405   1.905   2.642   5.383  0.8084 -0.1288 -1.9247
 2923SOL    HW220406   1.925   2.747   5.281  0.1213  2.7338 -0.1121
 2924SOL     OW20407   3.005   4.148   9.291 -0.0449 -0.7119  0.2948
 2924SOL    HW120408   2.992   4.059   9.324 -1.6672 -0.7819 -0.5231
 2924SOL    HW220409   3.099   4.157   9.273  0.0034  1.0539  1.3408
 2925SOL     OW20410   3.193   3.730  16.024 -0.5409 -0.6866  0.4188
 2925SOL    HW120411   3.180   3.763  15.935 -0.5048 -1.5060  0.1072
 2925SOL    HW220412   3.252   3.655  16.015 -0.7879 -1.0095  1.4525
 2926SOL     OW20413   3.292   2.981  15.728 -0.0562 -1.0618 -0.2051
 2926SOL    HW120414   3.233   2.942  15.663 -2.1685 -0.2707  1.2376
 2926SOL    HW220415   3.251   3.065  15.746 -0.6106 -1.2471 -0.5830
 2927SOL     OW20416   1.332   3.015   8.419 -0.0961 -0.3886  0.2591
 2927SOL    HW120417   1.299   2.997   8.331  0.1260  0.0748  0.0779
 2927SOL    HW220418   1.264   2.971   8.471 -1.0528 -1.5540 -2.0020
 2928SOL     OW20419   4.584   3.443   1.556  0.2775  0.2611 -0.1763
 2928SOL    HW120420   4.512   3.456   1.618  0.0534  2.6389 -0.9486
 2928SOL    HW220421   4.523   3.423   1.486 -1.7368 -1.8790  2.1976
 2929SOL     OW20422   1.380   0.373   2.051 -0.2573 -0.0740 -0.1392
 2929SOL    HW120423   1.421   0.444   2.102 -2.5478  0.4647  0.9650
 2929SOL    HW220424   1.328   0.317   2.108  2.7826 -1.9912  0.7733
 2930SOL     OW20425   4.589   0.587  12.584  0.3270 -0.2596  0.3090
 2930SOL    HW120426   4.498   0.558  12.571  0.7469 -1.4156 -0.0517
 2930SOL    HW220427   4.586   0.682  12.583 -2.0064 -0.3308  0.4747
 2931SOL     OW20428   2.735   1.893   4.276 -0.1181 -0.0775  0.0029
 2931SOL    HW120429   2.775   1.806   4.267 -0.2158  0.1352 -2.3193
 2931SOL    HW220430   2.818   1.932   4.306 -1.3127  1.6333  1.0472
 2932SOL     OW20431   3.273   0.539   1.915  0.9186 -0.2708  0.1284
 2932SOL    HW120432   3.340   0.572   1.855  1.1589  0.7768  0.9739
 2932SOL    HW220433   3.209   0.503   1.854  3.4803 -2.9296 -0.9516
 2933SOL     OW20434   3.826   2.840  13.642  0.0734 -0.0657 -0.4355
 2933SOL    HW120435   3.835   2.766  13.702 -1.0136 -0.5777 -0.9055
 2933SOL    HW220436   3.913   2.880  13.643 -0.1617  0.5059 -2.6235
 2934SOL     OW20437   0.535   4.151   1.255  0.1849  0.8023 -0.5091
 2934SOL    HW120438   0.528   4.056   1.244  0.9514  0.5526  1.1341
 2934SOL    HW220439   0.523   4.180   1.165  0.2643 -1.2042 -1.1815
 2935SOL     OW20440   2.561   1.881   6.794  0.7914  0.4969  0.6741
 2935SOL    HW120441   2.534   1.960   6.840  0.9883  1.2173 -0.4573
 2935SOL    HW220442   2.500   1.822   6.839  1.4127 -1.2629 -0.7633
 2936SOL     OW20443   2.631   4.030   7.087  0.1194  0.4644 -0.0514
 2936SOL    HW120444   2.645   3.940   7.059 -1.9026 -0.5054  2.0938
 2936SOL    HW220445   2.723   4.058   7.080  0.5158 -0.3231  2.0422
 2937SOL     OW20446   3.299   4.246   8.450  0.6729  0.0094  0.0208
 2937SOL    HW120447   3.230   4.244   8.384  1.1974 -0.9629 -0.4982
 2937SOL    HW220448   3.253   4.198   8.519 -2.5618  1.7795 -0.9491
 2938SOL     OW20449   3.456   4.429   9.555 -0.2786  1.0254  0.5440
 2938SOL    HW120450   3.365   4.454   9.569 -0.1621  1.0719  1.2154
 2938SOL    HW220451   3.488   4.514   9.584  0.8403  0.7515  0.1141
 2939SOL     OW20452   4.463   0.580  12.065 -0.7170 -0.2721  0.1608
 2939SOL    HW120453   4.525   0.634  12.016 -1.0464 -1.9397 -2.1210
 2939SOL    HW220454   4.418   0.542  11.990 -3.7522 -1.0239  2.3627
 2940SOL     OW20455   2.418   3.536   4.649 -0.5537  0.5311 -0.0768
 2940SOL    HW120456   2.364   3.537   4.570 -0.6870 -1.3499  0.0042
 2940SOL    HW220457   2.393   3.451   4.684  2.4383 -0.4402 -0.2202
 2941SOL     OW20458   3.350   0.398   4.297 -0.7930 -0.1297  0.2866
 2941SOL    HW120459   3.255   0.399   4.285 -0.8771  0.7850  1.1252
 2941SOL    HW220460   3.369   0.437   4.382 -0.2345 -0.5022  0.3391
 2942SOL     OW20461   3.942   4.418   6.022  0.1107  0.1718  0.5972
 2942SOL    HW120462   4.034   4.392   6.017  1.2194  4.5351 -1.5968
 2942SOL    HW220463   3.907   4.343   5.973 -3.7997  2.2063  0.2282
 2943SOL     OW20464   0.134   2.039   9.958 -0.3090 -0.8389 -0.3824
 2943SOL    HW120465   0.212   2.030   9.904  1.5128 -2.0996  2.4239
 2943SOL    HW220466   0.142   1.965  10.019 -1.7589 -0.3958  0.3409
 2944SOL     OW20467   4.609   2.465   4.604  0.4765  0.1742 -0.0238
 2944SOL    HW120468   4.609   2.510   4.520 -1.0495 -0.7323 -0.5074
 2944SOL    HW220469   4.548   2.521   4.652  0.2290 -1.1338  1.2103
 2945SOL     OW20470   0.706   2.251   7.429  0.3193 -0.2909  0.1986
 2945SOL    HW120471   0.721   2.289   7.516 -0.1798 -2.8048  1.3970
 2945SOL    HW220472   0.789   2.273   7.386 -0.7576  1.6392 -0.8523
 2946SOL     OW20473   0.928   2.441   0.973 -0.2786  0.2404 -0.0114
 2946SOL    HW120474   0.850   2.414   1.022  0.8146 -0.0244  1.5914
 2946SOL    HW220475   0.962   2.355   0.948  2.2587  1.5364 -1.0054
 2947SOL     OW20476   3.220   1.144   7.872 -0.6022  0.4566 -0.2285
 2947SOL    HW120477   3.228   1.170   7.780  0.8113 -1.2614 -0.5735
 2947SOL    HW220478   3.126   1.165   7.873 -0.8639 -0.6922 -0.7103
 2948SOL     OW20479   0.660   0.230   3.436 -0.9764  0.0087 -0.5141
 2948SOL    HW120480   0.723   0.158   3.425 -1.1772 -0.1433 -0.6525
 2948SOL    HW220481   0.711   0.309   3.418  2.0535 -1.4682  1.6033
 2949SOL     OW20482   4.596   1.069   1.318  0.6575 -0.2672  0.3759
 2949SOL    HW120483   4.578   1.094   1.227  1.2538 -1.5074 -0.0757
 2949SOL    HW220484   4.548   0.987   1.327  1.4863 -0.8611 -0.6584
 2950SOL     OW20485   3.550   3.800   5.030  0.1122  0.2103 -0.3868
 2950SOL    HW120486   3.583   3.719   4.990  1.3055  0.1890  0.6479
 2950SOL    HW220487   3.623   3.860   5.016 -1.0670  1.3962 -1.4133
 2951SOL     OW20488   3.205   3.915   3.156  0.3731 -0.0904  0.2552
 2951SOL    HW120489   3.198   3.949   3.245 -1.9316 -0.9579  0.4095
 2951SOL    HW220490   3.300   3.909   3.157  0.4430  0.6045 -1.7182
 2952SOL     OW20491   3.248   1.719   2.685  0.0873  0.8823 -0.3608
 2952SOL    HW120492   3.249   1.707   2.780 -1.5617 -0.5726 -0.5309
 2952SOL    HW220493   3.187   1.792   2.673 -0.8136  0.0843 -0.5747
 2953SOL     OW20494   3.237   2.794   3.520 -0.4488  0.0171 -0.3766
 2953SOL    HW120495   3.199   2.817   3.604  2.5923  3.5282  0.0170
 2953SOL    HW220496   3.169   2.828   3.462 -1.1871  0.9051  1.0242
 2954SOL     OW20497   3.676   4.498   9.903  0.5717 -0.4128  0.1534
 2954SOL    HW120498   3.635   4.446   9.834  1.5994  1.5346 -1.9201
 2954SOL    HW220499   3.720   4.433   9.958  0.3715 -0.4269  0.2971
 2955SOL     OW20500   0.015   4.469   2.924  0.1431  0.0111  0.2692
 2955SOL    HW120501   4.705   4.542   2.966 -0.1792  0.6462 -1.1555
 2955SOL    HW220502   4.696   4.459   2.845 -1.7847  0.8279  1.4933
 2956SOL     OW20503   0.527   0.137  10.315 -0.1643  0.3196  0.3269
 2956SOL    HW120504   0.481   0.197  10.373  1.6255  2.1950 -0.2217
 2956SOL    HW220505   0.618   0.165  10.324 -0.2096  1.2055 -1.9397
 2957SOL     OW20506   1.273   2.233   9.231 -0.1116 -0.3277 -0.1800
 2957SOL    HW120507   1.274   2.231   9.327  1.8000 -1.3639 -0.2185
 2957SOL    HW220508   1.282   2.328   9.218  2.0189 -0.3618  0.9829
 2958SOL     OW20509   1.571   1.525   5.857 -0.2456  0.4934 -0.0882
 2958SOL    HW120510   1.515   1.542   5.781 -0.6765  0.1331  0.1528
 2958SOL    HW220511   1.567   1.613   5.893 -2.2601  1.2510 -2.1292
 2959SOL     OW20512   0.943   4.466   3.143  0.4676  0.5756 -0.0438
 2959SOL    HW120513   0.849   4.468   3.121  0.6532  0.6658 -0.8331
 2959SOL    HW220514   0.979   4.395   3.089 -1.9107 -1.1576  0.6556
 2960SOL     OW20515   3.552   0.882   8.832  0.1768 -0.0563  0.0628
 2960SOL    HW120516   3.472   0.833   8.817 -1.4879  2.8800 -0.5900
 2960SOL    HW220517   3.532   0.935   8.909  0.1429  0.6816 -0.4596
 2961SOL     OW20518   3.451   1.270   8.207  0.6780 -0.5899  0.1299
 2961SOL    HW120519   3.466   1.273   8.302 -0.5143 -0.7263  0.3193
 2961SOL    HW220520   3.537   1.232   8.189  1.0939 -0.3181  1.5461
 2962SOL     OW20521   2.540   2.459   9.525  0.5594  1.1801 -0.3713
 2962SOL    HW120522   2.572   2.412   9.448 -0.0874 -1.1233  0.7552
 2962SOL    HW220523   2.611   2.453   9.588 -2.3474 -1.3971  2.6337
 2963SOL     OW20524   0.060   3.524  16.154 -0.0696  0.0194  0.3725
 2963SOL    HW120525   0.133   3.513  16.092 -0.8569 -0.8089 -0.4047
 2963SOL    HW220526   0.048   3.431  16.175  0.8000 -0.0829  0.4203
 2964SOL     OW20527   1.212   2.428  17.456  0.1001 -0.4374 -0.7044
 2964SOL    HW120528   1.181   2.489  17.390  0.0126  0.0024 -0.2561
 2964SOL    HW220529   1.283   2.372  17.423  0.6002  0.5589 -1.2913
 2965SOL     OW20530   4.533   1.452  15.871  0.4627 -0.1919 -0.0484
 2965SOL    HW120531   4.444   1.452  15.906  0.8715  0.7302  0.9861
 2965SOL    HW220532   4.534   1.541  15.836  0.0700  0.9083  2.7800
 2966SOL     OW20533   2.847   0.881   5.277 -0.0552  0.7873  0.4319
 2966SOL    HW120534   2.906   0.849   5.209 -1.5019  1.3679 -1.0798
 2966SOL    HW220535   2.815   0.962   5.238 -0.1487 -0.3271 -1.7858
 2967SOL     OW20536   0.595   2.233   5.441  0.3924 -0.4088  0.2992
 2967SOL    HW120537   0.582   2.271   5.528  1.0623  2.1305 -0.7272
 2967SOL    HW220538   0.583   2.313   5.390  2.5891  0.4203  1.0861
 2968SOL     OW20539   4.687   1.923  13.543 -0.2882 -0.0534  0.3370
 2968SOL    HW120540   0.036   1.903  13.502 -0.3326 -1.1587  0.7883
 2968SOL    HW220541   4.711   1.981  13.615 -0.1272 -0.5575  0.6953
 2969SOL     OW20542   0.530   2.328   4.700  0.2507  0.7535 -0.0997
 2969SOL    HW120543   0.518   2.301   4.609 -0.9803 -0.2930  0.3709
 2969SOL    HW220544   0.526   2.423   4.686 -2.4188  0.8364  1.1406
 2970SOL     OW20545   3.891   4.057   6.192  0.1551  0.4836 -0.5007
 2970SOL    HW120546   3.881   4.100   6.107 -0.4276  0.9491 -0.1930
 2970SOL    HW220547   3.982   4.030   6.183  0.6947  1.5692  1.5639
 2971SOL     OW20548   2.750   0.951  14.499 -0.3733  0.1318  0.3527
 2971SOL    HW120549   2.834   0.950  14.546 -0.3180  0.8076  0.2745
 2971SOL    HW220550   2.743   0.856  14.490  1.7189  0.0245 -0.2574
 2972SOL     OW20551   3.173   2.038   7.921  0.2395  0.3621  0.2770
 2972SOL    HW120552   3.188   2.008   7.831 -0.4075  0.6197  0.0785
 2972SOL    HW220553   3.260   2.035   7.960 -0.5908  0.8271  2.1570
 2973SOL     OW20554   3.138   0.896   8.460  0.0721  0.3212 -0.3977
 2973SOL    HW120555   3.222   0.921   8.499  0.3371  1.8039 -1.9325
 2973SOL    HW220556   3.167   0.807   8.438  2.8247  0.6806  1.7123
 2974SOL     OW20557   2.816   0.574  15.314  0.7444  0.3310  0.3229
 2974SOL    HW120558   2.819   0.509  15.243  0.0968  0.5883  0.0563
 2974SOL    HW220559   2.722   0.573  15.334  1.3202 -0.6329  2.8849
 2975SOL     OW20560   4.591   2.166   2.221  0.3520 -0.0075 -0.2236
 2975SOL    HW120561   4.499   2.149   2.241  0.1097  0.4222 -0.9695
 2975SOL    HW220562   4.631   2.095   2.272  0.1962  0.8762  1.1393
 2976SOL     OW20563   4.732   3.278  13.687 -0.3145  0.0776 -0.0449
 2976SOL    HW120564   0.018   3.357  13.637  0.8087 -0.0136  0.2935
 2976SOL    HW220565   0.042   3.205  13.646 -1.7116 -0.9309  0.1880
 2977SOL     OW20566   2.484   4.661   1.653  0.0842  0.0967  0.3231
 2977SOL    HW120567   2.415   4.713   1.611  2.0426  1.5751 -1.0798
 2977SOL    HW220568   2.535   4.634   1.576 -0.8540  1.5818 -0.8205
 2978SOL     OW20569   2.996   2.244  16.873 -0.0461 -0.2792  0.2516
 2978SOL    HW120570   3.071   2.205  16.918  0.2602 -0.3295 -0.3079
 2978SOL    HW220571   2.945   2.164  16.856 -0.4688 -0.2684  1.4721
 2979SOL     OW20572   2.100   2.680   6.494 -0.0805 -0.1181 -0.9221
 2979SOL    HW120573   2.110   2.751   6.431 -1.6081  1.5566  0.6784
 2979SOL    HW220574   2.084   2.721   6.580 -1.0081 -0.8301 -0.7447
 2980SOL     OW20575   3.409   0.747   3.820  0.0899  0.5668 -0.0095
 2980SOL    HW120576   3.443   0.835   3.832  0.2577  0.5813 -0.5819
 2980SOL    HW220577   3.485   0.706   3.779 -1.0329  0.1729 -1.7106
 2981SOL     OW20578   4.382   2.110  14.082 -0.0839  0.4060 -0.2522
 2981SOL    HW120579   4.292   2.085  14.064  0.5120 -2.0581  0.2225
 2981SOL    HW220580   4.414   2.029  14.122 -0.0526  1.3420  1.5923
 2982SOL     OW20581   0.220   1.998   2.818  0.2837 -0.3777 -0.1179
 2982SOL    HW120582   0.175   2.061   2.762 -2.1409 -1.6605  0.3845
 2982SOL    HW220583   0.304   2.041   2.831  0.1786  0.2043 -1.3574
 2983SOL     OW20584   0.651   3.783   7.023  0.6054  0.2002 -0.2083
 2983SOL    HW120585   0.697   3.700   7.017  0.4146  0.1115 -0.4408
 2983SOL    HW220586   0.607   3.795   6.939 -1.1206  2.1751  0.9766
 2984SOL     OW20587   4.498   2.649   7.883 -0.5366  0.0601 -0.1840
 2984SOL    HW120588   4.546   2.714   7.831  1.5519 -1.5702 -0.3031
 2984SOL    HW220589   4.536   2.675   7.967  0.1738 -0.9717 -0.1913
 2985SOL     OW20590   3.149   2.244   7.610 -0.0108  0.1208  0.8823
 2985SOL    HW120591   3.082   2.193   7.657  0.2895 -0.7587  0.3406
 2985SOL    HW220592   3.225   2.234   7.667  0.8417  1.5357 -0.0197
 2986SOL     OW20593   3.311   2.050   0.410 -0.0193  0.3541 -0.3538
 2986SOL    HW120594   3.251   2.002   0.467  0.8265 -0.4751 -0.1720
 2986SOL    HW220595   3.343   2.109   0.478 -0.6062 -0.3333  0.5172
 2987SOL     OW20596   3.719   4.320   2.173  0.1417  0.5321  0.0079
 2987SOL    HW120597   3.743   4.350   2.261 -0.6002 -0.2036  0.4592
 2987SOL    HW220598   3.746   4.394   2.118  3.1769  0.4384  1.3335
 2988SOL     OW20599   4.718   2.634  12.125 -0.3045 -0.6310 -0.2724
 2988SOL    HW120600   4.709   2.587  12.208  3.6849  2.9310  2.1593
 2988SOL    HW220601   0.065   2.682  12.136 -0.7092  0.0692 -0.3041
 2989SOL     OW20602   3.346   2.322  11.419 -0.3626 -0.2635  0.4562
 2989SOL    HW120603   3.277   2.386  11.440 -0.7519 -0.6694  0.4119
 2989SOL    HW220604   3.290   2.245  11.415 -1.0633  0.1784  1.5343
 2990SOL     OW20605   1.467   2.906  17.683 -0.3033  0.6110  0.7093
 2990SOL    HW120606   1.548   2.942  17.648  0.8589 -1.2779  1.4491
 2990SOL    HW220607   1.437   2.980  17.737 -4.7347 -1.0974  0.6420
 2991SOL     OW20608   3.226   0.433   3.733 -0.1783  0.3478 -0.1530
 2991SOL    HW120609   3.248   0.343   3.709 -4.2683 -0.9004  0.7444
 2991SOL    HW220610   3.253   0.438   3.824  1.5712  0.5607 -0.6967
 2992SOL     OW20611   3.337   2.844  17.485  0.6848 -0.1038 -0.1064
 2992SOL    HW120612   3.296   2.759  17.472  0.2987 -0.1715  1.5403
 2992SOL    HW220613   3.284   2.881  17.556  0.5869 -1.2091  0.3923
 2993SOL     OW20614   1.574   0.850   2.788 -0.0127 -0.3016 -0.3529
 2993SOL    HW120615   1.521   0.822   2.713 -0.3023  0.0412 -0.2738
 2993SOL    HW220616   1.517   0.815   2.857  0.7362  0.5702  0.6973
 2994SOL     OW20617   2.019   0.467  11.249 -0.5741  0.3605  0.5901
 2994SOL    HW120618   1.932   0.450  11.213 -0.1089 -3.3663  1.2528
 2994SOL    HW220619   2.012   0.541  11.309  0.7012  1.5578 -0.7318
 2995SOL     OW20620   1.523   2.177   8.616 -0.0816 -0.1532  0.0975
 2995SOL    HW120621   1.604   2.126   8.622  0.5916  0.5826 -2.4887
 2995SOL    HW220622   1.487   2.172   8.704 -1.2870 -0.0839 -0.3892
 2996SOL     OW20623   0.896   1.262   5.798  0.0401 -0.5432  0.4623
 2996SOL    HW120624   0.945   1.206   5.858  0.9710  3.2616  3.2177
 2996SOL    HW220625   0.956   1.251   5.724 -0.4588  1.0064 -0.1748
 2997SOL     OW20626   2.278   0.262   8.694 -0.3026 -0.2022 -0.0628
 2997SOL    HW120627   2.257   0.221   8.610  1.0032 -1.7203  0.3498
 2997SOL    HW220628   2.280   0.184   8.749 -1.1863 -0.5724 -0.5546
 2998SOL     OW20629   2.075   1.138  12.504 -0.0547 -0.7236 -0.2397
 2998SOL    HW120630   2.045   1.104  12.588 -0.1278 -0.8088 -0.3000
 2998SOL    HW220631   2.006   1.102  12.448 -0.8893  0.8154 -0.2207
 2999SOL     OW20632   1.842   2.549  11.826 -0.3556  0.2484  0.1905
 2999SOL    HW120633   1.852   2.515  11.736 -0.1361 -0.6233  0.5388
 2999SOL    HW220634   1.840   2.644  11.815  2.2670  0.1625 -1.2158
 3000SOL     OW20635   1.256   2.171  14.384  0.7567 -0.0313  0.9241
 3000SOL    HW120636   1.238   2.091  14.432  1.0217 -0.4591  0.3199
 3000SOL    HW220637   1.310   2.135  14.313 -2.0807  0.8252 -1.6336
 3001SOL     OW20638   0.113   2.179   9.264  0.6067 -0.3262  0.0434
 3001SOL    HW120639   0.192   2.228   9.287  0.4455  0.0802 -0.2582
 3001SOL    HW220640   0.141   2.109   9.206  1.2118 -0.3216  0.3252
 3002SOL     OW20641   3.137   2.228   6.004 -0.5780  0.3778  0.0381
 3002SOL    HW120642   3.061   2.233   5.946 -0.0492 -0.1055 -0.7069
 3002SOL    HW220643   3.123   2.141   6.042 -2.2781  0.3606 -0.6201
 3003SOL     OW20644   2.701   4.312  14.679 -0.2008  0.5742  0.2310
 3003SOL    HW120645   2.723   4.383  14.618  0.6274 -0.2249 -0.3897
 3003SOL    HW220646   2.728   4.241  14.622 -1.1304  2.8588 -3.0596
 3004SOL     OW20647   0.060   2.269   4.137 -0.2635 -0.0904 -0.5114
 3004SOL    HW120648   0.092   2.358   4.124 -0.5398  0.1296  0.2729
 3004SOL    HW220649   0.102   2.239   4.218 -1.1008 -0.4678 -0.2105
 3005SOL     OW20650   2.349   0.510   5.839  0.3701 -0.0312  0.8072
 3005SOL    HW120651   2.314   0.459   5.766 -0.1920  0.0339  1.0343
 3005SOL    HW220652   2.304   0.592   5.824 -2.1795 -1.6216 -0.1909
 3006SOL     OW20653   3.173   0.511   7.318 -1.1368  0.4203 -0.4665
 3006SOL    HW120654   3.197   0.597   7.284  1.9911 -0.2221  0.1097
 3006SOL    HW220655   3.223   0.448   7.267 -2.0410 -0.9369  0.2919
 3007SOL     OW20656   3.763   2.679  10.288  0.2332 -0.0384  0.4830
 3007SOL    HW120657   3.700   2.608  10.290  1.2409 -0.9399  0.2831
 3007SOL    HW220658   3.709   2.757  10.276 -0.2379 -0.4299  0.0690
 3008SOL     OW20659   2.491   3.796   8.081  0.2711 -0.1024 -0.8458
 3008SOL    HW120660   2.527   3.721   8.128 -0.7150  0.7726  1.3509
 3008SOL    HW220661   2.550   3.794   8.007  1.8760 -0.8646  0.4553
 3009SOL     OW20662   0.425   0.230  11.169 -0.6320 -0.6372 -0.1832
 3009SOL    HW120663   0.389   0.314  11.139  0.6738  0.2451  0.6974
 3009SOL    HW220664   0.353   0.202  11.225 -1.7719  2.4502 -0.0772
 3010SOL     OW20665   3.189   1.479  17.295  0.4559  0.6015 -0.4365
 3010SOL    HW120666   3.264   1.438  17.339  1.9590  1.6625 -1.9883
 3010SOL    HW220667   3.219   1.474  17.204 -2.3548  2.8921 -1.4861
 3011SOL     OW20668   2.659   2.826  10.413  0.2086  0.2563  0.0600
 3011SOL    HW120669   2.697   2.775  10.485  0.6645  1.5870  0.7555
 3011SOL    HW220670   2.630   2.752  10.360 -0.8498  0.9125 -0.2846
 3012SOL     OW20671   0.074   4.242   5.972  0.3929  0.0638 -0.3667
 3012SOL    HW120672   0.163   4.234   6.007 -0.4860  0.1561  1.9185
 3012SOL    HW220673   0.077   4.309   5.903 -2.6284  2.7355  2.0773
 3013SOL     OW20674   4.065   3.738  14.539  0.7077 -0.7064  0.2021
 3013SOL    HW120675   4.149   3.716  14.579  1.5298  2.2933  0.1375
 3013SOL    HW220676   4.085   3.739  14.445 -0.1155 -2.5763  0.0147
 3014SOL     OW20677   3.689   1.771  13.614  0.1308  0.2902 -0.4214
 3014SOL    HW120678   3.706   1.856  13.573  0.6160  0.3369 -0.1320
 3014SOL    HW220679   3.777   1.747  13.643 -0.2192  0.9964  1.2561
 3015SOL     OW20680   4.215   3.425   6.685 -0.0889  0.1136  0.2855
 3015SOL    HW120681   4.192   3.516   6.666  1.0726  0.9931  3.0818
 3015SOL    HW220682   4.163   3.409   6.764  1.1821  1.0636  1.3180
 3016SOL     OW20683   4.623   2.479  11.920  0.3622  0.5267 -0.2941
 3016SOL    HW120684   4.627   2.548  11.986 -1.1647 -0.3947  0.7377
 3016SOL    HW220685   4.681   2.415  11.961 -1.4772 -0.3109  0.9646
 3017SOL     OW20686   1.923   1.669   1.830  0.1569  0.5776  0.8086
 3017SOL    HW120687   1.873   1.698   1.754  0.4340  1.9238  1.1430
 3017SOL    HW220688   1.998   1.627   1.788 -0.1737 -1.0249  1.8475
 3018SOL     OW20689   2.062   0.513  13.863 -0.3062 -0.0020  0.2649
 3018SOL    HW120690   2.135   0.496  13.924  1.5951  0.3956 -1.9056
 3018SOL    HW220691   2.047   0.607  13.872  0.1529  0.0600  0.3996
 3019SOL     OW20692   2.553   0.587   2.329 -0.0148 -0.1634  0.0812
 3019SOL    HW120693   2.528   0.538   2.408 -0.9755 -0.8503 -0.6439
 3019SOL    HW220694   2.574   0.672   2.367  3.2382 -1.0503  0.2346
 3020SOL     OW20695   3.024   3.924   6.595  0.7018  0.3120 -0.5252
 3020SOL    HW120696   3.025   3.925   6.499 -0.6800 -1.2909 -0.5361
 3020SOL    HW220697   3.107   3.968   6.615  1.3179 -0.3349 -1.6485
 3021SOL     OW20698   4.319   1.309  13.026 -0.5764  0.4175 -0.4023
 3021SOL    HW120699   4.306   1.249  12.952 -0.4723 -2.1123  1.6407
 3021SOL    HW220700   4.409   1.295  13.054 -1.4508 -1.9126  1.2167
 3022SOL     OW20701   3.671   4.254   5.458  0.0351  0.2152  0.0743
 3022SOL    HW120702   3.730   4.216   5.393 -0.2569  0.4212 -0.3165
 3022SOL    HW220703   3.600   4.284   5.400  0.1754  1.4419  0.5434
 3023SOL     OW20704   0.089   2.527   9.435  0.3828  0.1871  0.3884
 3023SOL    HW120705   0.049   2.550   9.518 -2.7781  1.7034 -1.5536
 3023SOL    HW220706   0.032   2.559   9.365 -0.8889  0.4532  1.5645
 3024SOL     OW20707   1.567   2.154  11.049  0.3468 -0.2994  0.0473
 3024SOL    HW120708   1.587   2.224  11.112  3.3147 -1.3160  0.2425
 3024SOL    HW220709   1.644   2.099  11.065  0.7395 -0.1610 -1.3931
 3025SOL     OW20710   3.668   3.747   7.753 -0.1855 -0.2866 -0.0426
 3025SOL    HW120711   3.715   3.732   7.671 -0.7158 -3.3927  0.2164
 3025SOL    HW220712   3.674   3.843   7.754 -0.8928 -0.2284 -0.8920
 3026SOL     OW20713   2.199   3.536   4.478  0.1103  0.7202 -0.3845
 3026SOL    HW120714   2.207   3.465   4.415  1.4022 -1.6935  2.5573
 3026SOL    HW220715   2.142   3.504   4.548 -0.1874  2.3979  0.1525
 3027SOL     OW20716   1.203   2.025   7.914  0.3814 -0.4331 -0.0240
 3027SOL    HW120717   1.158   1.940   7.920 -1.7713  0.5594 -1.9734
 3027SOL    HW220718   1.182   2.059   8.001 -0.5499  2.1194 -1.2486
 3028SOL     OW20719   0.343   3.419   8.925  0.7081  0.2133 -0.6720
 3028SOL    HW120720   0.425   3.457   8.955 -0.4849  1.7091  0.6944
 3028SOL    HW220721   0.281   3.481   8.964 -0.7013 -1.7115  0.1478
 3029SOL     OW20722   0.943   2.704   1.062 -0.5580 -0.5466  0.3809
 3029SOL    HW120723   0.856   2.744   1.059  0.4135  1.7788  3.8700
 3029SOL    HW220724   0.920   2.616   1.032  2.1516 -1.3423  0.6524
 3030SOL     OW20725   2.376   3.541  14.598 -0.1458  0.2092  0.0682
 3030SOL    HW120726   2.288   3.527  14.564 -0.3069  0.2939  0.4475
 3030SOL    HW220727   2.390   3.451  14.630 -0.6313  0.0276 -0.2287
 3031SOL     OW20728   4.172   0.876   3.598 -0.3015 -0.1071  0.2877
 3031SOL    HW120729   4.076   0.876   3.590 -0.2003  0.2173 -1.0809
 3031SOL    HW220730   4.189   0.924   3.679  0.2515 -1.7553  1.1479
 3032SOL     OW20731   1.086   0.727   8.541 -0.3338  0.3965  0.6567
 3032SOL    HW120732   1.023   0.754   8.474 -0.1032  1.8286  1.0355
 3032SOL    HW220733   1.102   0.810   8.585 -2.2351  0.7334  0.7098
 3033SOL     OW20734   0.110   4.346   5.710  0.0093  0.0872  0.5833
 3033SOL    HW120735   0.189   4.293   5.711 -1.7550 -2.5491  0.3154
 3033SOL    HW220736   0.042   4.285   5.682 -0.2167  1.2884 -1.5192
 3034SOL     OW20737   3.062   0.399   8.131 -0.1943  0.2339  0.3167
 3034SOL    HW120738   3.153   0.381   8.154  0.4349  0.4913 -1.9501
 3034SOL    HW220739   3.022   0.434   8.211 -0.3842 -0.2104  0.4146
 3035SOL     OW20740   1.496   3.228   8.732 -0.1346  0.3019 -0.4028
 3035SOL    HW120741   1.438   3.161   8.769  0.1246 -0.1943 -0.8944
 3035SOL    HW220742   1.433   3.298   8.718 -0.6719 -0.6498 -2.6151
 3036SOL     OW20743   3.494   1.018   1.051 -0.0402 -0.5340  0.8251
 3036SOL    HW120744   3.509   0.986   1.140  1.5378 -0.3729  0.6051
 3036SOL    HW220745   3.402   0.995   1.038  0.0168 -0.5568  0.4824
 3037SOL     OW20746   2.703   2.912   8.323  0.5519  0.4100 -0.4849
 3037SOL    HW120747   2.723   2.888   8.233 -0.4483 -0.7564 -0.4082
 3037SOL    HW220748   2.703   2.827   8.369 -1.6733 -0.1521 -1.5367
 3038SOL     OW20749   4.550   1.205   2.066  0.5506  0.0696  0.9454
 3038SOL    HW120750   4.529   1.130   2.011 -0.1012  0.3445  0.8107
 3038SOL    HW220751   4.608   1.157   2.125  1.9925  0.0576 -0.4842
 3039SOL     OW20752   2.058   4.332   1.554  0.1300  0.3601 -0.1675
 3039SOL    HW120753   1.978   4.383   1.565  0.5177  0.3844  2.5315
 3039SOL    HW220754   2.121   4.394   1.518  0.2993  0.6895  0.7013
 3040SOL     OW20755   2.169   1.177   4.761  0.0417 -0.1320  0.9215
 3040SOL    HW120756   2.100   1.147   4.702  1.2514 -1.1628  0.0267
 3040SOL    HW220757   2.127   1.260   4.784 -1.6396 -0.9209  0.6859
 3041SOL     OW20758   3.347   4.653   9.061 -0.3033 -0.1583 -0.5981
 3041SOL    HW120759   3.310   4.573   9.097 -2.1922  0.9571 -0.0451
 3041SOL    HW220760   3.435   4.624   9.037  0.3897  1.0570  0.4597
 3042SOL     OW20761   4.144   0.464   0.644  0.1844  0.0749 -0.3448
 3042SOL    HW120762   4.070   0.472   0.583 -0.9797  0.6816  1.1610
 3042SOL    HW220763   4.096   0.439   0.723 -1.0601  0.7710 -0.8928
 3043SOL     OW20764   4.300   1.368   9.304  0.7084  0.4074 -0.5338
 3043SOL    HW120765   4.273   1.330   9.388 -0.0142 -3.7104 -2.6794
 3043SOL    HW220766   4.393   1.380   9.325  1.3102 -3.0546 -1.3739
 3044SOL     OW20767   2.738   2.242  15.384  0.5560 -0.6062  0.1240
 3044SOL    HW120768   2.742   2.151  15.413 -1.8651 -1.0486 -0.9289
 3044SOL    HW220769   2.648   2.265  15.408  0.1879 -1.3255 -0.5537
 3045SOL     OW20770   0.419   2.061   8.517  0.0293  0.6864 -0.3975
 3045SOL    HW120771   0.396   1.976   8.479 -2.7489  2.2920 -2.2800
 3045SOL    HW220772   0.435   2.038   8.609  0.3086 -0.1500 -0.6564
 3046SOL     OW20773   1.349   2.371   8.558  0.2518  0.1366 -0.4631
 3046SOL    HW120774   1.423   2.310   8.556 -1.5291 -1.9907 -1.1595
 3046SOL    HW220775   1.325   2.368   8.465  0.8490  0.2555 -0.6231
 3047SOL     OW20776   1.821   3.196   4.595 -0.2259  0.2892 -0.8790
 3047SOL    HW120777   1.741   3.244   4.573  0.8938  2.2031 -0.7703
 3047SOL    HW220778   1.865   3.239   4.669 -0.4419 -1.5256  0.2963
 3048SOL     OW20779   0.949   1.546   5.234 -0.2813  0.1147  1.0635
 3048SOL    HW120780   0.962   1.576   5.324 -0.3719  0.5238  0.9386
 3048SOL    HW220781   1.019   1.481   5.227 -0.7620 -0.1999 -0.7954
 3049SOL     OW20782   2.298   0.551  15.507  0.1913  0.1160  0.6594
 3049SOL    HW120783   2.351   0.471  15.500  1.1454  0.7357  0.7808
 3049SOL    HW220784   2.257   0.529  15.591 -2.4632 -1.9233 -1.1683
 3050SOL     OW20785   4.430   2.663   3.760  0.2185  0.4236 -0.2975
 3050SOL    HW120786   4.459   2.671   3.669 -0.8260 -0.6659 -0.7174
 3050SOL    HW220787   4.446   2.754   3.787 -0.4452  0.4702 -0.0596
 3051SOL     OW20788   3.982   1.645   2.724 -0.2027 -0.0258 -0.1256
 3051SOL    HW120789   4.075   1.653   2.704 -0.0821 -0.6976  0.1771
 3051SOL    HW220790   3.953   1.737   2.720  0.7360  0.3140  0.8695
 3052SOL     OW20791   3.635   0.718   2.743 -0.0256  0.2534  0.2470
 3052SOL    HW120792   3.558   0.661   2.738  0.7056 -0.9522  2.6629
 3052SOL    HW220793   3.603   0.803   2.714 -0.8033 -0.4244 -0.8962
 3053SOL     OW20794   1.330   3.692   2.293 -0.2627  0.1816 -0.1148
 3053SOL    HW120795   1.294   3.756   2.231  2.5636 -0.0012 -1.9186
 3053SOL    HW220796   1.299   3.613   2.250 -0.2780 -0.2347  0.6530
 3054SOL     OW20797   1.851   4.095   6.085 -0.6466 -0.3571  0.0554
 3054SOL    HW120798   1.819   4.079   5.996 -1.6395 -1.2094  0.5582
 3054SOL    HW220799   1.935   4.136   6.070  0.9159 -3.0033  1.5604
 3055SOL     OW20800   3.276   3.584   4.320  0.2782 -0.1916 -0.0741
 3055SOL    HW120801   3.290   3.563   4.228 -2.9153 -1.6337 -0.2290
 3055SOL    HW220802   3.251   3.675   4.303 -3.7977 -1.1119  1.0811
 3056SOL     OW20803   4.485   3.103   4.283 -0.5690  0.0794 -0.0887
 3056SOL    HW120804   4.422   3.142   4.222  0.8859  1.3044 -0.8346
 3056SOL    HW220805   4.428   3.105   4.360  0.3152  1.6317  0.5284
 3057SOL     OW20806   3.475   3.696   5.283 -0.0977  0.5060  0.6592
 3057SOL    HW120807   3.449   3.772   5.334 -2.0602 -0.7626  1.5518
 3057SOL    HW220808   3.475   3.734   5.195 -1.9985  1.5886  1.1412
 3058SOL     OW20809   0.681   3.271   3.696 -0.2665 -0.2495  0.9198
 3058SOL    HW120810   0.707   3.363   3.702 -3.0509  0.4750  2.0005
 3058SOL    HW220811   0.696   3.243   3.606  1.8041  3.1318  0.2246
 3059SOL     OW20812   2.553   1.930   5.570 -0.0805 -0.0599  0.0307
 3059SOL    HW120813   2.596   1.885   5.498  0.2362 -1.7028  1.2227
 3059SOL    HW220814   2.600   1.894   5.646 -1.6746 -1.7603  0.2348
 3060SOL     OW20815   2.239   2.777   4.471 -0.1103  0.4027  0.4840
 3060SOL    HW120816   2.229   2.869   4.495  0.3160  1.2585 -2.5634
 3060SOL    HW220817   2.314   2.796   4.414  0.9013 -3.0366  0.6438
 3061SOL     OW20818   1.813   4.267   4.862 -0.2260 -0.0880  0.3666
 3061SOL    HW120819   1.845   4.191   4.813  0.9201  0.4997  0.2093
 3061SOL    HW220820   1.889   4.305   4.907 -1.3927  0.3759  1.9363
 3062SOL     OW20821   2.337   0.739   1.869  0.2813  0.5200  0.1014
 3062SOL    HW120822   2.244   0.723   1.854  0.0240 -0.2393  2.4751
 3062SOL    HW220823   2.337   0.710   1.960  0.1206  2.1692  0.6232
 3063SOL     OW20824   0.110   3.603   5.979  0.8606  0.1750  0.5011
 3063SOL    HW120825   0.193   3.559   5.964  1.4251  0.1209  3.8435
 3063SOL    HW220826   0.044   3.537   5.997 -1.1271  1.9823 -0.0626
 3064SOL     OW20827   0.483   3.259  16.129  0.5304  0.5556 -0.0833
 3064SOL    HW120828   0.538   3.256  16.050  1.4883  0.3977  0.5892
 3064SOL    HW220829   0.520   3.333  16.177 -1.1150  0.3096  1.5181
 3065SOL     OW20830   2.816   4.097   2.861  0.2530  0.4621 -0.4965
 3065SOL    HW120831   2.864   4.075   2.941  0.3939  2.3132 -0.0720
 3065SOL    HW220832   2.811   4.008   2.827  1.9111  0.4189 -0.6686
 3066SOL     OW20833   1.289   2.494   9.206 -0.2376 -0.1935 -0.5568
 3066SOL    HW120834   1.384   2.487   9.199 -0.0532  1.1585  0.6659
 3066SOL    HW220835   1.268   2.548   9.129 -0.3914 -1.3755 -1.3394
 3067SOL     OW20836   3.946   2.632   3.599  0.5025  0.5232  0.3163
 3067SOL    HW120837   4.038   2.607   3.600  0.1542 -0.7899 -0.5317
 3067SOL    HW220838   3.927   2.622   3.506  1.2488  2.3902 -0.0326
 3068SOL     OW20839   4.487   0.554  15.478  0.0115  0.5947  1.0108
 3068SOL    HW120840   4.414   0.500  15.449  2.0656 -2.3486  1.2167
 3068SOL    HW220841   4.480   0.617  15.407  3.5035  0.7129  0.7354
 3069SOL     OW20842   1.386   0.138  16.789 -0.0165 -0.6046  0.4214
 3069SOL    HW120843   1.452   0.207  16.785  0.2067 -0.8575 -0.2532
 3069SOL    HW220844   1.307   0.189  16.806  1.1488  1.7775 -1.2532
 3070SOL     OW20845   1.070   4.627   3.299  0.0824  0.3746  0.3924
 3070SOL    HW120846   1.140   4.591   3.354 -0.7903  1.0023  1.9292
 3070SOL    HW220847   1.028   4.549   3.262 -0.8239 -0.0961  2.4062
 3071SOL     OW20848   4.128   1.260   5.631 -0.0224 -0.5486 -0.7020
 3071SOL    HW120849   4.097   1.308   5.554 -0.5241  0.6749  0.2638
 3071SOL    HW220850   4.060   1.286   5.693 -0.1398  0.7002 -1.3395
 3072SOL     OW20851   4.067   3.273   4.491  0.2391  0.5327  0.3409
 3072SOL    HW120852   3.992   3.330   4.475  0.9351  1.4936  0.4957
 3072SOL    HW220853   4.055   3.219   4.413 -0.6734 -1.2517  1.7146
 3073SOL     OW20854   3.566   0.294   6.991  0.6717  0.0858 -0.4783
 3073SOL    HW120855   3.551   0.297   6.897  0.4041  2.2116 -0.3843
 3073SOL    HW220856   3.660   0.276   6.998  0.6433  0.2236  0.2854
 3074SOL     OW20857   2.794   2.523   3.786 -1.0201  0.0773  0.1028
 3074SOL    HW120858   2.857   2.545   3.855 -0.3474 -1.5284 -0.0172
 3074SOL    HW220859   2.852   2.498   3.714 -1.7312  1.2127 -0.8609
 3075SOL     OW20860   4.412   3.461   5.877 -0.3385  0.0093  0.9537
 3075SOL    HW120861   4.426   3.556   5.884 -1.3094  0.3300 -1.6834
 3075SOL    HW220862   4.345   3.455   5.945 -1.2789 -2.5205 -0.1934
 3076SOL     OW20863   0.746   2.803   9.362  0.0800 -0.3546 -0.3018
 3076SOL    HW120864   0.657   2.770   9.354  0.2737 -0.8475 -0.4711
 3076SOL    HW220865   0.768   2.782   9.271 -1.5535  0.7309 -0.9265
 3077SOL     OW20866   1.120   4.147   5.563 -0.5177  0.3726  0.2019
 3077SOL    HW120867   1.126   4.063   5.517 -1.3420 -0.4095  1.5443
 3077SOL    HW220868   1.102   4.203   5.486 -0.2645  2.2920  1.5297
 3078SOL     OW20869   4.381   4.639   9.045 -0.3567  0.2239 -0.5687
 3078SOL    HW120870   4.420   4.554   9.025 -1.7722 -0.3426 -0.9140
 3078SOL    HW220871   4.293   4.606   9.026 -0.4552  0.9615 -1.4077
 3079SOL     OW20872   0.882   3.211   3.895  0.6148 -0.1722 -0.9473
 3079SOL    HW120873   0.923   3.235   3.812 -2.7025 -1.6050 -3.0253
 3079SOL    HW220874   0.798   3.179   3.863  0.7081 -2.2080  0.8415
 3080SOL     OW20875   1.976   2.286   1.760  0.0166 -0.1281 -0.2265
 3080SOL    HW120876   2.015   2.357   1.811  0.8499 -0.6578 -0.1179
 3080SOL    HW220877   2.040   2.217   1.777  0.3329 -0.4560 -2.6867
 3081SOL     OW20878   4.402   4.129  10.527  0.1763 -0.2040 -0.4935
 3081SOL    HW120879   4.427   4.202  10.471 -0.7471 -0.6115 -1.4291
 3081SOL    HW220880   4.464   4.062  10.500  0.6101 -0.5095  1.2413
 3082SOL     OW20881   3.680   4.179   4.001  0.2974 -0.0395 -0.0877
 3082SOL    HW120882   3.662   4.094   4.041  1.0672  1.1991  2.8758
 3082SOL    HW220883   3.644   4.156   3.915  0.1087 -0.0586 -0.0029
 3083SOL     OW20884   0.412   1.403   7.296  0.0117 -0.2218 -0.2384
 3083SOL    HW120885   0.317   1.414   7.303  0.0309  0.5217 -1.1677
 3083SOL    HW220886   0.422   1.311   7.320 -0.0297 -0.4011 -0.9186
 3084SOL     OW20887   0.056   3.600   3.076  0.7626 -0.2490 -0.8126
 3084SOL    HW120888   0.039   3.510   3.049 -2.1250  0.1335 -0.2361
 3084SOL    HW220889   0.146   3.616   3.048  0.4616  1.5010 -0.7975
 3085SOL     OW20890   0.457   4.684   4.304 -0.1806 -0.4682  0.4319
 3085SOL    HW120891   0.513   4.704   4.380 -0.5375  0.8885  0.3419
 3085SOL    HW220892   0.528   4.690   4.240  0.7069 -1.0476  1.3455
 3086SOL     OW20893   0.406   4.256   3.908 -0.2096  0.1654  0.0315
 3086SOL    HW120894   0.470   4.294   3.848  2.5278 -1.9061  1.6402
 3086SOL    HW220895   0.344   4.216   3.847  2.7993  0.4294 -3.2168
 3087SOL     OW20896   1.131   1.457   4.829  0.0031 -0.3638  0.2556
 3087SOL    HW120897   1.179   1.496   4.902 -0.5622 -0.2677  0.5800
 3087SOL    HW220898   1.125   1.366   4.860  0.3384 -0.8523 -1.1051
 3088SOL     OW20899   2.464   3.739  14.982  0.4556 -0.1123  0.4156
 3088SOL    HW120900   2.535   3.783  15.029  2.0781  0.6556 -2.8197
 3088SOL    HW220901   2.503   3.721  14.897 -1.5257  0.9411 -0.7017
 3089SOL     OW20902   1.416   2.917   6.496 -0.0981 -0.0905 -0.3101
 3089SOL    HW120903   1.451   2.942   6.582  1.5577  0.2292 -1.0685
 3089SOL    HW220904   1.360   2.988   6.466  3.3763  1.6815 -2.6117
 3090SOL     OW20905   0.468   4.168   1.509 -0.1414 -0.6391  0.0012
 3090SOL    HW120906   0.414   4.090   1.527 -1.9477  0.5659 -0.1815
 3090SOL    HW220907   0.497   4.154   1.420  0.0166 -0.1731 -0.0157
 3091SOL     OW20908   4.518   4.427   7.420  0.0752 -0.4648 -0.1220
 3091SOL    HW120909   4.603   4.437   7.462 -0.1256 -1.1330  0.4398
 3091SOL    HW220910   4.484   4.347   7.460  1.3073  0.3307  2.4818
 3092SOL     OW20911   3.165   1.871  10.435  0.6928  0.2107  0.9537
 3092SOL    HW120912   3.241   1.893  10.380  0.5943 -0.4893  0.5362
 3092SOL    HW220913   3.153   1.960  10.469 -1.2713 -0.1777  1.2907
 3093SOL     OW20914   4.164   0.400   1.632  0.1869 -0.2599  0.8174
 3093SOL    HW120915   4.115   0.410   1.714  0.9268 -0.0485  1.2380
 3093SOL    HW220916   4.123   0.474   1.587  1.1887 -0.6084 -0.6747
 3094SOL     OW20917   4.417   4.052  13.009 -0.4484 -0.2279 -0.2665
 3094SOL    HW120918   4.472   4.001  12.949 -1.0317 -0.5248 -0.5498
 3094SOL    HW220919   4.400   3.984  13.074 -1.3671  0.8491  0.6016
 3095SOL     OW20920   4.687   3.768   4.917  0.2332 -0.0667 -0.0070
 3095SOL    HW120921   4.733   3.847   4.888 -1.2459  0.3419 -1.2600
 3095SOL    HW220922   4.622   3.754   4.848  1.6350  1.0835 -1.5644
 3096SOL     OW20923   4.632   0.127   1.944  0.0363  0.2032  0.1677
 3096SOL    HW120924   4.680   0.079   2.012 -0.5502 -0.1580  0.3246
 3096SOL    HW220925   4.690   0.103   1.871 -0.9912 -2.6181  0.3186
 3097SOL     OW20926   1.177   0.799   5.001  0.5389  0.5370 -0.3433
 3097SOL    HW120927   1.259   0.834   4.965  1.3418  0.7222  1.7186
 3097SOL    HW220928   1.140   0.777   4.915  0.6707  0.5565 -0.4058
 3098SOL     OW20929   4.692   4.013   7.772  0.2947 -0.6553 -0.6756
 3098SOL    HW120930   0.046   4.048   7.765 -0.0212 -0.0108 -1.4661
 3098SOL    HW220931   4.697   3.938   7.831 -0.3741 -1.0387 -1.1074
 3099SOL     OW20932   1.122   4.082   0.004  0.0092 -0.6860  0.1503
 3099SOL    HW120933   1.060   4.146  17.709  1.2774 -0.6044 -1.9565
 3099SOL    HW220934   1.179   4.139   0.056 -3.0533  0.6465  2.0670
 3100SOL     OW20935   4.123   4.666   3.246  0.6362  0.1118  0.3245
 3100SOL    HW120936   4.170   0.012   3.231 -1.4572  1.2531 -0.0870
 3100SOL    HW220937   4.105   4.678   3.339 -0.0946  1.8412 -0.0433
 3101SOL     OW20938   4.455   4.647  12.512 -0.6168  0.4902  0.2730
 3101SOL    HW120939   4.421   4.560  12.534 -0.2033  0.3543  0.3773
 3101SOL    HW220940   4.483   4.644  12.420  0.8245 -0.7396  0.7566
 3102SOL     OW20941   2.020   3.533  11.803  0.3062  0.2494  0.1517
 3102SOL    HW120942   2.067   3.555  11.723  1.5378 -0.1134  0.7724
 3102SOL    HW220943   2.033   3.605  11.864 -1.0158  0.8973 -0.3314
 3103SOL     OW20944   1.446   1.160   8.200  0.5371  0.0442 -0.1195
 3103SOL    HW120945   1.512   1.123   8.142 -0.3228  0.8477 -1.5889
 3103SOL    HW220946   1.404   1.080   8.233  0.4680  0.6726  1.3109
 3104SOL     OW20947   1.474   2.031   2.034  0.3592  0.0291  0.2445
 3104SOL    HW120948   1.524   2.073   1.964  0.9044 -3.3981 -1.4118
 3104SOL    HW220949   1.454   1.960   1.974 -0.0576  1.8274 -1.7743
 3105SOL     OW20950   2.913   0.569   2.934 -0.0825  0.2387 -0.1908
 3105SOL    HW120951   2.984   0.520   2.976 -0.0142  2.8564  2.7737
 3105SOL    HW220952   2.859   0.501   2.894 -3.1381  1.7501  1.4046
 3106SOL     OW20953   4.661   2.269  11.587  0.2735  0.1644  0.4297
 3106SOL    HW120954   4.698   2.323  11.657 -0.6479  1.2151  0.0970
 3106SOL    HW220955   4.587   2.322  11.558  1.8487  1.3263 -1.4790
 3107SOL     OW20956   2.576   2.003  13.672 -0.4716  0.5603  0.4806
 3107SOL    HW120957   2.497   1.978  13.721  0.1052 -1.8408  0.2201
 3107SOL    HW220958   2.636   2.032  13.740  0.6478 -4.1207  1.5361
 3108SOL     OW20959   0.515   1.609   9.347  0.6538 -0.0392  0.3212
 3108SOL    HW120960   0.557   1.598   9.432 -1.4868  0.4576  1.4380
 3108SOL    HW220961   0.518   1.522   9.306  3.6305  0.3820 -0.3694
 3109SOL     OW20962   2.200   1.400   5.986 -0.0416 -0.2044  0.2422
 3109SOL    HW120963   2.110   1.399   5.954  0.4000 -0.3188 -0.9987
 3109SOL    HW220964   2.189   1.373   6.077 -0.9208  2.1321  0.8369
 3110SOL     OW20965   4.176   3.750  16.514 -0.2042  0.0538 -0.7199
 3110SOL    HW120966   4.182   3.845  16.526  0.8378 -0.0068 -0.7514
 3110SOL    HW220967   4.271   3.742  16.511 -0.0214  1.7447  0.1645
 3111SOL     OW20968   4.181   0.475  17.687  0.5238 -0.2134  0.3099
 3111SOL    HW120969   4.094   0.450  17.718  0.2837  2.3976  1.7195
 3111SOL    HW220970   4.151   0.540  17.623  2.3198  2.1817  1.9177
 3112SOL     OW20971   1.304   3.009   4.558  0.1036  0.1514 -1.1780
 3112SOL    HW120972   1.292   3.045   4.646  0.6050  0.1328 -1.1026
 3112SOL    HW220973   1.398   2.993   4.554  0.1870  0.7625 -1.6485
 3113SOL     OW20974   2.599   4.170  16.113  0.9196 -0.1838  0.2071
 3113SOL    HW120975   2.578   4.250  16.065 -2.8555  0.7013  3.3745
 3113SOL    HW220976   2.560   4.183  16.199 -0.9832 -2.3644 -0.3119
 3114SOL     OW20977   1.978   1.774   7.983 -0.2884 -0.1035  0.2864
 3114SOL    HW120978   1.882   1.770   7.983 -0.1932 -2.2762 -1.6961
 3114SOL    HW220979   2.003   1.794   7.893  1.7070  1.8966  1.2876
 3115SOL     OW20980   1.057   3.118   2.622 -0.4100  0.4563 -0.0268
 3115SOL    HW120981   1.125   3.107   2.688  1.9939  0.8281 -2.4698
 3115SOL    HW220982   1.051   3.027   2.592  2.3219  0.6481 -1.1145
 3116SOL     OW20983   1.839   4.493   3.536 -0.3358  0.1295 -0.0517
 3116SOL    HW120984   1.795   4.479   3.619 -0.8162 -2.1152 -0.7036
 3116SOL    HW220985   1.774   4.541   3.484 -1.9848 -0.6755  1.3159
 3117SOL     OW20986   0.798   1.106   6.272  0.1331  0.2518  0.0628
 3117SOL    HW120987   0.872   1.087   6.330 -1.3142 -1.2407  1.3861
 3117SOL    HW220988   0.805   1.200   6.291 -0.2365  0.0476  1.1676
 3118SOL     OW20989   3.138   3.583   3.830  0.6429  0.5827 -0.1330
 3118SOL    HW120990   3.201   3.540   3.773 -0.6310 -1.5253  0.0667
 3118SOL    HW220991   3.059   3.578   3.775 -0.8397  1.0617  1.9488
 3119SOL     OW20992   4.400   0.833  13.223  0.5003  0.1769 -0.1651
 3119SOL    HW120993   4.450   0.902  13.179  1.9797 -2.2132 -2.2286
 3119SOL    HW220994   4.350   0.888  13.283 -0.2851  1.6551 -2.1751
 3120SOL     OW20995   1.032   4.175   9.995  0.2482  0.1082 -0.3758
 3120SOL    HW120996   1.118   4.217   9.982  0.3113 -0.4645 -1.8135
 3120SOL    HW220997   1.001   4.193   9.906  2.2866  1.7148 -0.7862
 3121SOL     OW20998   3.055   4.291   9.687 -0.1814  0.0938 -0.0561
 3121SOL    HW120999   2.974   4.241   9.691 -0.7381  1.1575  2.0733
 3121SOL    HW221000   3.056   4.337   9.771 -0.9025  2.0475 -1.1167
 3122SOL     OW21001   3.704   1.217   9.630 -0.3494 -0.3898 -0.1572
 3122SOL    HW121002   3.765   1.200   9.558 -0.2607 -1.5323  0.1828
 3122SOL    HW221003   3.647   1.142   9.613 -0.8666  0.2578 -1.2342
 3123SOL     OW21004   4.538   3.528   8.892 -0.0145  0.2298 -0.3178
 3123SOL    HW121005   4.561   3.445   8.849  1.9238 -0.2537  1.6326
 3123SOL    HW221006   4.479   3.568   8.828 -0.0538 -1.6295 -1.4558
 3124SOL     OW21007   1.161   0.347  11.959  0.2042  0.4312  0.4718
 3124SOL    HW121008   1.199   0.338  12.046 -0.9123  0.3390  0.9517
 3124SOL    HW221009   1.101   0.274  11.948 -0.0995  0.7908 -0.2712
 3125SOL     OW21010   3.365   3.049  16.027  0.7270  0.0548  0.1438
 3125SOL    HW121011   3.425   2.975  16.014  1.3366  0.2491  1.8795
 3125SOL    HW221012   3.322   3.066  15.944  0.7355 -0.1825  0.0916
 3126SOL     OW21013   4.420   0.081  11.357 -0.4835  0.3717 -0.5107
 3126SOL    HW121014   4.371   0.023  11.299  0.3800  0.5092 -1.3823
 3126SOL    HW221015   4.407   0.043  11.444  1.0202  0.7138 -0.1282
 3127SOL     OW21016   3.598   4.539   1.319 -0.2227  0.2463 -0.1304
 3127SOL    HW121017   3.515   4.537   1.271 -0.4935 -0.2730  0.3660
 3127SOL    HW221018   3.629   4.627   1.298 -0.4411  0.4641  0.4852
 3128SOL     OW21019   3.487   1.578   4.839 -0.6103  0.3248  0.4018
 3128SOL    HW121020   3.531   1.493   4.843  1.5121  1.4456  0.9087
 3128SOL    HW221021   3.517   1.603   4.752 -0.8127 -0.2141  0.1813
 3129SOL     OW21022   1.783   1.332   4.693 -0.0589 -0.4232 -0.0699
 3129SOL    HW121023   1.802   1.410   4.641  0.3418  0.2590  1.1086
 3129SOL    HW221024   1.719   1.293   4.633 -0.3558 -0.1471  0.0685
 3130SOL     OW21025   2.093   2.181  17.129  0.3710 -0.3483  0.4803
 3130SOL    HW121026   2.129   2.236  17.059 -0.7515 -0.5275 -0.2278
 3130SOL    HW221027   2.001   2.206  17.120  0.7802  1.1773  0.4753
 3131SOL     OW21028   3.605   4.677   2.715  0.1068  0.2180 -0.3298
 3131SOL    HW121029   3.561   4.592   2.723 -1.3327  1.0574  0.5762
 3131SOL    HW221030   3.696   4.654   2.735 -0.5480 -1.8742  0.2884
 3132SOL     OW21031   1.985   2.488  16.653  0.0346 -0.1037  0.1536
 3132SOL    HW121032   2.054   2.551  16.673  1.3791 -1.6388  0.3771
 3132SOL    HW221033   1.992   2.489  16.558  1.1500  0.1780  0.2326
 3133SOL     OW21034   4.726   3.356   8.761 -0.2136  0.2058 -0.1420
 3133SOL    HW121035   0.011   3.264   8.778  1.2923  0.6280  0.3445
 3133SOL    HW221036   0.079   3.391   8.759  0.3750 -1.1039  2.2700
 3134SOL     OW21037   3.146   2.025   9.134 -0.0462  0.3444  0.2952
 3134SOL    HW121038   3.079   1.978   9.184 -0.2028  0.1040 -0.1413
 3134SOL    HW221039   3.121   2.117   9.145  0.1823  0.3224  0.9956
 3135SOL     OW21040   4.636   4.486   3.822  0.3675 -0.5205 -0.1896
 3135SOL    HW121041   4.725   4.479   3.856  1.2040  0.6806 -2.1193
 3135SOL    HW221042   4.594   4.424   3.881 -1.4340 -0.4991 -1.4597
 3136SOL     OW21043   0.903   0.632   0.185 -0.2972 -0.2964 -0.6593
 3136SOL    HW121044   0.849   0.697   0.140 -0.6201  0.3228  0.6505
 3136SOL    HW221045   0.896   0.664   0.275  1.2111 -0.0747 -0.6143
 3137SOL     OW21046   1.347   0.746   3.095 -0.2556  0.1376  0.1735
 3137SOL    HW121047   1.265   0.707   3.125 -1.4383  0.8696 -2.0765
 3137SOL    HW221048   1.400   0.666   3.088  0.0395  0.4573 -1.3501
 3138SOL     OW21049   1.178   1.660   2.924 -0.2546  0.5273 -0.6951
 3138SOL    HW121050   1.139   1.719   2.989 -0.9888  2.2560 -2.6814
 3138SOL    HW221051   1.153   1.581   2.972 -0.0939  0.6466 -0.4153
 3139SOL     OW21052   3.393   3.549  16.027  0.1520  0.6756 -0.4731
 3139SOL    HW121053   3.454   3.585  16.091 -0.2032 -0.3446  0.4563
 3139SOL    HW221054   3.437   3.468  16.003  0.0956  0.5063 -0.0120
 3140SOL     OW21055   2.178   2.001  10.707 -0.3060 -0.9053 -0.4153
 3140SOL    HW121056   2.103   2.055  10.683  0.2443 -0.1302 -0.4002
 3140SOL    HW221057   2.140   1.947  10.777  2.2427 -1.5818  0.4518
 3141SOL     OW21058   3.947   2.438   5.798  0.5414  0.3294  0.2232
 3141SOL    HW121059   3.979   2.526   5.780 -0.2520  0.1191 -2.2059
 3141SOL    HW221060   4.010   2.404   5.861 -0.1373  1.1070  1.3244
 3142SOL     OW21061   2.359   0.899  14.241  0.0640  0.0327  0.2074
 3142SOL    HW121062   2.441   0.947  14.228  1.1979 -1.6327  1.1958
 3142SOL    HW221063   2.340   0.908  14.334  0.1026 -1.2550  0.3374
 3143SOL     OW21064   2.231   2.545   0.399 -0.5743 -0.0136 -0.1681
 3143SOL    HW121065   2.153   2.500   0.366 -1.5629  0.9938  0.7900
 3143SOL    HW221066   2.202   2.636   0.407 -1.5543 -0.3366  0.0081
 3144SOL     OW21067   3.240   0.591   5.911  0.0708 -0.1871  0.4840
 3144SOL    HW121068   3.196   0.562   5.831 -1.4582 -0.1386  1.2915
 3144SOL    HW221069   3.252   0.503   5.947 -0.2043 -1.4087 -2.4641
 3145SOL     OW21070   1.098   4.355  14.908 -0.7459 -0.1897 -0.4631
 3145SOL    HW121071   1.176   4.362  14.962 -0.1563  3.2059 -1.7630
 3145SOL    HW221072   1.087   4.260  14.914 -0.6417 -0.1197  1.0260
 3146SOL     OW21073   4.595   0.337  16.497 -0.6489 -0.1744 -0.3451
 3146SOL    HW121074   4.634   0.411  16.451 -1.9246 -1.2588 -3.1730
 3146SOL    HW221075   4.668   0.279  16.516 -2.3700 -2.8830 -1.9745
 3147SOL     OW21076   1.252   1.266  17.697  0.3199 -0.0309  0.3870
 3147SOL    HW121077   1.272   1.173  17.685 -0.0940 -0.2306  1.2386
 3147SOL    HW221078   1.170   1.259   0.006  1.2602 -3.1582  1.5142
 3148SOL     OW21079   1.163   4.499   3.816 -0.5904  0.5133 -0.1768
 3148SOL    HW121080   1.145   4.468   3.727 -0.4443  0.4709 -0.1924
 3148SOL    HW221081   1.222   4.431   3.850 -3.2665 -0.7917  1.7750
 3149SOL     OW21082   0.494   2.091  14.316  0.2155 -0.4208 -0.0876
 3149SOL    HW121083   0.570   2.115  14.263 -0.7303  1.1161 -0.7602
 3149SOL    HW221084   0.516   2.027  14.383  0.8328  0.0402  0.1506
 3150SOL     OW21085   3.924   0.475   7.572  0.2753 -0.0945 -0.7476
 3150SOL    HW121086   3.921   0.380   7.558 -0.8465  0.0217 -1.2519
 3150SOL    HW221087   3.863   0.492   7.643  2.1221 -0.8630  1.0445
 3151SOL     OW21088   1.518   2.359  17.527  0.3854  0.6721 -0.1853
 3151SOL    HW121089   1.526   2.391  17.437 -3.2127 -0.8880 -1.0928
 3151SOL    HW221090   1.609   2.368  17.555  0.2502 -1.2620  0.8410
 3152SOL     OW21091   3.540   2.575   9.648  0.0249  0.4666  0.3141
 3152SOL    HW121092   3.563   2.634   9.720  2.2432  0.7798 -0.6578
 3152SOL    HW221093   3.621   2.564   9.598 -1.6678  0.3829 -2.3677
 3153SOL     OW21094   3.738   1.002   2.766 -0.1879 -0.1273 -0.0407
 3153SOL    HW121095   3.702   0.994   2.855 -0.6448  2.4291  0.0146
 3153SOL    HW221096   3.832   0.984   2.776  0.1699  0.8690 -1.5209
 3154SOL     OW21097   0.550   3.398   7.742 -0.5417 -0.1904 -0.4931
 3154SOL    HW121098   0.473   3.369   7.693 -3.1173  1.2831  2.6826
 3154SOL    HW221099   0.521   3.383   7.832  1.4204 -1.2571 -0.0379
 3155SOL     OW21100   1.322   4.360   6.097 -0.4035 -0.3735 -0.6341
 3155SOL    HW121101   1.275   4.342   6.178  0.3961 -0.1050 -0.1094
 3155SOL    HW221102   1.332   4.455   6.105  0.0964 -0.3738 -1.2159
 3156SOL     OW21103   2.361   2.482  13.581  0.8677 -1.3041 -0.0186
 3156SOL    HW121104   2.340   2.388  13.584 -1.1010 -0.8736 -0.6695
 3156SOL    HW221105   2.389   2.486  13.673 -2.7994 -2.0603  1.1388
 3157SOL     OW21106   2.707   1.018   3.532 -0.2952  0.4473 -0.0046
 3157SOL    HW121107   2.774   1.075   3.496  0.2854  1.0646  2.0421
 3157SOL    HW221108   2.694   1.056   3.619  2.2777  2.0423 -0.3163
 3158SOL     OW21109   2.639   3.767  11.082 -0.4341  0.0283  0.2214
 3158SOL    HW121110   2.577   3.763  11.009  1.3489 -1.0069 -1.2322
 3158SOL    HW221111   2.721   3.776  11.034  0.2663 -0.3051  1.3557
 3159SOL     OW21112   2.356   0.349   6.751 -0.1020  0.5080  0.0085
 3159SOL    HW121113   2.304   0.361   6.671  0.5993  0.8506 -0.3944
 3159SOL    HW221114   2.284   0.330   6.811 -2.4930  0.0276 -2.9941
 3160SOL     OW21115   1.445   2.672   8.146 -0.0421 -0.0587  0.0554
 3160SOL    HW121116   1.375   2.736   8.161  0.9811  1.0222  0.2259
 3160SOL    HW221117   1.485   2.720   8.074 -0.8975 -0.1346 -0.4634
 3161SOL     OW21118   3.730   2.682   1.554 -0.0863  0.1529  0.3754
 3161SOL    HW121119   3.662   2.733   1.509 -0.3798  1.3776  2.1870
 3161SOL    HW221120   3.680   2.664   1.634  3.2155 -3.7842  1.5494
 3162SOL     OW21121   1.169   1.276   0.477  0.2287 -0.6552  0.1985
 3162SOL    HW121122   1.120   1.242   0.552  0.1753 -1.6683 -0.2978
 3162SOL    HW221123   1.185   1.202   0.419 -1.5578 -1.4552  0.7324
 3163SOL     OW21124   4.684   1.738   3.461  0.6416 -0.3297  0.3978
 3163SOL    HW121125   4.603   1.693   3.487 -0.6815  1.6059 -0.3691
 3163SOL    HW221126   4.682   1.785   3.544 -2.2217 -0.4125  0.3742
 3164SOL     OW21127   3.163   4.127   4.914 -0.3059 -0.0053  0.0751
 3164SOL    HW121128   3.230   4.090   4.857 -1.0590 -2.2138  0.6430
 3164SOL    HW221129   3.201   4.108   5.000  2.0191  0.1313 -0.9052
 3165SOL     OW21130   0.452   1.873   3.143 -0.3758  0.2016  0.3075
 3165SOL    HW121131   0.386   1.815   3.106  0.6780 -0.7764 -0.0290
 3165SOL    HW221132   0.394   1.949   3.143 -1.7956 -0.8910 -2.1026
 3166SOL     OW21133   1.686   1.739   6.263  0.1183 -0.1742 -0.1101
 3166SOL    HW121134   1.711   1.831   6.254 -1.5902  0.5079  1.9279
 3166SOL    HW221135   1.670   1.705   6.175 -0.9945 -1.9543  0.7815
 3167SOL     OW21136   3.585   2.092  11.731  0.0638  0.4539 -0.0369
 3167SOL    HW121137   3.670   2.062  11.698 -0.7172 -2.9474  1.0068
 3167SOL    HW221138   3.593   2.186  11.719  0.6984  0.6630  1.9153
 3168SOL     OW21139   3.796   1.922   8.167  0.0606 -0.0681 -0.0041
 3168SOL    HW121140   3.882   1.881   8.172  1.1583  2.0916 -1.3119
 3168SOL    HW221141   3.755   1.898   8.250  1.7512  0.5853  1.0171
 3169SOL     OW21142   0.397   1.965  12.569  0.7965  0.0538 -0.0286
 3169SOL    HW121143   0.390   1.993  12.660  0.5031 -0.3809  0.0841
 3169SOL    HW221144   0.334   2.028  12.533 -0.4367 -0.9773  0.3366
 3170SOL     OW21145   4.607   0.352   6.804 -0.1721 -0.5061  0.0733
 3170SOL    HW121146   4.577   0.272   6.847 -1.9367  0.0253 -0.1835
 3170SOL    HW221147   4.701   0.347   6.820 -0.1229  1.1618  0.3102
 3171SOL     OW21148   3.690   4.633   6.655  0.6149  0.6975 -0.0428
 3171SOL    HW121149   3.705   4.725   6.677 -0.4371  0.3405  2.1131
 3171SOL    HW221150   3.775   4.609   6.616  0.0928 -1.4459  0.1546
 3172SOL     OW21151   0.229   3.518   0.198 -0.4480  0.0534  0.3676
 3172SOL    HW121152   0.230   3.602   0.243  1.7936  0.1847  0.0728
 3172SOL    HW221153   0.205   3.563   0.117  1.3191  0.0495 -0.1784
 3173SOL     OW21154   3.002   4.064   3.062  0.0567 -0.3734 -0.0127
 3173SOL    HW121155   2.947   4.037   3.136 -0.2821 -1.2287 -0.5826
 3173SOL    HW221156   3.086   4.020   3.079  1.0917  0.9855 -1.6402
 3174SOL     OW21157   4.296   2.854   3.078  0.2505 -0.3753 -0.2564
 3174SOL    HW121158   4.215   2.811   3.107  0.2680 -0.5548 -0.4685
 3174SOL    HW221159   4.358   2.784   3.095  0.5989 -0.1708 -0.7042
 3175SOL     OW21160   1.507   0.424   8.806 -0.2556 -0.3471  0.4376
 3175SOL    HW121161   1.443   0.378   8.860  0.7441 -1.2091  0.9014
 3175SOL    HW221162   1.530   0.496   8.864 -2.4729 -0.5011  1.4859
 3176SOL     OW21163   3.763   4.031   3.152  0.2451  0.0613  0.2646
 3176SOL    HW121164   3.787   4.113   3.110  0.0899 -0.9610 -1.8099
 3176SOL    HW221165   3.790   4.065   3.237  0.3848  0.9003 -0.1164
 3177SOL     OW21166   2.587   4.154   8.985 -0.6295 -0.1344 -0.0467
 3177SOL    HW121167   2.525   4.118   9.048 -0.5819 -1.2066 -0.5985
 3177SOL    HW221168   2.663   4.109   9.021 -0.1726  0.4231 -0.3291
 3178SOL     OW21169   2.273   2.437   0.053 -0.3956 -0.0930  0.1358
 3178SOL    HW121170   2.316   2.492  17.729  2.5436  0.4832  2.5861
 3178SOL    HW221171   2.319   2.461   0.133 -0.5646  2.2998 -0.5036
 3179SOL     OW21172   0.073   2.987   3.635 -0.3391 -1.0034  0.1663
 3179SOL    HW121173   4.716   3.002   3.616 -0.0291  1.0952  0.3613
 3179SOL    HW221174   0.116   3.008   3.552 -0.5943  0.7134  0.4733
 3180SOL     OW21175   0.746   2.567  10.868 -0.1622 -0.0689  0.0863
 3180SOL    HW121176   0.724   2.604  10.954 -0.2676  1.7437 -0.7096
 3180SOL    HW221177   0.706   2.622  10.800 -1.2036  0.8238  1.4082
 3181SOL     OW21178   1.809   0.355   4.472  0.5135  0.1476  0.1877
 3181SOL    HW121179   1.875   0.291   4.499 -0.7775 -0.8983  0.8368
 3181SOL    HW221180   1.821   0.359   4.377  1.5417 -0.1712  0.3018
 3182SOL     OW21181   4.291   0.348   0.900  0.0412  0.0448  0.3891
 3182SOL    HW121182   4.203   0.336   0.865  0.7687 -3.8196 -0.0661
 3182SOL    HW221183   4.308   0.255   0.916 -1.8174 -0.6453 -1.5105
 3183SOL     OW21184   4.303   3.772   3.278  0.0298  0.0022 -0.0692
 3183SOL    HW121185   4.210   3.771   3.255 -0.1483  0.8762  0.5738
 3183SOL    HW221186   4.289   3.809   3.366 -0.6611  1.7296 -0.8925
 3184SOL     OW21187   1.577   3.904   6.789 -0.1416 -0.8516 -0.1313
 3184SOL    HW121188   1.638   3.944   6.851 -0.3587 -1.3990  0.4269
 3184SOL    HW221189   1.516   3.976   6.771 -0.1215 -0.2022  2.3544
 3185SOL     OW21190   1.507   1.934   3.331 -0.4390 -0.0515  0.3367
 3185SOL    HW121191   1.444   1.892   3.272  0.6480  0.6320 -1.3158
 3185SOL    HW221192   1.581   1.875   3.337 -0.0128  0.4191 -0.2820
 3186SOL     OW21193   3.817   1.144  16.199  0.3796  0.4228  0.5840
 3186SOL    HW121194   3.766   1.219  16.229  0.6094 -0.4862  3.2421
 3186SOL    HW221195   3.819   1.099  16.283 -3.0424  0.8979  0.9087
 3187SOL     OW21196   2.900   4.667   2.807 -0.1443 -0.2606  0.2793
 3187SOL    HW121197   2.874   4.651   2.897  0.9134 -0.7904  0.4941
 3187SOL    HW221198   2.867   0.019   2.787  0.3083  0.1659  1.3864
 3188SOL     OW21199   0.892   3.962   8.595 -0.2999 -0.2708 -0.1897
 3188SOL    HW121200   0.901   3.898   8.524 -2.6271 -0.4467 -0.3189
 3188SOL    HW221201   0.910   4.046   8.554  1.7906 -0.1956  0.9080
 3189SOL     OW21202   4.364   3.212   1.806  0.1605 -0.0390  0.2119
 3189SOL    HW121203   4.370   3.152   1.731  1.6758  0.4150 -0.0325
 3189SOL    HW221204   4.331   3.161   1.880  0.2897 -0.4867 -0.0402
 3190SOL     OW21205   2.380   4.285   3.066  0.2676  0.2787 -0.1707
 3190SOL    HW121206   2.325   4.208   3.058  1.8339 -1.0433  2.0457
 3190SOL    HW221207   2.461   4.240   3.042 -0.3251 -0.6468 -0.4429
 3191SOL     OW21208   1.237   1.956   1.683  0.0408 -0.1997  0.8024
 3191SOL    HW121209   1.249   2.043   1.645 -0.7643  0.0708  1.1901
 3191SOL    HW221210   1.319   1.950   1.733  0.2056  0.0681  0.5672
 3192SOL     OW21211   1.175   3.238  15.641 -0.2666  0.1566  0.1068
 3192SOL    HW121212   1.082   3.223  15.628 -0.6354  2.2159  0.3384
 3192SOL    HW221213   1.188   3.222  15.734  1.0364  1.0682  0.0913
 3193SOL     OW21214   1.760   2.386   1.129  0.6053  0.0829 -0.1357
 3193SOL    HW121215   1.745   2.341   1.046  0.0737 -0.1412  0.0843
 3193SOL    HW221216   1.804   2.319   1.181 -0.6870 -0.2706  0.4991
 3194SOL     OW21217   2.338   1.901   3.804  0.1559  0.4685 -0.3513
 3194SOL    HW121218   2.314   1.911   3.712  0.4586 -1.3799 -0.6358
 3194SOL    HW221219   2.259   1.855   3.832 -0.2727  1.5531  0.2164
 3195SOL     OW21220   0.630   4.620   0.977  0.0098 -0.3671 -0.3719
 3195SOL    HW121221   0.637   4.594   1.069  0.1968  0.4582 -0.1516
 3195SOL    HW221222   0.711   4.670   0.967  0.4258 -1.2925 -1.6639
 3196SOL     OW21223   1.786   1.655   3.148 -0.2750 -0.3840  0.2324
 3196SOL    HW121224   1.805   1.603   3.225 -1.2526 -1.2394 -0.0960
 3196SOL    HW221225   1.834   1.736   3.166  1.7267 -1.5870  0.2739
 3197SOL     OW21226   2.678   0.249  12.717 -0.3134 -0.4187  0.1669
 3197SOL    HW121227   2.628   0.197  12.654 -2.1268  1.5760 -0.0147
 3197SOL    HW221228   2.603   0.264  12.773 -1.7437  0.5421 -2.0255
 3198SOL     OW21229   2.945   3.219  16.641  0.2410  0.0445 -0.0584
 3198SOL    HW121230   2.872   3.157  16.634 -0.9050  1.4351 -0.3693
 3198SOL    HW221231   2.959   3.242  16.549 -2.9850 -1.2233 -0.8961
 3199SOL     OW21232   1.309   2.743   2.775  0.2065 -0.0974 -0.5548
 3199SOL    HW121233   1.399   2.711   2.761  0.1562 -0.1636 -0.7348
 3199SOL    HW221234   1.313   2.837   2.791 -0.4894  0.2666 -2.5363
 3200SOL     OW21235   2.177   3.077   9.468 -0.1665 -0.1764  0.4740
 3200SOL    HW121236   2.129   3.019   9.527  1.4750  0.8581  2.8462
 3200SOL    HW221237   2.101   3.128   9.441  1.5307 -0.1006 -4.1572
 3201SOL     OW21238   1.508   0.521  16.205 -0.1101 -0.1645  0.1143
 3201SOL    HW121239   1.499   0.441  16.154  0.0778  0.6917 -1.2841
 3201SOL    HW221240   1.602   0.537  16.200 -0.1545  0.1192  0.1686
 3202SOL     OW21241   3.554   3.430   3.803  0.6299 -0.0970  0.5002
 3202SOL    HW121242   3.479   3.435   3.743  0.1154 -1.7668  1.0013
 3202SOL    HW221243   3.617   3.388   3.744 -0.3103 -1.6405  0.5705
 3203SOL     OW21244   0.600   3.572  17.156  0.2325 -0.3058  0.0984
 3203SOL    HW121245   0.550   3.513  17.212  1.5356 -0.1538  1.4456
 3203SOL    HW221246   0.641   3.510  17.096  1.8205  0.4502  0.3904
 3204SOL     OW21247   1.793   4.443  16.717 -0.0800 -0.0959  0.0859
 3204SOL    HW121248   1.800   4.406  16.805 -2.0288  0.1762  0.3715
 3204SOL    HW221249   1.873   4.414  16.673 -0.9111 -0.6168 -1.0670
 3205SOL     OW21250   0.539   3.128   5.777 -0.2022  0.1897  0.7553
 3205SOL    HW121251   0.491   3.047   5.795  0.6233  0.5463  4.5558
 3205SOL    HW221252   0.496   3.160   5.698 -0.4951 -1.4661  0.2421
 3206SOL     OW21253   3.094   1.083   1.882 -0.4608  0.0772  0.2592
 3206SOL    HW121254   3.068   0.994   1.903  0.6263 -0.4564 -0.6671
 3206SOL    HW221255   3.028   1.110   1.818 -0.2524 -0.7880 -0.3166
 3207SOL     OW21256   0.374   2.014   9.568  0.1965 -0.1231 -0.0550
 3207SOL    HW121257   0.452   2.053   9.607 -0.6861  1.1906  0.4110
 3207SOL    HW221258   0.313   2.086   9.587  0.0367 -0.2926  0.0652
 3208SOL     OW21259   2.805   0.453  14.657  0.5561 -0.3051  0.5128
 3208SOL    HW121260   2.815   0.385  14.723  1.1962 -1.6334 -0.9547
 3208SOL    HW221261   2.724   0.424  14.616 -1.2742  1.7848  2.6925
 3209SOL     OW21262   3.242   2.223   2.101 -0.0902 -0.3706 -0.0561
 3209SOL    HW121263   3.222   2.133   2.126  1.7877 -0.5580  0.6971
 3209SOL    HW221264   3.336   2.236   2.113 -0.6138  0.8170  2.8128
 3210SOL     OW21265   0.351   2.059  16.568 -0.1615  0.2518  0.1696
 3210SOL    HW121266   0.270   2.071  16.518  0.3179 -0.5929 -0.8141
 3210SOL    HW221267   0.383   2.149  16.564  0.3861  0.0020 -1.0990
 3211SOL     OW21268   0.606   1.440   3.381 -0.6391 -0.6237 -0.0893
 3211SOL    HW121269   0.541   1.391   3.430  0.9873 -1.3283  1.3838
 3211SOL    HW221270   0.578   1.526   3.411  1.2563  0.1330 -0.4577
 3212SOL     OW21271   2.728   4.516   4.033  0.1228 -0.2154  0.7010
 3212SOL    HW121272   2.756   4.562   4.112  2.1787 -0.2481 -0.0045
 3212SOL    HW221273   2.799   4.452   4.042  0.4934  0.2316  0.9481
 3213SOL     OW21274   1.684   0.594   5.756  0.0200  0.0323  0.1603
 3213SOL    HW121275   1.697   0.519   5.698 -0.6420 -1.0085  1.3557
 3213SOL    HW221276   1.745   0.657   5.718  0.5948 -1.4528 -1.4128
 3214SOL     OW21277   2.543   3.750  14.569 -0.4782 -0.2666  0.0109
 3214SOL    HW121278   2.481   3.818  14.594 -2.0362 -0.9065 -2.0726
 3214SOL    HW221279   2.497   3.668  14.586  0.0959 -1.1512 -2.5452
 3215SOL     OW21280   3.018   3.019  13.553  0.2230  0.2304 -0.2841
 3215SOL    HW121281   3.032   2.929  13.581  0.3767  0.6023  0.8526
 3215SOL    HW221282   2.973   3.009  13.469  0.2443  1.5874 -0.4658
 3216SOL     OW21283   1.265   3.894   4.688 -0.2886  0.0354  0.5478
 3216SOL    HW121284   1.201   3.955   4.650  1.7110  1.1577 -1.0572
 3216SOL    HW221285   1.348   3.942   4.687 -0.3340  0.1061 -0.1826
 3217SOL     OW21286   1.397   2.346   0.031  0.5805  0.4120  0.4643
 3217SOL    HW121287   1.439   2.344  17.685 -3.8558 -1.7245 -1.6573
 3217SOL    HW221288   1.325   2.404   0.006 -1.3097 -2.2540 -0.2940
 3218SOL     OW21289   1.071   3.580   5.993 -0.3388  0.3156 -0.1318
 3218SOL    HW121290   1.023   3.500   5.970  0.1954  0.1168 -0.5489
 3218SOL    HW221291   1.005   3.648   5.984 -0.0811  0.4233 -1.1526
 3219SOL     OW21292   1.886   3.234   4.317  0.5171  0.0791 -0.5780
 3219SOL    HW121293   1.862   3.311   4.368 -1.1044 -0.6873 -0.1605
 3219SOL    HW221294   1.970   3.205   4.354  0.4321  0.4478 -0.0852
 3220SOL     OW21295   1.684   2.906   8.255 -0.2580 -0.0733  0.3938
 3220SOL    HW121296   1.643   2.854   8.186  1.3567 -0.5536 -0.1976
 3220SOL    HW221297   1.682   2.848   8.331  1.1920 -1.3038 -0.5060
 3221SOL     OW21298   4.011   1.387  13.021 -0.4539 -0.0380  0.0043
 3221SOL    HW121299   4.003   1.298  12.986  1.9487 -0.3555  0.2255
 3221SOL    HW221300   4.024   1.365  13.113 -3.0838  0.0243  0.3820
 3222SOL     OW21301   3.116   4.290   1.264 -0.1687  0.4652  0.1295
 3222SOL    HW121302   3.065   4.242   1.330 -0.4843  1.6114  0.7094
 3222SOL    HW221303   3.055   4.332   1.205  1.9909  2.4587 -0.6793
 3223SOL     OW21304   2.991   2.944   6.851  0.6840  0.2818  0.6520
 3223SOL    HW121305   3.052   3.017   6.853  1.3396 -0.1915 -1.8434
 3223SOL    HW221306   2.910   2.977   6.812  0.4451 -0.5308  0.4664
 3224SOL     OW21307   4.733   0.944   3.336 -0.0538  0.2267  0.3912
 3224SOL    HW121308   4.696   1.012   3.280 -0.4669 -0.0222  0.3634
 3224SOL    HW221309   0.081   0.980   3.365  0.4597  0.8790 -1.9198
 3225SOL     OW21310   2.881   2.423   8.863 -0.7168  0.0363 -0.3007
 3225SOL    HW121311   2.953   2.368   8.895  0.2326  2.5550  1.8656
 3225SOL    HW221312   2.849   2.375   8.786  0.0911  2.2209 -1.9879
 3226SOL     OW21313   4.236   2.539  16.508  0.4445 -0.0488  0.0189
 3226SOL    HW121314   4.233   2.460  16.455  2.5095 -0.5210  0.5881
 3226SOL    HW221315   4.143   2.564  16.509  0.1272 -1.2627  0.2665
 3227SOL     OW21316   1.770   2.780  16.637 -0.6147  0.2459 -0.2063
 3227SOL    HW121317   1.839   2.761  16.700 -1.3267  0.9733  0.7989
 3227SOL    HW221318   1.724   2.696  16.638 -0.2744  0.0732  1.3909
 3228SOL     OW21319   3.224   3.116   2.302  0.0944 -0.2045  0.2620
 3228SOL    HW121320   3.144   3.165   2.286  0.0192 -0.3592  0.1616
 3228SOL    HW221321   3.253   3.150   2.387 -2.2625 -1.0167  1.4024
 3229SOL     OW21322   0.482   2.888   1.764 -0.1036  0.0442 -0.7883
 3229SOL    HW121323   0.452   2.859   1.678 -0.5607 -0.4403 -0.4670
 3229SOL    HW221324   0.395   2.916   1.792 -0.3381 -0.8147 -0.6635
 3230SOL     OW21325   4.263   0.419   4.762  0.0033 -0.0315  0.3116
 3230SOL    HW121326   4.183   0.448   4.717  0.1261  0.3043  0.3127
 3230SOL    HW221327   4.316   0.489   4.726  0.0428 -0.3723 -0.2969
 3231SOL     OW21328   3.408   2.193   5.966  0.7022  0.2193 -0.0740
 3231SOL    HW121329   3.406   2.149   6.052  0.6305 -0.2415 -0.3095
 3231SOL    HW221330   3.315   2.206   5.949  0.5041 -0.7630  0.2549
 3232SOL     OW21331   0.083   1.741   5.981  0.2810  0.6564 -0.0021
 3232SOL    HW121332   4.730   1.706   5.971  0.0071  0.9924  1.1764
 3232SOL    HW221333   0.110   1.712   6.068 -1.5250 -1.1688 -0.0654
 3233SOL     OW21334   4.505   1.551   6.999 -0.2353  0.6359  0.4354
 3233SOL    HW121335   4.412   1.529   6.993 -0.1422  0.6810 -1.1608
 3233SOL    HW221336   4.513   1.557   7.095 -0.1529 -1.2933  0.5391
 3234SOL     OW21337   3.065   2.307   9.747  0.3969 -0.1796 -0.8592
 3234SOL    HW121338   3.135   2.241   9.742  0.2455 -0.4729  0.8267
 3234SOL    HW221339   3.113   2.388   9.731 -2.3193  1.8831  1.6177
 3235SOL     OW21340   4.139   3.513   1.776 -0.0033 -0.5664  0.5074
 3235SOL    HW121341   4.088   3.432   1.778 -2.8654  1.2104 -0.2588
 3235SOL    HW221342   4.080   3.567   1.830  0.1259  0.3643 -0.2841
 3236SOL     OW21343   2.131   0.876   0.115 -0.5379  0.6140  0.0042
 3236SOL    HW121344   2.058   0.864   0.054  0.6119  1.7021 -1.5695
 3236SOL    HW221345   2.123   0.967   0.143 -2.1083  0.4702  0.0438
 3237SOL     OW21346   0.833   2.049  11.837  0.1367  0.5952  0.3033
 3237SOL    HW121347   0.795   2.023  11.753  2.0078 -0.2258 -0.2963
 3237SOL    HW221348   0.928   2.043  11.829  0.3736  0.4051  3.3603
 3238SOL     OW21349   0.374   3.007   3.226 -0.4271  0.0455  0.1120
 3238SOL    HW121350   0.445   2.977   3.282  1.3596  2.5729 -0.7916
 3238SOL    HW221351   0.296   2.975   3.271 -0.1263 -1.5276 -0.4782
 3239SOL     OW21352   2.706   0.387   4.531  0.2646 -0.0252  0.3863
 3239SOL    HW121353   2.746   0.412   4.614  0.2563  2.3985 -0.3137
 3239SOL    HW221354   2.611   0.386   4.537  0.3350 -0.3845  1.2594
 3240SOL     OW21355   1.623   0.861  17.196 -0.0767  0.1473 -0.2569
 3240SOL    HW121356   1.559   0.845  17.127 -1.5583  0.1341  1.1178
 3240SOL    HW221357   1.706   0.863  17.148 -0.4710 -0.6243 -0.9670
 3241SOL     OW21358   0.119   2.739   2.885  0.0016 -0.2575 -0.5143
 3241SOL    HW121359   0.058   2.739   2.959 -0.3941  0.0744 -0.8403
 3241SOL    HW221360   0.126   2.833   2.873 -0.9268 -0.3485 -1.8703
 3242SOL     OW21361   1.081   3.971  12.186  0.4465 -0.0223  0.7146
 3242SOL    HW121362   1.143   4.018  12.130 -1.3498  1.0378 -0.3892
 3242SOL    HW221363   1.133   3.961  12.266  0.4241  0.1364  0.7493
 3243SOL     OW21364   4.359   0.465   7.624 -0.5892 -0.1307  0.2767
 3243SOL    HW121365   4.264   0.464   7.623 -0.5980  0.7308  1.0320
 3243SOL    HW221366   4.372   0.407   7.698 -0.5686 -0.6038 -0.0942
 3244SOL     OW21367   4.059   1.431  13.299 -0.4008 -0.0068  0.0782
 3244SOL    HW121368   4.096   1.519  13.300  1.8515 -0.9623  1.0067
 3244SOL    HW221369   3.981   1.440  13.354 -0.5875 -1.5743  0.0594
 3245SOL     OW21370   0.727   3.488  10.217 -0.1233  0.1976 -0.0961
 3245SOL    HW121371   0.677   3.406  10.210  2.7613 -1.4704 -1.2056
 3245SOL    HW221372   0.682   3.510  10.299 -0.0059 -0.3000  0.1031
 3246SOL     OW21373   4.162   1.558   3.844 -0.5035 -0.7912 -0.2484
 3246SOL    HW121374   4.184   1.484   3.901  2.2694  0.5009  0.3881
 3246SOL    HW221375   4.223   1.625   3.876  0.5793 -1.8410 -0.0840
 3247SOL     OW21376   2.824   0.940   2.673  0.3355 -0.1941 -0.2173
 3247SOL    HW121377   2.889   1.008   2.662 -0.6939  0.8210 -0.0209
 3247SOL    HW221378   2.866   0.888   2.742 -1.6703 -2.9884 -1.0861
 3248SOL     OW21379   4.703   4.610  12.062  0.1573 -0.0429 -0.4527
 3248SOL    HW121380   0.047   4.610  12.115 -0.2663  0.5592  0.1832
 3248SOL    HW221381   0.002   4.589  11.975 -0.6876 -0.3223 -0.7224
 3249SOL     OW21382   2.954   2.132   8.054  0.2533  0.2969 -0.3899
 3249SOL    HW121383   3.004   2.077   7.994 -0.6528 -2.9665  1.7793
 3249SOL    HW221384   2.882   2.148   7.993 -0.9866 -0.7863  0.7825
 3250SOL     OW21385   0.842   0.659   7.767  0.0293  0.6089 -0.3937
 3250SOL    HW121386   0.790   0.595   7.717  0.6792 -0.7951  0.7135
 3250SOL    HW221387   0.928   0.618   7.775 -1.6813 -2.3141  3.5974
 3251SOL     OW21388   0.382   3.353   9.281 -0.4882  0.4658  0.3026
 3251SOL    HW121389   0.300   3.403   9.288 -0.1157  0.8417  1.8769
 3251SOL    HW221390   0.343   3.278   9.236 -0.4056  0.8064 -0.3360
 3252SOL     OW21391   4.602   4.115   6.144  0.0850 -0.0391 -0.0292
 3252SOL    HW121392   4.649   4.086   6.223  0.2603  1.1514  0.3086
 3252SOL    HW221393   4.673   4.131   6.082 -0.8973 -1.0740 -1.4063
 3253SOL     OW21394   0.914   3.782   2.356 -0.3887 -0.2619 -0.0308
 3253SOL    HW121395   0.989   3.762   2.413  1.2932  1.7226 -1.5448
 3253SOL    HW221396   0.857   3.706   2.362  1.9243 -2.0053 -0.2885
 3254SOL     OW21397   0.431   0.852  12.819 -0.6749 -0.0122  0.0361
 3254SOL    HW121398   0.439   0.866  12.914  0.6880  2.3169 -0.4413
 3254SOL    HW221399   0.424   0.757  12.811  0.9525 -0.0802 -0.4868
 3255SOL     OW21400   3.460   0.189   3.967  0.6252  0.3942 -0.0106
 3255SOL    HW121401   3.548   0.157   3.984 -0.7753 -3.9010 -0.7621
 3255SOL    HW221402   3.408   0.109   3.963 -1.3859  1.6844  0.2890
 3256SOL     OW21403   4.060   2.685   5.663  0.4791  0.2022  0.5183
 3256SOL    HW121404   4.066   2.752   5.732  2.6022 -0.8177  1.3096
 3256SOL    HW221405   4.022   2.736   5.592  0.1347  1.2527  1.4457
 3257SOL     OW21406   4.684   1.249   3.687 -0.2013  0.0106  0.0048
 3257SOL    HW121407   4.717   1.315   3.747 -0.6605 -0.5072  0.8255
 3257SOL    HW221408   0.002   1.181   3.728 -0.1051  0.8915  1.3269
 3258SOL     OW21409   1.150   0.619   6.033 -0.0878  0.0762  0.3741
 3258SOL    HW121410   1.085   0.635   5.964  0.4734  1.7182  0.2281
 3258SOL    HW221411   1.208   0.552   5.997  0.2285  0.0280  0.9770
 3259SOL     OW21412   0.524   4.652   2.317  0.4114  0.5305 -0.3016
 3259SOL    HW121413   0.554   4.724   2.262  1.7827 -0.1800 -0.4748
 3259SOL    HW221414   0.596   4.589   2.309 -1.3228 -1.7347  1.8456
 3260SOL     OW21415   1.820   3.461   2.230  0.3908 -0.4414  0.1020
 3260SOL    HW121416   1.823   3.382   2.283 -2.1528 -2.2111 -2.3782
 3260SOL    HW221417   1.868   3.424   2.157  1.1942 -1.4360  1.1361
 3261SOL     OW21418   3.144   1.391  12.139 -0.1939  0.3119  0.0903
 3261SOL    HW121419   3.095   1.366  12.218  0.1326  0.4074  0.3227
 3261SOL    HW221420   3.158   1.306  12.096  1.5741  0.2094  0.9002
 3262SOL     OW21421   4.440   3.800   6.370 -0.1131  0.0688  0.2395
 3262SOL    HW121422   4.396   3.845   6.298  0.6596  1.3018  0.5332
 3262SOL    HW221423   4.372   3.736   6.391 -0.3273 -0.8178 -3.1831
 3263SOL     OW21424   2.475   0.767   7.981  0.1147  0.0692 -0.1497
 3263SOL    HW121425   2.564   0.802   7.976 -0.7349  1.9876 -1.5974
 3263SOL    HW221426   2.427   0.822   8.042  1.2459  0.9426 -0.0456
 3264SOL     OW21427   3.068   3.162  15.203  0.0240 -0.1475 -0.0741
 3264SOL    HW121428   3.136   3.202  15.149 -1.4927  0.7015 -1.3621
 3264SOL    HW221429   3.110   3.151  15.288 -0.9943  2.3003  0.7214
 3265SOL     OW21430   2.990   3.038   3.888 -0.0210 -0.0796 -0.1677
 3265SOL    HW121431   2.939   3.023   3.967  1.2090 -1.8236  0.3092
 3265SOL    HW221432   2.939   3.111   3.853 -2.1706 -2.4057 -1.9551
 3266SOL     OW21433   1.024   3.543   6.332  0.2923  0.4210 -0.4761
 3266SOL    HW121434   1.090   3.613   6.339  2.8966 -2.3072  2.2777
 3266SOL    HW221435   1.064   3.463   6.299  0.3602  0.2816 -0.0592
 3267SOL     OW21436   0.338   2.979  14.728  0.2684  0.4000  0.3817
 3267SOL    HW121437   0.295   3.009  14.808  0.6549  1.5717  0.1481
 3267SOL    HW221438   0.336   2.884  14.733  1.9986  0.3938  1.1124
 3268SOL     OW21439   3.016   3.441  12.842  0.3984  0.6032 -0.5209
 3268SOL    HW121440   3.082   3.402  12.785  0.1375  1.5299 -1.4572
 3268SOL    HW221441   3.064   3.456  12.923  0.5671 -0.5757 -0.4015
 3269SOL     OW21442   2.129   2.606   7.691 -0.9199 -0.3145  0.0832
 3269SOL    HW121443   2.118   2.660   7.769  0.5563 -2.8582  2.0660
 3269SOL    HW221444   2.188   2.669   7.649 -2.9498  1.6461  0.2026
 3270SOL     OW21445   3.300   1.938   2.147  0.0084 -0.4149  0.4882
 3270SOL    HW121446   3.229   1.937   2.083  0.2975 -1.5372  0.1722
 3270SOL    HW221447   3.378   1.916   2.096 -1.2743 -0.3102 -1.5324
 3271SOL     OW21448   1.218   4.584   4.791  0.5384  0.1267 -0.0217
 3271SOL    HW121449   1.301   4.627   4.771  0.7281  0.1511  0.8160
 3271SOL    HW221450   1.252   4.520   4.853  2.6077  2.4157  1.1676
 3272SOL     OW21451   2.365   4.230   2.614 -0.2870 -0.1537 -0.3729
 3272SOL    HW121452   2.409   4.145   2.612 -2.1910 -1.1520 -0.1306
 3272SOL    HW221453   2.285   4.207   2.566 -0.7100  1.9032 -0.6519
 3273SOL     OW21454   2.228   3.695   7.459  0.1390 -0.0056  0.1256
 3273SOL    HW121455   2.138   3.664   7.459  0.6261 -1.4812  1.1616
 3273SOL    HW221456   2.270   3.609   7.468 -1.0745 -0.4388  1.5431
 3274SOL     OW21457   3.680   0.287   5.131 -0.0487  0.1013  0.3303
 3274SOL    HW121458   3.653   0.198   5.111  3.5364 -1.1305  0.9725
 3274SOL    HW221459   3.669   0.302   5.225 -1.6281 -0.1219  0.1709
 3275SOL     OW21460   3.713   0.928   4.116 -0.5263  0.1112 -0.1196
 3275SOL    HW121461   3.749   0.982   4.186 -2.8992  2.3368 -0.6176
 3275SOL    HW221462   3.621   0.955   4.113 -0.5966 -0.0716  0.3864
 3276SOL     OW21463   0.692   2.100   6.050  0.2989 -0.2830 -0.5329
 3276SOL    HW121464   0.777   2.081   6.089 -0.9807 -1.6007  1.6782
 3276SOL    HW221465   0.655   2.011   6.055  3.4318 -1.6069 -1.1925
 3277SOL     OW21466   2.721   0.957   1.189  0.3372  0.0940  0.0674
 3277SOL    HW121467   2.675   0.978   1.108  0.6386 -0.5528 -0.2722
 3277SOL    HW221468   2.738   0.865   1.169  1.1055  0.5608 -1.4318
 3278SOL     OW21469   4.603   1.479   0.350 -0.4355  0.1344  0.3000
 3278SOL    HW121470   4.510   1.493   0.329 -0.5070  0.5163  0.8634
 3278SOL    HW221471   4.601   1.385   0.366  1.3089  0.1529  0.5655
 3279SOL     OW21472   1.970   4.344  14.503 -0.1727  0.1382  0.1195
 3279SOL    HW121473   1.957   4.366  14.411 -0.5204  1.0993  0.3952
 3279SOL    HW221474   2.008   4.256  14.498  0.0170  0.2689 -0.7783
 3280SOL     OW21475   0.381   1.074   3.732  0.4495  0.0105  0.0657
 3280SOL    HW121476   0.386   1.014   3.657 -1.9779  1.3007 -1.1169
 3280SOL    HW221477   0.425   1.023   3.801  1.6407  1.8707  0.6684
 3281SOL     OW21478   4.378   2.223   7.041  0.2658 -0.0054  0.0436
 3281SOL    HW121479   4.378   2.247   6.949 -1.1582  0.2766  0.1126
 3281SOL    HW221480   4.348   2.132   7.034 -1.6979  0.7638 -1.4278
 3282SOL     OW21481   3.284   0.239   1.067 -0.3569 -0.0433  0.4060
 3282SOL    HW121482   3.258   0.276   0.983 -2.6833 -1.0495  0.6646
 3282SOL    HW221483   3.379   0.233   1.069 -0.2245  1.7515 -0.6216
 3283SOL     OW21484   1.175   4.018  13.583 -0.2087  0.0910  0.2171
 3283SOL    HW121485   1.221   4.075  13.522 -0.9509  0.2895 -0.1418
 3283SOL    HW221486   1.184   4.072  13.662 -0.2562 -0.8952  0.9122
 3284SOL     OW21487   0.190   4.644   4.306  0.0467  0.1337  0.2153
 3284SOL    HW121488   0.200   4.589   4.384 -2.2138  0.2381  0.5814
 3284SOL    HW221489   0.283   4.663   4.296  0.4109 -1.0027  1.3046
 3285SOL     OW21490   3.142   0.971  12.505 -0.2264 -0.0600  0.3127
 3285SOL    HW121491   3.201   0.968  12.430  1.0806  2.7220  1.2578
 3285SOL    HW221492   3.089   0.894  12.482  1.3035 -1.5525  1.8173
 3286SOL     OW21493   2.106   2.162  17.585 -0.4633 -0.2220 -0.3662
 3286SOL    HW121494   2.128   2.223  17.514 -1.1094 -1.2999 -1.5042
 3286SOL    HW221495   2.011   2.152  17.579 -0.4363 -0.3361 -0.5959
 3287SOL     OW21496   0.220   1.040   4.155  0.7309 -0.1394  0.3645
 3287SOL    HW121497   0.272   1.073   4.228  0.9048 -1.1485  0.6920
 3287SOL    HW221498   0.286   0.992   4.105  0.4591  0.2288 -0.3650
 3288SOL     OW21499   3.614   4.344  15.281 -0.4803 -0.0871  0.8832
 3288SOL    HW121500   3.527   4.304  15.276 -0.6985  0.4870  0.0366
 3288SOL    HW221501   3.608   4.375  15.191  0.1445  0.2552  0.9583
 3289SOL     OW21502   2.972   0.373   7.496 -0.3010  0.2612 -0.5412
 3289SOL    HW121503   2.971   0.382   7.401  3.0769  0.4831 -0.5622
 3289SOL    HW221504   3.028   0.448   7.516 -1.5813  0.8594  0.7815
 3290SOL     OW21505   4.452   2.497   7.429 -0.7217  0.0737  0.7062
 3290SOL    HW121506   4.412   2.533   7.508 -0.6806 -1.5031  1.4484
 3290SOL    HW221507   4.378   2.464   7.379 -0.6421  0.3817  0.3840
 3291SOL     OW21508   3.602   1.702  15.850  0.0478  0.2241  0.6060
 3291SOL    HW121509   3.587   1.686  15.757  0.6554 -0.4605  0.6297
 3291SOL    HW221510   3.547   1.779  15.869 -2.0678 -1.1810  0.2302
 3292SOL     OW21511   1.871   1.745   5.374  0.0058  0.8375  0.1231
 3292SOL    HW121512   1.867   1.717   5.465  1.5451  0.5590  0.1165
 3292SOL    HW221513   1.967   1.742   5.367 -0.0507 -1.6716  0.2228
 3293SOL     OW21514   3.151   1.049   8.165 -0.0863 -0.4709  0.2037
 3293SOL    HW121515   3.173   0.963   8.129  1.9690 -0.1874  0.8255
 3293SOL    HW221516   3.156   1.040   8.260  1.3481 -0.8785  0.0824
 3294SOL     OW21517   3.251   4.011   2.592 -0.3582  0.6042 -0.1633
 3294SOL    HW121518   3.172   4.027   2.540 -0.5579 -1.3330 -0.4487
 3294SOL    HW221519   3.268   4.104   2.606 -1.9170  0.9771 -0.8185
 3295SOL     OW21520   3.925   2.935  13.299  0.0826 -0.0540  0.0330
 3295SOL    HW121521   3.959   2.957  13.212 -0.2107  3.5485  0.8458
 3295SOL    HW221522   3.835   2.907  13.284 -0.3993  0.9766  1.0846
 3296SOL     OW21523   4.446   1.196   1.010  0.0311  0.4908  0.4516
 3296SOL    HW121524   4.507   1.269   1.006  1.5632 -0.7117  2.0520
 3296SOL    HW221525   4.502   1.126   0.977 -1.3086 -1.0675  1.4537
 3297SOL     OW21526   3.822   3.662   8.100  0.2304 -0.1463  0.1018
 3297SOL    HW121527   3.829   3.568   8.081  1.0942 -0.0877  0.1126
 3297SOL    HW221528   3.887   3.671   8.170  0.5254  1.8960 -0.4611
 3298SOL     OW21529   3.968   2.938   8.367 -0.0380  1.0533  0.1833
 3298SOL    HW121530   3.938   2.990   8.292  0.2404  1.9648  0.6998
 3298SOL    HW221531   3.883   2.906   8.396  1.2919 -2.1376  0.5245
 3299SOL     OW21532   0.816   1.672   2.958  0.3024 -0.2375  1.0085
 3299SOL    HW121533   0.837   1.593   2.908  1.7370  1.4148 -1.0057
 3299SOL    HW221534   0.722   1.656   2.969 -0.1398  1.4437 -0.2333
 3300SOL     OW21535   2.573   2.399  17.312 -0.1199  0.1441 -0.1585
 3300SOL    HW121536   2.583   2.493  17.297  0.5729 -0.0907 -1.1574
 3300SOL    HW221537   2.511   2.376  17.243 -0.0130 -0.1273 -0.1638
 3301SOL     OW21538   0.251   4.108   6.428  0.4272 -0.6455  0.4892
 3301SOL    HW121539   0.221   4.051   6.498 -1.0152  0.2255  0.5846
 3301SOL    HW221540   0.174   4.164   6.423 -0.6250 -2.0708  0.9945
 3302SOL     OW21541   3.944   2.923   3.128  0.9509 -0.3386 -0.3635
 3302SOL    HW121542   3.881   2.942   3.058  0.9731 -0.4230 -0.4067
 3302SOL    HW221543   4.010   2.991   3.112  0.4248  1.1280  3.6946
 3303SOL     OW21544   2.833   0.441   4.786  0.6703 -0.6844  0.3933
 3303SOL    HW121545   2.795   0.516   4.831 -1.1070 -1.4988  0.2333
 3303SOL    HW221546   2.898   0.409   4.848 -0.5689  1.9622  3.0346
 3304SOL     OW21547   3.032   2.562  17.223 -0.2190 -0.3288 -0.3235
 3304SOL    HW121548   3.114   2.514  17.217  0.0935  0.2529 -0.7004
 3304SOL    HW221549   2.960   2.500  17.235 -1.1185  0.6428 -0.6807
 3305SOL     OW21550   0.167   0.968   6.798  0.0576  0.0046  0.1953
 3305SOL    HW121551   0.230   0.937   6.734 -1.0837  1.4124 -1.6068
 3305SOL    HW221552   0.179   1.063   6.798  1.1903 -0.1187  3.2607
 3306SOL     OW21553   0.210   0.030   6.566  0.0570  0.5098  0.3532
 3306SOL    HW121554   0.303   0.020   6.585  0.0403  1.1064  0.7444
 3306SOL    HW221555   0.188   4.673   6.581 -0.8861  0.9242  1.5357
 3307SOL     OW21556   3.838   3.105   4.735 -0.6515  0.4342 -0.2919
 3307SOL    HW121557   3.806   3.102   4.645 -0.7105  0.8348 -0.2832
 3307SOL    HW221558   3.776   3.044   4.775  0.0787 -0.1402 -0.0174
 3308SOL     OW21559   3.993   4.649   9.722  0.0726  0.4093  0.5366
 3308SOL    HW121560   4.010   0.006   9.702  0.3706  0.1648 -0.3257
 3308SOL    HW221561   3.980   4.630   9.629  0.7737 -0.2178  0.5645
 3309SOL     OW21562   0.145   0.228   5.773 -0.1607 -0.1220  0.0405
 3309SOL    HW121563   0.163   0.229   5.867 -0.6449 -0.3026  0.1386
 3309SOL    HW221564   0.098   0.308   5.749 -0.3700  0.4320  2.2726
 3310SOL     OW21565   4.390   2.395   3.899 -0.4510  0.3921 -0.5287
 3310SOL    HW121566   4.425   2.325   3.844 -2.6587 -1.5684  0.5641
 3310SOL    HW221567   4.433   2.477   3.876  0.8276  0.9169  3.8050
 3311SOL     OW21568   1.231   2.949  11.247  0.1933  0.1483 -0.0826
 3311SOL    HW121569   1.317   2.990  11.247  0.4450 -0.3816 -0.3464
 3311SOL    HW221570   1.196   2.971  11.333  1.3799  1.3424  0.0759
 3312SOL     OW21571   3.296   4.665   0.369  0.3088  0.1109  0.0536
 3312SOL    HW121572   3.265   4.582   0.331  1.3288 -0.8138  1.2809
 3312SOL    HW221573   3.231   4.686   0.436  0.3290  0.4095 -0.0216
 3313SOL     OW21574   0.639   0.312  14.777 -0.2369 -0.0709  0.0527
 3313SOL    HW121575   0.677   0.280  14.858  0.5787 -2.2778 -1.1813
 3313SOL    HW221576   0.579   0.240  14.756 -2.3924  2.3324 -2.0567
 3314SOL     OW21577   3.783   4.323   8.802 -0.7732  0.4441  0.3216
 3314SOL    HW121578   3.709   4.265   8.785 -1.2333  1.6318 -1.7935
 3314SOL    HW221579   3.759   4.387   8.735 -0.6570  0.5905  0.4194
 3315SOL     OW21580   1.350   0.083   8.601 -0.2631  0.0289 -0.7541
 3315SOL    HW121581   1.280   0.136   8.641  0.1581  1.3566 -1.7801
 3315SOL    HW221582   1.390   0.049   8.681 -0.9652 -4.2784 -2.2512
 3316SOL     OW21583   2.872   4.414   1.692  0.5645 -0.4127 -0.6839
 3316SOL    HW121584   2.845   4.329   1.658 -1.1123  0.3840 -1.2896
 3316SOL    HW221585   2.792   4.454   1.727  1.8767 -1.3518  3.4440
 3317SOL     OW21586   0.053   3.180   8.986  0.0578  0.0257  0.1106
 3317SOL    HW121587   0.006   3.256   9.020 -0.4313 -0.0566 -0.3784
 3317SOL    HW221588   0.130   3.168   9.042 -2.1075  0.5438  3.2211
 3318SOL     OW21589   0.912   1.225   7.735 -0.7363  0.2732 -0.2718
 3318SOL    HW121590   0.885   1.159   7.798  0.0124  0.2347  0.0105
 3318SOL    HW221591   0.976   1.263   7.795  0.5620 -0.3228 -1.2707
 3319SOL     OW21592   3.931   3.354   2.165  0.2357 -0.4388 -0.5356
 3319SOL    HW121593   3.916   3.267   2.127 -0.8731 -1.5958  2.5050
 3319SOL    HW221594   3.856   3.369   2.222 -0.8406 -3.3941 -1.1454
 3320SOL     OW21595   2.730   0.446   6.205  0.8376 -0.5237 -0.4499
 3320SOL    HW121596   2.741   0.373   6.145 -1.2615 -1.2406  0.0721
 3320SOL    HW221597   2.721   0.522   6.147 -1.2727 -0.3529  0.1182
 3321SOL     OW21598   1.540   1.832   2.435 -0.2917 -0.0544 -0.0309
 3321SOL    HW121599   1.580   1.793   2.357 -2.2564  1.0901 -1.6021
 3321SOL    HW221600   1.549   1.923   2.409  3.3894 -0.4012 -0.0322
 3322SOL     OW21601   2.072   1.896   5.002  0.7257 -0.0276 -0.0816
 3322SOL    HW121602   2.048   1.978   4.959  0.2906 -0.6088 -0.9745
 3322SOL    HW221603   1.990   1.883   5.051  1.5285  1.6841  1.6731
 3323SOL     OW21604   0.634   2.458   1.071  0.1895  0.4773 -0.1745
 3323SOL    HW121605   0.614   2.438   1.162 -1.6366  1.9181 -0.2556
 3323SOL    HW221606   0.639   2.553   1.085  1.3301  0.5728 -1.2587
 3324SOL     OW21607   3.489   3.889   8.161 -0.3128 -0.3199  0.6313
 3324SOL    HW121608   3.579   3.919   8.148 -0.4875  0.1535  0.5099
 3324SOL    HW221609   3.432   3.961   8.134  0.2811 -0.3227 -0.6333
 3325SOL     OW21610   1.409   0.713   1.535  0.3269 -0.5741 -0.1046
 3325SOL    HW121611   1.439   0.641   1.591  2.6007  2.6110  2.7933
 3325SOL    HW221612   1.476   0.715   1.467  1.9243  0.6594  1.5065
 3326SOL     OW21613   1.028   4.066   4.812 -0.1120  0.2208 -0.5455
 3326SOL    HW121614   1.059   4.147   4.852 -0.6503  0.1264  0.0649
 3326SOL    HW221615   0.956   4.097   4.758 -0.2371 -0.2979 -0.6786
 3327SOL     OW21616   2.759   0.562   5.564 -0.0620  0.2144  0.3078
 3327SOL    HW121617   2.674   0.564   5.519  0.6455  0.0277 -1.0605
 3327SOL    HW221618   2.734   0.588   5.652 -1.8028  0.8487 -0.3599
 3328SOL     OW21619   4.411   3.167   2.467 -0.2154  0.0419  0.1143
 3328SOL    HW121620   4.499   3.130   2.468  0.4273  1.5138 -1.8625
 3328SOL    HW221621   4.398   3.189   2.559  4.0663 -1.0925  1.0057
 3329SOL     OW21622   0.016   2.665   5.584  0.6214  0.9249  0.1509
 3329SOL    HW121623   0.061   2.610   5.648  0.2309 -1.4173 -1.5885
 3329SOL    HW221624   4.687   2.696   5.647 -2.0297 -2.5239 -0.9112
 3330SOL     OW21625   2.076   3.263   7.059  0.1262  0.2547  0.2178
 3330SOL    HW121626   2.129   3.183   7.054 -2.1144 -1.0776 -2.2833
 3330SOL    HW221627   1.985   3.237   7.042  0.1908  0.0131  0.2313
 3331SOL     OW21628   2.590   4.438   2.608  0.3638  0.1187 -0.6203
 3331SOL    HW121629   2.659   4.373   2.613 -1.4702 -2.0606 -3.0765
 3331SOL    HW221630   2.512   4.391   2.638  0.3145 -0.3937 -1.5511
 3332SOL     OW21631   3.666   1.355   7.386 -0.2622 -0.1169 -0.8226
 3332SOL    HW121632   3.659   1.274   7.335  1.2154 -0.5484 -0.3586
 3332SOL    HW221633   3.725   1.410   7.335 -0.4174  1.7856  1.0598
 3333SOL     OW21634   2.239   1.185   4.007  0.0872  0.0982  0.6577
 3333SOL    HW121635   2.290   1.187   4.087  1.0843  1.3319  0.0005
 3333SOL    HW221636   2.151   1.216   4.032  0.9653  2.1884  1.1918
 3334SOL     OW21637   2.568   2.188   3.317  0.4731 -0.6193 -0.0233
 3334SOL    HW121638   2.511   2.263   3.339  3.9406  0.5619  4.9055
 3334SOL    HW221639   2.640   2.199   3.379 -0.0970 -1.4591  0.8055
 3335SOL     OW21640   2.723   1.077   5.153 -0.4089  0.2024  0.3670
 3335SOL    HW121641   2.634   1.113   5.153 -1.0626 -1.4493  0.6106
 3335SOL    HW221642   2.753   1.099   5.065 -0.1004  1.1662  0.7045
 3336SOL     OW21643   1.297   0.003  14.623 -0.2242 -0.0479 -0.0170
 3336SOL    HW121644   1.226   4.688  14.663  0.6526 -0.7261  0.6932
 3336SOL    HW221645   1.254   0.088  14.622 -0.5259 -0.1838  1.0057
 3337SOL     OW21646   2.058   0.082   4.882 -0.0310 -0.2440  0.3089
 3337SOL    HW121647   2.075   4.729   4.915 -1.0531 -0.6664 -0.3071
 3337SOL    HW221648   2.013   0.121   4.957  1.7125  2.7411 -0.1869
 3338SOL     OW21649   2.165   2.882   5.158 -0.5500  0.3336  0.4249
 3338SOL    HW121650   2.204   2.918   5.078 -1.6340  0.5923 -0.0015
 3338SOL    HW221651   2.168   2.960   5.213  0.4786  0.9525 -0.5284
 3339SOL     OW21652   3.106   1.973   3.316  0.3135  0.4119 -0.3306
 3339SOL    HW121653   3.014   1.982   3.341  0.6205  2.9509 -0.0413
 3339SOL    HW221654   3.105   2.006   3.226 -0.3737  1.6477  0.1241
 3340SOL     OW21655   0.005   0.355   5.102  0.3563  0.1888  0.5818
 3340SOL    HW121656   0.064   0.293   5.144  2.7710  0.9741 -1.6608
 3340SOL    HW221657   0.070   0.425   5.114 -1.9607  2.6574 -1.1428
 3341SOL     OW21658   0.210   1.618   8.548  0.0755 -0.1866  0.5447
 3341SOL    HW121659   0.134   1.576   8.509 -0.5669  2.8258 -1.4767
 3341SOL    HW221660   0.165   1.673   8.613  1.0613  1.7253 -0.4007
 3342SOL     OW21661   1.642   3.574  15.012  0.4935  0.3251 -0.2549
 3342SOL    HW121662   1.690   3.599  15.091 -0.0499 -2.5731  0.9663
 3342SOL    HW221663   1.626   3.481  15.026  0.5852  0.0862 -1.8024
 3343SOL     OW21664   4.677   1.122   5.909 -0.3275 -0.5056  0.1289
 3343SOL    HW121665   4.628   1.182   5.966  0.2091 -1.1744  1.2853
 3343SOL    HW221666   0.013   1.097   5.967 -0.1535 -1.3231 -0.4502
 3344SOL     OW21667   4.326   0.712   6.983  0.4663  1.2585 -0.5159
 3344SOL    HW121668   4.412   0.701   6.943 -0.2886 -0.4724 -1.6575
 3344SOL    HW221669   4.333   0.795   7.031 -1.4168  0.2099  1.5743
 3345SOL     OW21670   3.533   4.516   4.238 -0.3773 -0.3766  0.7836
 3345SOL    HW121671   3.600   4.462   4.280 -2.5093 -3.4384  0.2443
 3345SOL    HW221672   3.479   4.544   4.312 -1.3848  0.3844 -0.2439
 3346SOL     OW21673   3.728   4.145  13.621 -0.5003  0.0413 -0.1909
 3346SOL    HW121674   3.778   4.174  13.546 -0.8963  0.9048 -0.1130
 3346SOL    HW221675   3.709   4.052  13.608 -0.9274 -0.0972  1.3485
 3347SOL     OW21676   3.635   2.495   6.686  0.2006  0.0954  0.0546
 3347SOL    HW121677   3.674   2.509   6.772  3.0016  0.1229 -1.2228
 3347SOL    HW221678   3.584   2.414   6.694 -1.6666  1.4031  1.4105
 3348SOL     OW21679   3.597   2.325   6.966 -0.5957 -0.0114 -0.2154
 3348SOL    HW121680   3.689   2.348   6.959 -0.8964  0.9211 -1.0426
 3348SOL    HW221681   3.598   2.236   7.003  0.2901 -0.0113 -0.2465
 3349SOL     OW21682   3.728   0.786   8.462 -0.1397 -0.6368 -0.2194
 3349SOL    HW121683   3.763   0.776   8.551  1.9765  0.3440 -0.9198
 3349SOL    HW221684   3.634   0.779   8.479 -0.0160 -1.2028  0.2618
 3350SOL     OW21685   0.883   4.201   3.748  0.0960 -0.3882  0.3895
 3350SOL    HW121686   0.868   4.212   3.653  2.3765  1.2323  0.2295
 3350SOL    HW221687   0.803   4.153   3.770 -0.3007 -0.4323 -1.1221
 3351SOL     OW21688   2.261   1.068  17.565  0.2385  0.4583 -0.0904
 3351SOL    HW121689   2.178   1.065  17.519 -0.6306  0.4261  1.4677
 3351SOL    HW221690   2.274   1.163  17.570  1.1317  0.2772  1.1499
 3352SOL     OW21691   1.625   3.187   2.782  0.1681  0.0795  0.4645
 3352SOL    HW121692   1.539   3.175   2.740 -0.4581  0.7989  1.5468
 3352SOL    HW221693   1.645   3.276   2.754 -0.9595 -0.1412 -1.0474
 3353SOL     OW21694   2.180   2.754  17.329 -0.0957 -0.1639 -0.0549
 3353SOL    HW121695   2.216   2.700  17.259  4.1294  1.9093  0.4883
 3353SOL    HW221696   2.178   2.683  17.393  0.5323  1.2511  1.5483
 3354SOL     OW21697   3.458   0.434   5.304  0.1501  0.0151  0.1766
 3354SOL    HW121698   3.538   0.486   5.316  0.8578 -1.2506  0.9536
 3354SOL    HW221699   3.404   0.512   5.290  1.9005  1.4450  1.3629
 3355SOL     OW21700   0.719   4.503   1.240  0.3345  0.0093  0.4165
 3355SOL    HW121701   0.716   4.478   1.332  2.5010 -1.6845  0.0229
 3355SOL    HW221702   0.633   4.546   1.235 -0.0705 -0.8224  0.3076
 3356SOL     OW21703   4.523   0.719   8.936 -0.1006 -0.9121 -0.4873
 3356SOL    HW121704   4.606   0.679   8.961  0.5366  1.4959  1.2701
 3356SOL    HW221705   4.555   0.764   8.857 -0.3077 -2.6102 -1.5399
 3357SOL     OW21706   3.537   1.752   6.556 -0.5195  0.8653  0.0679
 3357SOL    HW121707   3.565   1.735   6.646 -0.1335 -1.1159 -0.4234
 3357SOL    HW221708   3.624   1.765   6.516  0.0491 -1.0205  0.6581
 3358SOL     OW21709   2.910   2.322  11.604 -0.1474  0.0491  0.0446
 3358SOL    HW121710   2.943   2.241  11.564  0.7132  0.3387  0.1805
 3358SOL    HW221711   2.932   2.323  11.697 -0.3348  1.2247  0.0817
 3359SOL     OW21712   2.458   4.346   5.615 -0.2369 -0.2859  0.2676
 3359SOL    HW121713   2.549   4.330   5.640 -0.2358 -0.9934 -0.1946
 3359SOL    HW221714   2.450   4.429   5.662  0.5319  0.0385 -0.1663
 3360SOL     OW21715   2.661   2.391   8.452  0.1246 -0.6264 -0.3188
 3360SOL    HW121716   2.750   2.359   8.438  0.2142 -0.2210 -0.6722
 3360SOL    HW221717   2.618   2.309   8.475 -2.1209  0.2264 -1.3804
 3361SOL     OW21718   0.556   1.168   2.180 -0.3312 -1.1153  0.2146
 3361SOL    HW121719   0.490   1.132   2.239  0.0863 -1.7114  0.3270
 3361SOL    HW221720   0.602   1.218   2.247  0.7620  0.2294 -1.5345
 3362SOL     OW21721   0.197   2.354   3.103  0.2614 -0.6786  0.0366
 3362SOL    HW121722   0.132   2.289   3.077 -0.5892 -0.3028  1.2231
 3362SOL    HW221723   0.224   2.404   3.025  0.4344 -0.5058  0.2076
 3363SOL     OW21724   4.174   2.113   8.282  0.3037 -0.0185  0.0972
 3363SOL    HW121725   4.176   2.055   8.205 -0.4511 -2.2375  1.7536
 3363SOL    HW221726   4.120   2.184   8.246  1.2791 -0.0655 -1.4847
 3364SOL     OW21727   2.183   3.771   3.895  0.0249  0.0304  0.2550
 3364SOL    HW121728   2.107   3.736   3.849  0.8925 -1.3136 -0.1581
 3364SOL    HW221729   2.201   3.703   3.960 -0.1615  0.1622  0.4448
 3365SOL     OW21730   3.944   3.891   4.342  0.2428  0.5272 -0.1525
 3365SOL    HW121731   3.981   3.889   4.254  1.2411  1.5144  0.2374
 3365SOL    HW221732   4.025   3.868   4.387  0.2263 -0.4677 -0.6346
 3366SOL     OW21733   2.941   1.865   9.187  0.3474 -0.4069  0.2632
 3366SOL    HW121734   2.996   1.803   9.140  0.9516 -1.3498  2.2448
 3366SOL    HW221735   2.915   1.933   9.124 -0.8057 -1.4294 -0.3711
 3367SOL     OW21736   0.160   1.468  11.030 -0.3774  0.1265 -0.1974
 3367SOL    HW121737   0.183   1.556  11.001 -0.5744 -0.4111 -1.9765
 3367SOL    HW221738   0.115   1.485  11.113  0.2501 -0.1783  0.2021
 3368SOL     OW21739   3.555   3.860   3.048 -0.2238  0.4319  0.1716
 3368SOL    HW121740   3.619   3.921   3.085  0.3138 -0.2501  0.3500
 3368SOL    HW221741   3.554   3.795   3.118 -1.4575 -1.3644 -1.5231
 3369SOL     OW21742   3.437   1.585   3.285  0.1546 -0.1656 -0.0976
 3369SOL    HW121743   3.463   1.583   3.193 -0.7472 -0.0228 -0.3624
 3369SOL    HW221744   3.500   1.522   3.320  0.1579 -1.3424 -2.2287
 3370SOL     OW21745   3.769   1.246  15.396 -0.0526  0.4002  0.0909
 3370SOL    HW121746   3.858   1.239  15.361 -0.2233  1.4129 -0.5572
 3370SOL    HW221747   3.781   1.188  15.471  0.6164  0.1206 -0.2293
 3371SOL     OW21748   4.395   2.555   6.839  0.5698  0.2412  0.3238
 3371SOL    HW121749   4.384   2.621   6.908  0.0231  1.2821 -0.7689
 3371SOL    HW221750   4.389   2.603   6.757 -0.5122  0.4325  0.5155
 3372SOL     OW21751   0.223   4.114   6.809 -0.3682 -0.6870 -0.8610
 3372SOL    HW121752   0.301   4.121   6.863  1.9810 -0.9210 -4.2410
 3372SOL    HW221753   0.256   4.055   6.741 -1.0808  0.0184 -1.8256
 3373SOL     OW21754   4.299   4.220   6.658  0.7363  0.0866 -0.5043
 3373SOL    HW121755   4.277   4.225   6.565  0.9028 -1.7184 -0.6230
 3373SOL    HW221756   4.235   4.288   6.680  0.1683 -0.9426  1.0353
 3374SOL     OW21757   3.920   2.041   4.022  1.2638 -0.2847  0.1764
 3374SOL    HW121758   3.923   2.050   3.927  1.9480 -2.6865 -0.0273
 3374SOL    HW221759   3.839   2.085   4.048  1.4589 -0.4631  1.0842
 3375SOL     OW21760   2.872   1.786   4.652  0.1028 -0.1666 -0.0432
 3375SOL    HW121761   2.821   1.839   4.713  0.8566 -0.6713  1.0124
 3375SOL    HW221762   2.960   1.822   4.649  0.3852 -0.7138  1.9630
 3376SOL     OW21763   4.310   0.702   4.723  0.0910  0.2268  0.1576
 3376SOL    HW121764   4.275   0.778   4.677  0.5704  0.4469  0.1585
 3376SOL    HW221765   4.325   0.734   4.812 -1.2153 -0.5659  0.6753
 3377SOL     OW21766   1.415   2.401   7.572 -0.0018 -0.6986  0.3239
 3377SOL    HW121767   1.414   2.313   7.535  1.0372  0.2930 -2.0566
 3377SOL    HW221768   1.347   2.436   7.514 -1.8864 -1.2243  2.2054
 3378SOL     OW21769   3.627   4.019  11.907  0.1187  1.4406 -0.1189
 3378SOL    HW121770   3.595   3.944  11.856  2.5672  0.6218 -0.4200
 3378SOL    HW221771   3.671   3.986  11.985  1.6253  0.6331 -1.3287
 3379SOL     OW21772   4.142   1.234   2.766 -0.3713 -0.3817 -0.1452
 3379SOL    HW121773   4.062   1.270   2.804 -0.0474 -0.7666  0.8984
 3379SOL    HW221774   4.129   1.273   2.679 -0.9439  2.1601  1.0850
 3380SOL     OW21775   3.944   1.832   6.238  0.1703 -0.6153  0.4556
 3380SOL    HW121776   3.969   1.923   6.228  2.1318 -1.3009 -0.8753
 3380SOL    HW221777   3.922   1.810   6.147  1.7213 -3.0783  0.6610
 3381SOL     OW21778   4.192   2.929   2.080  0.0255  0.1515  0.0638
 3381SOL    HW121779   4.140   2.943   2.001 -1.2460 -1.9303  0.5210
 3381SOL    HW221780   4.121   2.941   2.145 -0.8419  0.0622 -0.8702
 3382SOL     OW21781   2.496   0.739  16.989 -0.3207  0.0271 -0.0670
 3382SOL    HW121782   2.545   0.821  16.998  0.5450 -0.6334  1.1127
 3382SOL    HW221783   2.532   0.679  17.054 -1.9978  0.6311  1.4444
 3383SOL     OW21784   4.199   0.329   5.966  0.4198 -0.1870 -0.2168
 3383SOL    HW121785   4.215   0.246   6.013 -1.8453  0.1005  1.1197
 3383SOL    HW221786   4.234   0.392   6.029  0.3353 -0.6617  0.3115
 3384SOL     OW21787   1.032   1.100  13.881  0.4673  0.1142 -0.2645
 3384SOL    HW121788   1.018   1.095  13.786  0.2976 -1.7571 -0.1383
 3384SOL    HW221789   1.106   1.040  13.891 -0.2942 -0.8483 -0.3999
 3385SOL     OW21790   2.699   1.775  10.398  0.2474 -0.2768 -0.3026
 3385SOL    HW121791   2.623   1.744  10.349  1.1964  0.2908 -2.1389
 3385SOL    HW221792   2.675   1.867  10.384  0.4731  0.0427  1.3823
 3386SOL     OW21793   0.998   0.459   6.663 -0.6076  0.1078  0.6150
 3386SOL    HW121794   1.073   0.482   6.608 -0.8667 -1.2098 -0.2875
 3386SOL    HW221795   0.922   0.463   6.604 -0.3557  2.6803  0.4844
 3387SOL     OW21796   3.534   2.767   3.498  0.1812 -0.0990 -0.0792
 3387SOL    HW121797   3.441   2.788   3.483  0.7086  0.7875 -2.1194
 3387SOL    HW221798   3.553   2.831   3.566  0.9956 -0.0387 -0.3658
 3388SOL     OW21799   4.327   1.918   5.765 -0.3705 -0.1818 -0.0328
 3388SOL    HW121800   4.422   1.919   5.754 -0.4896  0.6886 -0.9709
 3388SOL    HW221801   4.323   1.911   5.860  0.3837 -0.4347 -0.0180
 3389SOL     OW21802   1.602   3.453   9.671  0.4736  0.2003  0.1831
 3389SOL    HW121803   1.536   3.389   9.644  0.5411 -0.4471  1.5172
 3389SOL    HW221804   1.548   3.517   9.717 -0.5010 -1.6815  1.6773
 3390SOL     OW21805   0.696   2.325   1.919 -0.2455 -0.0754  0.2794
 3390SOL    HW121806   0.688   2.245   1.868 -0.2697 -0.5642  1.0520
 3390SOL    HW221807   0.639   2.317   1.995  0.6443  1.2142  1.0816
 3391SOL     OW21808   1.153   3.404   0.709  0.7009 -0.1600  0.3998
 3391SOL    HW121809   1.074   3.431   0.661  1.0671  0.5358  0.1779
 3391SOL    HW221810   1.216   3.400   0.637  0.3297  2.3018 -0.0631
 3392SOL     OW21811   1.729   2.007  10.753 -0.0281 -0.0706  0.3673
 3392SOL    HW121812   1.718   1.934  10.814  0.4488  0.2239  0.7950
 3392SOL    HW221813   1.640   2.039  10.744 -0.0385 -0.5305 -1.3553
 3393SOL     OW21814   0.502   2.212   9.759  0.0006 -0.1590  0.0524
 3393SOL    HW121815   0.557   2.268   9.814 -0.6955  1.2389 -0.6839
 3393SOL    HW221816   0.458   2.277   9.704  3.0088  1.8950  0.0737
 3394SOL     OW21817   3.182   2.599  17.510  0.3577 -0.3733 -0.3549
 3394SOL    HW121818   3.106   2.605  17.568  0.2542 -0.0030 -0.5243
 3394SOL    HW221819   3.170   2.512  17.472  0.7306 -0.5557 -0.0505
 3395SOL     OW21820   4.109   2.899   9.149  0.1306  0.4256 -0.1439
 3395SOL    HW121821   4.033   2.922   9.095  0.6536  3.8457  0.5889
 3395SOL    HW221822   4.088   2.806   9.161 -1.8878  0.9439  0.3783
 3396SOL     OW21823   4.569   1.351   1.572  0.4965  0.3383  0.0136
 3396SOL    HW121824   4.640   1.403   1.607  0.5296 -1.4026  2.5360
 3396SOL    HW221825   4.548   1.403   1.494  0.3697  0.6886  0.2871
 3397SOL     OW21826   3.639   1.729   6.834  0.0100  0.0645  0.1401
 3397SOL    HW121827   3.707   1.670   6.866  1.1462  1.2423 -0.0797
 3397SOL    HW221828   3.570   1.722   6.900  1.9059  1.8487  2.2850
 3398SOL     OW21829   1.620   1.118   1.476  0.3532  0.2970 -0.1624
 3398SOL    HW121830   1.580   1.056   1.415  0.0214 -0.8848  1.2687
 3398SOL    HW221831   1.620   1.200   1.426  0.8279  1.0156  1.0337
 3399SOL     OW21832   1.830   1.968   6.250 -0.3995  0.2259  0.3079
 3399SOL    HW121833   1.857   1.941   6.162  2.0643 -1.2778  1.5065
 3399SOL    HW221834   1.801   2.058   6.231 -1.1234 -0.5836 -2.4426
 3400SOL     OW21835   4.419   1.908   9.492  0.2802 -0.0728 -0.1288
 3400SOL    HW121836   4.384   1.996   9.481 -0.4391 -0.1773  1.2937
 3400SOL    HW221837   4.484   1.927   9.559  2.9052 -0.1002 -2.6857
 3401SOL     OW21838   2.057   0.158   4.513 -0.1845  0.4078  0.2650
 3401SOL    HW121839   2.069   0.154   4.418  2.3217 -1.1507  0.6529
 3401SOL    HW221840   1.973   0.117   4.536 -1.1702  2.7037  0.8034
 3402SOL     OW21841   0.884   0.415   3.883 -0.3651  0.1251 -0.4007
 3402SOL    HW121842   0.960   0.359   3.868 -0.4782 -0.3364  0.7428
 3402SOL    HW221843   0.820   0.351   3.913  0.9938 -3.6761 -5.6178
 3403SOL     OW21844   1.320   3.856   6.239 -0.5940  0.2097 -0.7212
 3403SOL    HW121845   1.328   3.763   6.218 -1.0384 -0.5390  2.3147
 3403SOL    HW221846   1.349   3.862   6.330 -2.3223  3.6879 -0.3858
 3404SOL     OW21847   2.436   3.048  14.111 -0.0952  0.1334 -0.0578
 3404SOL    HW121848   2.372   3.114  14.136 -0.5206 -0.3435  0.0960
 3404SOL    HW221849   2.401   2.973  14.157 -1.2957  0.2849 -0.7230
 3405SOL     OW21850   1.557   0.495   2.251 -0.5982  0.0448  0.1841
 3405SOL    HW121851   1.586   0.579   2.286 -1.5085  0.6992 -0.6479
 3405SOL    HW221852   1.616   0.488   2.176 -0.1840  2.3921  0.2963
 3406SOL     OW21853   3.708   0.631   8.984 -0.0666 -0.1771  1.1047
 3406SOL    HW121854   3.767   0.698   9.019  1.8826 -0.8388 -0.8371
 3406SOL    HW221855   3.770   0.565   8.952 -1.1974  0.2546 -1.9829
 3407SOL     OW21856   2.450   4.403  14.765  0.2468 -0.4112  0.0193
 3407SOL    HW121857   2.533   4.375  14.726  0.9543  0.6477  0.7709
 3407SOL    HW221858   2.388   4.342  14.726 -0.1739  1.4102 -2.1917
 3408SOL     OW21859   0.985   2.903   2.406 -0.7032 -0.3729  0.2335
 3408SOL    HW121860   0.891   2.891   2.419 -0.6976 -0.4800  0.1746
 3408SOL    HW221861   1.028   2.854   2.477  2.2760  0.3547 -1.0484
 3409SOL     OW21862   2.915   0.253   9.847  0.2471  0.2969 -0.0106
 3409SOL    HW121863   2.965   0.219   9.772  0.9023  1.4699 -0.1086
 3409SOL    HW221864   2.829   0.210   9.845 -0.3597  1.5666 -1.5881
 3410SOL     OW21865   2.490   0.371  10.470  0.2840  0.6063 -0.1724
 3410SOL    HW121866   2.551   0.409  10.533 -0.5025  0.9650  0.3788
 3410SOL    HW221867   2.455   0.454  10.437  2.1199  1.2454 -0.4797
 3411SOL     OW21868   1.217   0.950   2.815  0.7315 -0.0284  0.3700
 3411SOL    HW121869   1.240   0.857   2.815 -0.1886 -0.2558  1.5683
 3411SOL    HW221870   1.223   0.978   2.723 -1.5177  0.3927  0.3565
 3412SOL     OW21871   0.558   3.484   3.512 -0.0015  0.8903  0.2471
 3412SOL    HW121872   0.498   3.499   3.586 -0.1203 -0.1374  0.3647
 3412SOL    HW221873   0.506   3.521   3.441  1.5641 -1.3083 -2.0244
 3413SOL     OW21874   3.776   0.753   6.794  0.3772 -0.1927 -0.0897
 3413SOL    HW121875   3.813   0.808   6.725  1.6363 -2.2420 -1.0767
 3413SOL    HW221876   3.846   0.751   6.860 -0.6162 -0.7708  0.9382
 3414SOL     OW21877   0.744   4.462   1.505  0.2000  0.4459  0.3613
 3414SOL    HW121878   0.748   4.443   1.598  0.1009  0.1845  0.3110
 3414SOL    HW221879   0.814   4.526   1.495  0.7202 -0.7868 -3.8512
 3415SOL     OW21880   0.122   4.704   7.423 -0.2736 -0.0890 -0.4413
 3415SOL    HW121881   0.104   4.624   7.473  3.4526 -0.0772  0.8931
 3415SOL    HW221882   0.213   4.727   7.442 -0.5373  1.6784 -1.3129
 3416SOL     OW21883   4.549   4.360   6.394 -0.2788  0.7447 -0.1364
 3416SOL    HW121884   4.547   4.436   6.451 -0.4607  0.5290  0.1453
 3416SOL    HW221885   4.560   4.283   6.450  0.4814  1.5777  0.8615
 3417SOL     OW21886   4.558   2.955  11.967  0.0986  0.0083  0.0000
 3417SOL    HW121887   4.520   2.965  12.054  0.0413 -0.2460  0.0042
 3417SOL    HW221888   4.501   2.895  11.919 -0.7903  1.2987 -0.5532
 3418SOL     OW21889   1.071   0.288  10.117 -0.2634 -0.4401 -0.6066
 3418SOL    HW121890   1.023   0.264  10.196 -1.6256 -0.7113 -1.5347
 3418SOL    HW221891   1.098   0.371  10.158 -1.2552  0.3335 -1.5399
 3419SOL     OW21892   4.610   3.188   3.742  0.2333 -0.4924 -0.4527
 3419SOL    HW121893   4.515   3.192   3.749  0.3960  0.4914  1.1393
 3419SOL    HW221894   4.645   3.229   3.821  0.4511  1.9713 -1.8568
 3420SOL     OW21895   3.850   0.391  10.062  0.4817  0.0534  0.3094
 3420SOL    HW121896   3.844   0.475  10.016  1.0403  0.2890  0.6617
 3420SOL    HW221897   3.761   0.361  10.077  0.9256 -0.9404  0.9315
 3421SOL     OW21898   1.029   3.546   7.304  0.2069 -0.0626  0.3518
 3421SOL    HW121899   1.010   3.618   7.244  1.1703 -0.5618 -0.5440
 3421SOL    HW221900   0.945   3.527   7.345  1.6859 -0.9335  3.0022
 3422SOL     OW21901   4.283   1.124   9.182 -0.6391  0.7255 -0.8299
 3422SOL    HW121902   4.307   1.205   9.228 -1.3632 -0.4120  1.5383
 3422SOL    HW221903   4.191   1.136   9.158 -0.5924  1.4594 -0.6558
 3423SOL     OW21904   3.835   3.408   4.426 -0.2990  0.2228 -0.0875
 3423SOL    HW121905   3.769   3.375   4.365 -0.4261  1.1571 -0.4635
 3423SOL    HW221906   3.872   3.480   4.374  1.6528  1.2991  2.8179
 3424SOL     OW21907   3.230   3.288   1.176  0.0565  0.1157 -0.1407
 3424SOL    HW121908   3.193   3.328   1.255  0.9250 -1.3815  1.0252
 3424SOL    HW221909   3.311   3.339   1.173 -1.4149  2.4266 -0.6331
 3425SOL     OW21910   2.060   1.657   4.563  0.4477 -0.7528  0.2320
 3425SOL    HW121911   2.062   1.675   4.657 -0.5451 -0.9927  0.3023
 3425SOL    HW221912   2.134   1.713   4.543 -0.1547  0.9567  2.8673
 3426SOL     OW21913   0.039   1.697   2.273  0.0733  0.3577  0.0288
 3426SOL    HW121914   0.063   1.610   2.242  2.3524  1.2030 -0.5759
 3426SOL    HW221915   4.679   1.695   2.269  0.2168 -0.2937 -2.9458
 3427SOL     OW21916   0.441   1.678   6.723 -0.4144 -0.4893 -0.1741
 3427SOL    HW121917   0.437   1.684   6.818  0.1918  0.5960 -0.2183
 3427SOL    HW221918   0.535   1.662   6.712 -0.2500 -0.8799  1.7353
 3428SOL     OW21919   4.055   4.532   4.787 -0.1395  0.2117  0.2393
 3428SOL    HW121920   4.101   4.454   4.755  0.5884  0.7509 -0.0354
 3428SOL    HW221921   4.125   4.597   4.780 -0.1188  0.1868  0.2145
 3429SOL     OW21922   2.764   1.146   4.748  0.9507 -0.0042 -0.0941
 3429SOL    HW121923   2.763   1.231   4.704  0.1046  0.0428  0.0199
 3429SOL    HW221924   2.819   1.165   4.825 -2.6729 -0.9141  2.7270
 3430SOL     OW21925   1.503   4.675   4.065 -0.5226  0.1065 -0.0096
 3430SOL    HW121926   1.458   4.596   4.093  0.9116 -0.6673  0.1444
 3430SOL    HW221927   1.456   4.705   3.988 -0.1459  0.9189  0.0760
 3431SOL     OW21928   0.012   1.054   0.215 -0.7315 -0.0638 -0.5206
 3431SOL    HW121929   0.067   0.986   0.255 -1.0841 -0.7534 -1.2047
 3431SOL    HW221930   0.062   1.133   0.232 -1.9550  0.7778 -0.8577
 3432SOL     OW21931   2.759   4.211   1.592 -0.2324  0.3810  0.1846
 3432SOL    HW121932   2.690   4.216   1.658  0.1780  1.4662  0.5341
 3432SOL    HW221933   2.746   4.123   1.555 -0.8362 -0.6079  2.8100
 3433SOL     OW21934   1.136   4.079   3.704 -0.2449 -0.0221 -0.5583
 3433SOL    HW121935   1.048   4.114   3.717  0.4847  2.0398 -1.1943
 3433SOL    HW221936   1.100   3.991   3.716 -3.5581  1.0831 -2.5137
 3434SOL     OW21937   2.637   1.228   3.374 -0.1360 -0.1413 -0.4902
 3434SOL    HW121938   2.603   1.139   3.367 -0.9755  0.0750  0.8477
 3434SOL    HW221939   2.618   1.254   3.464 -0.8785 -1.9279 -0.1494
 3435SOL     OW21940   0.330   1.654   5.244 -0.0785 -0.0239  0.7670
 3435SOL    HW121941   0.276   1.716   5.195  0.4767 -0.5081 -0.4648
 3435SOL    HW221942   0.299   1.566   5.223 -2.2028  1.2711 -1.5756
 3436SOL     OW21943   4.604   1.356   8.753  0.0634 -0.0698 -0.2532
 3436SOL    HW121944   4.513   1.345   8.782 -0.5560 -2.2809 -3.0110
 3436SOL    HW221945   4.594   1.450   8.738  0.1631 -0.3411 -2.0768
 3437SOL     OW21946   2.684   3.162   5.126  0.2701 -0.0618 -0.0894
 3437SOL    HW121947   2.597   3.126   5.109  0.4939 -1.5837  1.9638
 3437SOL    HW221948   2.726   3.076   5.126 -0.1361 -0.2533  1.5532
 3438SOL     OW21949   4.204   4.555   5.484  0.5771  0.1873 -0.6263
 3438SOL    HW121950   4.176   4.633   5.532 -0.0872  1.0480 -2.3981
 3438SOL    HW221951   4.210   4.489   5.553  0.4556 -0.8270 -1.5696
 3439SOL     OW21952   0.322   0.608   7.957 -0.2171  0.4105  0.3859
 3439SOL    HW121953   0.372   0.623   8.037 -0.6973 -2.0328  1.1506
 3439SOL    HW221954   0.239   0.650   7.980  0.3479  1.6551  0.1395
 3440SOL     OW21955   2.321   0.392  14.773  0.3684  0.3883 -0.3073
 3440SOL    HW121956   2.278   0.321  14.821  1.7313  0.3450  0.8410
 3440SOL    HW221957   2.312   0.462  14.837  1.8920 -0.5953  0.9601
 3441SOL     OW21958   1.622   2.235   6.794  0.4206  0.2274  0.4789
 3441SOL    HW121959   1.648   2.327   6.781  0.1282  0.1524 -0.6758
 3441SOL    HW221960   1.662   2.199   6.715  1.9266 -0.9305  1.7916
 3442SOL     OW21961   2.460   1.371  14.626  0.1372  0.4111  0.1982
 3442SOL    HW121962   2.450   1.371  14.531  1.9860  3.3352 -0.0117
 3442SOL    HW221963   2.455   1.463  14.654  1.0442  0.1607  1.1814
 3443SOL     OW21964   2.856   2.269   4.574 -0.3122 -0.0960 -0.4692
 3443SOL    HW121965   2.790   2.330   4.608 -0.0603 -0.7902  1.3053
 3443SOL    HW221966   2.882   2.245   4.663 -0.9586 -3.1247 -1.0809
 3444SOL     OW21967   0.145   1.581   2.822 -0.1142  0.4070 -0.0740
 3444SOL    HW121968   0.134   1.515   2.753 -0.3359  0.5064 -0.1314
 3444SOL    HW221969   0.053   1.591   2.847 -0.5636  1.2496 -2.0999
 3445SOL     OW21970   4.349   3.115   2.970 -0.2412 -0.0608 -0.2119
 3445SOL    HW121971   4.421   3.117   3.033 -2.1591 -1.6045  2.0252
 3445SOL    HW221972   4.296   3.042   3.001 -0.3980 -0.0707 -0.5041
 3446SOL     OW21973   0.210   4.470   3.696 -0.6671 -0.4245  0.5851
 3446SOL    HW121974   0.197   4.376   3.683  0.4037 -0.8246  2.4094
 3446SOL    HW221975   0.301   4.483   3.723 -0.2775  0.0332 -0.9405
 3447SOL     OW21976   4.646   0.771   2.642 -0.0951 -0.3432 -0.0505
 3447SOL    HW121977   4.606   0.754   2.727 -2.8246 -1.7151 -1.6372
 3447SOL    HW221978   4.716   0.706   2.639  0.8316  0.8193 -3.0383
 3448SOL     OW21979   1.390   0.475   3.089  0.0858 -0.1050  0.0270
 3448SOL    HW121980   1.316   0.416   3.103  0.6724 -0.7822  0.2608
 3448SOL    HW221981   1.454   0.430   3.143 -2.3700 -2.6518  0.7918
 3449SOL     OW21982   4.667   4.481   3.392  0.2914  0.4517  0.1296
 3449SOL    HW121983   4.628   4.396   3.414 -2.5811  1.8786  0.5990
 3449SOL    HW221984   0.019   4.452   3.367  0.5321 -0.3893  2.0122
 3450SOL     OW21985   1.749   0.838   9.917  0.3936 -0.1390  0.0216
 3450SOL    HW121986   1.746   0.842  10.013  1.1737 -1.0256  0.0909
 3450SOL    HW221987   1.750   0.931   9.896 -0.1863 -0.4190 -1.2031
 3451SOL     OW21988   0.278   3.610  15.813  0.3744  0.5141  0.3119
 3451SOL    HW121989   0.271   3.689  15.866 -1.4267 -0.6912  1.9062
 3451SOL    HW221990   0.257   3.541  15.877 -0.0538  0.2515 -0.1140
 3452SOL     OW21991   3.254   0.309   9.040  0.1064 -0.0486  0.3543
 3452SOL    HW121992   3.226   0.217   9.043 -1.9410  0.4856 -2.4884
 3452SOL    HW221993   3.173   0.355   9.058  0.9577  0.5709  2.5475
 3453SOL     OW21994   0.110   0.330   3.427  0.4869  0.2799 -0.1382
 3453SOL    HW121995   0.131   0.237   3.434  2.6449  0.8043  0.2487
 3453SOL    HW221996   0.017   0.324   3.406  0.8194 -0.4004 -1.4427
 3454SOL     OW21997   0.969   0.126   8.882  0.2560  0.0586  0.0441
 3454SOL    HW121998   1.033   0.054   8.881  0.0793 -0.1059  1.3763
 3454SOL    HW221999   0.883   0.085   8.886  0.1304  0.3004 -0.2182
 3455SOL     OW22000   0.445   4.613   1.730 -0.9169  0.0320  0.5906
 3455SOL    HW122001   0.400   4.531   1.709 -1.4492  0.5984 -0.4612
 3455SOL    HW222002   0.536   4.591   1.713 -0.3291  2.9361  0.0076
 3456SOL     OW22003   1.889   0.075  15.926 -0.4762 -0.1866 -0.3558
 3456SOL    HW122004   1.895   0.170  15.928  0.3441 -0.2217 -1.3228
 3456SOL    HW222005   1.880   0.051  16.018  0.8021  2.2414  0.3777
 3457SOL     OW22006   3.201   2.326   8.003  0.1164 -0.0497  0.5779
 3457SOL    HW122007   3.169   2.238   7.986 -0.0100 -0.0275  0.6995
 3457SOL    HW222008   3.132   2.364   8.057  2.3090  1.6356  2.2417
 3458SOL     OW22009   4.362   2.905   5.595  0.3250 -0.0857  0.6791
 3458SOL    HW122010   4.366   2.840   5.525  2.5722  0.2443  0.5049
 3458SOL    HW222011   4.448   2.889   5.634  0.3722  0.6229  0.8546
 3459SOL     OW22012   1.237   0.927  13.936 -0.2758 -0.1295 -0.1850
 3459SOL    HW122013   1.180   0.861  13.976 -1.3641  0.2448 -1.1178
 3459SOL    HW222014   1.321   0.905  13.976 -0.6136 -1.4520 -0.1924
 3460SOL     OW22015   1.606   0.130   0.109  0.0935  0.1142  0.9028
 3460SOL    HW122016   1.587   0.049   0.157 -0.6828 -1.1461 -1.5304
 3460SOL    HW222017   1.547   0.112   0.036  0.0941  1.1212  0.6631
 3461SOL     OW22018   3.925   3.915   0.564  0.3945  0.0611  0.1174
 3461SOL    HW122019   3.905   3.987   0.504 -0.2001 -0.9506 -0.8848
 3461SOL    HW222020   3.869   3.846   0.529 -2.8719  0.4884  4.4842
 3462SOL     OW22021   2.391   2.728   2.507  0.0831 -0.4459  0.2358
 3462SOL    HW122022   2.420   2.814   2.479 -1.1858  0.1781  0.8397
 3462SOL    HW222023   2.474   2.680   2.502  0.1499 -0.5568  2.4294
 3463SOL     OW22024   1.398   2.816   4.132  0.3487  0.0406 -0.2614
 3463SOL    HW122025   1.328   2.820   4.067  1.1925  1.0329 -1.1045
 3463SOL    HW222026   1.473   2.834   4.075 -0.9580 -1.8691 -2.6065
 3464SOL     OW22027   2.907   0.237  10.131  0.2504 -0.4239 -0.0427
 3464SOL    HW122028   2.996   0.210  10.109  0.1838 -0.8457  0.2221
 3464SOL    HW222029   2.876   0.256  10.042 -2.2792 -1.2440  0.6697
 3465SOL     OW22030   0.082   4.164   0.420 -1.1523  0.5936 -0.4004
 3465SOL    HW122031   0.108   4.113   0.497 -0.1985  1.0559 -0.4115
 3465SOL    HW222032   0.116   4.250   0.445 -1.8352  2.1241 -4.8034
 3466SOL     OW22033   0.651   2.476  16.723  0.1839 -0.1153  0.8601
 3466SOL    HW122034   0.706   2.464  16.800  0.8689  0.8380  0.5283
 3466SOL    HW222035   0.707   2.514  16.655 -1.3148 -1.2333 -1.0139
 3467SOL     OW22036   1.742   0.204   2.669  0.2283  0.5114 -0.0180
 3467SOL    HW122037   1.709   0.277   2.722 -0.4904 -0.2961  0.6404
 3467SOL    HW222038   1.820   0.176   2.717 -0.9263 -0.1116  1.4906
 3468SOL     OW22039   3.719   2.587  16.895 -0.1630  0.1572  0.5185
 3468SOL    HW122040   3.658   2.651  16.859 -1.0237 -1.2978 -0.6223
 3468SOL    HW222041   3.701   2.511  16.839  4.5660 -0.8536  0.4068
 3469SOL     OW22042   3.233   3.020  17.293  0.0385 -0.1796  0.0023
 3469SOL    HW122043   3.178   2.950  17.328  1.1279 -1.9468 -1.8231
 3469SOL    HW222044   3.286   3.042  17.370  1.0231  2.4955 -1.4532
 3470SOL     OW22045   1.592   1.991  14.778 -0.2239 -0.0704  0.2246
 3470SOL    HW122046   1.531   2.045  14.728 -1.5624 -1.0438  0.8219
 3470SOL    HW222047   1.564   1.993  14.869 -1.0729  0.8533 -0.0535
 3471SOL     OW22048   2.684   0.571   3.325  0.2581  0.4277 -0.0370
 3471SOL    HW122049   2.675   0.657   3.367  0.4273  0.8624 -0.8901
 3471SOL    HW222050   2.645   0.520   3.396 -1.9333  0.2251 -1.3917
 3472SOL     OW22051   1.294   3.879   5.509 -0.0577 -1.0126  0.0603
 3472SOL    HW122052   1.280   3.794   5.551  3.5031 -1.8566 -0.3905
 3472SOL    HW222053   1.243   3.877   5.428 -1.2303  0.8996  0.7538
 3473SOL     OW22054   0.408   1.864   5.411  0.4059  0.0398 -0.0199
 3473SOL    HW122055   0.396   1.794   5.347 -1.1722 -0.0143  0.3363
 3473SOL    HW222056   0.320   1.878   5.448  0.4875  1.2606 -0.2586
 3474SOL     OW22057   0.605   2.344   7.099  0.3839  0.7657  0.8279
 3474SOL    HW122058   0.563   2.404   7.038  1.0725  0.6819  0.2764
 3474SOL    HW222059   0.688   2.393   7.101  1.2864 -0.7097 -0.1995
 3475SOL     OW22060   3.226   2.605   2.932 -0.2226  0.4036 -0.1858
 3475SOL    HW122061   3.304   2.615   2.987 -1.8097 -0.7711  2.2718
 3475SOL    HW222062   3.254   2.636   2.846  0.0447 -1.2856 -0.7201
 3476SOL     OW22063   1.430   0.194  16.365 -0.1339  0.5625 -0.4854
 3476SOL    HW122064   1.476   0.275  16.344 -0.3163  0.8359  0.1620
 3476SOL    HW222065   1.408   0.155  16.280  1.2198  1.1529 -1.0981
 3477SOL     OW22066   3.254   0.984   5.179 -0.3494 -0.1543 -0.2815
 3477SOL    HW122067   3.211   1.069   5.178  0.1492  0.0972 -0.4335
 3477SOL    HW222068   3.182   0.928   5.207  0.8629 -2.5220 -1.8840
 3478SOL     OW22069   4.255   4.332   5.623 -0.2861  0.0023 -0.3635
 3478SOL    HW122070   4.279   4.288   5.541 -0.3820  1.3674 -1.1229
 3478SOL    HW222071   4.337   4.324   5.673 -1.6779 -0.3587  1.8822
 3479SOL     OW22072   1.617   3.158  10.108  0.2834  0.7220 -0.0741
 3479SOL    HW122073   1.571   3.106  10.043 -0.0704  0.5891  0.2830
 3479SOL    HW222074   1.566   3.238  10.121  0.0020  0.3276  1.2992
 3480SOL     OW22075   3.670   1.520   9.643 -0.1664 -0.2133 -0.3508
 3480SOL    HW122076   3.681   1.425   9.640 -1.0857 -0.3483  0.8175
 3480SOL    HW222077   3.746   1.551   9.693  1.5377 -2.1627 -1.7175
 3481SOL     OW22078   1.351   0.388   6.736  0.2146  0.1830 -0.0117
 3481SOL    HW122079   1.298   0.312   6.761 -1.7640  1.8779  0.9366
 3481SOL    HW222080   1.382   0.342   6.658 -0.8631 -0.9604  0.2188
 3482SOL     OW22081   2.685   1.209  10.653  0.3105 -0.9333  0.3709
 3482SOL    HW122082   2.645   1.166  10.729 -0.3823  1.4817  1.3916
 3482SOL    HW222083   2.720   1.290  10.690  0.8448 -1.4667  1.0407
 3483SOL     OW22084   4.052   2.253  11.504 -0.5076  0.3477 -0.0668
 3483SOL    HW122085   4.035   2.342  11.472  3.9059  0.8087 -1.0253
 3483SOL    HW222086   3.965   2.214  11.495  0.1606 -0.9780 -0.6345
 3484SOL     OW22087   4.493   2.565  17.652  0.1472  0.3861  0.3438
 3484SOL    HW122088   4.584   2.561  17.682  0.7607 -2.3179 -1.8009
 3484SOL    HW222089   4.505   2.491  17.592  0.6292  0.9560 -0.2593
 3485SOL     OW22090   3.678   3.316   7.407  0.2152 -0.5013 -0.6944
 3485SOL    HW122091   3.729   3.349   7.481  0.6849  0.3334 -1.3880
 3485SOL    HW222092   3.591   3.347   7.432  0.6262 -0.5617  0.8141
 3486SOL     OW22093   1.464   3.242   6.580 -0.0569  0.1869  0.3431
 3486SOL    HW122094   1.490   3.183   6.651 -0.4001 -1.0245 -0.5356
 3486SOL    HW222095   1.420   3.181   6.521  1.5208  0.0696 -0.7058
 3487SOL     OW22096   4.414   0.336  12.379  0.3566 -0.1978 -0.7271
 3487SOL    HW122097   4.364   0.394  12.322 -1.1221  1.2504  2.0486
 3487SOL    HW222098   4.506   0.359  12.363  0.7484 -0.9539  0.4617
 3488SOL     OW22099   3.656   2.939   5.546 -0.5359  0.8136  0.0286
 3488SOL    HW122100   3.722   3.008   5.548 -2.1408  2.3871 -1.1600
 3488SOL    HW222101   3.580   2.992   5.573 -0.9118  0.2177  0.1480
 3489SOL     OW22102   3.340   3.073   7.057 -0.2787 -0.0520  0.1043
 3489SOL    HW122103   3.331   2.988   7.099  0.5430  0.7364  1.9013
 3489SOL    HW222104   3.321   3.047   6.967 -1.1046  0.0825  0.2441
 3490SOL     OW22105   4.177   2.634  11.654  0.2492 -0.7164 -0.0906
 3490SOL    HW122106   4.125   2.556  11.671 -0.3317  0.0873  1.8742
 3490SOL    HW222107   4.102   2.690  11.632  0.0243 -1.1059 -0.2967
 3491SOL     OW22108   3.993   2.301   8.971 -0.4068  0.0191 -0.5593
 3491SOL    HW122109   3.916   2.358   8.965 -1.2357 -1.1959 -1.5854
 3491SOL    HW222110   3.984   2.255   9.055  1.3224  0.2850 -0.2266
 3492SOL     OW22111   3.396   0.723   5.323 -0.4146 -0.4943 -0.3931
 3492SOL    HW122112   3.469   0.728   5.261 -1.4931  0.5904 -1.5690
 3492SOL    HW222113   3.396   0.817   5.343  0.1538 -0.8873  1.5228
 3493SOL     OW22114   2.782   1.376  15.042  0.8630 -0.5627  0.1010
 3493SOL    HW122115   2.774   1.292  14.995  0.0045  0.1510 -1.0159
 3493SOL    HW222116   2.713   1.364  15.106  0.8740 -1.1172  0.0113
 3494SOL     OW22117   1.170   4.458   2.223  0.8773 -0.1329 -0.1906
 3494SOL    HW122118   1.223   4.418   2.154  1.0942 -0.5898  0.2417
 3494SOL    HW222119   1.107   4.493   2.160 -0.8002 -2.9236 -0.0672
 3495SOL     OW22120   4.449   4.019   5.056 -0.2192  0.1374  0.1798
 3495SOL    HW122121   4.412   3.966   4.985  0.3017 -0.1423  0.1139
 3495SOL    HW222122   4.400   4.099   5.044 -2.7106 -1.8095 -2.4831
 3496SOL     OW22123   2.368   2.044  15.653 -0.0250 -0.0120 -0.4724
 3496SOL    HW122124   2.312   2.112  15.617  0.1141 -0.3165 -1.2541
 3496SOL    HW222125   2.382   2.006  15.566  1.0244  0.3125 -0.4501
 3497SOL     OW22126   3.500   3.427   2.113  0.5956  0.3141  0.1287
 3497SOL    HW122127   3.506   3.334   2.138  0.3314  0.6024  1.2721
 3497SOL    HW222128   3.507   3.425   2.018  2.9258  2.7362  0.2581
 3498SOL     OW22129   0.893   3.228   6.652 -0.2442  0.2167 -0.3207
 3498SOL    HW122130   0.813   3.194   6.693 -0.5977  0.0217 -1.1757
 3498SOL    HW222131   0.891   3.319   6.682  0.4985 -0.1290  0.7828
 3499SOL     OW22132   3.321   2.062  13.696 -0.0065  0.0471  0.0814
 3499SOL    HW122133   3.384   1.991  13.685 -1.3475 -1.3091  1.2045
 3499SOL    HW222134   3.362   2.139  13.655 -0.2305 -0.0486 -0.3215
 3500SOL     OW22135   1.758   0.627   6.249 -0.1670  0.2032  0.0482
 3500SOL    HW122136   1.842   0.668   6.230  0.7008 -1.6625 -0.1212
 3500SOL    HW222137   1.722   0.706   6.292 -5.0600 -1.0316 -1.7540
 3501SOL     OW22138   0.601   4.436   2.717 -0.2048  0.7467 -0.4471
 3501SOL    HW122139   0.627   4.365   2.658  0.9478  0.4923  0.3710
 3501SOL    HW222140   0.626   4.396   2.800  1.4651  0.8720 -0.9020
 3502SOL     OW22141   0.143   0.504   8.219 -0.3990  0.4714 -0.2610
 3502SOL    HW122142   0.074   0.567   8.233 -0.1625  0.1209  2.4171
 3502SOL    HW222143   0.213   0.568   8.207 -0.8895  0.7521 -1.5665
 3503SOL     OW22144   3.255   2.210   6.394  0.2310 -0.4329 -0.1636
 3503SOL    HW122145   3.312   2.165   6.332  2.1925  2.7786 -0.6970
 3503SOL    HW222146   3.210   2.281   6.348 -1.1524 -0.2150  1.4947
 3504SOL     OW22147   1.604   3.171  17.398 -0.9276 -0.1365 -0.0206
 3504SOL    HW122148   1.573   3.111  17.331  0.2777  0.8397 -1.4502
 3504SOL    HW222149   1.657   3.220  17.335 -0.5268 -1.3819 -0.6386
 3505SOL     OW22150   3.594   0.309  10.095 -0.2821  0.3275 -0.0687
 3505SOL    HW122151   3.545   0.252  10.034  0.9842 -1.5321  0.6785
 3505SOL    HW222152   3.540   0.300  10.173  1.4463 -0.5606  1.0157
 3506SOL     OW22153   1.254   4.222   7.022 -0.2868 -0.1533  0.1066
 3506SOL    HW122154   1.171   4.224   7.070  0.2961  0.9876  1.0566
 3506SOL    HW222155   1.321   4.216   7.090  0.4584 -0.2041 -0.6269
 3507SOL     OW22156   1.609   2.856   3.000 -0.1599  0.9816  0.3095
 3507SOL    HW122157   1.691   2.808   2.996 -2.0275 -2.1705 -0.8907
 3507SOL    HW222158   1.575   2.837   2.912  1.2168  1.6242 -0.3513
 3508SOL     OW22159   1.131   0.848   4.204  0.2894  0.1963  0.1442
 3508SOL    HW122160   1.117   0.756   4.180 -2.0922  0.5418  0.1867
 3508SOL    HW222161   1.138   0.869   4.111  0.2743  4.1277  1.0497
 3509SOL     OW22162   4.658   1.951   8.376  0.3437  0.3510 -1.1381
 3509SOL    HW122163   0.006   1.998   8.378  2.7669 -3.8141 -2.6162
 3509SOL    HW222164   4.592   2.020   8.377  1.7557  1.6444  2.3105
 3510SOL     OW22165   1.918   3.034   2.133  0.0640 -0.4806  0.8658
 3510SOL    HW122166   1.860   3.099   2.093  0.2262 -1.3143 -0.6834
 3510SOL    HW222167   1.853   2.964   2.137 -0.4110 -0.2564 -3.1007
 3511SOL     OW22168   3.777   0.151   6.742 -0.3801 -0.5658  0.0888
 3511SOL    HW122169   3.854   0.203   6.720 -0.3924 -0.7051 -0.2756
 3511SOL    HW222170   3.702   0.204   6.715  0.1903 -0.8294 -2.0379
 3512SOL     OW22171   1.573   0.051  11.268 -0.3331 -0.3828  0.1024
 3512SOL    HW122172   1.484   0.055  11.233 -0.0020  0.9049 -0.5614
 3512SOL    HW222173   1.552   0.095  11.350 -1.9081  0.0792 -0.5469
 3513SOL     OW22174   3.055   3.973   2.235  0.2174  0.0965  0.1901
 3513SOL    HW122175   2.966   3.944   2.215  0.2370 -1.4915  2.3987
 3513SOL    HW222176   3.102   3.894   2.259  2.4210  1.5151  0.5807
 3514SOL     OW22177   4.507   3.044   8.470 -0.3749  0.4010  0.2855
 3514SOL    HW122178   4.562   3.080   8.539  0.9215 -1.3991  0.2064
 3514SOL    HW222179   4.420   3.069   8.499  0.8857  3.2776  1.5855
 3515SOL     OW22180   0.979   2.665   7.435 -0.3925  0.4905  0.2611
 3515SOL    HW122181   0.934   2.750   7.438 -0.3897  0.5613 -1.6500
 3515SOL    HW222182   0.904   2.619   7.395  0.8574 -1.4451  0.1572
 3516SOL     OW22183   2.937   1.229   4.946  0.2723  0.0685 -0.2921
 3516SOL    HW122184   2.981   1.203   5.027 -0.1259  1.6217  0.4303
 3516SOL    HW222185   2.933   1.325   4.953  0.1561 -0.0500  1.4069
 3517SOL     OW22186   0.666   0.543   7.563  0.2216 -0.7945  0.3224
 3517SOL    HW122187   0.674   0.628   7.519 -0.3295 -1.3338 -0.8170
 3517SOL    HW222188   0.639   0.493   7.485  0.3278 -0.0622 -0.1920
 3518SOL     OW22189   4.151   3.955   6.123  0.5079 -0.8144 -0.5521
 3518SOL    HW122190   4.145   3.887   6.056 -1.6275 -0.8866 -0.3117
 3518SOL    HW222191   4.235   3.984   6.089 -0.4345 -0.5985 -2.6911
 3519SOL     OW22192   1.690   2.876   2.162 -0.3381  0.2963  0.4646
 3519SOL    HW122193   1.604   2.848   2.130  0.1732 -1.1713  0.3494
 3519SOL    HW222194   1.701   2.819   2.238 -4.0676  0.9870  1.5447
 3520SOL     OW22195   1.101   0.809   6.507  0.2374 -0.0426  0.2512
 3520SOL    HW122196   1.045   0.755   6.451 -1.3321  0.5977  1.2099
 3520SOL    HW222197   1.172   0.746   6.517 -1.6357 -2.2091 -0.0804
 3521SOL     OW22198   4.091   0.534   6.728 -0.1511  0.4149  0.1377
 3521SOL    HW122199   4.169   0.490   6.763  0.5731  2.4951  1.1287
 3521SOL    HW222200   4.077   0.598   6.797 -1.1725  1.8110 -1.3801
 3522SOL     OW22201   1.533   1.644   4.912  0.1923 -0.0499 -0.0843
 3522SOL    HW122202   1.625   1.668   4.921  0.1486 -0.2068  0.7188
 3522SOL    HW222203   1.515   1.709   4.844  1.4395  1.6850  1.2534
 3523SOL     OW22204   0.166   2.322   5.329  0.3259 -0.1428 -0.3858
 3523SOL    HW122205   0.188   2.285   5.415 -0.6420  0.8793  0.2879
 3523SOL    HW222206   0.107   2.250   5.305 -0.1025  0.3939 -0.9227
 3524SOL     OW22207   2.864   3.701   9.270 -0.0897 -0.3195 -0.0882
 3524SOL    HW122208   2.805   3.706   9.196  1.5323  2.3461 -1.1887
 3524SOL    HW222209   2.850   3.608   9.291 -2.9104 -0.0401 -0.7656
 3525SOL     OW22210   3.444   3.596  12.273 -0.2841  0.5965  0.0835
 3525SOL    HW122211   3.528   3.638  12.292 -0.5445  0.6599  1.1320
 3525SOL    HW222212   3.470   3.507  12.249 -0.6196  0.1191  1.4578
 3526SOL     OW22213   1.100   2.713   3.482  0.0925 -0.4403  0.3204
 3526SOL    HW122214   1.086   2.631   3.436  0.3026  0.7875 -1.9114
 3526SOL    HW222215   1.095   2.769   3.405 -3.0989 -0.2559  0.6710
 3527SOL     OW22216   3.255   0.050  13.112  0.3639  0.1290 -0.4852
 3527SOL    HW122217   3.283   0.117  13.175  2.1797 -0.3733 -0.7653
 3527SOL    HW222218   3.212   0.100  13.042  1.5287  1.1330 -0.4878
 3528SOL     OW22219   3.279   0.504   7.798  0.0921  0.4501 -0.1069
 3528SOL    HW122220   3.264   0.424   7.747  1.1191  0.9415 -1.1726
 3528SOL    HW222221   3.282   0.463   7.885 -0.0155  0.7778  0.0497
 3529SOL     OW22222   2.907   0.331  14.880  0.8689 -0.4493 -0.0891
 3529SOL    HW122223   2.924   0.424  14.898 -0.1448 -0.6631  1.9790
 3529SOL    HW222224   2.977   0.316  14.816  1.4295 -0.8274  0.6163
 3530SOL     OW22225   2.329   1.665  17.695  0.2757 -0.0025 -0.0396
 3530SOL    HW122226   2.324   1.756  17.725 -2.8287 -0.1917 -0.0332
 3530SOL    HW222227   2.388   1.673  17.620  1.4845 -0.1805  0.8856
 3531SOL     OW22228   4.718   1.122   6.503 -0.0008  0.3108 -0.0870
 3531SOL    HW122229   4.640   1.162   6.540  0.9112  0.3423  1.8214
 3531SOL    HW222230   0.031   1.200   6.476 -2.3207  1.8247  0.1970
 3532SOL     OW22231   4.030   2.875   4.152 -0.3351 -0.0398 -0.2327
 3532SOL    HW122232   4.008   2.814   4.082  0.7494  0.6048 -1.1473
 3532SOL    HW222233   4.119   2.889   4.120 -0.2416 -0.3946 -0.1217
 3533SOL     OW22234   0.064   1.797   8.730  0.0669  0.0043 -0.2056
 3533SOL    HW122235   0.119   1.856   8.781  2.1737 -1.6703 -0.5394
 3533SOL    HW222236   4.714   1.840   8.727  0.6516  1.1809  0.2649
 3534SOL     OW22237   4.340   2.713   9.645  0.1683 -0.0438  0.5031
 3534SOL    HW122238   4.403   2.752   9.584  1.2194 -0.1126  1.5299
 3534SOL    HW222239   4.268   2.774   9.636  0.6030  0.4911  0.6269
 3535SOL     OW22240   1.382   1.300   6.832 -0.4678 -0.1452 -0.2258
 3535SOL    HW122241   1.466   1.255   6.819 -0.2620  0.0846  0.3190
 3535SOL    HW222242   1.383   1.369   6.765  0.0304  1.8686  1.8721
 3536SOL     OW22243   0.058   0.083   1.732  0.1857 -0.0076 -0.0446
 3536SOL    HW122244   0.047   4.723   1.729 -0.5025  0.0407  0.8659
 3536SOL    HW222245   0.152   0.093   1.717  0.2686 -0.9424 -0.1577
 3537SOL     OW22246   1.749   3.641  13.637  0.0824  0.4814 -0.3327
 3537SOL    HW122247   1.669   3.607  13.595  0.4582  0.7578 -1.2733
 3537SOL    HW222248   1.756   3.576  13.707  0.9711 -0.0630 -0.9320
 3538SOL     OW22249   2.993   3.739  10.109 -0.3061  0.6416 -0.1770
 3538SOL    HW122250   3.021   3.811  10.052 -1.0583  1.7492  0.8586
 3538SOL    HW222251   3.048   3.680  10.057 -2.0282 -0.7286 -0.4516
 3539SOL     OW22252   0.001   0.327   9.003 -0.5565 -0.1066  0.3697
 3539SOL    HW122253   4.727   0.381   8.924  1.8684  1.3617  1.0738
 3539SOL    HW222254   0.039   0.245   8.972 -1.5218 -0.9228  1.3254
 3540SOL     OW22255   2.061   4.648  12.484 -0.1019  0.1481  0.3438
 3540SOL    HW122256   2.037   4.697  12.563 -1.3959 -0.7766  0.5159
 3540SOL    HW222257   2.087   4.568  12.530 -1.2376  0.0207  0.7531
 3541SOL     OW22258   0.410   1.395  11.007 -0.2317  0.8217 -0.6656
 3541SOL    HW122259   0.403   1.327  10.940 -2.5041  1.1809 -0.7811
 3541SOL    HW222260   0.317   1.413  11.017 -0.6199 -0.9952 -1.0574
 3542SOL     OW22261   0.420   2.307  10.171 -0.2550 -0.0493  0.6479
 3542SOL    HW122262   0.341   2.254  10.173  0.6804 -1.3997  1.4883
 3542SOL    HW222263   0.381   2.394  10.183 -0.2362 -0.2002  1.8207
 3543SOL     OW22264   4.035   3.294   8.497  0.1716 -0.6236  0.8193
 3543SOL    HW122265   4.072   3.366   8.548  3.3802 -1.7429  0.0308
 3543SOL    HW222266   3.944   3.321   8.481  0.2753  0.9145  2.7451
 3544SOL     OW22267   2.128   2.756  17.670 -0.3122 -0.1652 -0.3863
 3544SOL    HW122268   2.081   2.734   0.010 -1.4749  0.8577 -0.7919
 3544SOL    HW222269   2.137   2.675  17.619  0.2307  1.4416 -2.8317
 3545SOL     OW22270   4.399   1.287   8.344 -0.2737  0.1251  0.2658
 3545SOL    HW122271   4.329   1.267   8.406  1.0861 -0.4847  1.5997
 3545SOL    HW222272   4.432   1.372   8.372  2.3041 -1.0732  0.8308
 3546SOL     OW22273   4.418   1.385   2.840 -0.8470 -0.0876  0.0432
 3546SOL    HW122274   4.350   1.339   2.890 -0.5568 -0.4901  0.0646
 3546SOL    HW222275   4.417   1.331   2.761  0.5630  0.7334 -0.5351
 3547SOL     OW22276   0.250   0.681   4.191  0.4147  0.2427  0.2986
 3547SOL    HW122277   0.303   0.612   4.152 -0.7756  0.8901 -2.5073
 3547SOL    HW222278   0.190   0.629   4.245  1.1610 -1.9047 -0.9463
 3548SOL     OW22279   2.300   4.138   7.236 -0.3702  0.6310  0.0247
 3548SOL    HW122280   2.322   4.178   7.320  0.4484 -2.1849  1.1305
 3548SOL    HW222281   2.279   4.047   7.255  0.4156  0.7938  1.6439
 3549SOL     OW22282   4.408   3.426  15.144  0.2305 -0.5038 -0.4604
 3549SOL    HW122283   4.485   3.370  15.150  0.8550  0.4757  0.6701
 3549SOL    HW222284   4.335   3.366  15.158  0.4840 -0.5304  0.7755
 3550SOL     OW22285   4.483   3.670   4.748 -0.1072  0.1847  0.0222
 3550SOL    HW122286   4.553   3.623   4.705 -1.2938 -1.4697 -0.0982
 3550SOL    HW222287   4.416   3.602   4.744  0.5450 -0.4724  0.2903
 3551SOL     OW22288   3.205   2.118   3.876  0.5799  0.0904  0.3549
 3551SOL    HW122289   3.133   2.134   3.814  2.1657  0.8853 -1.2884
 3551SOL    HW222290   3.187   2.038   3.924  0.1300  1.0169  1.7384
 3552SOL     OW22291   3.684   2.404   5.698 -0.1951 -0.6468  0.3069
 3552SOL    HW122292   3.658   2.477   5.641  1.5214  1.4964  2.2611
 3552SOL    HW222293   3.765   2.431   5.741 -1.0370 -1.2896  2.2755
 3553SOL     OW22294   1.665   2.157   2.946  0.1715  0.4650  0.1591
 3553SOL    HW122295   1.688   2.064   2.958 -0.9607 -0.1866 -2.7191
 3553SOL    HW222296   1.588   2.170   3.001 -0.1700  2.6559 -0.8656
 3554SOL     OW22297   0.546   4.302  15.673 -0.2212  0.0608 -0.4115
 3554SOL    HW122298   0.594   4.360  15.614  0.1228 -1.1839 -1.3439
 3554SOL    HW222299   0.551   4.222  15.622  1.7162  0.9505 -1.6150
 3555SOL     OW22300   0.387   3.005  11.673 -0.2148 -0.8632  0.0379
 3555SOL    HW122301   0.389   3.034  11.765 -0.0526 -0.4621 -0.0895
 3555SOL    HW222302   0.311   2.947  11.680 -1.5812  0.8310 -0.4542
 3556SOL     OW22303   1.988   0.164  14.702 -0.5444 -0.0993 -0.2406
 3556SOL    HW122304   2.060   0.158  14.640 -0.6545  2.4042 -0.5786
 3556SOL    HW222305   1.924   0.132  14.639 -0.1592  1.8529 -1.5987
 3557SOL     OW22306   4.088   1.744   4.337 -0.3512  0.1705  0.6174
 3557SOL    HW122307   4.026   1.672   4.324 -1.4475  0.8237  2.2018
 3557SOL    HW222308   4.110   1.726   4.429  0.9078 -0.2360  0.2255
 3558SOL     OW22309   4.380   0.794   6.607  0.0074 -0.5473  0.1778
 3558SOL    HW122310   4.291   0.764   6.588 -0.1451 -0.1498  0.2678
 3558SOL    HW222311   4.430   0.773   6.528 -1.0762 -1.9623 -0.1256
 3559SOL     OW22312   2.951   0.542   5.264 -0.1615  0.2477  0.4104
 3559SOL    HW122313   2.947   0.481   5.191  2.2252 -1.2880  1.5623
 3559SOL    HW222314   2.863   0.578   5.260  0.4812  1.8927  1.0115
 3560SOL     OW22315   3.961   2.959   5.698  0.5399 -0.1805  0.1828
 3560SOL    HW122316   3.905   3.035   5.683  2.5995  1.2855 -0.1052
 3560SOL    HW222317   4.033   3.007   5.658 -0.5886  2.8392  1.7847
 3561SOL     OW22318   2.355   1.810  14.923  0.2385 -0.5328  0.1062
 3561SOL    HW122319   2.277   1.787  14.973  1.7139 -1.4794  1.9715
 3561SOL    HW222320   2.425   1.775  14.978 -0.8366 -2.0751  0.5002
 3562SOL     OW22321   1.693   2.867  17.008  0.0058  0.1288  0.2887
 3562SOL    HW122322   1.710   2.897  17.098 -2.0570  4.1870 -0.7041
 3562SOL    HW222323   1.692   2.951  16.964  2.6461 -0.1139 -0.1837
 3563SOL     OW22324   2.304   4.189   2.158 -0.1511 -0.5706 -0.0057
 3563SOL    HW122325   2.368   4.234   2.104 -1.4337 -1.6528 -2.3949
 3563SOL    HW222326   2.351   4.107   2.169 -1.4074 -0.9960  2.4022
 3564SOL     OW22327   3.215   3.799   0.424 -0.1509 -0.1929  0.3043
 3564SOL    HW122328   3.302   3.838   0.425  0.3308 -1.2718  1.2345
 3564SOL    HW222329   3.225   3.706   0.402 -2.6922 -0.6284  0.8903
 3565SOL     OW22330   2.866   0.424  12.326  0.3212  0.3777  0.2847
 3565SOL    HW122331   2.843   0.473  12.247 -1.1117 -0.3181  0.2707
 3565SOL    HW222332   2.841   0.335  12.301  0.5226  0.2422  0.5677
 3566SOL     OW22333   3.700   1.602   6.033 -1.0636  0.0558  0.2387
 3566SOL    HW122334   3.735   1.560   6.112  1.9672  1.6704 -0.2408
 3566SOL    HW222335   3.772   1.660   6.008 -0.3716 -0.5692  0.7797
 3567SOL     OW22336   0.966   1.224   3.099 -0.7413  0.5126  0.1777
 3567SOL    HW122337   0.882   1.248   3.138 -2.0548 -0.1482 -2.2211
 3567SOL    HW222338   0.941   1.159   3.034 -0.2503  0.8164 -0.3193
 3568SOL     OW22339   2.011   3.778   5.445 -0.8237 -0.7183  0.2371
 3568SOL    HW122340   2.077   3.801   5.510  0.2758  1.4220 -1.6191
 3568SOL    HW222341   1.929   3.813   5.479 -0.3130 -0.9661  1.7119
 3569SOL     OW22342   3.759   3.021  10.260 -0.1375 -0.7898  0.2055
 3569SOL    HW122343   3.704   2.966  10.316 -0.5009 -1.3262 -0.6825
 3569SOL    HW222344   3.694   3.056  10.199  1.5871 -1.6269 -2.1045
 3570SOL     OW22345   0.457   2.184   2.464  0.0367 -0.6134 -0.2492
 3570SOL    HW122346   0.376   2.233   2.450 -0.8794 -1.5315  1.7717
 3570SOL    HW222347   0.432   2.094   2.486  1.0017 -0.9687 -0.6320
 3571SOL     OW22348   1.575   4.075   3.553 -0.1762  0.6190  0.5715
 3571SOL    HW122349   1.538   4.017   3.620 -0.2352  0.6756  0.5874
 3571SOL    HW222350   1.669   4.056   3.556  0.0602  1.5057 -1.0681
 3572SOL     OW22351   4.386   1.005  16.743 -0.0846 -0.3435  0.1987
 3572SOL    HW122352   4.426   0.934  16.794  0.6907  0.7965  1.1652
 3572SOL    HW222353   4.294   0.988  16.762  0.0976  0.6947  1.9324
 3573SOL     OW22354   3.857   0.985  15.526 -0.4432 -0.4443 -0.1807
 3573SOL    HW122355   3.777   0.933  15.536 -1.1500  0.6693 -0.1203
 3573SOL    HW222356   3.883   0.995  15.617  1.5879 -0.7296 -0.7414
 3574SOL     OW22357   0.385   3.191   4.837  0.1903  0.3005  0.4165
 3574SOL    HW122358   0.318   3.148   4.890 -0.0174 -0.1717 -0.2421
 3574SOL    HW222359   0.331   3.253   4.790  0.2227  1.6048  2.0819
 3575SOL     OW22360   4.388   1.448  12.390 -0.0457 -0.3619  0.8257
 3575SOL    HW122361   4.403   1.508  12.463  0.6561  2.1966 -1.4060
 3575SOL    HW222362   4.417   1.367  12.430  3.9599  1.1724  0.9776
 3576SOL     OW22363   0.699   3.893   9.172  0.0720  0.6470  0.4376
 3576SOL    HW122364   0.724   3.812   9.218 -0.7184 -0.2160 -0.6461
 3576SOL    HW222365   0.728   3.958   9.236  0.7978 -1.3415  2.1476
 3577SOL     OW22366   1.576   1.681  12.772  0.2639 -0.2512  0.2613
 3577SOL    HW122367   1.493   1.702  12.815 -0.0652 -2.2067  0.5679
 3577SOL    HW222368   1.603   1.607  12.826 -0.5509  0.0060  1.0147
 3578SOL     OW22369   2.655   0.755  12.321  0.5140  0.1317  0.0522
 3578SOL    HW122370   2.586   0.696  12.350  0.5332 -0.0481 -0.2789
 3578SOL    HW222371   2.606   0.811  12.261 -0.5207  0.3611  1.1178
 3579SOL     OW22372   3.222   0.959   8.842  0.3869 -0.4837  1.0312
 3579SOL    HW122373   3.285   0.954   8.914 -0.9650  2.7234  2.4243
 3579SOL    HW222374   3.235   0.872   8.803 -0.1304 -0.6319  1.1878
 3580SOL     OW22375   1.506   0.792   1.183 -0.0598  0.4015 -0.2816
 3580SOL    HW122376   1.557   0.761   1.108  2.5018  1.8209  0.8677
 3580SOL    HW222377   1.577   0.802   1.247  1.1232 -0.5277 -1.4603
 3581SOL     OW22378   2.372   1.113   7.175 -0.7593  0.6178  0.0403
 3581SOL    HW122379   2.353   1.039   7.116  1.9316 -0.0065 -0.0591
 3581SOL    HW222380   2.399   1.074   7.258  2.2429  1.1048 -0.7235
 3582SOL     OW22381   3.928   0.418   5.954  0.1414 -0.1386  0.3831
 3582SOL    HW122382   3.908   0.355   5.885  2.2882 -1.1707  0.6840
 3582SOL    HW222383   4.023   0.406   5.957  0.1321 -0.4924 -0.7248
 3583SOL     OW22384   0.401   4.517  14.420 -0.3189 -0.3148  0.3949
 3583SOL    HW122385   0.326   4.500  14.477  0.7587  0.1305  1.9628
 3583SOL    HW222386   0.421   4.428  14.391 -3.0312  0.0215 -2.4723
 3584SOL     OW22387   2.886   4.623   3.063  0.0383  0.1436 -0.5350
 3584SOL    HW122388   2.927   4.546   3.103  1.1107  0.3035 -1.3369
 3584SOL    HW222389   2.928   4.695   3.110 -0.0656  1.5940 -2.6567
 3585SOL     OW22390   2.079   2.787   6.785  0.1636  0.1475 -0.3611
 3585SOL    HW122391   2.021   2.780   6.860 -0.9645  0.6251 -1.1831
 3585SOL    HW222392   2.143   2.725   6.819 -0.6324 -0.6072 -0.2397
 3586SOL     OW22393   2.182   1.420  10.920  0.1198 -0.0802  0.1944
 3586SOL    HW122394   2.250   1.431  10.854  0.5378 -0.0754  0.6220
 3586SOL    HW222395   2.229   1.397  11.000  0.4309 -1.1754 -0.3116
 3587SOL     OW22396   4.385   1.703   1.465  0.5929  0.5941 -0.0769
 3587SOL    HW122397   4.441   1.639   1.422 -0.8530 -0.5367 -0.2667
 3587SOL    HW222398   4.310   1.690   1.408 -0.5345 -2.5015  2.0945
 3588SOL     OW22399   3.354   3.490   3.644 -0.3645 -0.4593  0.2591
 3588SOL    HW122400   3.371   3.581   3.620  0.5265 -0.8957 -0.7457
 3588SOL    HW222401   3.375   3.446   3.562 -0.3988  1.2968 -0.6909
 3589SOL     OW22402   2.534   1.112  10.853 -0.0118 -0.2735  0.4366
 3589SOL    HW122403   2.488   1.187  10.890  1.7570  1.0376 -0.0106
 3589SOL    HW222404   2.498   1.049  10.915  0.4153 -0.9156  0.0352
 3590SOL     OW22405   1.690   2.528  16.725 -0.0523 -0.5592  0.1924
 3590SOL    HW122406   1.645   2.448  16.700  2.5768 -2.0213  0.2200
 3590SOL    HW222407   1.779   2.504  16.701 -0.6363  0.2733 -2.8855
 3591SOL     OW22408   2.939   2.558   1.329 -0.3240  0.0438 -0.0790
 3591SOL    HW122409   2.931   2.536   1.422  1.4260  0.2404  0.1048
 3591SOL    HW222410   3.021   2.516   1.307 -0.5116  0.0292 -0.7756
 3592SOL     OW22411   2.758   3.896  14.558 -0.6816 -0.1028  0.4739
 3592SOL    HW122412   2.824   3.858  14.499 -0.4110  2.5381 -0.9261
 3592SOL    HW222413   2.686   3.833  14.551 -1.1385  0.3291  1.3852
 3593SOL     OW22414   0.700   2.018   8.053  0.0434 -0.2802 -0.2138
 3593SOL    HW122415   0.781   2.028   8.104  0.6269 -1.9027 -0.8066
 3593SOL    HW222416   0.631   2.058   8.106 -1.0167  0.3595 -2.0732
 3594SOL     OW22417   4.669   2.603   9.198  0.6902  0.6818  0.0770
 3594SOL    HW122418   4.630   2.683   9.232  0.1630  0.1269  0.7843
 3594SOL    HW222419   4.715   2.638   9.122 -1.2081  2.0858 -0.3913
 3595SOL     OW22420   3.536   4.027   8.455  0.5762  0.2090  0.2274
 3595SOL    HW122421   3.598   4.100   8.458 -1.5296  2.0578 -1.1242
 3595SOL    HW222422   3.462   4.067   8.408 -0.3661 -0.6760  0.9472
 3596SOL     OW22423   0.494   3.695  10.851  0.5269  0.0681 -0.4941
 3596SOL    HW122424   0.529   3.762  10.792 -0.7052  1.9432  0.9113
 3596SOL    HW222425   0.467   3.624  10.793  0.5743 -0.8329  0.5868
 3597SOL     OW22426   2.875   1.564   2.699 -0.4249  0.0924 -0.1515
 3597SOL    HW122427   2.817   1.518   2.638 -1.4936  0.2647  0.7522
 3597SOL    HW222428   2.834   1.649   2.714 -0.6738  0.1341 -1.0225
 3598SOL     OW22429   1.410   4.529   1.292  0.2049 -0.1985 -0.7790
 3598SOL    HW122430   1.500   4.503   1.275  1.0154  1.8977  0.3560
 3598SOL    HW222431   1.420   4.624   1.299  0.4217 -0.1372 -2.0053
 3599SOL     OW22432   3.754   4.004   7.717 -0.1048 -0.0759 -0.3263
 3599SOL    HW122433   3.807   4.018   7.796  0.0158 -0.8208 -0.2752
 3599SOL    HW222434   3.793   4.074   7.666  2.4249  0.5577  2.4818
 3600SOL     OW22435   0.986   1.106   6.039 -0.0736 -0.5578 -0.8168
 3600SOL    HW122436   0.968   1.014   6.054 -0.9458 -0.1724  0.4979
 3600SOL    HW222437   0.914   1.147   6.089  1.0044  0.4302 -0.0779
 3601SOL     OW22438   2.615   0.095   5.142  0.2638  0.2032 -0.3120
 3601SOL    HW122439   2.571   0.131   5.218  3.6550  3.5022  0.0930
 3601SOL    HW222440   2.707   0.088   5.168  0.0929  1.6276  0.6951
 3602SOL     OW22441   1.075   4.032   7.873  0.1270  0.9773  0.1807
 3602SOL    HW122442   1.078   3.948   7.920  1.0050  1.5791  1.2070
 3602SOL    HW222443   1.165   4.064   7.882  0.6400 -1.3540  3.5713
 3603SOL     OW22444   0.737   0.693   5.226 -0.0953 -0.2175  0.0377
 3603SOL    HW122445   0.818   0.651   5.198 -1.2298 -2.5311  0.1885
 3603SOL    HW222446   0.738   0.774   5.175 -0.2350  0.1225  0.5847
 3604SOL     OW22447   1.325   1.713   0.486  0.9183  0.5570 -0.5309
 3604SOL    HW122448   1.357   1.622   0.485  0.5439  0.4252 -0.2974
 3604SOL    HW222449   1.335   1.724   0.391 -1.9009  4.1615 -0.3951
 3605SOL     OW22450   0.787   0.178   5.378  0.2928 -0.1497 -0.3891
 3605SOL    HW122451   0.707   0.124   5.374  0.2218 -0.0583 -0.1771
 3605SOL    HW222452   0.821   0.151   5.292  3.6517  0.9315  0.6129
 3606SOL     OW22453   2.346   2.439   2.240  0.3042 -0.3374  0.2509
 3606SOL    HW122454   2.441   2.436   2.248  0.4206  0.4249 -0.8882
 3606SOL    HW222455   2.333   2.434   2.145 -0.4912 -0.7915  0.3854
 3607SOL     OW22456   0.963   3.207  12.560  0.8195  0.2438  0.4463
 3607SOL    HW122457   0.935   3.296  12.538  1.4950 -0.0161 -1.4568
 3607SOL    HW222458   0.986   3.180  12.471  1.6181 -1.4471  1.1602
 3608SOL     OW22459   1.100   0.209   1.618  0.1026  0.4097 -0.0087
 3608SOL    HW122460   1.016   0.191   1.660  0.1210 -2.1328 -1.0685
 3608SOL    HW222461   1.116   0.301   1.638  0.6803  0.8271 -2.4450
 3609SOL     OW22462   4.579   4.273   8.545 -0.0693 -0.1858  0.3105
 3609SOL    HW122463   4.602   4.358   8.508  1.2708 -0.7794 -0.2234
 3609SOL    HW222464   4.659   4.231   8.578  0.0542 -1.0388 -1.0847
 3610SOL     OW22465   3.724   0.031   6.980 -0.2289 -0.1707 -0.0882
 3610SOL    HW122466   3.757   0.110   7.023 -0.6994 -0.6040  1.0648
 3610SOL    HW222467   3.735   0.047   6.886 -1.3864 -0.7415 -0.3267
 3611SOL     OW22468   3.055   1.578  11.962 -0.0637 -0.4254  0.1334
 3611SOL    HW122469   3.130   1.631  11.934 -0.8778  0.7673  0.1847
 3611SOL    HW222470   3.093   1.526  12.033  0.8237  0.7209  0.5056
 3612SOL     OW22471   1.114   4.572  14.746  0.0753 -0.2278 -0.1721
 3612SOL    HW122472   1.090   4.526  14.665  2.6565 -0.7252 -0.6626
 3612SOL    HW222473   1.100   4.500  14.807 -2.1710 -0.0379 -0.4958
 3613SOL     OW22474   3.276   3.766   8.237  0.0931  0.2339 -0.6443
 3613SOL    HW122475   3.366   3.778   8.206 -0.1049 -0.1706 -1.3758
 3613SOL    HW222476   3.250   3.721   8.157  2.2393  0.2499 -1.3356
 3614SOL     OW22477   2.425   4.152   4.116  0.1495 -0.0882  0.9654
 3614SOL    HW122478   2.451   4.091   4.184 -1.0494 -0.3229  1.2167
 3614SOL    HW222479   2.436   4.093   4.041 -0.5710 -0.0378  0.8169
 3615SOL     OW22480   2.613   3.464   2.128  0.1495 -0.7957 -0.5328
 3615SOL    HW122481   2.529   3.476   2.084 -0.2459 -1.0858  0.1465
 3615SOL    HW222482   2.665   3.534   2.089 -0.5322  0.7482  1.3251
 3616SOL     OW22483   1.709   3.885   1.094  0.5174  0.6076  0.3247
 3616SOL    HW122484   1.717   3.965   1.043  1.2300  0.1222 -0.3305
 3616SOL    HW222485   1.621   3.898   1.128  0.6679  1.2106  0.4815
 3617SOL     OW22486   1.026   0.069   4.834  0.3653  0.6583 -0.7956
 3617SOL    HW122487   1.091   4.734   4.822  1.1683  1.0922  1.0077
 3617SOL    HW222488   1.084   0.128   4.882 -0.0025  0.2679  0.1338
 3618SOL     OW22489   0.961   2.377   1.340  0.3272 -0.1848 -0.1555
 3618SOL    HW122490   0.931   2.467   1.333  2.5365  0.5143 -0.6042
 3618SOL    HW222491   1.050   2.391   1.308  0.5290 -1.8396 -0.3493
 3619SOL     OW22492   0.669   0.264   4.180 -0.7130 -0.6147 -0.0149
 3619SOL    HW122493   0.651   0.238   4.089 -0.2491 -2.8727  0.5309
 3619SOL    HW222494   0.750   0.216   4.197  0.2994  0.1203 -2.6013
 3620SOL     OW22495   1.958   3.456   6.478 -0.3319 -0.1944  0.5231
 3620SOL    HW122496   2.010   3.525   6.519  0.8760 -0.3122 -0.8199
 3620SOL    HW222497   2.014   3.427   6.406 -0.5514  1.6836 -0.3763
 3621SOL     OW22498   1.134   0.383   2.230  0.0587 -0.0064 -0.1901
 3621SOL    HW122499   1.147   0.327   2.307  1.6507  0.0461 -0.4143
 3621SOL    HW222500   1.046   0.356   2.204 -0.5487  0.7318  1.1436
 3622SOL     OW22501   4.085   1.928   3.402  0.2056 -0.0838 -0.0222
 3622SOL    HW122502   4.069   1.965   3.315  1.0146 -1.9405 -0.9466
 3622SOL    HW222503   4.047   1.997   3.456  0.9387  2.2985 -2.5623
 3623SOL     OW22504   4.306   1.720   9.742 -1.0763 -0.3285 -0.0001
 3623SOL    HW122505   4.313   1.734   9.647  0.1288  2.9828  0.5865
 3623SOL    HW222506   4.357   1.639   9.742 -1.9681 -0.8893 -1.4965
 3624SOL     OW22507   1.910   4.096  11.024 -0.1814  0.0341  0.0958
 3624SOL    HW122508   1.899   4.123  11.115  0.2308 -0.8124  0.4002
 3624SOL    HW222509   1.913   4.002  11.039  3.0513  0.2443  0.8104
 3625SOL     OW22510   4.541   3.440   6.832 -0.6196 -0.3330 -0.6435
 3625SOL    HW122511   4.472   3.434   6.767  0.7034 -0.7289 -2.0073
 3625SOL    HW222512   4.621   3.462   6.784 -0.8861 -0.6109 -1.2116
 3626SOL     OW22513   3.033   2.763   2.105 -0.5617 -0.1103  0.6461
 3626SOL    HW122514   3.019   2.819   2.182  0.4050 -0.0680  0.7892
 3626SOL    HW222515   2.969   2.817   2.058  2.0809  2.0055 -0.5115
 3627SOL     OW22516   3.395   0.167   5.324 -0.0963  0.3104 -0.3640
 3627SOL    HW122517   3.419   0.125   5.242  2.1435 -0.4939  0.6912
 3627SOL    HW222518   3.419   0.259   5.320  0.4031  0.1857 -0.2629
 3628SOL     OW22519   0.915   0.719   8.318  0.3369  0.6077  0.0338
 3628SOL    HW122520   0.883   0.809   8.325  0.5267  0.6857 -0.1102
 3628SOL    HW222521   0.835   0.669   8.334 -0.0047  0.6391 -1.6198
 3629SOL     OW22522   4.451   1.768  13.587 -0.1406 -0.2322 -0.3159
 3629SOL    HW122523   4.532   1.818  13.573  0.3621 -1.2623 -1.0721
 3629SOL    HW222524   4.431   1.799  13.675 -1.2699  0.3329 -0.7730
 3630SOL     OW22525   1.520   4.335   8.956  0.0956 -0.1816  0.0632
 3630SOL    HW122526   1.589   4.346   9.022 -2.0083  0.5081  2.1646
 3630SOL    HW222527   1.451   4.357   9.019 -0.0152  0.3778 -0.2540
 3631SOL     OW22528   4.549   0.026   8.311 -0.4439 -0.5236 -0.4881
 3631SOL    HW122529   4.466   0.069   8.291  0.3156  1.6710  1.0301
 3631SOL    HW222530   4.562   4.729   8.222 -0.9802 -1.7701 -0.1053
 3632SOL     OW22531   2.892   1.577  16.486 -0.3978  0.2285 -0.2998
 3632SOL    HW122532   2.931   1.664  16.497 -0.3284  0.0382  0.9363
 3632SOL    HW222533   2.939   1.541  16.411  0.7697  1.3879 -0.1226
 3633SOL     OW22534   2.498   1.217   5.120 -0.4630  0.3762  0.2614
 3633SOL    HW122535   2.494   1.304   5.082  1.8964 -0.5385 -2.0185
 3633SOL    HW222536   2.410   1.181   5.105  1.3577 -3.5580 -0.9868
 3634SOL     OW22537   0.242   3.053   1.879 -0.0953  0.2767  0.0742
 3634SOL    HW122538   0.293   3.112   1.934  1.6567 -1.0292 -0.1847
 3634SOL    HW222539   0.162   3.106   1.874 -0.3845 -0.3994 -2.4176
 3635SOL     OW22540   1.527   2.062   4.754  0.5285  0.3164 -0.0953
 3635SOL    HW122541   1.511   2.156   4.746  0.7619  0.5656  2.4734
 3635SOL    HW222542   1.577   2.068   4.835  0.3107  0.4943  0.0277
 3636SOL     OW22543   3.250   4.572   1.429  0.0493 -0.3787 -0.1495
 3636SOL    HW122544   3.294   4.540   1.508  1.3083  1.9064  0.0595
 3636SOL    HW222545   3.284   4.515   1.361  1.4947 -0.6438  0.8029
 3637SOL     OW22546   2.695   4.556   6.732 -0.2871  0.2888 -0.2040
 3637SOL    HW122547   2.646   4.529   6.654 -1.9488 -3.3324  2.0635
 3637SOL    HW222548   2.706   4.474   6.780 -2.5611  0.8958  1.3572
 3638SOL     OW22549   3.573   2.060  11.402 -0.1958  0.1268 -0.0869
 3638SOL    HW122550   3.508   2.099  11.343  0.0577  0.6790 -0.0065
 3638SOL    HW222551   3.529   2.001  11.463 -0.7145 -0.4139 -0.9731
 3639SOL     OW22552   2.031   3.986   1.749  0.0764 -0.2651  0.4811
 3639SOL    HW122553   1.952   4.028   1.783  0.9425 -0.6728  2.9749
 3639SOL    HW222554   2.100   4.052   1.752 -1.7062  1.5245  1.8616
 3640SOL     OW22555   0.618   2.808   4.665  0.5160 -0.0602  0.1836
 3640SOL    HW122556   0.627   2.761   4.582 -0.5718 -1.0724  0.6426
 3640SOL    HW222557   0.523   2.819   4.672  0.6108  0.0891  1.1482
 3641SOL     OW22558   1.793   1.392   9.912 -0.6941 -0.1354 -0.4381
 3641SOL    HW122559   1.779   1.486   9.908 -1.1530 -0.1856  0.0941
 3641SOL    HW222560   1.870   1.382   9.968 -0.9806 -0.9325 -0.1801
 3642SOL     OW22561   1.066   4.045   4.036 -0.0316 -0.4196  0.1716
 3642SOL    HW122562   1.041   3.965   3.989 -0.6091 -0.9700  1.4278
 3642SOL    HW222563   1.115   3.997   4.103  1.3271 -1.9704 -1.9355
 3643SOL     OW22564   3.024   1.346  10.908 -0.7047 -0.1158 -0.8498
 3643SOL    HW122565   2.947   1.307  10.950  0.6679 -0.3599  1.4171
 3643SOL    HW222566   3.020   1.439  10.932  0.4375 -0.9330  2.5720
 3644SOL     OW22567   1.045   2.159   6.825 -0.1838  0.0584  0.2076
 3644SOL    HW122568   0.987   2.134   6.898  0.8033 -1.4629  0.4772
 3644SOL    HW222569   1.056   2.075   6.780  2.4233  1.1339 -1.1420
 3645SOL     OW22570   3.853   2.226  11.186 -0.4119 -0.5132  0.1573
 3645SOL    HW122571   3.930   2.176  11.214 -0.9572 -2.4330 -1.7777
 3645SOL    HW222572   3.801   2.224  11.267 -1.0328 -1.5419 -0.2661
 3646SOL     OW22573   0.711   0.104   6.968  0.3507 -0.4744  0.1631
 3646SOL    HW122574   0.629   0.133   6.927  0.7073 -0.2013 -0.3501
 3646SOL    HW222575   0.736   0.169   7.033 -0.4077 -1.7628  1.7554
 3647SOL     OW22576   0.834   2.815   5.754 -0.2075 -0.2448 -0.1403
 3647SOL    HW122577   0.834   2.788   5.662 -2.6768  0.3872 -0.3259
 3647SOL    HW222578   0.857   2.908   5.746 -0.2959 -0.0320  2.2499
 3648SOL     OW22579   2.318   0.923   6.985 -0.1783 -0.2470  0.3318
 3648SOL    HW122580   2.310   0.959   6.897  0.9866 -0.3356  0.1959
 3648SOL    HW222581   2.273   0.839   6.974 -0.2164 -0.2510  0.5250
 3649SOL     OW22582   3.307   4.050   1.376 -0.1742  0.0110  0.3121
 3649SOL    HW122583   3.370   4.107   1.331  0.0627 -0.1154  0.4794
 3649SOL    HW222584   3.229   4.104   1.376 -0.7655 -0.8280 -0.9839
 3650SOL     OW22585   4.189   0.671   5.885 -0.4515  0.3683  0.2499
 3650SOL    HW122586   4.285   0.675   5.889 -0.3657 -0.0305 -1.7575
 3650SOL    HW222587   4.161   0.580   5.895  2.9675 -0.6585  0.6959
 3651SOL     OW22588   3.918   4.173  12.133  0.1377 -0.1695  0.1282
 3651SOL    HW122589   3.926   4.169  12.038  0.0651  0.3607  0.1000
 3651SOL    HW222590   3.937   4.265  12.152  0.0665 -0.2117  0.4088
 3652SOL     OW22591   0.521   1.568  12.276  0.0157  0.0298 -0.2611
 3652SOL    HW122592   0.461   1.590  12.348  1.8324 -1.2883  1.6616
 3652SOL    HW222593   0.597   1.529  12.318 -1.0377 -2.1943 -0.4263
 3653SOL     OW22594   1.109   1.103   7.497 -0.0628 -0.0324 -0.1296
 3653SOL    HW122595   1.058   1.175   7.536  0.9644 -0.4899  2.0114
 3653SOL    HW222596   1.191   1.148   7.477 -0.9670  1.2761 -0.9694
 3654SOL     OW22597   3.906   2.790  14.323 -0.1433  0.2929 -0.2768
 3654SOL    HW122598   3.925   2.862  14.383  0.8763  0.3196 -0.6308
 3654SOL    HW222599   3.867   2.831  14.246  0.4324  3.0087  0.8765
 3655SOL     OW22600   3.119   3.423  16.014  0.2007 -0.2263 -0.4422
 3655SOL    HW122601   3.194   3.468  15.976  1.1722 -1.9052 -0.5530
 3655SOL    HW222602   3.172   3.373  16.077 -0.5585 -0.0385  0.3417
 3656SOL     OW22603   4.334   2.497   2.512  0.0366  0.3694 -0.7162
 3656SOL    HW122604   4.313   2.410   2.547 -0.9693  1.3767  1.1933
 3656SOL    HW222605   4.418   2.488   2.466  0.9692  2.4544  0.5837
 3657SOL     OW22606   0.099   1.005   7.674 -0.2609 -0.2147  0.0888
 3657SOL    HW122607   0.135   0.916   7.670 -0.3356 -0.2539  0.2983
 3657SOL    HW222608   0.094   1.030   7.582 -1.6295 -0.6668  0.0284
 3658SOL     OW22609   4.066   3.329   6.904 -0.0394  0.4013 -0.2880
 3658SOL    HW122610   3.987   3.304   6.857 -0.4556 -0.7445  1.0218
 3658SOL    HW222611   4.056   3.274   6.982  0.0559 -1.2350 -1.4322
 3659SOL     OW22612   3.619   1.686   8.820 -0.4279 -0.2529 -0.4167
 3659SOL    HW122613   3.638   1.624   8.750 -0.4672 -1.4548  0.6306
 3659SOL    HW222614   3.607   1.766   8.769 -1.3386  1.1587  1.9566
 3660SOL     OW22615   4.385   3.165   6.864 -0.2819  0.2964 -0.1614
 3660SOL    HW122616   4.341   3.202   6.787  0.7850  2.1287  0.1075
 3660SOL    HW222617   4.426   3.239   6.908 -0.1291 -2.0048  3.5529
 3661SOL     OW22618   3.447   3.271  13.164 -0.6135  0.0311  0.6614
 3661SOL    HW122619   3.386   3.326  13.213  0.5237 -0.3180  2.4237
 3661SOL    HW222620   3.412   3.284  13.075 -0.2008  0.4407  0.5581
 3662SOL     OW22621   0.889   0.568   9.087 -0.3277  0.2099 -0.3624
 3662SOL    HW122622   0.930   0.634   9.144 -0.0605 -2.4258  2.5019
 3662SOL    HW222623   0.964   0.510   9.072 -1.7737 -1.8026  0.3490
 3663SOL     OW22624   0.168   1.637   9.066 -0.1726  0.1123  0.1842
 3663SOL    HW122625   0.179   1.563   9.005  1.7582  0.2391  0.3589
 3663SOL    HW222626   0.099   1.607   9.124 -1.1125  0.4904 -0.7486
 3664SOL     OW22627   2.896   1.858   5.932  0.3882 -0.3797  0.0326
 3664SOL    HW122628   2.909   1.770   5.965  1.1747  0.0670  0.9151
 3664SOL    HW222629   2.968   1.867   5.869  2.2429  1.7360  2.4647
 3665SOL     OW22630   4.676   2.005  11.496  0.0531 -0.1272  0.2945
 3665SOL    HW122631   4.709   2.089  11.527  0.4407  0.1819 -0.9546
 3665SOL    HW222632   4.600   2.036  11.448 -0.5474 -0.7623  0.8132
 3666SOL     OW22633   3.540   2.627   0.511 -0.0482  0.0244 -0.5218
 3666SOL    HW122634   3.627   2.590   0.494  0.1347 -0.5675  1.6892
 3666SOL    HW222635   3.567   2.716   0.490  0.2530  0.6430  2.4245
 3667SOL     OW22636   4.461   0.956  12.016 -0.3322 -0.1702 -0.0941
 3667SOL    HW122637   4.483   1.041  12.054  1.5172 -0.9436  0.5652
 3667SOL    HW222638   4.548   0.917  12.003 -0.4528 -0.6766  0.6728
 3668SOL     OW22639   2.319   2.030   5.149  0.4419  0.0265  0.2214
 3668SOL    HW122640   2.305   2.110   5.200  0.1234  0.2533 -0.2224
 3668SOL    HW222641   2.235   1.985   5.156  0.7448 -0.5500  0.1663
 3669SOL     OW22642   0.626   4.044   7.516 -0.2716  0.1017 -0.5982
 3669SOL    HW122643   0.638   4.050   7.422 -0.0933 -2.1415 -0.7371
 3669SOL    HW222644   0.671   4.124   7.543 -3.0315  1.8398 -1.1814
 3670SOL     OW22645   3.202   2.608   6.860 -0.6469  0.2017  0.0914
 3670SOL    HW122646   3.216   2.540   6.925  0.8678 -1.5188 -2.0087
 3670SOL    HW222647   3.162   2.557   6.790  0.0826 -0.0307 -0.1586
 3671SOL     OW22648   2.177   4.554   3.747 -0.1827  0.3213  0.9900
 3671SOL    HW122649   2.137   4.471   3.720 -1.1446  0.8242  0.8751
 3671SOL    HW222650   2.244   4.562   3.680  0.1338 -3.1382  0.8827
 3672SOL     OW22651   0.964   3.117   9.903  0.2962  0.0919 -0.9117
 3672SOL    HW122652   0.930   3.195   9.947  0.8842 -0.4511  0.5051
 3672SOL    HW222653   0.886   3.096   9.851  0.9902  2.3094 -2.8079
 3673SOL     OW22654   1.209   0.010   1.465  0.4508 -0.1534  0.3383
 3673SOL    HW122655   1.187   0.085   1.520 -0.4085  1.9546 -2.8726
 3673SOL    HW222656   1.304   0.015   1.467  0.6248 -2.9046 -1.6184
 3674SOL     OW22657   0.032   3.580   2.548  0.2267  0.0337 -0.2157
 3674SOL    HW122658   0.044   3.652   2.485  2.4871 -1.0308 -0.9896
 3674SOL    HW222659   4.675   3.559   2.541 -0.0757  1.6555 -1.0821
 3675SOL     OW22660   2.411   2.715   1.936  0.4032  0.0765 -0.3260
 3675SOL    HW122661   2.318   2.715   1.914  0.0500 -1.8493  1.2442
 3675SOL    HW222662   2.425   2.620   1.936 -2.3274 -0.3094 -0.2891
 3676SOL     OW22663   0.576   4.312   5.012  0.3237  0.2983 -0.0630
 3676SOL    HW122664   0.579   4.388   4.953 -0.9397  0.3904 -0.0075
 3676SOL    HW222665   0.591   4.360   5.094 -1.4663  0.3748  0.2222
 3677SOL     OW22666   1.753   4.351   8.787  0.3878 -0.0903  0.1132
 3677SOL    HW122667   1.674   4.361   8.839  0.7589 -0.2922  0.7216
 3677SOL    HW222668   1.744   4.259   8.762 -0.4125  0.4708 -1.6944
 3678SOL     OW22669   1.741   1.060   3.065  0.0292  0.3430  0.2340
 3678SOL    HW122670   1.808   0.993   3.046 -0.7838 -0.4313  0.0889
 3678SOL    HW222671   1.702   1.010   3.137 -0.8316 -0.9158 -1.0849
 3679SOL     OW22672   3.555   1.549   2.776 -0.1633  0.2800 -0.0002
 3679SOL    HW122673   3.598   1.483   2.722 -0.8617  0.6664 -1.0364
 3679SOL    HW222674   3.476   1.502   2.803  0.0897  0.9733  1.9292
 3680SOL     OW22675   1.082   4.590  16.966 -0.0160 -0.4396  0.6521
 3680SOL    HW122676   1.020   4.601  16.894 -0.3601 -0.7441  0.8986
 3680SOL    HW222677   1.097   4.495  16.965  1.2276 -0.2178 -1.0307
 3681SOL     OW22678   4.673   3.545  11.696 -0.1818 -0.3677  0.2042
 3681SOL    HW122679   4.665   3.582  11.608 -0.7763  1.5398  1.0688
 3681SOL    HW222680   4.676   3.452  11.670 -1.0554 -0.1498 -0.7078
 3682SOL     OW22681   3.330   3.669   5.911  0.1523 -0.3151  0.3798
 3682SOL    HW122682   3.271   3.596   5.930  1.2377 -0.5215  3.0519
 3682SOL    HW222683   3.412   3.623   5.896  0.0861 -0.3685  0.1845
 3683SOL     OW22684   1.462   3.240  17.103 -0.1917  0.3170 -0.3512
 3683SOL    HW122685   1.464   3.277  17.191 -2.5662 -3.8239  1.4570
 3683SOL    HW222686   1.368   3.229  17.085 -0.1522 -0.4196 -0.1214
 3684SOL     OW22687   0.172   1.669   6.222  0.1227 -0.3064  0.3548
 3684SOL    HW122688   0.265   1.644   6.220  0.9004  2.6533 -0.8199
 3684SOL    HW222689   0.159   1.707   6.308 -2.1599  0.8307 -0.4856
 3685SOL     OW22690   4.573   0.099   8.821  0.8785  0.0225  0.3487
 3685SOL    HW122691   4.503   0.132   8.876  2.1190  1.5436  0.9898
 3685SOL    HW222692   4.656   0.118   8.864  1.2978 -2.6665  0.7239
 3686SOL     OW22693   4.542   4.321  13.058  0.0186  0.6878  0.1383
 3686SOL    HW122694   4.499   4.237  13.038  1.3535  0.1866 -0.6452
 3686SOL    HW222695   4.572   4.296  13.145 -4.0766  0.5490  1.5285
 3687SOL     OW22696   3.091   3.241  11.057  0.2759  0.2635  0.1823
 3687SOL    HW122697   3.067   3.165  11.110  1.2776 -0.7821 -0.8790
 3687SOL    HW222698   3.172   3.204  11.024 -0.6393 -0.3026 -1.4496
 3688SOL     OW22699   4.218   3.690   9.333  0.3635 -0.4271  0.1991
 3688SOL    HW122700   4.155   3.710   9.402  0.3396  3.6141 -0.9615
 3688SOL    HW222701   4.164   3.690   9.254  0.9495 -1.5966 -0.1899
 3689SOL     OW22702   1.114   1.194  12.652  0.7242  0.4239  0.0515
 3689SOL    HW122703   1.089   1.271  12.601  1.5725  1.9609  1.9545
 3689SOL    HW222704   1.032   1.170  12.695  0.4133 -3.8432 -2.9104
 3690SOL     OW22705   0.931   4.397  16.515 -0.5552  0.3180  0.4484
 3690SOL    HW122706   0.976   4.480  16.499 -1.8799  0.7187 -1.1021
 3690SOL    HW222707   0.841   4.422  16.497 -1.0043 -0.8165  1.1099
 3691SOL     OW22708   4.008   2.404  15.942  0.1256 -0.1444 -0.5391
 3691SOL    HW122709   4.010   2.467  15.870  2.0457  0.8058  0.3371
 3691SOL    HW222710   4.099   2.409  15.971  0.0637  0.0173 -0.3736
 3692SOL     OW22711   4.689   0.502   3.793 -0.1763 -0.4866 -0.3021
 3692SOL    HW122712   4.677   0.564   3.865  0.7026  0.5990 -1.0973
 3692SOL    HW222713   0.032   0.449   3.808  1.0518  1.0813 -1.2281
 3693SOL     OW22714   3.036   0.174   2.943  0.0958 -0.6634  0.3909
 3693SOL    HW122715   3.115   0.121   2.953 -0.8039 -1.8899  0.9297
 3693SOL    HW222716   2.994   0.160   3.028  1.4901 -0.6429  1.0803
 3694SOL     OW22717   4.388   4.245   6.200 -0.7238 -0.3159  0.6506
 3694SOL    HW122718   4.414   4.307   6.268 -0.3736  1.6105 -1.2512
 3694SOL    HW222719   4.467   4.192   6.186  0.3416  1.6060 -0.5193
 3695SOL     OW22720   4.379   3.969   7.316  0.4947 -0.0754 -0.0044
 3695SOL    HW122721   4.378   3.897   7.379  1.2807  0.5534  0.7189
 3695SOL    HW222722   4.431   3.923   7.250  3.3015  1.1218  1.4087
 3696SOL     OW22723   1.210   2.970   9.078 -0.6616  0.0360  0.0597
 3696SOL    HW122724   1.269   2.910   9.123 -0.2372  0.1602 -0.3284
 3696SOL    HW222725   1.121   2.941   9.100 -1.3243  1.1228 -1.1317
 3697SOL     OW22726   4.174   4.527  12.727  0.4614 -1.1149 -0.0261
 3697SOL    HW122727   4.225   4.469  12.670 -3.8968 -5.1677  0.1856
 3697SOL    HW222728   4.110   4.466  12.762  0.7612 -0.0474  2.3248
 3698SOL     OW22729   4.339   1.932   4.841  0.2639 -0.0485  0.5591
 3698SOL    HW122730   4.406   1.997   4.822  0.5221 -0.3454  0.4543
 3698SOL    HW222731   4.380   1.870   4.902 -0.8344 -0.0089  1.3435
 3699SOL     OW22732   4.108   2.385   6.003  0.1138  0.0126  0.2228
 3699SOL    HW122733   4.188   2.432   6.027  0.3485 -0.8926  1.1888
 3699SOL    HW222734   4.154   2.301   6.002  0.9589  0.4497  2.2220
 3700SOL     OW22735   4.048   4.189   6.905 -0.1794  0.1244  0.2632
 3700SOL    HW122736   4.113   4.119   6.907  2.8124  3.0153  3.2508
 3700SOL    HW222737   4.047   4.212   6.812 -1.6593  0.4171  0.3444
 3701SOL     OW22738   1.864   3.951  15.393  0.8600 -0.3178  0.0375
 3701SOL    HW122739   1.823   3.947  15.479  1.7016  0.4360  0.4809
 3701SOL    HW222740   1.895   4.042  15.395 -0.3520  0.1389 -1.5118
 3702SOL     OW22741   2.838   2.317   1.553 -0.2748 -0.1717 -0.1279
 3702SOL    HW122742   2.781   2.267   1.610 -2.3132 -2.2491 -3.9834
 3702SOL    HW222743   2.917   2.263   1.557 -1.2168 -1.7263 -2.4480
 3703SOL     OW22744   1.902   2.777   7.562 -0.0393 -0.0899 -0.6171
 3703SOL    HW122745   1.944   2.726   7.631 -1.1264 -1.4881 -0.9823
 3703SOL    HW222746   1.935   2.864   7.584 -0.3182 -0.6938  2.1579
 3704SOL     OW22747   2.801   0.963  11.112  0.2014 -0.2015  0.4866
 3704SOL    HW122748   2.783   0.875  11.079  1.5687 -0.0114 -0.7494
 3704SOL    HW222749   2.896   0.972  11.123  0.5520  0.2959 -2.9949
 3705SOL     OW22750   1.367   3.364   6.109  0.4749 -0.2162 -0.0021
 3705SOL    HW122751   1.288   3.318   6.137 -0.2736  0.3064 -1.2583
 3705SOL    HW222752   1.373   3.348   6.014  0.9016  1.1382 -0.1973
 3706SOL     OW22753   1.941   1.347   1.677  0.5513  0.1037 -0.1466
 3706SOL    HW122754   1.867   1.361   1.736  1.5938 -0.2377  1.2485
 3706SOL    HW222755   2.014   1.368   1.734  1.3915  0.6761 -1.4369
 3707SOL     OW22756   4.353   0.272  16.566  0.0706 -0.7908 -0.1007
 3707SOL    HW122757   4.338   0.236  16.479 -0.9540 -0.7489  0.0576
 3707SOL    HW222758   4.442   0.302  16.548 -0.7089  1.9935  0.7384
 3708SOL     OW22759   0.134   2.904  11.907 -0.3468  0.3209 -0.0385
 3708SOL    HW122760   0.138   2.877  11.999 -0.3337  0.4808  0.0082
 3708SOL    HW222761   0.051   2.951  11.910 -0.7530 -0.3690 -0.3877
 3709SOL     OW22762   3.421   0.957   7.234 -0.3926  0.4163  0.4665
 3709SOL    HW122763   3.516   0.962   7.249  0.1459 -0.7354 -2.5251
 3709SOL    HW222764   3.395   1.044   7.263 -1.5029  1.0582 -2.5379
 3710SOL     OW22765   3.923   3.637   6.205 -0.1491  0.1874 -0.5214
 3710SOL    HW122766   3.983   3.691   6.257  0.6069 -0.2583 -0.9303
 3710SOL    HW222767   3.922   3.697   6.130  0.9947 -0.8939 -1.4108
 3711SOL     OW22768   3.153   2.417  16.544  0.2909 -0.7309 -0.1162
 3711SOL    HW122769   3.084   2.358  16.576 -0.3065  0.9589  1.6765
 3711SOL    HW222770   3.204   2.350  16.498 -0.7193  1.0884 -3.9066
 3712SOL     OW22771   3.317   3.128  15.388 -0.4112 -0.1323 -0.0081
 3712SOL    HW122772   3.239   3.105  15.439 -0.5905  0.0081 -0.2192
 3712SOL    HW222773   3.384   3.068  15.421 -0.1197 -1.8543 -3.6245
 3713SOL     OW22774   3.869   2.074   6.102  0.7952  0.8167 -0.2223
 3713SOL    HW122775   3.810   2.079   6.028 -2.4073  0.8030  2.3325
 3713SOL    HW222776   3.944   2.122   6.067  0.4597  0.4403 -1.4273
 3714SOL     OW22777   3.760   4.257   8.109 -0.5352  0.4773 -0.9037
 3714SOL    HW122778   3.786   4.165   8.116  0.5575  0.8801  0.3712
 3714SOL    HW222779   3.754   4.267   8.014 -1.9551  0.6410 -0.8115
 3715SOL     OW22780   1.349   4.271  13.945 -0.4645  0.2767  0.3550
 3715SOL    HW122781   1.318   4.347  13.994  0.2625  1.4564 -1.0169
 3715SOL    HW222782   1.404   4.230  14.012  0.0377 -2.0769 -1.4699
 3716SOL     OW22783   1.125   1.331   9.181  0.1607 -0.1489  0.7104
 3716SOL    HW122784   1.038   1.371   9.185 -0.0630 -0.4249 -1.1870
 3716SOL    HW222785   1.148   1.312   9.271  1.2100  2.2442  0.9417
 3717SOL     OW22786   1.563   3.811   6.474  0.0947 -0.2055  0.2545
 3717SOL    HW122787   1.609   3.728   6.488 -1.3696 -0.6257  2.6605
 3717SOL    HW222788   1.637   3.852   6.429 -0.4181 -0.5782 -0.9238
 3718SOL     OW22789   2.365   4.370  11.089  0.1582  0.3166 -0.1410
 3718SOL    HW122790   2.304   4.438  11.118 -0.3729 -0.7109  1.1018
 3718SOL    HW222791   2.324   4.337  11.010  1.1773 -0.8028 -0.2073
 3719SOL     OW22792   3.249   2.927   8.974  0.1583  0.5725 -0.5937
 3719SOL    HW122793   3.252   2.911   9.069  0.2510 -3.0952 -1.1852
 3719SOL    HW222794   3.217   2.846   8.933 -1.1416  1.4682 -1.3221
 3720SOL     OW22795   4.020   4.141  11.862  0.1393 -0.6405 -0.5480
 3720SOL    HW122796   3.967   4.079  11.811 -1.2339  0.1429 -0.0821
 3720SOL    HW222797   4.056   4.200  11.796 -1.0961  1.8628  1.0004
 3721SOL     OW22798   2.978   1.020   3.663  0.0943  0.4944  0.2611
 3721SOL    HW122799   3.071   0.999   3.672  0.4852  0.4072 -3.8580
 3721SOL    HW222800   2.987   1.092   3.600  2.8791  1.9334  2.3243
 3722SOL     OW22801   1.912   2.626   3.691 -0.0611  0.5835  0.1248
 3722SOL    HW122802   1.979   2.679   3.648  2.6904 -2.1021  1.0890
 3722SOL    HW222803   1.964   2.547   3.709 -1.3627 -0.8626 -2.3412
 3723SOL     OW22804   0.413   3.986   2.300 -0.4529  0.9589 -0.7729
 3723SOL    HW122805   0.321   3.979   2.274 -1.4469  2.0004  2.5237
 3723SOL    HW222806   0.444   3.898   2.279  0.1147  1.9293 -4.0101
 3724SOL     OW22807   4.533   0.714   6.372 -0.1484 -0.1591 -0.0753
 3724SOL    HW122808   4.529   0.623   6.343 -0.7407 -0.0566 -0.3029
 3724SOL    HW222809   4.627   0.732   6.378  0.1096 -1.6698  0.4292
 3725SOL     OW22810   0.190   2.951   6.156 -0.0197 -0.1912 -0.1558
 3725SOL    HW122811   0.276   2.917   6.133  0.6175 -0.0944  2.0816
 3725SOL    HW222812   0.163   2.998   6.077 -0.7839 -0.5996 -0.1403
 3726SOL     OW22813   1.341   4.130   8.414 -0.5320 -0.2632 -0.1615
 3726SOL    HW122814   1.389   4.207   8.383  0.0111 -0.2446  0.7293
 3726SOL    HW222815   1.251   4.161   8.405 -0.1449  0.4778 -1.6699
 3727SOL     OW22816   2.764   3.342   9.555  0.2301  0.0981 -0.2288
 3727SOL    HW122817   2.719   3.426   9.562  2.7382  1.4729 -0.4707
 3727SOL    HW222818   2.827   3.352   9.627 -2.2630  0.3319  1.9052
 3728SOL     OW22819   4.462   0.441   5.113  0.1499 -0.4141  0.2380
 3728SOL    HW122820   4.547   0.398   5.108 -0.1309 -1.0983  1.3501
 3728SOL    HW222821   4.412   0.372   5.157 -2.0099  1.6213  0.9942
 3729SOL     OW22822   1.939   4.258  12.523 -0.3906  0.6331  0.1574
 3729SOL    HW122823   1.971   4.307  12.599 -1.7154  1.0576  0.4474
 3729SOL    HW222824   2.014   4.204  12.499 -1.7584 -0.2673 -2.0905
 3730SOL     OW22825   0.927   2.224   7.170  0.4317 -0.7164 -0.0200
 3730SOL    HW122826   0.885   2.182   7.094  0.0970 -2.6294  1.2207
 3730SOL    HW222827   0.897   2.311   7.145  1.9334 -0.3075 -0.4130
 3731SOL     OW22828   0.263   3.844  15.964  0.2514  0.1008 -0.3508
 3731SOL    HW122829   0.169   3.860  15.969  0.4029  0.2224  1.9007
 3731SOL    HW222830   0.290   3.927  16.004 -1.0159  0.9255 -1.2149
 3732SOL     OW22831   0.647   4.351   9.174  0.4183  0.4638 -0.1504
 3732SOL    HW122832   0.576   4.384   9.230  0.9734 -0.9475  1.3919
 3732SOL    HW222833   0.713   4.416   9.200 -1.1793  1.7983  0.6154
 3733SOL     OW22834   4.029   3.761   2.117  0.5018 -0.7222 -0.3020
 3733SOL    HW122835   4.052   3.713   2.196 -0.0636 -1.7924 -0.7881
 3733SOL    HW222836   4.103   3.822   2.109 -0.1653  0.0252 -0.7589
 3734SOL     OW22837   1.393   2.189   5.015  0.5917 -0.1488  0.2589
 3734SOL    HW122838   1.299   2.173   5.003  0.6073 -0.9312  1.2119
 3734SOL    HW222839   1.391   2.276   5.055 -2.7500 -0.0159 -0.1742
 3735SOL     OW22840   1.065   2.684   8.323 -1.0196 -0.2875 -0.2574
 3735SOL    HW122841   0.991   2.623   8.320 -1.5610  0.3081  1.0085
 3735SOL    HW222842   1.084   2.679   8.416  0.7834  0.0004 -0.6051
 3736SOL     OW22843   0.261   0.763   3.928  0.1840 -0.3783 -0.5234
 3736SOL    HW122844   0.319   0.836   3.946 -0.9497  0.6063 -0.8821
 3736SOL    HW222845   0.244   0.720   4.012  0.5807  0.2670 -0.1168
 3737SOL     OW22846   3.476   1.652   7.056  0.0926  0.3314 -0.2504
 3737SOL    HW122847   3.380   1.654   7.048 -0.0048 -1.3635  0.3995
 3737SOL    HW222848   3.489   1.561   7.085  0.9305  1.3445  2.6196
 3738SOL     OW22849   3.499   3.345  15.407  0.1973 -0.2989  0.6994
 3738SOL    HW122850   3.439   3.283  15.364 -0.6281  0.8850  0.1523
 3738SOL    HW222851   3.583   3.331  15.364  0.1351 -1.1458  0.8432
 3739SOL     OW22852   3.367   2.246   8.279 -0.2923  0.1637  0.6093
 3739SOL    HW122853   3.400   2.323   8.233 -1.6246  1.3282  1.6251
 3739SOL    HW222854   3.325   2.206   8.203 -0.2763 -0.8696  1.1438
 3740SOL     OW22855   3.809   2.795   8.127  0.2231  0.2158 -0.4630
 3740SOL    HW122856   3.722   2.828   8.149  1.5933  2.8107  1.0856
 3740SOL    HW222857   3.788   2.706   8.099  2.1443 -0.0666 -0.9891
 3741SOL     OW22858   1.625   0.544   2.619  0.4347 -0.3747 -0.1769
 3741SOL    HW122859   1.643   0.528   2.712 -0.9009 -0.8136  0.0016
 3741SOL    HW222860   1.562   0.473   2.604  0.0185  0.6845 -3.4628
 3742SOL     OW22861   3.494   3.663   7.930 -0.0485 -0.0696  0.0090
 3742SOL    HW122862   3.558   3.698   7.868  1.5608 -1.9442  0.5919
 3742SOL    HW222863   3.484   3.739   7.988  0.6905 -1.4876  2.0238
 3743SOL     OW22864   0.929   2.054   5.012 -0.3397  0.0617 -0.0827
 3743SOL    HW122865   0.869   2.106   4.959 -1.0116  0.2015  0.8201
 3743SOL    HW222866   0.868   1.997   5.059  0.7127 -0.8635  0.1527
 3744SOL     OW22867   3.322   0.309  11.803  0.2443  0.0878  0.0256
 3744SOL    HW122868   3.384   0.329  11.733 -1.2476  0.7321 -1.1121
 3744SOL    HW222869   3.379   0.283  11.875 -0.7149  0.1996  0.8310
 3745SOL     OW22870   0.739   1.210   6.781  0.4386  0.2438 -0.0578
 3745SOL    HW122871   0.804   1.279   6.796  0.0893  0.2855  1.3428
 3745SOL    HW222872   0.791   1.130   6.780  0.3152  0.1664 -0.1639
 3746SOL     OW22873   3.387   1.376  17.428  0.8381 -0.5876  0.2303
 3746SOL    HW122874   3.383   1.324  17.508 -1.6604 -1.1630 -0.2443
 3746SOL    HW222875   3.427   1.453  17.468  1.7991 -0.7837 -0.3547
 3747SOL     OW22876   1.546   3.108   3.738  0.1766 -0.3404 -0.0903
 3747SOL    HW122877   1.564   3.046   3.808  1.1209  0.1495  0.0991
 3747SOL    HW222878   1.472   3.062   3.698  0.2650  0.0520 -0.7162
 3748SOL     OW22879   0.562   0.370   2.113  0.1111 -0.3118 -0.6589
 3748SOL    HW122880   0.582   0.379   2.020  2.6152 -2.2497 -0.3167
 3748SOL    HW222881   0.588   0.281   2.137  0.7961 -0.1712 -0.8901
 3749SOL     OW22882   2.603   1.690   7.315  0.7189 -0.1630 -0.5741
 3749SOL    HW122883   2.671   1.662   7.376  0.1419 -2.1396 -0.8596
 3749SOL    HW222884   2.525   1.683   7.371  0.0766  0.4803 -1.3879
 3750SOL     OW22885   1.816   4.128   4.446  0.4244  0.1710 -0.5747
 3750SOL    HW122886   1.823   4.222   4.465 -1.2009 -0.1685  1.7053
 3750SOL    HW222887   1.723   4.134   4.426  0.0632  3.1752  2.0024
 3751SOL     OW22888   1.174   2.776   4.811 -0.2652 -0.0825 -0.0143
 3751SOL    HW122889   1.236   2.727   4.757 -1.5521 -1.0302 -0.6087
 3751SOL    HW222890   1.219   2.860   4.824 -0.5252 -0.5278  3.5998
 3752SOL     OW22891   3.523   1.087   0.523  0.2038  0.2316  0.0593
 3752SOL    HW122892   3.469   1.085   0.602  1.3571  0.1666  0.8531
 3752SOL    HW222893   3.487   1.162   0.475  0.1734  1.5595  2.1489
 3753SOL     OW22894   1.005   4.663  11.158  0.6374 -0.0538  0.6856
 3753SOL    HW122895   0.929   4.672  11.101  0.6416 -1.5291  0.4552
 3753SOL    HW222896   0.962   4.662  11.243  0.4500 -0.7883  0.5787
 3754SOL     OW22897   4.424   4.315  15.964  0.2974 -0.1094 -0.7418
 3754SOL    HW122898   4.386   4.308  16.051 -0.0284  1.8904 -0.7226
 3754SOL    HW222899   4.346   4.343  15.916 -2.0558 -3.6453  1.0412
 3755SOL     OW22900   1.924   1.055   5.271  0.4240  0.5961  0.2851
 3755SOL    HW122901   1.938   1.016   5.185 -3.6425 -1.3684  0.5525
 3755SOL    HW222902   1.917   0.978   5.327 -0.5304  1.2766  1.1043
 3756SOL     OW22903   4.338   1.366   9.754  0.9711  0.4724 -0.1089
 3756SOL    HW122904   4.408   1.429   9.743  0.9148  0.7617  1.2137
 3756SOL    HW222905   4.384   1.294   9.796 -1.3853 -0.2822  1.2166
 3757SOL     OW22906   1.224   0.565   4.027 -0.1230 -0.2589 -0.2564
 3757SOL    HW122907   1.267   0.543   4.110 -2.1608 -0.2353  0.8116
 3757SOL    HW222908   1.298   0.599   3.978  0.6281 -2.0208 -0.3281
 3758SOL     OW22909   2.182   4.085   3.127  0.4466 -0.2161 -0.1887
 3758SOL    HW122910   2.190   4.003   3.079 -1.5814 -0.1806 -0.5992
 3758SOL    HW222911   2.188   4.046   3.214  0.5030 -0.5920 -0.3630
 3759SOL     OW22912   1.860   0.871   2.772 -0.4548 -0.6672 -0.1394
 3759SOL    HW122913   1.765   0.864   2.775 -0.3205 -2.0043  1.0930
 3759SOL    HW222914   1.896   0.794   2.815  0.0777  0.9083  2.2408
 3760SOL     OW22915   4.029   1.243   7.964 -0.5176 -0.1868 -0.1996
 3760SOL    HW122916   3.952   1.206   7.920 -1.6720  1.1001  0.7291
 3760SOL    HW222917   4.051   1.191   8.041  0.6680  1.0009  0.2658
 3761SOL     OW22918   0.888   1.664   8.407 -0.2026 -0.3733 -0.4307
 3761SOL    HW122919   0.802   1.694   8.376  0.3627  1.7360  0.0192
 3761SOL    HW222920   0.866   1.572   8.423 -0.3491 -0.6061 -1.9561
 3762SOL     OW22921   2.836   4.045   1.984  0.1573  0.5181  0.2617
 3762SOL    HW122922   2.815   4.012   2.071  0.4412  0.8664  0.4640
 3762SOL    HW222923   2.870   3.963   1.949 -3.6466  0.1888 -2.6130
 3763SOL     OW22924   2.267   1.332   2.819  0.2701  0.1798 -0.5157
 3763SOL    HW122925   2.265   1.252   2.765  1.1647 -1.2992  1.6260
 3763SOL    HW222926   2.215   1.309   2.896  0.9016 -0.4540 -0.2701
 3764SOL     OW22927   2.416   3.599   5.191 -0.0327  0.8771 -0.1936
 3764SOL    HW122928   2.472   3.521   5.185 -1.1719  0.0374  0.2343
 3764SOL    HW222929   2.446   3.626   5.278 -0.8794  0.2873  0.2785
 3765SOL     OW22930   4.233   2.089   4.621  0.0163  0.3767 -0.4541
 3765SOL    HW122931   4.279   2.168   4.593  1.2633 -0.1823  0.0101
 3765SOL    HW222932   4.297   2.044   4.676 -1.2803  0.5172  1.1925
 3766SOL     OW22933   4.475   0.709  15.249 -0.1202 -0.5391 -0.3624
 3766SOL    HW122934   4.405   0.671  15.196 -1.9264  0.9985  0.9348
 3766SOL    HW222935   4.547   0.707  15.186  0.5134  0.1238  0.3515
 3767SOL     OW22936   4.252   1.874  10.284  0.4625 -0.0326 -0.6850
 3767SOL    HW122937   4.234   1.858  10.192 -3.6575  1.0704 -0.0619
 3767SOL    HW222938   4.338   1.836  10.305  0.6684  0.4937 -0.5684
 3768SOL     OW22939   1.918   0.346   5.820  0.0792  0.1460  0.3536
 3768SOL    HW122940   1.905   0.410   5.890 -0.0288 -0.8497  1.2379
 3768SOL    HW222941   1.834   0.301   5.826  0.0270  0.0315 -1.1002
 3769SOL     OW22942   1.105   4.668   8.195 -0.4553  0.7924  0.1077
 3769SOL    HW122943   1.054   4.587   8.189  1.2883 -0.2151 -1.3332
 3769SOL    HW222944   1.135   4.647   8.284  0.5773  0.0219 -0.4213
 3770SOL     OW22945   0.444   2.862   5.696 -0.6431 -0.7703  0.7472
 3770SOL    HW122946   0.350   2.871   5.681 -1.1214 -1.9225  2.9807
 3770SOL    HW222947   0.470   2.874   5.605 -0.4647  0.4133  0.9532
 3771SOL     OW22948   4.076   1.728  13.251  0.7382 -0.4114  0.2302
 3771SOL    HW122949   4.054   1.692  13.165  1.3470 -2.3208  0.8813
 3771SOL    HW222950   4.165   1.758  13.236  1.0708 -0.8998  1.1971
 3772SOL     OW22951   0.947   1.011   2.740  0.2815  0.2782 -0.1930
 3772SOL    HW122952   1.030   1.008   2.788  0.2259 -2.8797 -0.2937
 3772SOL    HW222953   0.972   0.958   2.665  0.7212  0.3982 -0.1311
 3773SOL     OW22954   3.663   4.627  10.677 -0.6652 -0.4413 -0.1696
 3773SOL    HW122955   3.641   4.599  10.589  0.8760 -0.4877 -0.5378
 3773SOL    HW222956   3.679   4.722  10.680  0.3727 -0.6455  1.1618
 3774SOL     OW22957   0.725   1.657   6.718  0.2227 -0.4340 -0.5739
 3774SOL    HW122958   0.775   1.690   6.644 -0.8333  1.1959 -0.5516
 3774SOL    HW222959   0.779   1.586   6.754  0.8610  0.6987  0.7262
 3775SOL     OW22960   3.102   3.592   7.672  0.3700 -0.2533 -0.1942
 3775SOL    HW122961   3.077   3.675   7.630  1.8324 -0.7514 -2.0729
 3775SOL    HW222962   3.197   3.596   7.680  0.5324  1.2240 -2.8409
 3776SOL     OW22963   1.946   3.186   3.736 -0.3053  0.1922 -0.4081
 3776SOL    HW122964   1.861   3.220   3.708 -0.4103 -1.0610 -1.6141
 3776SOL    HW222965   1.922   3.160   3.825  1.6407  0.0788  0.0833
 3777SOL     OW22966   4.027   0.093  16.914 -0.4469 -0.2950  0.2862
 3777SOL    HW122967   4.039   0.180  16.952 -0.8637 -0.4297  0.7355
 3777SOL    HW222968   4.056   0.089  16.823  1.0000  0.3173  0.7223
 3778SOL     OW22969   1.345   1.316   1.406 -0.2162  0.1409  0.1672
 3778SOL    HW122970   1.285   1.287   1.475 -0.5019  0.8219  0.1986
 3778SOL    HW222971   1.347   1.236   1.353  0.4861 -0.1712  0.6563
 3779SOL     OW22972   3.246   0.349   6.401  0.8264 -0.1675 -0.2210
 3779SOL    HW122973   3.277   0.396   6.323  3.3603 -1.9245 -0.3059
 3779SOL    HW222974   3.154   0.333   6.382  0.3266  0.9532  1.3666
 3780SOL     OW22975   1.754   0.522   7.475 -0.1900  0.3365 -0.4952
 3780SOL    HW122976   1.686   0.529   7.542  1.4296  2.3671  0.9713
 3780SOL    HW222977   1.708   0.538   7.393  0.1740  1.9071 -0.4051
 3781SOL     OW22978   2.810   0.688   4.632 -0.0745  0.1421 -0.0228
 3781SOL    HW122979   2.749   0.675   4.704 -1.1108 -0.1189 -0.9306
 3781SOL    HW222980   2.851   0.770   4.658 -0.0615  0.5980 -1.4647
 3782SOL     OW22981   3.166   0.549   2.612 -0.1885  0.0671  0.2140
 3782SOL    HW122982   3.164   0.562   2.518  0.1707 -0.0278  0.1915
 3782SOL    HW222983   3.123   0.464   2.613  1.2461 -0.6652 -0.5948
 3783SOL     OW22984   4.258   1.385   7.958  0.2028  0.3394 -0.1117
 3783SOL    HW122985   4.301   1.334   8.027  0.7512 -0.4313 -1.0192
 3783SOL    HW222986   4.173   1.345   7.944  1.4425 -2.1056 -0.7003
 3784SOL     OW22987   0.397   2.700   2.628 -0.0699 -0.2444 -0.1217
 3784SOL    HW122988   0.312   2.673   2.593  0.1012 -1.0274  0.0617
 3784SOL    HW222989   0.430   2.610   2.637 -0.4885 -0.5179 -1.4284
 3785SOL     OW22990   3.522   0.587   3.136  0.0020 -0.5706 -0.0378
 3785SOL    HW122991   3.444   0.623   3.094 -0.4163  0.4189  1.5635
 3785SOL    HW222992   3.591   0.631   3.087 -1.6152  0.7983 -1.0948
 3786SOL     OW22993   4.455   2.399   8.590 -0.4354 -0.2524  0.5784
 3786SOL    HW122994   4.472   2.471   8.529 -1.9015 -1.1281 -0.8671
 3786SOL    HW222995   4.360   2.408   8.596 -0.6593 -2.0162 -0.4236
 3787SOL     OW22996   0.322   2.403  13.025  0.4840  0.2076  0.4622
 3787SOL    HW122997   0.388   2.412  12.956  1.8567  1.0993  1.9079
 3787SOL    HW222998   0.340   2.483  13.074  3.4349  1.0780 -2.0298
 3788SOL     OW22999   1.004   4.277   6.549 -0.8628  0.5458  0.7321
 3788SOL    HW123000   1.070   4.224   6.594  0.6885  1.6592 -0.2125
 3788SOL    HW223001   0.967   4.316   6.628 -2.8673  1.1835 -0.5151
 3789SOL     OW23002   0.203   0.967  11.741  0.2713  0.5800  0.5380
 3789SOL    HW123003   0.127   0.931  11.695  0.1559 -0.1909  1.3284
 3789SOL    HW223004   0.206   0.906  11.815 -1.4703 -0.5249 -0.2975
 3790SOL     OW23005   3.955   0.200   7.501  0.6484 -1.1856  0.4875
 3790SOL    HW123006   4.007   0.134   7.456  0.3177 -1.8435  1.0773
 3790SOL    HW223007   3.940   0.154   7.583 -1.4150 -0.2284  0.6608
 3791SOL     OW23008   0.029   3.336   7.817 -0.8391  0.2128  0.3630
 3791SOL    HW123009   4.688   3.278   7.813 -0.9989  0.4008  0.6328
 3791SOL    HW223010   4.724   3.412   7.775  0.1679  0.5835  0.0878
 3792SOL     OW23011   0.465   1.439   6.048  0.5778  0.2457  0.1048
 3792SOL    HW123012   0.552   1.410   6.023  0.8691  0.5054  0.8177
 3792SOL    HW223013   0.413   1.367   6.011 -0.8863  0.6697  1.3060
 3793SOL     OW23014   2.215   0.281   7.479 -0.4236  0.2487 -0.3879
 3793SOL    HW123015   2.148   0.349   7.490 -0.9059 -0.2509 -0.2277
 3793SOL    HW223016   2.186   0.227   7.553 -0.7901  0.3564 -0.4520
 3794SOL     OW23017   3.347   4.169   5.154  0.2994  0.1897 -0.4729
 3794SOL    HW123018   3.348   4.074   5.143  1.8108 -0.0171  1.6556
 3794SOL    HW223019   3.277   4.159   5.219 -0.2414  1.2220 -0.8918
 3795SOL     OW23020   0.104   1.508   4.354 -0.3428  0.5848  0.1296
 3795SOL    HW123021   0.188   1.464   4.336 -0.5837  0.1737  0.0174
 3795SOL    HW223022   0.037   1.444   4.377 -0.4460  0.5244 -0.3359
 3796SOL     OW23023   4.408   1.178   8.103 -0.8442 -0.4150  0.0241
 3796SOL    HW123024   4.426   1.216   8.189 -0.2354 -0.7272  0.0301
 3796SOL    HW223025   4.375   1.093   8.132  0.5934 -0.9008  0.2154
 3797SOL     OW23026   4.104   3.114  16.322  0.0083  0.5258 -0.3353
 3797SOL    HW123027   4.110   3.207  16.345 -0.2792  0.3262  0.5354
 3797SOL    HW223028   4.101   3.118  16.226  0.6541  2.1156 -0.2945
 3798SOL     OW23029   0.456   3.683   4.227 -0.0303  0.4097  0.0452
 3798SOL    HW123030   0.399   3.608   4.209  0.0252  0.2564  0.4997
 3798SOL    HW223031   0.540   3.640   4.241 -0.2894  0.0868  0.6126
 3799SOL     OW23032   4.112   4.489   0.115 -0.8412 -0.2969  0.0108
 3799SOL    HW123033   4.172   4.490   0.189 -0.3264 -1.5866 -0.3883
 3799SOL    HW223034   4.157   4.555   0.062 -1.2180 -0.8006 -0.9539
 3800SOL     OW23035   2.800   3.008   2.584 -0.1229 -0.3430  0.3536
 3800SOL    HW123036   2.827   3.076   2.522 -0.5573 -0.7915 -0.3375
 3800SOL    HW223037   2.727   3.054   2.625 -2.1378 -0.3031 -3.2364
 3801SOL     OW23038   2.561   4.633   4.445  0.4690  0.0912 -0.4309
 3801SOL    HW123039   2.640   4.645   4.392 -0.7284  0.4894 -2.1450
 3801SOL    HW223040   2.500   4.658   4.375  0.8575  0.8953 -0.4800
 3802SOL     OW23041   3.609   2.100   0.493 -0.0976  0.5386 -0.4097
 3802SOL    HW123042   3.571   2.177   0.452  0.2591  0.7095 -0.4233
 3802SOL    HW223043   3.674   2.084   0.424 -2.1906 -2.8386 -1.5954
 3803SOL     OW23044   1.386   3.146   0.034  0.3887 -0.9041 -0.3386
 3803SOL    HW123045   1.353   3.146   0.124 -2.2594  0.7987 -1.3057
 3803SOL    HW223046   1.468   3.195   0.033  0.1330 -0.4468  0.7453
 3804SOL     OW23047   4.219   3.069  16.780  0.0118  0.0801  0.4039
 3804SOL    HW123048   4.149   3.085  16.717  0.6396 -1.4409 -0.6699
 3804SOL    HW223049   4.273   3.001  16.739 -2.5388 -0.0479 -2.7529
 3805SOL     OW23050   0.909   2.930   3.956  0.3763  0.2921  0.1856
 3805SOL    HW123051   0.982   2.889   4.002  0.3103  1.0924  1.0139
 3805SOL    HW223052   0.927   3.024   3.955  0.9834  0.2014  3.0724
 3806SOL     OW23053   2.261   3.177  14.716  0.1629 -0.4316  0.0590
 3806SOL    HW123054   2.328   3.206  14.778 -0.2132 -1.2375  0.8416
 3806SOL    HW223055   2.186   3.231  14.740 -0.9646 -1.8169 -0.4069
 3807SOL     OW23056   4.671   1.886   7.088  0.1414 -0.0367 -0.2122
 3807SOL    HW123057   4.646   1.838   7.167 -1.0822 -1.7540 -1.6131
 3807SOL    HW223058   4.660   1.977   7.112  1.4718  0.1389 -0.2789
 3808SOL     OW23059   1.968   1.512   6.695 -0.5235 -0.5563 -0.5595
 3808SOL    HW123060   1.918   1.570   6.638  2.1324  0.5512 -1.7276
 3808SOL    HW223061   2.055   1.551   6.702  0.0569 -1.9040 -0.2529
 3809SOL     OW23062   0.890   4.594   4.370  0.5426 -1.1916 -0.6456
 3809SOL    HW123063   0.941   4.569   4.447  0.3172 -0.5390 -0.2838
 3809SOL    HW223064   0.935   4.673   4.341  0.4312  0.2345  2.9885
 3810SOL     OW23065   1.249   4.017   5.195 -0.0444 -0.5181 -0.1154
 3810SOL    HW123066   1.200   3.940   5.224  4.0153 -1.9188  3.0313
 3810SOL    HW223067   1.323   3.987   5.143  0.3705  1.9960 -0.9641
 3811SOL     OW23068   3.731   4.314   5.068 -0.1298  0.3842  0.1042
 3811SOL    HW123069   3.806   4.333   5.124 -1.3787  2.2388  1.1742
 3811SOL    HW223070   3.737   4.385   5.005 -1.8349  0.3075 -0.1607
 3812SOL     OW23071   1.485   1.769   7.880  0.1713 -0.5146 -0.1897
 3812SOL    HW123072   1.482   1.808   7.967 -0.2873 -0.9250 -0.0235
 3812SOL    HW223073   1.577   1.781   7.857 -0.2189  1.0331 -0.9415
 3813SOL     OW23074   2.974   3.411   8.553  0.0125 -0.5708 -0.5093
 3813SOL    HW123075   2.892   3.421   8.601  0.6574 -3.2541  1.1589
 3813SOL    HW223076   3.011   3.332   8.592  1.0232  1.7446  3.2637
 3814SOL     OW23077   0.601   1.013   2.820 -0.3677 -0.1043  0.0761
 3814SOL    HW123078   0.638   1.041   2.904 -0.8621  1.6559 -0.2910
 3814SOL    HW223079   0.512   1.046   2.826 -0.5525 -0.4518 -0.8084
 3815SOL     OW23080   0.270   3.958   2.935  0.5862  0.2726 -0.0119
 3815SOL    HW123081   0.361   3.964   2.905  0.3043  0.5763 -0.8003
 3815SOL    HW223082   0.228   4.001   2.860 -1.4809 -1.2896  0.2321
 3816SOL     OW23083   0.285   3.607  12.093  0.1664  0.4902  0.2450
 3816SOL    HW123084   0.201   3.588  12.052  1.2207  2.6979 -2.8900
 3816SOL    HW223085   0.326   3.668  12.032  0.5653  0.7077  0.7254
 3817SOL     OW23086   0.494   0.810   8.554 -0.1702  1.0074  0.2812
 3817SOL    HW123087   0.519   0.903   8.555 -2.4429  1.6153  0.3629
 3817SOL    HW223088   0.579   0.772   8.531 -0.6451  0.2404 -0.1864
 3818SOL     OW23089   4.600   4.343   7.178 -0.2692 -0.3406  0.1713
 3818SOL    HW123090   4.602   4.247   7.171  2.1947 -0.3174  0.6230
 3818SOL    HW223091   4.548   4.356   7.257 -1.4551  2.2162 -1.0515
 3819SOL     OW23092   3.531   0.560   7.185  0.8227 -0.1311 -0.0462
 3819SOL    HW123093   3.594   0.533   7.117  1.7387  2.5838 -0.2996
 3819SOL    HW223094   3.465   0.604   7.131 -1.4918 -1.1183  2.0398
 3820SOL     OW23095   2.982   1.540   7.610 -0.8113  0.7615  0.0614
 3820SOL    HW123096   3.034   1.494   7.543 -0.7893  1.2798 -0.2732
 3820SOL    HW223097   2.981   1.479   7.684 -0.2420  0.4913 -0.1555
 3821SOL     OW23098   1.079   4.714   6.275  0.1163 -0.1880  0.2148
 3821SOL    HW123099   1.021   4.645   6.244  1.8592 -1.1146 -0.9331
 3821SOL    HW223100   1.020   4.735   6.348 -1.4680 -1.4566 -0.7059
 3822SOL     OW23101   1.816   3.640  15.213  0.6405 -0.3229  0.8268
 3822SOL    HW123102   1.793   3.733  15.213 -1.5659 -0.8511  1.5841
 3822SOL    HW223103   1.898   3.645  15.262  0.3615 -0.5843  1.3144
 3823SOL     OW23104   3.423   1.894   5.661  0.2595 -0.3473  0.4516
 3823SOL    HW123105   3.505   1.845   5.665  1.8433  2.2350  0.2234
 3823SOL    HW223106   3.454   1.984   5.676 -2.0805  0.2715  1.5457
 3824SOL     OW23107   0.257   3.426   2.915 -0.3156  0.9756  0.8708
 3824SOL    HW123108   0.211   3.393   2.837  0.0211 -0.1368  1.1414
 3824SOL    HW223109   0.301   3.506   2.884  3.1033 -0.5010  1.8893
 3825SOL     OW23110   1.045   2.363  10.452 -0.3293 -0.0522 -0.1594
 3825SOL    HW123111   1.086   2.285  10.416  2.1387  0.3866  1.7209
 3825SOL    HW223112   1.096   2.373  10.532  1.8252  0.0398 -1.5630
 3826SOL     OW23113   0.317   4.457   4.080 -0.8077 -0.3500  0.2190
 3826SOL    HW123114   0.351   4.380   4.033 -1.0995  0.2583 -0.9897
 3826SOL    HW223115   0.228   4.428   4.100  0.6038 -2.7024  3.1389
 3827SOL     OW23116   2.391   1.172   5.533 -1.5471 -0.1615 -0.6918
 3827SOL    HW123117   2.471   1.217   5.504 -1.3897 -0.0896 -0.1362
 3827SOL    HW223118   2.390   1.209   5.621 -0.5547 -0.4336 -0.5622
 3828SOL     OW23119   2.928   4.158   7.085 -0.0713 -0.2650  0.4908
 3828SOL    HW123120   2.932   4.252   7.104 -0.4465  0.0047 -0.8024
 3828SOL    HW223121   2.949   4.114   7.168  0.3100 -0.8158  0.1023
 3829SOL     OW23122   4.349   1.230   8.865 -0.0670 -0.2833  0.6773
 3829SOL    HW123123   4.390   1.185   8.939  0.2906 -1.5721 -0.2989
 3829SOL    HW223124   4.303   1.305   8.904 -1.3193 -2.3425  3.1566
 3830SOL     OW23125   2.316   4.669  17.676 -0.2978  0.0425  0.5689
 3830SOL    HW123126   2.407   4.681  17.648 -0.6285  2.9270  0.6878
 3830SOL    HW223127   2.286   4.584  17.646 -0.5589 -0.1575  1.3769
 3831SOL     OW23128   4.084   0.226   4.205  0.3768 -0.1175 -0.1154
 3831SOL    HW123129   4.020   0.177   4.256  1.8091 -1.3085  0.5164
 3831SOL    HW223130   4.045   0.243   4.119  0.7450 -0.9208 -0.4427
 3832SOL     OW23131   0.452   1.183   0.648  0.1843 -0.1272  0.0614
 3832SOL    HW123132   0.546   1.198   0.635  0.4285  0.2017  2.2674
 3832SOL    HW223133   0.454   1.104   0.701  0.8746 -0.9426 -1.1817
 3833SOL     OW23134   1.133   0.519   8.972 -0.1010  0.4299 -0.1044
 3833SOL    HW123135   1.180   0.592   8.934 -0.5145  1.4017  1.2494
 3833SOL    HW223136   1.177   0.439   8.942 -0.7865 -0.1045  0.2988
 3834SOL     OW23137   4.092   3.665   1.362 -0.3768 -0.2579 -0.4719
 3834SOL    HW123138   4.005   3.702   1.375 -0.4243 -0.1971 -0.9581
 3834SOL    HW223139   4.070   3.621   1.280 -1.2773  0.9918 -0.9157
 3835SOL     OW23140   0.052   0.407   7.937  0.0982  0.0508 -0.0167
 3835SOL    HW123141   0.023   0.498   7.936  0.1278  0.0677  1.4527
 3835SOL    HW223142   0.086   0.404   8.026 -0.2548  0.2524  0.1233
 3836SOL     OW23143   0.779   4.498   3.823 -0.4105 -0.5320 -0.0064
 3836SOL    HW123144   0.825   4.453   3.752 -1.2665 -0.5553 -0.5500
 3836SOL    HW223145   0.830   4.457   3.893 -0.4911  0.4063  0.5858
 3837SOL     OW23146   4.604   1.373   3.454  0.2795 -0.3834 -0.5037
 3837SOL    HW123147   4.651   1.318   3.517 -0.7181  1.6811  2.0400
 3837SOL    HW223148   4.552   1.429   3.512 -0.2589 -1.1500 -0.2418
 3838SOL     OW23149   3.970   3.336   6.036  0.3688  0.0261  0.3651
 3838SOL    HW123150   4.061   3.319   6.010  0.1188 -2.4863  1.1150
 3838SOL    HW223151   3.984   3.429   6.053  1.1285  0.4294 -2.5948
 3839SOL     OW23152   0.004   0.591   9.511 -0.4094  0.3177 -0.0698
 3839SOL    HW123153   4.729   0.682   9.540  0.9553  1.1361 -2.1624
 3839SOL    HW223154   0.095   0.602   9.481  0.2070  2.4343  2.5561
 3840SOL     OW23155   1.159   0.331   3.001 -0.1367  0.9521  0.7995
 3840SOL    HW123156   1.124   0.399   2.944 -1.0914 -0.1884  0.0170
 3840SOL    HW223157   1.206   0.277   2.937 -1.4636  1.9842 -1.0720
 3841SOL     OW23158   3.336   3.850  16.983 -0.1487  0.0437 -0.4690
 3841SOL    HW123159   3.414   3.818  16.938 -0.7610 -0.2330 -1.3316
 3841SOL    HW223160   3.305   3.783  17.044 -0.4737  1.0686  0.4772
 3842SOL     OW23161   3.452   0.931   1.705 -0.0963 -0.2182  0.0484
 3842SOL    HW123162   3.459   0.837   1.689 -1.8235 -0.3191 -0.0949
 3842SOL    HW223163   3.529   0.964   1.658  0.1303 -1.2886 -0.3340
 3843SOL     OW23164   0.303   2.187  13.348  0.2556 -0.0121  0.1539
 3843SOL    HW123165   0.285   2.179  13.442  0.3222 -0.4589  0.1287
 3843SOL    HW223166   0.397   2.199  13.339  0.2382  0.0963  0.1211
 3844SOL     OW23167   0.502   1.689  15.371  0.0844  0.7811  0.3942
 3844SOL    HW123168   0.555   1.750  15.320 -2.8873  1.2165 -2.2352
 3844SOL    HW223169   0.468   1.756  15.431  0.5749 -0.0557  1.6023
 3845SOL     OW23170   2.275   1.985   3.531 -0.0126 -0.5217  0.2896
 3845SOL    HW123171   2.322   1.929   3.468  0.1456  1.2968 -1.2320
 3845SOL    HW223172   2.306   2.072   3.506 -0.0507 -0.9150 -1.1476
 3846SOL     OW23173   0.472   4.600  16.578 -0.4614 -0.1521 -0.0569
 3846SOL    HW123174   0.377   4.614  16.572 -0.4070  0.0993 -0.3350
 3846SOL    HW223175   0.489   4.684  16.535 -1.1428  0.6190  1.1836
 3847SOL     OW23176   0.278   2.586   9.149 -0.2104 -0.1372  0.1446
 3847SOL    HW123177   0.229   2.538   9.217 -1.0310  1.6238  0.7957
 3847SOL    HW223178   0.255   2.539   9.069  1.8513 -0.5496 -0.1894
 3848SOL     OW23179   0.547   2.608   1.486  0.3006 -0.2886 -0.6203
 3848SOL    HW123180   0.591   2.576   1.564 -0.2526 -0.3543 -0.3302
 3848SOL    HW223181   0.468   2.651   1.520  0.3214  0.6231 -1.7087
 3849SOL     OW23182   0.831   2.221   8.650 -0.1290 -0.1754 -0.1526
 3849SOL    HW123183   0.829   2.178   8.735  0.6641  1.3886  0.6571
 3849SOL    HW223184   0.910   2.275   8.655 -1.0104  0.9387  1.8494
 3850SOL     OW23185   3.859   3.993   6.753 -0.5822  0.2820  0.1108
 3850SOL    HW123186   3.861   3.921   6.815  0.7507  0.1752 -0.0720
 3850SOL    HW223187   3.802   4.052   6.803  2.6612  1.6805  2.0933
 3851SOL     OW23188   1.109   3.217   5.568  0.0025  0.0638  0.2035
 3851SOL    HW123189   1.180   3.177   5.517 -0.3738 -0.0173 -0.2594
 3851SOL    HW223190   1.145   3.203   5.655  2.4980 -1.0924 -1.0120
 3852SOL     OW23191   1.989   0.474   8.321  0.5930 -0.0547  0.3781
 3852SOL    HW123192   1.907   0.487   8.274 -0.1682  2.1152  2.3261
 3852SOL    HW223193   2.003   0.565   8.347  1.7114 -0.6511  1.8428
 3853SOL     OW23194   4.684   0.165   7.412  0.9668 -0.3190  0.7741
 3853SOL    HW123195   4.659   0.152   7.503  1.5933 -0.2244  0.9610
 3853SOL    HW223196   0.006   0.089   7.409 -0.8035 -1.6404  0.0554
 3854SOL     OW23197   0.904   4.661   9.119 -0.2134 -0.4131 -0.0494
 3854SOL    HW123198   0.895   0.021   9.126 -0.7326 -0.4031 -0.8907
 3854SOL    HW223199   0.860   4.627   9.197 -1.0504 -1.1451 -0.8442
 3855SOL     OW23200   1.850   0.294   6.611  0.2671  0.1997 -0.3836
 3855SOL    HW123201   1.905   0.276   6.535 -0.9524 -2.5204 -0.6048
 3855SOL    HW223202   1.882   0.237   6.681  0.3878 -0.1782 -0.7462
 3856SOL     OW23203   0.144   3.997   2.205  0.6035  0.4488 -0.0294
 3856SOL    HW123204   0.077   3.979   2.139  1.2559  0.6015 -0.7383
 3856SOL    HW223205   0.152   4.092   2.204  0.2295  0.5051  3.6639
 3857SOL     OW23206   3.396   2.194   7.743  0.2194  0.5984  0.6310
 3857SOL    HW123207   3.398   2.165   7.834 -2.1352  0.2167  0.5759
 3857SOL    HW223208   3.480   2.229   7.715  1.7636 -3.2618  0.5444
 3858SOL     OW23209   1.256   4.223   3.899  0.1927 -0.3474  0.4791
 3858SOL    HW123210   1.208   4.160   3.845  2.4177 -2.0277  0.4400
 3858SOL    HW223211   1.270   4.170   3.977  0.0683 -1.8639 -0.5318
 3859SOL     OW23212   4.589   1.079   8.446  0.1200  0.0618 -0.3346
 3859SOL    HW123213   4.578   1.168   8.413 -0.2367  0.0929 -0.1270
 3859SOL    HW223214   4.608   1.086   8.539 -1.2107 -0.6278 -0.0060
 3860SOL     OW23215   0.286   2.539  12.646  0.2375 -0.9458 -0.0977
 3860SOL    HW123216   0.346   2.572  12.578  0.7147 -0.1767  0.6926
 3860SOL    HW223217   0.350   2.492  12.700 -1.5950 -0.3587  2.5420
 3861SOL     OW23218   3.766   0.516   6.295 -0.5401  0.0921 -0.1236
 3861SOL    HW123219   3.766   0.598   6.246 -0.1126  0.4938  0.5440
 3861SOL    HW223220   3.736   0.541   6.382  0.2834 -1.9681  0.7703
 3862SOL     OW23221   2.301   4.675   2.821 -0.0230 -0.1188 -0.1369
 3862SOL    HW123222   2.350   4.679   2.903  0.8270  0.1316 -0.6531
 3862SOL    HW223223   2.312   4.583   2.799 -1.1911 -0.9603  2.8615
 3863SOL     OW23224   3.522   0.520  14.664  0.0303 -0.1731 -0.4382
 3863SOL    HW123225   3.471   0.498  14.586 -0.2795 -1.6506  0.1692
 3863SOL    HW223226   3.557   0.605  14.638 -0.9931  0.2964 -0.2935
 3864SOL     OW23227   0.675   4.466  16.458  0.2893  0.3284 -0.0092
 3864SOL    HW123228   0.641   4.376  16.465  0.3837  0.1323 -2.0664
 3864SOL    HW223229   0.601   4.519  16.488  0.4374  0.1116  0.7259
 3865SOL     OW23230   1.664   1.993   5.740 -0.3213  0.3319  0.2574
 3865SOL    HW123231   1.599   1.932   5.706 -0.0237  0.4954 -0.6018
 3865SOL    HW223232   1.644   1.988   5.834 -0.3339 -0.0099  0.2383
 3866SOL     OW23233   2.875   0.796  15.158 -0.2627  0.1389  0.9510
 3866SOL    HW123234   2.806   0.861  15.173 -2.8570 -1.9240 -1.9155
 3866SOL    HW223235   2.868   0.732  15.229 -1.4678 -0.5549  0.2046
 3867SOL     OW23236   4.435   2.334  12.217  0.0241  0.2821 -0.0868
 3867SOL    HW123237   4.357   2.303  12.264 -0.3035  1.0266 -0.1392
 3867SOL    HW223238   4.487   2.254  12.224 -0.7308 -0.2446 -0.5029
 3868SOL     OW23239   0.334   4.260   6.012 -0.0198 -0.7302 -0.2827
 3868SOL    HW123240   0.350   4.349   5.980 -1.2101 -1.0478 -1.7399
 3868SOL    HW223241   0.377   4.262   6.098  0.3596 -0.0512 -0.4883
 3869SOL     OW23242   2.472   2.844   2.922 -0.1557  0.6231 -0.0362
 3869SOL    HW123243   2.404   2.826   2.857  2.1371 -0.2958 -2.1725
 3869SOL    HW223244   2.532   2.772   2.908 -1.0818  0.5643 -3.7909
 3870SOL     OW23245   1.617   2.082   5.021  0.3150  0.2371  0.5549
 3870SOL    HW123246   1.532   2.122   5.002  0.0621 -1.2517 -1.3864
 3870SOL    HW223247   1.658   2.147   5.079 -1.5915  0.5372  1.5848
 3871SOL     OW23248   3.106   2.780  13.661  0.1294  0.4315  0.1871
 3871SOL    HW123249   3.151   2.825  13.733 -0.3139 -1.6051  1.7300
 3871SOL    HW223250   3.086   2.698  13.707 -3.3967  0.2024 -1.7785
 3872SOL     OW23251   0.515   1.394  14.508  0.8232  0.3353 -0.0882
 3872SOL    HW123252   0.586   1.415  14.447 -0.1718 -1.5337 -1.8992
 3872SOL    HW223253   0.567   1.351  14.576 -1.8006  1.7425  2.8173
 3873SOL     OW23254   1.788   2.066   8.664  0.4585 -0.0546 -0.5919
 3873SOL    HW123255   1.869   2.022   8.690  0.6772  1.5013  1.3480
 3873SOL    HW223256   1.819   2.156   8.652 -0.9735  0.6864  1.1238
 3874SOL     OW23257   3.831   0.248   5.746  0.0137 -0.2690  0.0842
 3874SOL    HW123258   3.821   0.156   5.720  0.5697 -1.0492  2.7028
 3874SOL    HW223259   3.745   0.278   5.716 -0.3028  0.8099  2.0964
 3875SOL     OW23260   2.001   3.529  15.501 -1.0651  0.4643  0.2408
 3875SOL    HW123261   2.001   3.487  15.415  0.9402  1.0532 -0.0364
 3875SOL    HW223262   2.033   3.613  15.468 -0.2340  0.4141  0.9283
 3876SOL     OW23263   1.255   0.599   2.482  0.2742 -0.2613 -0.3449
 3876SOL    HW123264   1.219   0.643   2.404 -1.7575 -0.6307  0.3733
 3876SOL    HW223265   1.278   0.518   2.438 -0.1560 -0.1948 -0.6980
 3877SOL     OW23266   3.995   2.260   4.924 -0.5227  0.3822  0.7708
 3877SOL    HW123267   3.946   2.253   5.006  0.3972 -3.0570  1.0333
 3877SOL    HW223268   4.047   2.180   4.937 -0.1029  0.6433  0.7031
 3878SOL     OW23269   1.773   1.030   6.397  0.4328 -0.2651 -0.1478
 3878SOL    HW123270   1.716   0.955   6.381  1.1028 -1.5200  3.5933
 3878SOL    HW223271   1.732   1.090   6.458  3.0501  2.7883 -1.3509
 3879SOL     OW23272   0.149   1.360   5.343  0.1551 -0.0987  0.2690
 3879SOL    HW123273   0.106   1.284   5.383 -1.8665  1.7607  1.6299
 3879SOL    HW223274   0.123   1.431   5.401 -2.5904 -0.4615 -0.5201
 3880SOL     OW23275   2.006   2.989   7.700 -0.0051  0.3811 -0.0278
 3880SOL    HW123276   1.950   3.055   7.741  0.2902  0.1499  0.7466
 3880SOL    HW223277   2.072   2.989   7.768 -1.6959  0.1435  1.6053
 3881SOL     OW23278   2.343   4.109   6.551  0.0433 -0.4352  0.4667
 3881SOL    HW123279   2.256   4.148   6.538  0.8503  0.7519 -1.2797
 3881SOL    HW223280   2.401   4.185   6.554 -0.7012  0.1744 -0.3574
 3882SOL     OW23281   3.406   1.486   9.696  0.1052  0.6521 -0.7502
 3882SOL    HW123282   3.426   1.429   9.770  0.4878  0.5906 -0.8993
 3882SOL    HW223283   3.494   1.513   9.667  0.0562  0.6559 -0.8930
 3883SOL     OW23284   0.503   3.650   9.562  0.4365  0.2468 -0.2767
 3883SOL    HW123285   0.496   3.557   9.543  0.3758 -0.0224  1.0940
 3883SOL    HW223286   0.417   3.670   9.600  0.6653  0.0103  0.3679
 3884SOL     OW23287   2.577   3.397   5.245 -0.2106 -0.2697  0.0544
 3884SOL    HW123288   2.624   3.326   5.202 -0.2901  0.0603 -0.5846
 3884SOL    HW223289   2.513   3.352   5.301  2.2637  0.8598  3.8095
 3885SOL     OW23290   1.956   0.673   3.305  0.5513 -0.5606  0.0130
 3885SOL    HW123291   1.955   0.673   3.401 -0.3204  1.0232 -0.0084
 3885SOL    HW223292   1.875   0.629   3.279 -0.1159  0.2704  0.6821
 3886SOL     OW23293   4.034   2.507   1.663 -0.0431 -0.3571  0.0085
 3886SOL    HW123294   4.065   2.417   1.677  3.8400  1.1013  0.6304
 3886SOL    HW223295   4.100   2.562   1.704 -0.5634  0.6712 -0.5492
 3887SOL     OW23296   2.481   1.933   6.074  0.4067 -0.2014  0.6758
 3887SOL    HW123297   2.483   2.017   6.027 -1.2423  0.1239  1.1970
 3887SOL    HW223298   2.392   1.907   6.053 -0.1515  2.5981 -0.4497
 3888SOL     OW23299   2.326   2.381   9.704 -0.2011 -0.1750  0.0223
 3888SOL    HW123300   2.405   2.398   9.754  0.4441 -3.7673  0.2051
 3888SOL    HW223301   2.357   2.395   9.614 -1.0140  0.6955 -0.1289
 3889SOL     OW23302   1.809   3.286   7.258 -0.4343  0.1558 -0.2303
 3889SOL    HW123303   1.891   3.248   7.227  1.3085  2.6982  1.2458
 3889SOL    HW223304   1.801   3.255   7.348 -1.1747 -0.5703 -0.5446
 3890SOL     OW23305   1.131   3.233   6.203 -0.7264 -0.0508  0.1046
 3890SOL    HW123306   1.075   3.162   6.236  0.6734 -0.7245  1.0536
 3890SOL    HW223307   1.086   3.253   6.121 -0.7889  0.6476  0.3124
 3891SOL     OW23308   0.741   2.730  12.914  0.0394 -0.3659  0.6951
 3891SOL    HW123309   0.735   2.761  12.824 -2.2873  1.7699  1.5811
 3891SOL    HW223310   0.696   2.800  12.962 -0.7536 -0.6512  0.3558
 3892SOL     OW23311   0.178   2.456  13.680  0.1138 -0.2175 -1.0888
 3892SOL    HW123312   0.254   2.494  13.636 -0.1372 -1.2099 -2.3718
 3892SOL    HW223313   0.204   2.479  13.770  1.6859 -0.2171 -1.5367
 3893SOL     OW23314   2.972   3.936   3.586 -0.3061 -0.0582 -0.1094
 3893SOL    HW123315   2.945   4.008   3.643  1.3276  0.4878 -0.0108
 3893SOL    HW223316   3.063   3.956   3.564 -0.1408  1.2714  1.7679
 3894SOL     OW23317   3.733   1.909   0.868  0.0900 -0.8001  0.8529
 3894SOL    HW123318   3.690   1.984   0.828  3.3248  0.2587 -0.6422
 3894SOL    HW223319   3.728   1.854   0.790 -0.3505 -0.8485  0.9128
 3895SOL     OW23320   4.450   2.447   8.258  0.3529 -0.4993 -0.4649
 3895SOL    HW123321   4.473   2.540   8.254 -0.7508 -0.1955  0.4536
 3895SOL    HW223322   4.518   2.408   8.202  2.3974  1.8335  0.3753
 3896SOL     OW23323   0.657   1.350   9.317  0.6029  0.1248 -0.4269
 3896SOL    HW123324   0.687   1.316   9.401 -3.4653  0.2783  1.1099
 3896SOL    HW223325   0.736   1.374   9.269  1.5099  0.1506  1.0954
 3897SOL     OW23326   3.655   2.485   2.341 -0.2406 -0.2597 -0.5883
 3897SOL    HW123327   3.601   2.435   2.280 -0.3514 -2.8988  1.6619
 3897SOL    HW223328   3.722   2.418   2.357  0.9055  1.0588  0.1141
 3898SOL     OW23329   2.003   2.094   7.687 -0.1714 -0.7005 -0.0278
 3898SOL    HW123330   1.909   2.073   7.689 -0.2088 -0.5363 -0.0649
 3898SOL    HW223331   2.011   2.160   7.755 -0.1710 -2.4746  1.7130
 3899SOL     OW23332   1.871   3.615   7.862  0.2284  0.2734  0.5172
 3899SOL    HW123333   1.845   3.691   7.809 -1.1093 -0.8708 -0.4550
 3899SOL    HW223334   1.887   3.543   7.802 -0.7380  0.7801 -0.3492
 3900SOL     OW23335   3.626   2.157   9.505  0.5524 -0.4279 -0.4172
 3900SOL    HW123336   3.667   2.122   9.584 -0.5025  0.3084  0.4543
 3900SOL    HW223337   3.555   2.094   9.488  0.9118 -0.9317 -0.0452
 3901SOL     OW23338   3.319   0.462  10.576  0.0578 -0.0449  0.3083
 3901SOL    HW123339   3.384   0.532  10.584  0.3035 -0.2617  0.2129
 3901SOL    HW223340   3.238   0.509  10.555  1.7383  2.3335 -0.7589
 3902SOL     OW23341   3.190   3.687  13.480 -0.7107 -0.0634 -0.1318
 3902SOL    HW123342   3.233   3.684  13.565  0.7776  1.5783 -0.8343
 3902SOL    HW223343   3.227   3.767  13.445 -1.6258  0.5594  0.3281
 3903SOL     OW23344   4.317   1.583   3.283  0.4047 -0.3861 -0.3442
 3903SOL    HW123345   4.248   1.530   3.244  0.4295 -1.7273  1.4453
 3903SOL    HW223346   4.312   1.532   3.364 -2.8251 -0.4467 -0.5910
 3904SOL     OW23347   1.858   3.574   5.912 -0.3003  0.1125 -0.3460
 3904SOL    HW123348   1.820   3.512   5.975  0.7605 -0.2802 -0.1013
 3904SOL    HW223349   1.871   3.651   5.966 -0.1080  0.7842 -1.3500
 3905SOL     OW23350   2.508   4.590   5.272  0.2758 -0.3181  0.3803
 3905SOL    HW123351   2.588   4.562   5.316 -0.0484 -1.6606  0.1248
 3905SOL    HW223352   2.554   4.647   5.211  1.6510  0.0907  1.8078
 3906SOL     OW23353   0.440   4.495   7.014 -0.4151 -0.1131 -0.1142
 3906SOL    HW123354   0.518   4.533   7.055 -0.0008 -1.1330  0.0449
 3906SOL    HW223355   0.439   4.558   6.941  1.0562  0.4099  0.3060
 3907SOL     OW23356   2.219   4.041   2.787  0.2245 -0.5535 -0.7366
 3907SOL    HW123357   2.224   3.965   2.845  0.4928 -1.0637 -1.4352
 3907SOL    HW223358   2.218   3.993   2.704 -3.2251  0.5202 -1.2924
 3908SOL     OW23359   1.530   3.835  13.428  0.0953  0.3893 -0.4246
 3908SOL    HW123360   1.583   3.912  13.413  1.3513 -0.0381  1.8734
 3908SOL    HW223361   1.447   3.872  13.396 -0.9193 -0.6330  1.0229
 3909SOL     OW23362   3.733   0.026   5.067  0.4569 -0.4946 -0.0487
 3909SOL    HW123363   3.739   0.090   4.997 -1.7504  1.2751  1.3699
 3909SOL    HW223364   3.765   4.686   5.018 -1.7894 -0.9722 -0.7363
 3910SOL     OW23365   1.845   0.283   1.501 -0.4876  0.1080 -0.1385
 3910SOL    HW123366   1.770   0.327   1.461 -0.1705  1.4398  0.7190
 3910SOL    HW223367   1.921   0.334   1.474 -0.5075  0.8239  1.1004
 3911SOL     OW23368   3.005   0.124   7.549  0.4750  0.6192  0.2778
 3911SOL    HW123369   2.910   0.118   7.551  0.4315  1.5694  1.3632
 3911SOL    HW223370   3.002   0.220   7.540  0.8103  0.6934  0.8948
 3912SOL     OW23371   2.027   4.358   4.990  0.1531 -0.1526  0.6735
 3912SOL    HW123372   2.110   4.313   5.007  0.7947  1.5142  1.9556
 3912SOL    HW223373   2.055   4.449   4.985 -0.5864 -0.0357 -1.3596
 3913SOL     OW23374   4.280   4.206   9.180  0.3363  0.2351 -0.2445
 3913SOL    HW123375   4.254   4.157   9.102 -0.2606 -0.2620  0.2593
 3913SOL    HW223376   4.196   4.222   9.223  0.3855 -0.5973  0.1692
 3914SOL     OW23377   3.251   0.748  14.860  0.1445  0.0969 -0.5504
 3914SOL    HW123378   3.300   0.755  14.778  0.0417  1.1299 -0.5317
 3914SOL    HW223379   3.214   0.835  14.878 -0.1288 -0.4164  1.3843
 3915SOL     OW23380   3.532   2.145   5.692 -0.3321 -0.1458  0.1390
 3915SOL    HW123381   3.551   2.237   5.710 -1.9604 -0.0093  1.1868
 3915SOL    HW223382   3.596   2.126   5.623  0.2915 -0.0860  0.7086
 3916SOL     OW23383   0.884   1.992   8.248  0.1050 -0.0653 -0.6559
 3916SOL    HW123384   0.875   2.003   8.343 -0.5492  0.2040 -0.7531
 3916SOL    HW223385   0.979   1.983   8.235 -0.2203 -0.0215 -3.1230
 3917SOL     OW23386   2.313   0.406   6.115 -0.4643 -0.5316  1.0014
 3917SOL    HW123387   2.353   0.444   6.036 -0.8214 -2.7293 -0.2456
 3917SOL    HW223388   2.228   0.450   6.110  0.5436  1.5786  2.3566
 3918SOL     OW23389   2.757   4.066   0.560 -0.3200  0.1817  0.1618
 3918SOL    HW123390   2.826   4.000   0.568 -0.3136  0.3210  1.2545
 3918SOL    HW223391   2.818   4.137   0.543  0.9721 -1.4121 -1.8863
 3919SOL     OW23392   0.174   2.230   4.367  0.8058 -0.5936  0.2760
 3919SOL    HW123393   0.208   2.306   4.414 -0.1280  2.3279 -3.8539
 3919SOL    HW223394   0.224   2.156   4.402  1.2759 -0.1051  0.6282
 3920SOL     OW23395   0.975   4.028   4.458  0.0772  0.3412  0.0970
 3920SOL    HW123396   0.999   3.995   4.372 -1.2195 -0.1345 -0.0874
 3920SOL    HW223397   0.941   3.950   4.501 -1.5025 -0.2719 -2.2904
 3921SOL     OW23398   2.731   0.528  16.795  0.3603  0.6413  0.3139
 3921SOL    HW123399   2.790   0.596  16.763  0.9600 -0.7697 -1.5583
 3921SOL    HW223400   2.749   0.458  16.733  2.2973  1.4417 -0.0333
 3922SOL     OW23401   4.629   0.649   4.024  0.1984  0.3282  0.0631
 3922SOL    HW123402   4.619   0.636   4.118  2.3190  0.8576  0.3645
 3922SOL    HW223403   4.604   0.741   4.012  0.4279  0.5786  1.4417
 3923SOL     OW23404   1.792   4.418  15.046  0.2894  0.0039  0.0093
 3923SOL    HW123405   1.816   4.494  14.993 -0.9598 -1.0858 -2.1196
 3923SOL    HW223406   1.747   4.374  14.975  0.7710 -1.8586  0.8574
 3924SOL     OW23407   3.139   3.774   4.530 -0.3236 -0.0149 -0.1123
 3924SOL    HW123408   3.089   3.765   4.448  1.9160 -0.3678 -1.4251
 3924SOL    HW223409   3.227   3.797   4.501  0.4920 -2.3418  0.4783
 3925SOL     OW23410   3.716   3.284   8.413  0.7372  0.4392 -0.0161
 3925SOL    HW123411   3.645   3.242   8.364 -1.5931  1.2362  2.7195
 3925SOL    HW223412   3.739   3.214   8.474 -1.2860 -2.6137 -2.7098
 3926SOL     OW23413   0.715   4.057   5.011  0.3428 -0.4551  0.7268
 3926SOL    HW123414   0.716   4.150   5.036  2.9093 -0.2559 -0.1660
 3926SOL    HW223415   0.774   4.027   5.080  1.5968 -0.8384 -0.5074
 3927SOL     OW23416   3.605   0.721  15.990 -0.6145 -0.2100 -0.2535
 3927SOL    HW123417   3.647   0.762  16.065 -3.7296 -0.3960  1.6093
 3927SOL    HW223418   3.677   0.672  15.951  0.7316  2.5337 -1.1761
 3928SOL     OW23419   3.577   2.018   2.342 -0.2259 -0.3623  0.4524
 3928SOL    HW123420   3.554   1.945   2.285 -0.0583  2.2431 -2.9729
 3928SOL    HW223421   3.507   2.005   2.405 -1.1743  0.3993 -0.4583
 3929SOL     OW23422   0.789   0.333  10.544 -0.1138 -0.4078 -0.4363
 3929SOL    HW123423   0.778   0.248  10.589  0.9537 -0.8803 -1.0708
 3929SOL    HW223424   0.809   0.300  10.456  1.6126  0.7746 -0.4764
 3930SOL     OW23425   2.998   3.786   4.806 -0.1801  0.4095  0.1811
 3930SOL    HW123426   3.049   3.786   4.725 -1.5982 -1.6872 -0.6863
 3930SOL    HW223427   2.912   3.819   4.780 -0.7679 -0.6691  0.7662
 3931SOL     OW23428   1.759   2.612   8.674  0.2024 -0.8649  0.2471
 3931SOL    HW123429   1.719   2.611   8.760  0.4927  4.1642  0.4381
 3931SOL    HW223430   1.847   2.587   8.702  0.3982 -0.5836 -0.1113
 3932SOL     OW23431   0.543   1.453   3.763 -0.4528  0.4232 -0.1896
 3932SOL    HW123432   0.600   1.498   3.824  1.6052 -3.0531  0.4806
 3932SOL    HW223433   0.597   1.474   3.687 -1.6069  1.5753 -0.6982
 3933SOL     OW23434   0.191   3.689   5.226  0.1430 -0.6729  0.1042
 3933SOL    HW123435   0.282   3.710   5.247  0.4946  0.3667 -2.4566
 3933SOL    HW223436   0.192   3.632   5.148  0.5023 -1.1714  0.4726
 3934SOL     OW23437   0.217   3.201   2.278  0.5679 -0.2293 -0.1015
 3934SOL    HW123438   0.269   3.120   2.273  0.4748 -0.2487 -0.7248
 3934SOL    HW223439   0.138   3.159   2.245  0.5427  0.7544 -1.2809
 3935SOL     OW23440   3.998   0.456   9.690  0.5643  0.0831 -0.1294
 3935SOL    HW123441   3.912   0.493   9.672  1.5483  2.4858  0.0430
 3935SOL    HW223442   4.047   0.493   9.616  1.6161  0.8926  0.9544
 3936SOL     OW23443   3.537   1.266   8.469  0.3333  0.3085 -0.1812
 3936SOL    HW123444   3.632   1.263   8.460  0.2820  0.3918 -0.7531
 3936SOL    HW223445   3.533   1.285   8.562 -0.9666  2.1721 -0.6203
 3937SOL     OW23446   0.270   4.123   0.642 -0.1833 -0.1906  0.0121
 3937SOL    HW123447   0.333   4.182   0.601  1.8549 -2.7605 -0.5468
 3937SOL    HW223448   0.273   4.156   0.732 -0.4567 -0.1980  0.0243
 3938SOL     OW23449   1.550   1.871   8.150 -0.6192  0.0187 -0.5242
 3938SOL    HW123450   1.478   1.898   8.207 -1.5814 -2.4805 -0.5409
 3938SOL    HW223451   1.598   1.801   8.194 -0.4371  2.3499  3.0153
 3939SOL     OW23452   4.337   4.117   3.194  0.6421  0.1899  0.0071
 3939SOL    HW123453   4.400   4.051   3.223 -1.4783 -2.2370 -0.8983
 3939SOL    HW223454   4.302   4.070   3.118 -1.1983 -0.5382  1.2937
 3940SOL     OW23455   2.895   0.102   8.209 -0.4252  0.0869  0.1735
 3940SOL    HW123456   2.856   0.156   8.141 -0.6756 -1.0946 -0.6161
 3940SOL    HW223457   2.951   0.035   8.170 -0.4126 -0.1826  0.6550
 3941SOL     OW23458   0.411   1.505   6.301 -0.7325  0.0265  0.1396
 3941SOL    HW123459   0.471   1.443   6.343 -0.2273  0.2883 -0.1915
 3941SOL    HW223460   0.435   1.490   6.209 -0.2854  1.7506 -0.0346
 3942SOL     OW23461   1.483   1.409   2.364 -0.1895  0.3813 -0.5340
 3942SOL    HW123462   1.515   1.385   2.277 -1.9156  1.4392 -1.4780
 3942SOL    HW223463   1.443   1.324   2.383  1.4787 -0.1375  0.6515
 3943SOL     OW23464   0.731   2.505  14.882  0.2854 -0.1190 -0.4779
 3943SOL    HW123465   0.679   2.576  14.846  1.0520  0.9688  0.5698
 3943SOL    HW223466   0.805   2.522  14.824  1.4818 -2.8986  0.1869
 3944SOL     OW23467   3.982   1.821  15.795 -0.1858  0.2074 -0.1702
 3944SOL    HW123468   4.068   1.783  15.777 -0.0648 -0.2240  1.3165
 3944SOL    HW223469   3.963   1.844  15.704 -0.4942  1.7069  0.2648
 3945SOL     OW23470   4.720   1.241  14.001 -0.4709  0.2682  0.2894
 3945SOL    HW123471   0.051   1.236  13.932 -0.2779  0.4700  0.4613
 3945SOL    HW223472   0.035   1.301  14.056  0.2460  0.2689 -0.3669
 3946SOL     OW23473   3.698   1.228   5.401 -0.4859  0.0630 -0.0858
 3946SOL    HW123474   3.763   1.208   5.469 -1.7581  0.8200  1.3537
 3946SOL    HW223475   3.727   1.170   5.330 -1.2106 -0.9370  0.4310
 3947SOL     OW23476   1.045   4.209   7.202  0.0720  0.3034  0.0559
 3947SOL    HW123477   0.971   4.150   7.218  0.1153  0.1065 -0.4732
 3947SOL    HW223478   1.072   4.218   7.293 -1.9348 -3.4479  1.0157
 3948SOL     OW23479   2.112   0.293   1.256  0.1134 -0.3233 -0.0427
 3948SOL    HW123480   2.194   0.327   1.219 -0.0811 -0.2935 -0.4344
 3948SOL    HW223481   2.094   0.355   1.327  2.7486  0.9382 -0.4595
 3949SOL     OW23482   0.999   3.592   9.175  0.0071 -0.3197 -0.4636
 3949SOL    HW123483   1.078   3.640   9.152  0.3450  0.0459  1.4377
 3949SOL    HW223484   1.031   3.518   9.226 -1.9302  0.8047  2.4246
 3950SOL     OW23485   2.666   2.145   5.339  0.2610 -0.2300  0.1032
 3950SOL    HW123486   2.675   2.050   5.347 -0.7239 -0.2164  1.4229
 3950SOL    HW223487   2.631   2.157   5.251 -0.3261  1.1106  0.5216
 3951SOL     OW23488   2.235   1.620   3.635  0.0754  0.8287  0.4117
 3951SOL    HW123489   2.169   1.663   3.690  0.9663  0.4422  1.7861
 3951SOL    HW223490   2.209   1.656   3.551 -0.0952 -1.6017 -0.5786
 3952SOL     OW23491   0.799   2.658   4.068  0.1079 -0.6214 -0.0117
 3952SOL    HW123492   0.888   2.670   4.100  0.8820 -1.7676 -1.7017
 3952SOL    HW223493   0.788   2.730   4.005  1.5868 -1.1032 -0.8268
 3953SOL     OW23494   1.670   4.414  14.302 -0.6226  0.7700 -0.7855
 3953SOL    HW123495   1.641   4.326  14.322  1.0629  0.9002  2.1798
 3953SOL    HW223496   1.763   4.404  14.279 -0.3653  1.5715 -0.0655
 3954SOL     OW23497   4.003   4.300   5.712  0.0155 -0.0373 -0.5508
 3954SOL    HW123498   4.080   4.341   5.674 -0.6066  0.0561 -1.7232
 3954SOL    HW223499   4.037   4.265   5.795  0.0701  0.8269 -0.2062
 3955SOL     OW23500   4.016   2.288   4.653 -0.4104  0.6186 -0.2852
 3955SOL    HW123501   4.050   2.202   4.630  1.6284  1.1158  0.8651
 3955SOL    HW223502   4.004   2.280   4.748 -2.0416 -0.5822 -0.5969
 3956SOL     OW23503   0.278   4.719   7.723  0.9330  0.1804 -0.3489
 3956SOL    HW123504   0.191   4.706   7.762  1.3406 -1.2129  0.1035
 3956SOL    HW223505   0.316   0.055   7.773  1.6456 -0.5173  0.0974
 3957SOL     OW23506   3.206   1.054   0.547 -0.1871 -0.1101 -0.0882
 3957SOL    HW123507   3.213   1.134   0.600  2.4554 -0.0882 -0.4420
 3957SOL    HW223508   3.156   1.001   0.609  0.0345  1.1640  1.2083
 3958SOL     OW23509   0.980   3.255   3.646  0.4366 -0.4079  0.4960
 3958SOL    HW123510   1.070   3.248   3.615  0.4739 -0.4851  0.6185
 3958SOL    HW223511   0.937   3.317   3.588 -0.3185 -0.5786  0.8666
 3959SOL     OW23512   0.234   0.034   8.613 -0.1956 -0.3725  0.2967
 3959SOL    HW123513   0.190   0.052   8.529  2.4130  2.4017 -0.4568
 3959SOL    HW223514   0.224   4.674   8.615 -0.1358 -0.3757  0.4206
 3960SOL     OW23515   0.468   2.166   9.275  0.5627 -0.3534  0.4670
 3960SOL    HW123516   0.443   2.239   9.332  1.1952 -0.9244  1.4720
 3960SOL    HW223517   0.425   2.199   9.196 -0.0472  0.0374  0.9605
 3961SOL     OW23518   0.434   1.191  10.850 -0.0634 -0.3220 -0.3041
 3961SOL    HW123519   0.505   1.161  10.906 -0.6207 -0.7583  0.1707
 3961SOL    HW223520   0.456   1.135  10.775 -0.5791  1.2650 -1.6351
 3962SOL     OW23521   0.953   4.553   3.589  0.7295  0.3305  0.2597
 3962SOL    HW123522   0.970   4.600   3.508 -0.6520  1.9986  0.9342
 3962SOL    HW223523   1.003   4.473   3.576 -1.2754 -1.0661  1.1769
 3963SOL     OW23524   2.550   0.618  15.339  0.2356  0.0190  0.0950
 3963SOL    HW123525   2.551   0.648  15.429  3.0934  0.1906  0.0260
 3963SOL    HW223526   2.526   0.702  15.299 -0.8330 -0.8785 -1.1484
 3964SOL     OW23527   1.448   1.145   2.448 -0.1373 -0.0299 -0.2373
 3964SOL    HW123528   1.466   1.175   2.537 -0.2202  1.4398 -0.7233
 3964SOL    HW223529   1.538   1.138   2.416  0.6763  1.9083  1.6393
 3965SOL     OW23530   2.469   1.635   2.126 -0.6892 -1.1917 -0.3723
 3965SOL    HW123531   2.442   1.720   2.091  0.1838  0.5024  3.0418
 3965SOL    HW223532   2.402   1.621   2.194 -0.8430 -0.5476 -0.3847
 3966SOL     OW23533   3.257   2.183   4.275 -0.3448  0.0688 -0.0653
 3966SOL    HW123534   3.294   2.219   4.193  2.6883  0.1757  1.3315
 3966SOL    HW223535   3.170   2.175   4.236  0.1259 -2.2222 -0.6324
 3967SOL     OW23536   0.431   2.663   8.377  0.2656 -0.1598  0.1805
 3967SOL    HW123537   0.356   2.622   8.420 -0.3430 -0.2546 -0.9655
 3967SOL    HW223538   0.387   2.721   8.314  1.6971 -0.9452 -1.5408
 3968SOL     OW23539   1.537   2.489   2.478 -0.5992  0.2939 -0.0108
 3968SOL    HW123540   1.552   2.406   2.433 -0.5610  0.9750 -1.2485
 3968SOL    HW223541   1.461   2.473   2.534  0.4667 -0.6344  1.1734
 3969SOL     OW23542   0.634   3.654   8.363  0.1886 -0.2072 -0.4646
 3969SOL    HW123543   0.558   3.704   8.392  1.3401  1.5138 -0.4091
 3969SOL    HW223544   0.687   3.650   8.443 -1.6209  1.4196  0.8034
 3970SOL     OW23545   2.920   1.314   5.969 -0.2126  0.1366 -0.3147
 3970SOL    HW123546   2.848   1.266   5.929  0.3594 -0.1565 -0.9982
 3970SOL    HW223547   2.886   1.401   5.988  1.4921  0.6649  0.2672
 3971SOL     OW23548   4.541   1.216  17.020  0.2748 -0.2743 -0.3532
 3971SOL    HW123549   4.492   1.298  17.030  0.0453 -0.1290 -2.5084
 3971SOL    HW223550   4.484   1.152  17.062 -1.2597  4.2165  4.3212
 3972SOL     OW23551   2.980   3.335   6.146 -0.2722  1.0618 -0.2970
 3972SOL    HW123552   3.047   3.365   6.207 -1.1732 -0.8104  1.6130
 3972SOL    HW223553   2.957   3.253   6.189 -1.2489 -0.0864 -2.9630
 3973SOL     OW23554   2.092   4.213   6.471 -0.3905  0.2037 -0.1872
 3973SOL    HW123555   2.114   4.304   6.489  1.8527 -0.0605 -1.6265
 3973SOL    HW223556   2.004   4.230   6.436 -0.6180 -1.7466 -0.5422
 3974SOL     OW23557   3.532   1.594  16.333  0.3697  0.1598  0.3862
 3974SOL    HW123558   3.513   1.644  16.413  0.8014 -1.0473  1.2428
 3974SOL    HW223559   3.612   1.551  16.364  0.6045 -0.5534 -1.2471
 3975SOL     OW23560   2.491   3.443   5.872 -0.1360 -0.3471 -0.1209
 3975SOL    HW123561   2.439   3.493   5.935 -0.6287 -0.6355 -0.2995
 3975SOL    HW223562   2.573   3.428   5.919 -0.7640 -1.4705  0.6043
 3976SOL     OW23563   1.233   1.959   0.665  0.5923 -0.6058 -0.2597
 3976SOL    HW123564   1.218   1.988   0.755 -0.0725  0.7458 -0.8041
 3976SOL    HW223565   1.256   1.868   0.683  0.4656 -0.1305  2.3046
 3977SOL     OW23566   0.539   0.125  12.804  0.0236  0.1799  0.1626
 3977SOL    HW123567   0.534   0.038  12.764  0.4623 -0.4835  1.5498
 3977SOL    HW223568   0.458   0.161  12.770  0.3581 -0.1914 -1.0404
 3978SOL     OW23569   4.100   2.754  11.184 -0.5692 -0.0774 -0.3932
 3978SOL    HW123570   4.040   2.680  11.178  0.1167 -0.6286 -0.3461
 3978SOL    HW223571   4.069   2.795  11.265 -0.0655 -3.5138  1.5270
 3979SOL     OW23572   2.402   4.078   9.190 -0.3930 -0.0425  0.0954
 3979SOL    HW123573   2.370   3.988   9.181 -0.5453 -0.1600  1.7195
 3979SOL    HW223574   2.447   4.076   9.275 -2.1805  0.8279  1.0594
 3980SOL     OW23575   1.788   2.230   5.211  1.0676  0.0780  0.3101
 3980SOL    HW123576   1.828   2.189   5.287  1.8332 -1.1492 -0.7555
 3980SOL    HW223577   1.741   2.300   5.257  1.1650 -0.4235  1.1560
 3981SOL     OW23578   1.835   2.138  16.172 -0.0906  0.4436 -0.1471
 3981SOL    HW123579   1.783   2.192  16.114  0.2779 -0.6236 -1.4643
 3981SOL    HW223580   1.883   2.084  16.110  1.8611  1.1191  0.7635
 3982SOL     OW23581   3.265   0.604   9.443 -0.7331 -0.8181 -0.0744
 3982SOL    HW123582   3.263   0.568   9.355 -3.5576 -0.0210 -0.3205
 3982SOL    HW223583   3.269   0.700   9.441 -0.9190 -0.8121 -0.1503
 3983SOL     OW23584   3.170   4.442   1.791  0.7304  0.6065 -0.0629
 3983SOL    HW123585   3.089   4.395   1.810  1.0363  1.0173  2.3227
 3983SOL    HW223586   3.213   4.446   1.876 -0.7393 -1.9413  0.7961
 3984SOL     OW23587   0.484   3.430   7.369 -0.1262  0.0792 -0.4043
 3984SOL    HW123588   0.430   3.497   7.326  0.7116  0.1582 -1.3259
 3984SOL    HW223589   0.420   3.359   7.372 -0.6968  0.5195 -2.4814
 3985SOL     OW23590   2.187   0.899   2.435  0.2045  0.5648  0.1440
 3985SOL    HW123591   2.226   0.845   2.504 -0.3946  1.0528  0.8579
 3985SOL    HW223592   2.265   0.911   2.380  0.4198  0.8541  0.5136
 3986SOL     OW23593   0.952   2.368   6.427  0.2137 -0.1470  0.2001
 3986SOL    HW123594   0.865   2.384   6.463  0.6500  1.2973  0.6143
 3986SOL    HW223595   0.963   2.433   6.358 -1.8849 -1.2388 -1.1746
 3987SOL     OW23596   2.844   0.537  17.079  0.1829 -0.1782 -0.6307
 3987SOL    HW123597   2.939   0.533  17.073  0.2319 -2.4202  1.8636
 3987SOL    HW223598   2.826   0.520  16.986 -0.3962  1.1582 -0.7797
 3988SOL     OW23599   1.982   0.397  13.620 -0.1272  0.6098 -0.3283
 3988SOL    HW123600   2.029   0.314  13.618  2.3237  2.0069 -0.3731
 3988SOL    HW223601   2.024   0.429  13.700  0.0462  3.1773 -1.4531
 3989SOL     OW23602   0.669   4.065   3.813  0.5135 -0.2737  0.4829
 3989SOL    HW123603   0.657   4.095   3.903  0.2639 -0.7724  0.6215
 3989SOL    HW223604   0.611   3.988   3.815  2.3775 -1.6719  1.3735
 3990SOL     OW23605   0.451   2.217  15.729 -0.2465 -0.5891  0.1313
 3990SOL    HW123606   0.415   2.154  15.792  0.1542  0.0219  0.9754
 3990SOL    HW223607   0.488   2.164  15.659 -0.2479 -3.4391  2.2974
 3991SOL     OW23608   1.718   1.754   2.240  0.2089 -0.1403  0.1995
 3991SOL    HW123609   1.807   1.750   2.276  0.3904  4.1578  0.2854
 3991SOL    HW223610   1.723   1.670   2.195 -0.0383  2.0626 -3.8967
 3992SOL     OW23611   2.272   1.421   8.149 -0.7693  0.3056 -0.9435
 3992SOL    HW123612   2.297   1.358   8.216  0.1377  1.6354 -0.0363
 3992SOL    HW223613   2.185   1.449   8.177 -0.0450  1.1816  0.3976
 3993SOL     OW23614   1.985   0.374  15.137  0.2168  0.2904 -0.6954
 3993SOL    HW123615   1.997   0.297  15.193  1.6392 -0.2845 -1.7993
 3993SOL    HW223616   1.891   0.371  15.117  0.4486 -1.1553 -1.5421
 3994SOL     OW23617   2.974   0.556   8.587 -0.8349  0.4842  0.0590
 3994SOL    HW123618   2.928   0.589   8.664 -3.0436 -2.0921 -0.1165
 3994SOL    HW223619   2.932   0.472   8.569 -1.8933  0.7127  1.4985
 3995SOL     OW23620   3.091   0.408   1.191 -0.3942  0.3235  0.0886
 3995SOL    HW123621   3.127   0.341   1.133 -0.8602 -2.0038  2.5276
 3995SOL    HW223622   3.017   0.437   1.136  0.4474  0.3938 -1.0134
 3996SOL     OW23623   1.752   4.574   7.747 -0.2104 -0.5304  0.4652
 3996SOL    HW123624   1.743   4.481   7.726  0.3264 -0.8312  1.5613
 3996SOL    HW223625   1.809   4.581   7.824 -1.6332 -1.1048  1.5872
 3997SOL     OW23626   2.060   0.451   2.519 -0.2297  0.4631 -0.0254
 3997SOL    HW123627   1.979   0.497   2.497 -0.3021  0.1090 -0.4981
 3997SOL    HW223628   2.059   0.454   2.615 -0.3212  0.9284 -0.0399
 3998SOL     OW23629   1.213   1.263  16.052 -0.3580  0.1056 -0.1081
 3998SOL    HW123630   1.247   1.302  16.133 -1.3895 -0.6082  0.6680
 3998SOL    HW223631   1.138   1.320  16.035 -2.2390 -2.2337  0.4674
 3999SOL     OW23632   0.285   2.662   7.111  0.1830 -0.1067  0.0135
 3999SOL    HW123633   0.204   2.710   7.094  0.0196 -0.4710 -0.2274
 3999SOL    HW223634   0.333   2.731   7.158 -2.6149  2.7265 -1.3242
 4000SOL     OW23635   0.977   1.478   6.539  0.1523  0.2878  0.7079
 4000SOL    HW123636   0.976   1.492   6.634 -0.5893 -1.2269  0.9113
 4000SOL    HW223637   0.949   1.563   6.504 -1.6916 -0.7777 -0.3651
 4001SOL     OW23638   2.356   0.904   8.190  0.0494  0.4118  0.1137
 4001SOL    HW123639   2.299   0.904   8.266  1.9837 -0.5293  1.5588
 4001SOL    HW223640   2.441   0.932   8.225  0.5699 -1.9433  0.7341
 4002SOL     OW23641   3.574   0.293   5.630 -0.4742  0.3230  0.1737
 4002SOL    HW123642   3.608   0.235   5.562 -1.0807  0.8795 -0.6070
 4002SOL    HW223643   3.535   0.367   5.583 -2.5597 -0.6750  0.3759
 4003SOL     OW23644   2.456   2.826  14.344  0.3295  0.1076 -0.2154
 4003SOL    HW123645   2.362   2.823  14.360 -0.0813  1.3183 -2.4189
 4003SOL    HW223646   2.458   2.749  14.286 -0.0414  0.0709 -0.1780
 4004SOL     OW23647   3.444   4.727   0.144  0.5143  0.3607 -0.1473
 4004SOL    HW123648   3.369   4.722   0.085  0.6698  2.3491 -0.5140
 4004SOL    HW223649   3.404   4.689   0.222 -0.7265  1.8642 -0.0620
 4005SOL     OW23650   0.397   0.282   3.108 -0.6924  0.0906  0.4043
 4005SOL    HW123651   0.394   0.242   3.020 -0.3214 -3.1536  1.8544
 4005SOL    HW223652   0.451   0.359   3.092 -1.4520  0.0246 -2.5485
 4006SOL     OW23653   2.141   3.727   7.127 -0.2558  0.3696 -0.2358
 4006SOL    HW123654   2.120   3.720   7.034  1.7951 -0.8324 -0.5857
 4006SOL    HW223655   2.117   3.642   7.163  0.0328  0.7839  0.9370
 4007SOL     OW23656   4.182   4.118  16.183 -0.0580 -0.0137 -0.1659
 4007SOL    HW123657   4.155   4.154  16.268  0.9165 -0.9153  0.5281
 4007SOL    HW223658   4.110   4.156  16.133 -2.9537 -3.3434  1.4033
 4008SOL     OW23659   0.629   2.130   4.968  0.2697  0.7692  0.5671
 4008SOL    HW123660   0.559   2.113   5.030  0.2070  0.2057  0.3440
 4008SOL    HW223661   0.621   2.050   4.915 -2.2366  1.6779 -0.4272
 4009SOL     OW23662   3.829   1.961  12.859 -0.1018 -0.6221  0.1730
 4009SOL    HW123663   3.826   1.918  12.945 -0.5064  0.5508  0.7427
 4009SOL    HW223664   3.838   1.887  12.799  2.1903 -2.2058  2.4643
 4010SOL     OW23665   0.789   2.902  12.137  0.3956 -0.7574 -0.0940
 4010SOL    HW123666   0.777   2.972  12.072 -0.5387 -0.9525 -0.1211
 4010SOL    HW223667   0.865   2.850  12.108 -0.1477 -1.0477 -1.0116
 4011SOL     OW23668   3.437   0.150   2.738 -1.0044  0.3079 -0.6183
 4011SOL    HW123669   3.500   0.080   2.719 -0.0937  1.1374 -0.6581
 4011SOL    HW223670   3.449   0.217   2.670 -2.1871  2.1411  0.9783
 4012SOL     OW23671   0.519   3.054   5.238  0.5617 -0.8011  0.7270
 4012SOL    HW123672   0.441   3.083   5.286  0.2561  3.7697 -2.5610
 4012SOL    HW223673   0.524   3.136   5.189  0.6859 -2.1874 -1.5382
 4013SOL     OW23674   2.040   0.241   2.964 -0.0191 -0.2894  0.0764
 4013SOL    HW123675   1.982   0.216   3.037 -1.9712 -0.6193 -1.5821
 4013SOL    HW223676   1.993   0.194   2.895 -1.1961  0.8283  0.1235
 4014SOL     OW23677   0.650   1.912   9.048  1.1692  0.9734  0.4719
 4014SOL    HW123678   0.637   1.839   8.987 -0.1842  0.9919  0.7323
 4014SOL    HW223679   0.569   1.898   9.097  0.7446 -2.8785 -1.3592
 4015SOL     OW23680   2.783   1.177  14.062  0.4882  0.3166  0.4247
 4015SOL    HW123681   2.753   1.268  14.060 -1.9073 -0.4369  1.3338
 4015SOL    HW223682   2.830   1.180  14.145  1.5128 -2.4027 -0.0554
 4016SOL     OW23683   1.850   1.521   3.388  0.1207  0.2605 -0.3483
 4016SOL    HW123684   1.925   1.494   3.442  1.9507  4.2192 -0.8813
 4016SOL    HW223685   1.787   1.450   3.395 -0.1590  0.5437  0.0433
 4017SOL     OW23686   2.592   3.436   6.915  0.1210 -0.1981 -0.4695
 4017SOL    HW123687   2.573   3.524   6.882 -1.6206 -0.1234  0.7222
 4017SOL    HW223688   2.686   3.448   6.928 -0.0047 -0.8493  0.9696
 4018SOL     OW23689   0.793   3.423   0.731 -0.1227  0.0249 -0.6410
 4018SOL    HW123690   0.840   3.491   0.682  2.7338 -0.7895  0.9895
 4018SOL    HW223691   0.732   3.404   0.659 -0.1967 -0.9801 -0.3118
 4019SOL     OW23692   2.205   0.223   5.352 -0.6182 -0.0600 -0.1706
 4019SOL    HW123693   2.299   0.216   5.368 -0.1644  1.3006 -2.1668
 4019SOL    HW223694   2.174   0.254   5.437 -1.0417 -3.7008  0.9862
 4020SOL     OW23695   2.516   2.732   8.678  0.0352 -0.0859  0.8929
 4020SOL    HW123696   2.608   2.705   8.671  0.3123  0.8568  0.9648
 4020SOL    HW223697   2.520   2.817   8.635 -2.0270 -0.7646 -0.6491
 4021SOL     OW23698   0.290   2.443   4.509  0.2916  0.2701  0.1176
 4021SOL    HW123699   0.263   2.451   4.600 -0.1431 -0.1927  0.0274
 4021SOL    HW223700   0.326   2.531   4.496  1.7228 -0.3606 -0.2096
 4022SOL     OW23701   1.509   3.383   2.209  0.7752 -0.4706 -0.9465
 4022SOL    HW123702   1.589   3.435   2.211  0.6156 -0.2264 -0.8424
 4022SOL    HW223703   1.465   3.419   2.132 -1.0695 -1.0955 -0.1891
 4023SOL     OW23704   4.401   2.353   6.503 -0.9770 -0.5657 -0.3886
 4023SOL    HW123705   4.456   2.425   6.474 -1.7128  0.8010  1.6613
 4023SOL    HW223706   4.391   2.309   6.418  0.8193 -4.1045  1.2233
 4024SOL     OW23707   2.387   3.759   9.993  0.2754 -0.1388  0.6710
 4024SOL    HW123708   2.351   3.670   9.990 -0.5364  0.1804  1.1694
 4024SOL    HW223709   2.398   3.783  10.085  0.2147  1.5396  0.2351
 4025SOL     OW23710   2.482   4.080  14.825  0.3153  0.2919  0.4690
 4025SOL    HW123711   2.495   4.098  14.732  1.2261 -0.5625  0.4310
 4025SOL    HW223712   2.556   4.122  14.868  0.1742  2.6626 -1.6426
 4026SOL     OW23713   3.391   3.364   4.833  0.0676 -0.1925 -0.0148
 4026SOL    HW123714   3.435   3.372   4.918 -1.6824  1.2975  0.7461
 4026SOL    HW223715   3.315   3.318   4.868  0.4004  0.3565  1.4031
 4027SOL     OW23716   1.948   3.290  11.765 -0.1533  0.3248 -0.0153
 4027SOL    HW123717   2.000   3.277  11.686 -0.3974 -2.4053  0.2829
 4027SOL    HW223718   1.968   3.380  11.789  1.1280 -0.1022  0.5006
 4028SOL     OW23719   0.457   4.107   6.604  0.2929  0.4901  0.0386
 4028SOL    HW123720   0.379   4.118   6.550  0.7786  0.8568 -0.5843
 4028SOL    HW223721   0.459   4.199   6.628  0.7611  0.4962 -0.0313
 4029SOL     OW23722   0.450   2.462   9.644  0.2227 -0.0045 -0.0520
 4029SOL    HW123723   0.463   2.532   9.580 -1.0709  0.1127 -0.1916
 4029SOL    HW223724   0.434   2.516   9.721  4.4962  1.8944 -0.5186
 4030SOL     OW23725   1.871   3.568   8.597  0.0895 -0.5896 -0.4082
 4030SOL    HW123726   1.807   3.506   8.563  0.8574 -0.9583 -1.1918
 4030SOL    HW223727   1.824   3.603   8.673  2.5113  1.7847  0.0325
 4031SOL     OW23728   0.210   2.756  11.692  0.1981 -0.1317  0.1989
 4031SOL    HW123729   0.172   2.810  11.761 -1.8323  0.6087 -1.4893
 4031SOL    HW223730   0.144   2.688  11.681 -0.2080 -0.6731  6.0388
 4032SOL     OW23731   3.387   4.270   5.667  0.4361 -0.0025  0.1570
 4032SOL    HW123732   3.382   4.331   5.741  1.0776 -0.3114  0.4482
 4032SOL    HW223733   3.440   4.199   5.703  0.4973 -0.4725 -0.8532
 4033SOL     OW23734   3.490   1.001   6.587  0.4161  0.0174 -0.2540
 4033SOL    HW123735   3.444   0.947   6.523  1.4998 -2.3528  0.9837
 4033SOL    HW223736   3.445   1.085   6.575  0.6193  0.1776  0.1084
 4034SOL     OW23737   2.347   0.618  16.488 -0.0525  0.5176  0.0453
 4034SOL    HW123738   2.300   0.537  16.509 -1.2089 -0.0425 -4.7616
 4034SOL    HW223739   2.403   0.630  16.565 -1.1440 -1.1718  1.1118
 4035SOL     OW23740   0.372   3.606   3.338  0.0026  0.1374  0.2153
 4035SOL    HW123741   0.343   3.696   3.355  2.9052  1.2196 -0.5975
 4035SOL    HW223742   0.318   3.580   3.263  2.3863  0.4452 -1.5951
 4036SOL     OW23743   0.263   3.625  12.368 -0.5572 -0.1513 -0.3349
 4036SOL    HW123744   0.278   3.613  12.274 -1.6486 -0.1806 -0.5085
 4036SOL    HW223745   0.304   3.708  12.394  1.7000 -1.5449  0.5731
 4037SOL     OW23746   4.341   0.960   7.104  0.2009  0.3339 -0.1883
 4037SOL    HW123747   4.427   1.000   7.090  0.8663 -0.7896  0.6822
 4037SOL    HW223748   4.286   1.027   7.144  1.4150  0.1856  1.7274
 4038SOL     OW23749   4.395   4.716  11.605  0.0825  0.0924  0.2256
 4038SOL    HW123750   4.327   4.728  11.671  0.4272 -1.4194  0.8565
 4038SOL    HW223751   4.452   4.664  11.661  0.6804 -1.1819 -1.5584
 4039SOL     OW23752   4.634   2.471   6.885  0.4543 -0.3186 -0.0101
 4039SOL    HW123753   4.606   2.437   6.970  0.8151  1.3005  0.7622
 4039SOL    HW223754   4.559   2.525   6.860  1.4358 -0.1594 -2.6788
 4040SOL     OW23755   2.648   4.709  13.544  0.3425 -0.0367 -0.8109
 4040SOL    HW123756   2.625   4.663  13.625  2.0315 -1.0083 -0.8802
 4040SOL    HW223757   2.723   4.663  13.507 -0.1262 -0.2005 -1.5590
 4041SOL     OW23758   3.862   1.524   1.788  0.3674  0.3725  0.3395
 4041SOL    HW123759   3.840   1.603   1.836 -0.4699 -0.1212  0.7569
 4041SOL    HW223760   3.781   1.477   1.804  1.3564 -1.2864  0.5126
 4042SOL     OW23761   2.554   2.676  17.305 -0.1183 -0.1559  0.0012
 4042SOL    HW123762   2.542   2.700  17.397 -0.4057 -3.2879  0.7845
 4042SOL    HW223763   2.470   2.693  17.263  1.1577  0.1387 -2.4461
 4043SOL     OW23764   1.232   2.211   6.310  0.3023  0.5643 -0.1593
 4043SOL    HW123765   1.314   2.260   6.299 -1.1415  3.0879  0.3825
 4043SOL    HW223766   1.167   2.280   6.301  0.6399  0.9363  0.2360
 4044SOL     OW23767   3.160   4.167  12.191  0.3612 -0.1563  0.7620
 4044SOL    HW123768   3.104   4.222  12.137  0.0688 -0.7617  0.4477
 4044SOL    HW223769   3.142   4.080  12.153 -1.4286  0.4879  0.1317
 4045SOL     OW23770   1.665   0.839   4.855 -0.0360  0.3534 -0.1364
 4045SOL    HW123771   1.606   0.823   4.781 -1.2974 -2.7904  1.5382
 4045SOL    HW223772   1.661   0.746   4.878  2.7465  0.2345 -0.1397
 4046SOL     OW23773   2.218   2.994  17.712  0.1506 -0.3582 -0.1216
 4046SOL    HW123774   2.172   2.913  17.690  0.6693 -0.3005 -1.3900
 4046SOL    HW223775   2.140   3.034   0.011  1.2147  1.8841 -0.3045
 4047SOL     OW23776   0.501   2.662  13.931 -0.3882  0.2014  0.4613
 4047SOL    HW123777   0.457   2.706  13.858  2.7123 -0.5373 -1.8617
 4047SOL    HW223778   0.515   2.733  13.992 -0.5451 -0.0970  0.8469
 4048SOL     OW23779   2.436   2.613  11.187 -0.0053  0.2952 -0.3223
 4048SOL    HW123780   2.412   2.697  11.147  1.6733  0.7252 -0.4099
 4048SOL    HW223781   2.354   2.597  11.234  0.1681 -1.5567 -0.6496
 4049SOL     OW23782   3.599   4.458  14.954  0.3240 -0.2143  0.2986
 4049SOL    HW123783   3.646   4.540  14.939  0.1028 -0.7287 -3.1710
 4049SOL    HW223784   3.552   4.444  14.872  1.4737 -0.5281 -0.3095
 4050SOL     OW23785   4.002   0.439   1.839 -0.1345 -0.0763 -0.1993
 4050SOL    HW123786   3.978   0.526   1.807 -1.5653 -0.2979  0.2633
 4050SOL    HW223787   3.919   0.410   1.877 -1.5176  2.0776 -1.6038
 4051SOL     OW23788   2.042   0.476   1.468  0.4407  0.7308  0.3973
 4051SOL    HW123789   2.009   0.562   1.495  3.6163  1.3775  2.2234
 4051SOL    HW223790   2.101   0.454   1.539  1.9219  1.2524 -0.6781
 4052SOL     OW23791   2.451   0.840   3.163 -0.5506  0.0001 -0.1141
 4052SOL    HW123792   2.515   0.776   3.132 -2.6229 -1.1036 -2.1627
 4052SOL    HW223793   2.443   0.887   3.080 -3.1828  1.5904  1.0632
 4053SOL     OW23794   4.358   2.184  13.144  0.1155 -0.2335 -0.5746
 4053SOL    HW123795   4.385   2.197  13.236 -0.9012  0.6855 -0.3978
 4053SOL    HW223796   4.431   2.151  13.093 -1.2579 -1.0787 -2.0020
 4054SOL     OW23797   0.372   0.286   4.345 -0.3252 -0.3808 -0.5804
 4054SOL    HW123798   0.413   0.202   4.366  2.5326  1.3210  0.5790
 4054SOL    HW223799   0.287   0.249   4.321 -0.5168 -0.0456 -0.4018
 4055SOL     OW23800   1.547   3.894   6.051 -0.2890  0.7854 -0.0438
 4055SOL    HW123801   1.498   3.975   6.061 -1.3455  0.0467  0.8299
 4055SOL    HW223802   1.585   3.877   6.137 -1.6512  0.1121  0.4408
 4056SOL     OW23803   3.196   1.602   4.553  0.3330 -0.2902 -0.5722
 4056SOL    HW123804   3.162   1.528   4.604  0.7193 -0.9447 -1.2559
 4056SOL    HW223805   3.173   1.677   4.607  0.0278 -0.0472 -1.0373
 4057SOL     OW23806   1.984   1.308  16.716  0.6297  0.1937  0.2614
 4057SOL    HW123807   1.983   1.379  16.652 -0.3762  0.3981  0.5119
 4057SOL    HW223808   2.077   1.285  16.710  0.3839 -1.5038  3.1733
 4058SOL     OW23809   2.334   1.437   6.337 -0.2151 -0.2087  0.9447
 4058SOL    HW123810   2.319   1.362   6.279  0.7458 -0.5785  1.1785
 4058SOL    HW223811   2.378   1.397   6.412 -1.3429 -0.2908  1.5736
 4059SOL     OW23812   2.707   2.870   9.281 -0.5419 -0.0359  0.4434
 4059SOL    HW123813   2.645   2.866   9.354 -1.1988 -0.7538 -0.1580
 4059SOL    HW223814   2.705   2.959   9.246 -0.9092  0.8555  2.7181
 4060SOL     OW23815   4.670   4.710   5.048  0.2447 -0.9799  0.0986
 4060SOL    HW123816   4.675   4.625   5.090 -1.6646 -0.7927  0.7226
 4060SOL    HW223817   0.019   0.012   5.074 -0.7913  3.0773 -2.2137
 4061SOL     OW23818   2.154   1.149   0.164 -0.4053  0.2790  0.0935
 4061SOL    HW123819   2.170   1.192   0.080 -0.6522  0.8074  0.3214
 4061SOL    HW223820   2.244   1.135   0.195 -0.7728  1.4985  1.6386
 4062SOL     OW23821   2.886   4.719  15.778 -0.4931  0.6291 -0.0109
 4062SOL    HW123822   2.916   0.055  15.722  3.4333 -0.5854  0.5244
 4062SOL    HW223823   2.963   4.706  15.834  0.6170  1.4282 -1.3505
 4063SOL     OW23824   4.524   4.199   5.522 -0.2971  0.0385  0.0442
 4063SOL    HW123825   4.521   4.233   5.611  0.8712 -0.8197  0.4060
 4063SOL    HW223826   4.604   4.241   5.491 -0.6446  1.7155  1.3808
 4064SOL     OW23827   2.968   1.293   8.631  0.9990  0.3930  0.1858
 4064SOL    HW123828   2.918   1.325   8.706  1.2612 -2.2667  1.4846
 4064SOL    HW223829   3.052   1.299   8.676 -0.3182 -1.1005  2.8269
 4065SOL     OW23830   1.810   2.558  17.493 -0.4579  0.1290 -0.0415
 4065SOL    HW123831   1.814   2.641  17.540 -0.5539  0.2521 -0.2488
 4065SOL    HW223832   1.869   2.500  17.541  1.6040  2.2819  0.0247
 4066SOL     OW23833   0.251   4.541   3.428 -0.4797  0.3972  0.3878
 4066SOL    HW123834   0.243   4.541   3.523  2.7241  1.1456  0.6911
 4066SOL    HW223835   0.223   4.451   3.415  0.8390  0.1295 -0.6766
 4067SOL     OW23836   3.691   4.360  17.522 -0.1682 -0.1627  0.3867
 4067SOL    HW123837   3.619   4.341  17.582  1.1449  1.3882  2.4327
 4067SOL    HW223838   3.662   4.318  17.440  1.2632  0.7241 -0.5597
 4068SOL     OW23839   2.091   1.591   2.099 -0.4601 -0.2746  0.1950
 4068SOL    HW123840   2.055   1.630   2.179  1.2825  2.6606 -0.4314
 4068SOL    HW223841   2.042   1.632   2.028  0.3506  1.0017  0.3574
 4069SOL     OW23842   0.438   2.710   2.156 -0.6007 -0.0866  0.1576
 4069SOL    HW123843   0.506   2.756   2.107 -2.3565  1.8390 -0.4700
 4069SOL    HW223844   0.487   2.634   2.187 -1.3022 -1.1227 -1.3066
 4070SOL     OW23845   1.850   0.418  13.112 -0.1526 -0.2986  0.1368
 4070SOL    HW123846   1.811   0.340  13.152  1.7356 -1.1811  0.2544
 4070SOL    HW223847   1.887   0.459  13.191  0.3814 -1.3500  0.4251
 4071SOL     OW23848   0.354   1.731  17.626  0.1522  0.1450 -0.1220
 4071SOL    HW123849   0.324   1.816  17.658  0.0844 -0.0831  0.4137
 4071SOL    HW223850   0.445   1.745  17.598 -0.4139  1.2158 -1.4520
 4072SOL     OW23851   3.706   0.144   5.469  0.0326 -0.1357 -1.3314
 4072SOL    HW123852   3.799   0.134   5.450  0.7766  3.3032  0.5300
 4072SOL    HW223853   3.659   0.092   5.403  1.4378 -1.8852 -0.9399
 4073SOL     OW23854   0.648   3.000   6.978  0.5854 -0.1935  0.4747
 4073SOL    HW123855   0.730   3.030   6.939  0.2760 -0.9779 -0.7539
 4073SOL    HW223856   0.676   2.917   7.016 -1.1855 -0.9842  0.0726
 4074SOL     OW23857   1.756   3.037   0.983  0.1735 -0.0353 -0.5502
 4074SOL    HW123858   1.692   2.969   1.006  0.1202 -0.4709 -2.0159
 4074SOL    HW223859   1.719   3.068   0.901  1.1345 -0.3650 -1.1114
 4075SOL     OW23860   2.437   4.509  16.257 -0.5001 -0.2137  0.2493
 4075SOL    HW123861   2.394   4.497  16.172 -1.2715  0.8991  0.4751
 4075SOL    HW223862   2.506   4.572  16.239 -0.5933 -0.8912 -2.3992
 4076SOL     OW23863   3.091   0.635   0.560 -0.0045  0.4446  0.0606
 4076SOL    HW123864   3.016   0.687   0.589  1.1743  2.4174 -0.4804
 4076SOL    HW223865   3.111   0.652   0.468 -1.1286 -2.3278 -0.7018
 4077SOL     OW23866   1.250   0.050  16.582 -0.0329  0.1247 -0.3115
 4077SOL    HW123867   1.316   0.069  16.649  1.1042  0.7506 -1.6064
 4077SOL    HW223868   1.284   0.113  16.518  0.7412  0.0284  0.0022
 4078SOL     OW23869   3.384   3.618   6.385 -0.0958 -0.3524 -0.1718
 4078SOL    HW123870   3.452   3.592   6.323  0.5462 -1.4654  1.0001
 4078SOL    HW223871   3.405   3.708   6.411  1.7045 -0.5135 -1.0687
 4079SOL     OW23872   3.958   2.274   7.896 -0.1466 -0.5493  0.0376
 4079SOL    HW123873   3.992   2.185   7.900  0.4500 -0.2980  0.5435
 4079SOL    HW223874   3.866   2.249   7.886 -0.1021  0.2779 -2.4963
 4080SOL     OW23875   1.196   0.480   9.679  0.3221  0.3981  0.0650
 4080SOL    HW123876   1.249   0.525   9.744 -0.5826  0.7577  0.5592
 4080SOL    HW223877   1.138   0.436   9.741  0.4499 -1.1257 -0.8751
 4081SOL     OW23878   2.636   4.138   0.303 -0.0998 -0.6012 -0.1545
 4081SOL    HW123879   2.695   4.117   0.375 -1.8692 -1.0612  1.1699
 4081SOL    HW223880   2.688   4.129   0.223  0.4109 -2.9713  0.4347
 4082SOL     OW23881   2.528   0.464   4.017 -0.2691 -0.2587 -0.0856
 4082SOL    HW123882   2.612   0.421   4.004 -1.5431 -3.8497  3.3640
 4082SOL    HW223883   2.493   0.430   4.100 -0.7074 -0.3313 -0.2986
 4083SOL     OW23884   0.178   2.823   9.708 -0.9223  0.4121  0.7634
 4083SOL    HW123885   0.173   2.897   9.768 -1.7596 -1.0296  2.4745
 4083SOL    HW223886   0.265   2.827   9.669 -1.7008 -0.2491 -1.0591
 4084SOL     OW23887   3.641   1.780   5.390 -0.3562 -0.3161 -0.1421
 4084SOL    HW123888   3.646   1.703   5.333  1.2230  1.4134 -2.3235
 4084SOL    HW223889   3.704   1.837   5.347 -1.8780 -0.2187 -2.2522
 4085SOL     OW23890   1.081   3.265   3.160 -0.1468 -0.3698 -0.1354
 4085SOL    HW123891   1.136   3.205   3.109 -2.1126  0.2450 -2.9567
 4085SOL    HW223892   1.131   3.347   3.162 -1.2287  0.2176  2.7433
 4086SOL     OW23893   0.435   2.484   8.815  0.5398 -0.9974  0.4443
 4086SOL    HW123894   0.408   2.452   8.729 -1.4283  0.6558  0.4381
 4086SOL    HW223895   0.494   2.548   8.776 -0.8717 -0.4641 -0.8339
 4087SOL     OW23896   2.188   4.359   1.856 -0.2950  0.5862  0.0050
 4087SOL    HW123897   2.189   4.280   1.802  1.4146  0.3486  0.3797
 4087SOL    HW223898   2.267   4.405   1.827  0.3054 -0.3409  0.1798
 4088SOL     OW23899   3.854   1.309   7.591 -0.5299  0.5606  0.3476
 4088SOL    HW123900   3.776   1.312   7.535 -0.2422 -2.1524 -0.1615
 4088SOL    HW223901   3.865   1.217   7.612  0.8463  0.3110 -1.5267
 4089SOL     OW23902   4.491   1.611  12.613 -0.6216 -0.3441  0.3492
 4089SOL    HW123903   4.479   1.552  12.687 -0.2518 -0.8830 -0.0273
 4089SOL    HW223904   4.472   1.688  12.667  0.4214  0.1627 -0.0224
 4090SOL     OW23905   0.172   1.278   0.210  0.1025  0.1022 -0.2168
 4090SOL    HW123906   0.208   1.302   0.296 -1.4714  2.6421 -0.2604
 4090SOL    HW223907   0.229   1.330   0.153  1.3667 -0.7499  0.2660
 4091SOL     OW23908   0.099   0.904   4.797 -0.2992 -0.1634 -0.7043
 4091SOL    HW123909   0.042   0.971   4.759  0.2053 -0.2467 -1.6118
 4091SOL    HW223910   0.178   0.955   4.777 -2.0061  2.5399 -0.5324
 4092SOL     OW23911   1.809   2.353   9.164 -0.3146  0.0631 -0.2623
 4092SOL    HW123912   1.719   2.327   9.145 -0.1270 -0.5186 -0.3714
 4092SOL    HW223913   1.821   2.317   9.252  0.5884  1.4684  0.1917
 4093SOL     OW23914   2.974   2.085  10.823  0.0245  0.4175  0.0462
 4093SOL    HW123915   2.958   2.173  10.788  1.1260  0.4404 -0.3890
 4093SOL    HW223916   2.922   2.033  10.762  1.3660  0.1245 -0.8320
 4094SOL     OW23917   1.532   2.776   5.815 -0.2101 -0.5758  0.1791
 4094SOL    HW123918   1.580   2.695   5.798 -0.6661 -0.2256 -2.7491
 4094SOL    HW223919   1.561   2.829   5.740 -0.8834 -0.6659 -0.1397
 4095SOL     OW23920   3.819   4.282   3.019 -0.7292  0.0546  0.0310
 4095SOL    HW123921   3.878   4.245   2.954 -0.8613  0.5020 -0.3418
 4095SOL    HW223922   3.860   4.368   3.027  0.6596 -0.8378  2.5390
 4096SOL     OW23923   1.494   2.072  16.573 -0.2645 -0.1494 -0.0552
 4096SOL    HW123924   1.401   2.062  16.593  0.4673 -0.7972  3.0969
 4096SOL    HW223925   1.508   2.036  16.486  1.7730 -1.3696  0.7829
 4097SOL     OW23926   1.299   2.412  15.226 -0.3981 -0.0125 -0.1957
 4097SOL    HW123927   1.362   2.470  15.268  0.5744  1.2345 -3.3904
 4097SOL    HW223928   1.217   2.450  15.257 -1.6921 -1.5361 -1.7065
 4098SOL     OW23929   3.896   0.733   8.067 -0.0397  0.2438  0.1022
 4098SOL    HW123930   3.804   0.712   8.052 -0.0700  0.3371  0.1606
 4098SOL    HW223931   3.935   0.720   7.981  0.8221 -0.7438  0.6254
 4099SOL     OW23932   0.884   3.854   3.786 -0.3105  0.4307  0.4833
 4099SOL    HW123933   0.910   3.776   3.738  0.7326  0.3136  1.2393
 4099SOL    HW223934   0.804   3.876   3.738  0.8381  1.0920 -1.1361
 4100SOL     OW23935   0.234   0.021   5.361  0.2515 -0.3976 -0.6383
 4100SOL    HW123936   0.287   4.712   5.427 -1.1841 -0.0560  0.7567
 4100SOL    HW223937   0.146   0.010   5.397  1.1155 -1.5758  1.0924
 4101SOL     OW23938   3.249   0.568   3.427  0.7780 -0.3491  0.3017
 4101SOL    HW123939   3.217   0.482   3.401 -0.0076  0.3280 -0.9499
 4101SOL    HW223940   3.340   0.549   3.448  0.6246 -2.3584 -0.9211
 4102SOL     OW23941   1.087   0.518  10.237  0.1828  0.9769  0.0645
 4102SOL    HW123942   1.018   0.565  10.284 -0.7325 -0.0828 -0.2490
 4102SOL    HW223943   1.166   0.547  10.283 -0.6560 -0.1747  2.2376
 4103SOL     OW23944   0.153   0.437   9.200  0.4360  0.2781 -0.2324
 4103SOL    HW123945   0.224   0.373   9.197 -1.9952 -2.4578  0.9387
 4103SOL    HW223946   0.086   0.389   9.152  0.4369 -1.3952  1.4404
 4104SOL     OW23947   2.060   2.463   3.483 -0.7903 -0.2862  0.0227
 4104SOL    HW123948   2.103   2.529   3.429 -4.7929  1.8580 -0.5123
 4104SOL    HW223949   2.112   2.467   3.563 -0.6540 -1.4072 -0.0053
 4105SOL     OW23950   3.986   2.000  17.108  0.2940 -0.5762  0.1650
 4105SOL    HW123951   4.079   1.987  17.124  0.3151  1.6063  1.7141
 4105SOL    HW223952   3.968   1.927  17.047 -2.6192  0.1294  0.1869
 4106SOL     OW23953   0.697   3.830   4.229 -0.3778  0.0651 -0.7577
 4106SOL    HW123954   0.602   3.819   4.224 -0.4316 -0.3426  1.0516
 4106SOL    HW223955   0.711   3.917   4.192  1.5702 -0.4053 -1.1086
 4107SOL     OW23956   0.135   2.717   3.719  0.4320 -0.0986  0.2853
 4107SOL    HW123957   0.096   2.795   3.679 -0.5715 -0.3870  0.6992
 4107SOL    HW223958   0.090   2.720   3.803 -1.6796 -2.3621 -0.7845
 4108SOL     OW23959   2.964   1.838  11.431  0.4567  0.0895 -0.2536
 4108SOL    HW123960   2.930   1.915  11.476 -0.5307 -0.6171  0.2107
 4108SOL    HW223961   2.893   1.774  11.430  0.6396 -0.0820 -1.6783
 4109SOL     OW23962   2.835   1.928   3.638 -0.4077 -0.4218 -0.0483
 4109SOL    HW123963   2.758   1.874   3.620  0.1210 -2.4149  3.5755
 4109SOL    HW223964   2.899   1.898   3.574  1.0139 -0.0777  1.2173
 4110SOL     OW23965   2.126   3.760   5.902 -0.3582  0.1906 -0.0795
 4110SOL    HW123966   2.063   3.793   5.965 -1.0329  0.1435 -0.7301
 4110SOL    HW223967   2.089   3.675   5.878 -1.8208 -0.0122  2.8460
 4111SOL     OW23968   2.547   1.391   7.706  0.1606  0.0128 -0.4335
 4111SOL    HW123969   2.585   1.417   7.790 -0.4739  0.9591 -0.4412
 4111SOL    HW223970   2.455   1.415   7.712  1.0117  3.3470 -1.0556
 4112SOL     OW23971   0.692   2.414  10.148 -0.3215 -0.6879 -0.4797
 4112SOL    HW123972   0.722   2.377  10.232 -2.4737 -0.1825  0.5184
 4112SOL    HW223973   0.600   2.406  10.172 -0.8655 -2.7655 -3.3349
 4113SOL     OW23974   3.035   3.562   6.931 -0.2085  0.1189 -0.7706
 4113SOL    HW123975   3.015   3.506   7.005 -0.4567  0.3962 -0.6291
 4113SOL    HW223976   3.120   3.585   6.969 -1.0123 -0.1593  1.1958
 4114SOL     OW23977   2.811   1.833   0.046  0.1572  0.2583  0.0229
 4114SOL    HW123978   2.750   1.896   0.008 -1.2728 -0.6178  0.8670
 4114SOL    HW223979   2.841   1.777  17.714  1.5631  1.1532 -0.0807
 4115SOL     OW23980   2.074   2.155   7.433 -0.2664 -0.1647 -0.2870
 4115SOL    HW123981   2.015   2.084   7.406  2.0898 -1.0140 -3.2241
 4115SOL    HW223982   2.058   2.162   7.527  1.0517  0.3551 -0.0946
 4116SOL     OW23983   1.626   1.164   1.075 -0.4839  0.3993 -0.5382
 4116SOL    HW123984   1.696   1.207   1.124 -1.5347  0.8834  0.5369
 4116SOL    HW223985   1.667   1.157   0.989 -0.1340  2.0889 -0.5066
 4117SOL     OW23986   1.985   0.153  15.280  0.3312 -0.0799  0.0032
 4117SOL    HW123987   2.018   0.113  15.361  0.0388 -1.7429 -0.7188
 4117SOL    HW223988   1.965   0.078  15.225  2.4840  0.5776 -1.6727
 4118SOL     OW23989   3.674   1.201   0.918 -0.1584 -0.1589  0.1615
 4118SOL    HW123990   3.659   1.123   0.971  0.1472 -0.3488 -0.0293
 4118SOL    HW223991   3.744   1.175   0.859 -0.2130  0.6097 -0.2462
 4119SOL     OW23992   4.158   2.914   2.771  0.0025  0.2899  0.3040
 4119SOL    HW123993   4.066   2.929   2.751  0.4653  2.0381 -0.5220
 4119SOL    HW223994   4.172   2.969   2.848  1.7789 -0.0133  0.1877
 4120SOL     OW23995   1.770   1.759   4.886  1.0063 -0.5005  0.0324
 4120SOL    HW123996   1.740   1.806   4.808  0.7946 -1.1180 -0.2582
 4120SOL    HW223997   1.846   1.814   4.903  1.3338 -1.3009  1.1438
 4121SOL     OW23998   4.109   2.451   8.726  0.6598  0.0387  0.3248
 4121SOL    HW123999   4.073   2.410   8.805  2.0277 -2.4365 -0.3439
 4121SOL    HW224000   4.180   2.507   8.758  0.9887 -0.2768  0.1438
 4122SOL     OW24001   3.536   3.403   8.092 -0.6820 -0.1720 -0.0015
 4122SOL    HW124002   3.528   3.423   8.186 -0.2582  0.4731 -0.0996
 4122SOL    HW224003   3.501   3.484   8.055 -0.2196 -0.6384 -1.4633
 4123SOL     OW24004   3.142   2.141  10.573 -0.1489 -0.6942  0.1262
 4123SOL    HW124005   3.151   2.201  10.648 -1.7328 -0.0875 -0.1553
 4123SOL    HW224006   3.081   2.190  10.518  1.0474  1.3666  0.6102
 4124SOL     OW24007   0.455   1.007  11.660 -0.1757  0.4633  0.6684
 4124SOL    HW124008   0.372   0.984  11.700 -0.9534 -0.6702 -1.5706
 4124SOL    HW224009   0.447   1.099  11.685  3.7777  1.6701 -2.5513
 4125SOL     OW24010   0.494   2.740  15.874  0.0400 -0.1488  0.3042
 4125SOL    HW124011   0.508   2.648  15.853 -0.3614 -0.4594  1.3647
 4125SOL    HW224012   0.484   2.735  15.969 -0.0452  0.5051  0.3307
 4126SOL     OW24013   3.524   4.365   5.245  0.0101 -0.4937  0.1456
 4126SOL    HW124014   3.593   4.328   5.190  0.7388 -0.8849  1.3043
 4126SOL    HW224015   3.449   4.310   5.226  0.1442 -0.0633 -1.6308
 4127SOL     OW24016   0.186   2.310   6.458 -1.0214  0.8301  0.0139
 4127SOL    HW124017   0.094   2.298   6.480 -0.5705 -0.1747  1.3996
 4127SOL    HW224018   0.221   2.221   6.468 -0.5339  0.8467 -1.4942
 4128SOL     OW24019   1.277   3.557  13.382  0.3626 -0.0871  0.1639
 4128SOL    HW124020   1.261   3.621  13.452 -2.3908 -1.5845  0.9084
 4128SOL    HW224021   1.211   3.581  13.316  1.0990 -0.7972 -0.8103
 4129SOL     OW24022   0.176   0.377   2.185 -0.4051 -0.5620 -0.0061
 4129SOL    HW124023   0.244   0.440   2.206 -4.1599  3.2192  0.8489
 4129SOL    HW224024   0.181   0.311   2.254  2.1577  0.4550  0.7610
 4130SOL     OW24025   1.155   1.168  10.153  0.1086  0.6323 -0.8452
 4130SOL    HW124026   1.084   1.183  10.216 -0.7843  0.8478 -1.9113
 4130SOL    HW224027   1.174   1.074  10.164 -0.9229  0.5757  0.4149
 4131SOL     OW24028   1.232   1.578   1.427  0.2752 -0.4020  0.0553
 4131SOL    HW124029   1.297   1.508   1.419  1.3653  0.4543  1.6049
 4131SOL    HW224030   1.290   1.651   1.404 -0.5536  0.4080  0.5457
 4132SOL     OW24031   1.604   4.101   6.530 -0.2203 -0.5011 -0.1997
 4132SOL    HW124032   1.661   4.041   6.484 -0.3859  0.2070 -1.3495
 4132SOL    HW224033   1.657   4.134   6.602  0.3453 -1.7612 -0.0495
 4133SOL     OW24034   2.912   3.304   3.757  0.0043  0.3407  0.5558
 4133SOL    HW124035   2.886   3.390   3.723  2.2949  1.0706  0.7103
 4133SOL    HW224036   2.998   3.302   3.716  0.3649 -2.0715  1.4439
 4134SOL     OW24037   2.592   1.696  16.906 -0.3869 -0.1391 -0.2345
 4134SOL    HW124038   2.657   1.636  16.869 -0.3378  0.4563 -1.1099
 4134SOL    HW224039   2.541   1.716  16.828  0.5712 -0.7230 -1.0219
 4135SOL     OW24040   2.636   0.683   3.076  0.3142 -0.2881 -0.5980
 4135SOL    HW124041   2.693   0.659   3.003 -0.1414  0.0904 -1.0724
 4135SOL    HW224042   2.664   0.627   3.148  4.1318  0.3645 -1.5814
 4136SOL     OW24043   3.340   1.715   3.837 -0.3476  0.1935 -0.3282
 4136SOL    HW124044   3.303   1.782   3.894 -1.6068  0.0175 -0.9431
 4136SOL    HW224045   3.322   1.629   3.876  1.4083 -0.1218 -0.2019
 4137SOL     OW24046   0.997   2.833   5.475  1.1241  0.1012 -0.1738
 4137SOL    HW124047   0.980   2.874   5.391 -2.0506  1.5926  1.1907
 4137SOL    HW224048   0.995   2.909   5.533  0.1397  0.9858 -1.3853
 4138SOL     OW24049   4.277   0.447  15.373  0.1973  0.1579  0.0157
 4138SOL    HW124050   4.214   0.375  15.376 -0.2383  0.7392  4.3510
 4138SOL    HW224051   4.213   0.516  15.353  0.9001  0.1599 -2.2746
 4139SOL     OW24052   1.643   3.481   6.777  0.7345 -0.2362  0.2312
 4139SOL    HW124053   1.609   3.526   6.699 -0.5543 -0.2104  0.8097
 4139SOL    HW224054   1.737   3.484   6.761  0.4730  0.0301 -1.3342
 4140SOL     OW24055   0.487   1.501   7.786 -0.1056 -0.0534 -0.4358
 4140SOL    HW124056   0.445   1.431   7.736 -0.3654 -1.3162  1.5429
 4140SOL    HW224057   0.430   1.501   7.863  0.4070 -2.7516 -0.0607
 4141SOL     OW24058   1.310   4.099   2.470  0.7099 -0.0886  0.3763
 4141SOL    HW124059   1.264   4.168   2.518 -1.9798 -3.4763  2.6419
 4141SOL    HW224060   1.364   4.147   2.406  1.2286 -0.8908  0.2226
 4142SOL     OW24061   4.681   1.324   0.903 -0.6216 -0.0415 -0.2861
 4142SOL    HW124062   4.715   1.252   0.850 -2.8663 -0.8538 -0.6481
 4142SOL    HW224063   4.692   1.388   0.832  2.9422  0.5916  0.8513
 4143SOL     OW24064   4.292   0.067   5.100  0.0854 -0.1307 -0.0654
 4143SOL    HW124065   4.307   0.111   5.183 -2.9388  0.6085  0.0834
 4143SOL    HW224066   4.198   0.063   5.080 -0.6692  2.5778  3.0459
 4144SOL     OW24067   2.797   4.445  10.863  0.6327  0.8184 -0.2605
 4144SOL    HW124068   2.725   4.388  10.890  0.9850  0.3428 -0.3134
 4144SOL    HW224069   2.868   4.395  10.904 -0.4593 -1.2978 -0.9731
 4145SOL     OW24070   3.681   1.607  11.966 -0.7170 -0.8093 -0.7360
 4145SOL    HW124071   3.739   1.541  11.927 -2.6575 -3.9100  1.6984
 4145SOL    HW224072   3.739   1.682  11.979 -1.0226 -0.8127  0.5952
 4146SOL     OW24073   2.426   3.014  12.795  0.4963 -0.5179  0.1435
 4146SOL    HW124074   2.506   2.980  12.755  0.5775 -1.7408  1.3798
 4146SOL    HW224075   2.463   3.089  12.843  0.5740  0.6639 -1.7451
 4147SOL     OW24076   1.422   3.278   4.031 -0.8361 -0.7754 -0.3146
 4147SOL    HW124077   1.420   3.371   4.006 -1.2036 -1.0635 -1.3776
 4147SOL    HW224078   1.363   3.246   3.963 -1.5462  1.0416 -0.5699
 4148SOL     OW24079   2.030   0.101   6.667 -0.7313  0.6184  0.4274
 4148SOL    HW124080   2.070   0.139   6.588  0.1389  1.5506  1.3132
 4148SOL    HW224081   2.109   0.059   6.701  0.3117  1.0719 -1.4166
 4149SOL     OW24082   4.367   3.424   4.807  0.5470  0.3884 -0.2266
 4149SOL    HW124083   4.390   3.337   4.773 -0.3778  0.7719 -1.8323
 4149SOL    HW224084   4.421   3.420   4.886 -1.6603 -0.0801  1.2660
 4150SOL     OW24085   2.010   0.206   6.348  0.3632  0.3419 -0.7695
 4150SOL    HW124086   1.955   0.130   6.328  2.8569 -1.9874  1.2460
 4150SOL    HW224087   2.067   0.211   6.272 -0.1941  3.6841 -0.9993
 4151SOL     OW24088   2.872   3.268  11.730  0.6948  0.3139 -0.7433
 4151SOL    HW124089   2.819   3.307  11.800  0.5424  2.0560 -1.8453
 4151SOL    HW224090   2.900   3.187  11.774 -2.2833 -1.5322 -2.2683
 4152SOL     OW24091   1.839   0.903   0.911  0.0958 -0.0858 -0.1613
 4152SOL    HW124092   1.836   0.910   1.007  0.0915  1.1992 -0.2462
 4152SOL    HW224093   1.847   0.993   0.879  2.4352 -1.2258 -2.7502
 4153SOL     OW24094   1.816   1.059  12.960 -0.3675 -0.4922 -0.0904
 4153SOL    HW124095   1.850   1.087  12.875 -0.2931 -0.6866 -0.1252
 4153SOL    HW224096   1.868   0.979  12.957  0.8734  0.4043 -2.0941
 4154SOL     OW24097   2.670   1.696   0.564 -0.1714  0.7381 -0.2972
 4154SOL    HW124098   2.736   1.766   0.561  0.7744 -0.1202  0.4118
 4154SOL    HW224099   2.697   1.663   0.650 -0.4737  2.9291  0.6407
 4155SOL     OW24100   3.825   2.099  10.855  0.2392 -0.2112  0.1140
 4155SOL    HW124101   3.788   2.013  10.875  0.8836 -0.7915 -1.2343
 4155SOL    HW224102   3.848   2.130  10.943  1.5853 -0.5871 -0.1078
 4156SOL     OW24103   2.570   0.429  11.332 -0.2636  0.1491 -0.1896
 4156SOL    HW124104   2.537   0.390  11.412 -1.5494 -0.2897 -0.9245
 4156SOL    HW224105   2.556   0.361  11.266  0.4271  1.2399 -1.4585
 4157SOL     OW24106   0.077   3.278   3.961  0.0726 -0.7542 -0.3259
 4157SOL    HW124107   0.076   3.190   3.998  0.0753  0.0088  1.4734
 4157SOL    HW224108   0.134   3.264   3.885 -0.3535  0.1620 -0.8221
 4158SOL     OW24109   3.215   4.504   7.721 -0.5007 -0.1783  0.0022
 4158SOL    HW124110   3.181   4.510   7.631  2.3526  0.8417 -0.9947
 4158SOL    HW224111   3.226   4.597   7.736 -1.1438 -0.1560  0.3727
 4159SOL     OW24112   2.409   0.314   7.796 -0.2233 -0.1902 -0.2070
 4159SOL    HW124113   2.479   0.261   7.757  1.1467  1.1954  0.3815
 4159SOL    HW224114   2.356   0.254   7.849  1.3745 -1.5353 -0.1292
 4160SOL     OW24115   0.830   1.455   4.559  0.0021 -0.3501  0.1697
 4160SOL    HW124116   0.746   1.432   4.599 -0.6593  2.3199  0.3171
 4160SOL    HW224117   0.859   1.368   4.534  0.2942 -0.4812  0.9549
 4161SOL     OW24118   0.620   0.068  11.300 -0.0410  0.6355 -0.2146
 4161SOL    HW124119   0.610   0.041  11.209 -2.7022  1.0030 -0.0397
 4161SOL    HW224120   0.606   0.160  11.280 -0.5967  0.5939 -0.0205
 4162SOL     OW24121   0.743   2.754   7.057  0.0451 -0.9378 -0.4135
 4162SOL    HW124122   0.797   2.711   6.990 -2.0297 -2.2604 -1.2273
 4162SOL    HW224123   0.657   2.713   7.044 -1.1623  0.0716  4.6712
 4163SOL     OW24124   4.193   1.398   4.222  0.3684  0.2202  0.3731
 4163SOL    HW124125   4.264   1.368   4.279  0.0413 -0.2418  0.5377
 4163SOL    HW224126   4.232   1.482   4.197  1.8266  0.0071  1.9578
 4164SOL     OW24127   3.265   2.563   3.367  0.0194 -0.5264  0.3549
 4164SOL    HW124128   3.286   2.501   3.437  0.9081 -1.3186 -0.6123
 4164SOL    HW224129   3.270   2.641   3.423 -0.3348  0.2676 -0.7196
 4165SOL     OW24130   3.037   4.375   5.561 -0.6624 -0.0606  0.0863
 4165SOL    HW124131   3.106   4.386   5.495  0.8495  3.5493  2.3017
 4165SOL    HW224132   3.059   4.287   5.593 -1.1302 -0.9431 -1.9926
 4166SOL     OW24133   2.291   1.750   1.346 -0.0903  0.0880 -0.0366
 4166SOL    HW124134   2.380   1.748   1.379  0.0579  2.0326 -0.2695
 4166SOL    HW224135   2.259   1.834   1.381  0.1007 -0.5182  1.5748
 4167SOL     OW24136   1.253   2.746   1.207 -0.1487 -0.1940  0.1504
 4167SOL    HW124137   1.345   2.750   1.233 -0.0347  1.1321 -0.4409
 4167SOL    HW224138   1.216   2.834   1.216  0.4844 -0.0281  1.0995
 4168SOL     OW24139   2.588   1.259   5.376  0.8029 -0.4854  0.0594
 4168SOL    HW124140   2.649   1.303   5.317  1.1921  0.5720  1.2250
 4168SOL    HW224141   2.536   1.211   5.313  0.6819 -1.7501  1.1010
 4169SOL     OW24142   1.143   3.150   2.291 -0.4163 -0.3230  0.0982
 4169SOL    HW124143   1.135   3.125   2.199 -1.7561  0.4572  0.0139
 4169SOL    HW224144   1.065   3.103   2.320 -0.6545 -1.1467 -1.8566
 4170SOL     OW24145   1.659   4.320  11.114  0.0289 -0.4525 -0.0590
 4170SOL    HW124146   1.630   4.231  11.136  0.2494 -0.9655 -1.8105
 4170SOL    HW224147   1.634   4.373  11.189  0.4781  0.7650 -0.7748
 4171SOL     OW24148   3.151   2.349  13.113 -0.5842  0.2931 -0.9054
 4171SOL    HW124149   3.204   2.398  13.051 -0.1219  0.1185 -0.6488
 4171SOL    HW224150   3.140   2.408  13.187 -0.5894  0.4488 -1.0294
 4172SOL     OW24151   0.331   2.788   1.569  0.3003 -0.1929  0.3439
 4172SOL    HW124152   0.279   2.715   1.535 -2.6925  1.9285  0.3759
 4172SOL    HW224153   0.269   2.861   1.564  0.7223  0.2059  0.7941
 4173SOL     OW24154   3.567   0.595   9.491  0.6277 -0.1640  0.0983
 4173SOL    HW124155   3.474   0.581   9.505  0.2598  1.3213 -0.9047
 4173SOL    HW224156   3.593   0.506   9.466 -0.9415 -0.2558 -1.1984
 4174SOL     OW24157   4.153   1.054   1.617 -0.3638  0.2381  0.2499
 4174SOL    HW124158   4.069   1.080   1.655 -0.9600 -0.2411 -0.7571
 4174SOL    HW224159   4.214   1.103   1.672 -0.0895  1.0243 -0.7657
 4175SOL     OW24160   2.497   3.610   2.842  0.9570  0.1523 -0.5929
 4175SOL    HW124161   2.508   3.558   2.762  0.8209  0.7499 -1.0051
 4175SOL    HW224162   2.513   3.548   2.913  0.2182  0.5610 -0.0706
 4176SOL     OW24163   1.445   4.464  12.688 -0.3574  0.0646 -0.2976
 4176SOL    HW124164   1.535   4.435  12.675 -0.4710 -0.3663 -0.1219
 4176SOL    HW224165   1.427   4.485  12.596  1.2074 -0.8763 -0.8084
 4177SOL     OW24166   4.728   2.828  12.859 -0.8313 -1.0320  0.1073
 4177SOL    HW124167   4.644   2.851  12.899 -1.0490 -0.4639 -0.6612
 4177SOL    HW224168   4.734   2.906  12.803  1.7568 -1.3056  0.0339
 4178SOL     OW24169   1.013   1.767   2.359 -0.0936  0.3485  0.4058
 4178SOL    HW124170   0.952   1.758   2.433  0.1226 -0.3568  0.4993
 4178SOL    HW224171   1.057   1.848   2.387 -1.2880  0.6992  1.2950
 4179SOL     OW24172   1.069   3.427   2.554 -0.1531 -0.5452  0.6507
 4179SOL    HW124173   1.109   3.345   2.526 -1.9227 -1.9438  2.2151
 4179SOL    HW224174   0.978   3.400   2.564 -0.5836  0.5728 -0.2377
 4180SOL     OW24175   0.597   2.114  10.097 -0.4295 -0.0095  0.0755
 4180SOL    HW124176   0.519   2.164  10.120 -0.2306  0.4681 -0.2915
 4180SOL    HW224177   0.638   2.156  10.021  0.7394  1.9853  1.8248
 4181SOL     OW24178   2.710   4.330   5.719 -0.2328 -0.2069  0.0741
 4181SOL    HW124179   2.666   4.321   5.803  0.6593  0.9990  0.6545
 4181SOL    HW224180   2.794   4.364   5.750 -0.6194 -0.7268  1.6754
 4182SOL     OW24181   0.708   4.668   4.171 -0.5981  0.1020 -0.6718
 4182SOL    HW124182   0.774   4.635   4.110  0.5422 -0.8966  1.0724
 4182SOL    HW224183   0.758   4.653   4.252 -1.8866 -1.2654 -0.1230
 4183SOL     OW24184   2.398   3.405   6.239 -0.4802  0.7245  0.1939
 4183SOL    HW124185   2.358   3.386   6.154 -0.4196  0.4101  0.2348
 4183SOL    HW224186   2.482   3.435   6.206 -0.4869 -0.3520 -0.8406
 4184SOL     OW24187   0.155   4.343   3.127  0.1335  0.3271  0.4206
 4184SOL    HW124188   0.158   4.261   3.077  0.3295  0.8709 -0.4564
 4184SOL    HW224189   0.107   4.403   3.071 -2.0041 -1.4296  0.3536
 4185SOL     OW24190   1.873   0.027   4.169  0.7326  0.7352 -0.3726
 4185SOL    HW124191   1.872   4.719   4.084 -1.9705 -1.5629  0.8642
 4185SOL    HW224192   1.874   4.686   4.227  0.6538 -0.1563 -1.5723
 4186SOL     OW24193   0.898   4.520   6.207  0.6145  0.1799  0.3183
 4186SOL    HW124194   0.907   4.427   6.227  0.1010  0.0413 -0.0861
 4186SOL    HW224195   0.833   4.513   6.137  1.0178  0.3430 -0.0686
 4187SOL     OW24196   3.943   3.926   5.008 -0.4517 -0.2098 -0.2808
 4187SOL    HW124197   3.938   3.872   5.086  1.2256 -1.2963 -0.9133
 4187SOL    HW224198   3.997   3.881   4.943  1.7057  0.6183  0.9341
 4188SOL     OW24199   4.370   4.307   8.391  0.6878  0.4389  0.6800
 4188SOL    HW124200   4.425   4.304   8.470 -0.0065  1.7486  1.2152
 4188SOL    HW224201   4.432   4.262   8.334  0.6681  1.1595  0.0836
 4189SOL     OW24202   0.933   0.754  14.500  0.5610 -0.1874 -0.3210
 4189SOL    HW124203   0.946   0.669  14.459 -0.7915 -0.5272 -0.0282
 4189SOL    HW224204   0.846   0.772  14.466  0.2732 -1.1860 -0.1118
 4190SOL     OW24205   2.649   1.859   5.870  0.1305  0.1696 -0.2809
 4190SOL    HW124206   2.734   1.889   5.902  0.1986 -0.2657 -0.0455
 4190SOL    HW224207   2.593   1.873   5.947 -0.3896  0.6832 -0.7490
 4191SOL     OW24208   4.616   1.397  16.820 -0.1271  0.7162  0.0966
 4191SOL    HW124209   4.598   1.329  16.885 -1.4914 -1.0466 -2.0968
 4191SOL    HW224210   4.555   1.366  16.753  0.5065  0.9285 -0.5836
 4192SOL     OW24211   4.469   0.667   8.140  0.1259 -0.7305  0.6500
 4192SOL    HW124212   4.522   0.587   8.143 -0.5454 -1.1676  0.7499
 4192SOL    HW224213   4.524   0.735   8.179 -3.4510  2.0437  0.7726
 4193SOL     OW24214   0.479   4.705   3.981 -0.0282 -0.0228  0.9317
 4193SOL    HW124215   0.570   4.674   3.980 -0.2973 -0.8334  1.7275
 4193SOL    HW224216   0.440   4.620   4.001  0.1432  0.1166  1.8461
 4194SOL     OW24217   0.803   0.070   5.122  0.3298  0.0503  0.2516
 4194SOL    HW124218   0.795   0.161   5.094  0.2861  0.0205  0.1628
 4194SOL    HW224219   0.747   0.026   5.057 -0.0562  2.0331 -0.7651
 4195SOL     OW24220   0.359   3.671   5.580 -0.0184  0.6566 -0.5703
 4195SOL    HW124221   0.420   3.604   5.548 -0.1702  1.5002 -2.6629
 4195SOL    HW224222   0.421   3.740   5.602  0.6120  0.8656 -2.9728
 4196SOL     OW24223   3.217   4.135   2.069 -0.6382 -0.4002 -0.2577
 4196SOL    HW124224   3.135   4.180   2.046 -0.0671  0.2208 -1.0847
 4196SOL    HW224225   3.201   4.102   2.157 -0.5908  0.8787  0.2391
 4197SOL     OW24226   2.013   2.796   0.717  0.5380 -0.4226 -0.2977
 4197SOL    HW124227   1.919   2.791   0.702  0.5947  0.2509 -0.8719
 4197SOL    HW224228   2.047   2.759   0.635 -1.7705  0.9781 -1.8755
 4198SOL     OW24229   4.704   0.306   4.836  0.2475 -0.3716 -0.0417
 4198SOL    HW124230   4.655   0.224   4.836 -0.6586  0.1608  0.9146
 4198SOL    HW224231   4.731   0.312   4.928  0.1420 -0.9612  0.0277
 4199SOL     OW24232   2.689   3.856  15.104  0.0821  0.7349 -0.4255
 4199SOL    HW124233   2.696   3.862  15.199 -0.2145  0.2096 -0.3700
 4199SOL    HW224234   2.778   3.823  15.091  1.2673  3.2372  1.4521
 4200SOL     OW24235   1.789   1.206   8.320  0.1189 -0.1271  0.5861
 4200SOL    HW124236   1.850   1.171   8.254  1.6310 -2.1577  3.0726
 4200SOL    HW224237   1.758   1.290   8.286 -1.2635 -1.6937 -2.0318
 4201SOL     OW24238   3.512   0.951   5.443 -0.5448  0.3061  0.3619
 4201SOL    HW124239   3.514   1.031   5.391 -2.5418 -1.6638 -2.7504
 4201SOL    HW224240   3.508   0.984   5.533 -0.8407  0.3877  0.3184
 4202SOL     OW24241   4.489   2.004  10.404  0.3367  0.6394 -0.4326
 4202SOL    HW124242   4.415   2.028  10.461  1.9490  0.7611  1.6222
 4202SOL    HW224243   4.481   2.072  10.337 -0.1797  0.5693 -0.4420
 4203SOL     OW24244   3.905   3.038  14.961  0.0039 -0.6189 -0.6824
 4203SOL    HW124245   3.860   3.029  14.878 -3.2852  2.6295  0.7464
 4203SOL    HW224246   3.845   3.059  15.033  1.0840  0.2276 -0.0237
 4204SOL     OW24247   3.203   3.184   4.457 -0.1279 -0.1042 -0.0185
 4204SOL    HW124248   3.149   3.202   4.534 -3.0968 -1.9771 -1.6371
 4204SOL    HW224249   3.189   3.092   4.434 -2.0262  0.4378 -1.0519
 4205SOL     OW24250   3.950   3.882   7.875  0.0990 -0.2245  0.6187
 4205SOL    HW124251   3.912   3.795   7.887  1.1913 -0.8725 -0.5754
 4205SOL    HW224252   4.042   3.865   7.855 -0.8679 -0.6429 -3.6528
 4206SOL     OW24253   2.336   2.010   2.278  0.1902 -0.4701 -0.3705
 4206SOL    HW124254   2.329   1.915   2.268 -2.0208 -0.0883 -2.4721
 4206SOL    HW224255   2.262   2.049   2.231  0.0415 -0.0278  0.2358
 4207SOL     OW24256   3.347   1.084   2.064 -0.4186 -0.2232 -0.0338
 4207SOL    HW124257   3.341   1.030   2.143  1.5616  2.8042  2.2255
 4207SOL    HW224258   3.282   1.042   2.008 -1.5173  0.2028  0.9195
 4208SOL     OW24259   1.469   4.713   6.526  0.3793 -0.0443  0.0115
 4208SOL    HW124260   1.398   4.650   6.540 -0.7362  1.5062  1.2982
 4208SOL    HW224261   1.538   4.676   6.581 -0.5910 -1.6755  0.1384
 4209SOL     OW24262   4.019   0.967   2.820 -0.1218 -0.6241 -0.7565
 4209SOL    HW124263   4.031   0.933   2.909 -0.5998  0.7597 -0.1577
 4209SOL    HW224264   4.038   1.061   2.823  1.5414 -0.9064 -2.1982
 4210SOL     OW24265   2.522   2.988   6.089  0.0994 -0.1700  0.2772
 4210SOL    HW124266   2.571   2.907   6.103 -1.1254 -0.9265  0.1146
 4210SOL    HW224267   2.527   3.018   6.179 -0.2809 -0.8512  0.5250
 4211SOL     OW24268   0.205   1.764   7.393 -0.2470 -0.2503 -0.2037
 4211SOL    HW124269   0.211   1.858   7.411  1.6429 -0.5654  0.8266
 4211SOL    HW224270   0.200   1.720   7.478  3.3430 -1.4743 -0.6317
 4212SOL     OW24271   3.096   3.470  15.408 -0.4423  0.4424 -0.6170
 4212SOL    HW124272   3.175   3.524  15.411 -0.7374  0.8047  0.4177
 4212SOL    HW224273   3.058   3.498  15.324 -1.9653 -0.6427 -0.2778
 4213SOL     OW24274   0.435   0.909   7.676 -0.2581  0.0991  0.5672
 4213SOL    HW124275   0.432   0.890   7.582  0.5528 -0.1862  0.6055
 4213SOL    HW224276   0.357   0.860   7.703 -0.7254 -0.1092 -1.1247
 4214SOL     OW24277   0.536   3.300   6.022  0.3512 -0.4349  0.2236
 4214SOL    HW124278   0.532   3.230   5.957 -1.0118 -1.3569  1.2938
 4214SOL    HW224279   0.609   3.299   6.084  0.2665 -1.2165  0.3054
 4215SOL     OW24280   0.112   1.942   6.754 -0.3876  0.2832  0.3673
 4215SOL    HW124281   0.154   1.972   6.834 -0.0978  3.8488 -1.1081
 4215SOL    HW224282   0.118   1.847   6.758 -0.3800  0.2818  0.3292
 4216SOL     OW24283   1.340   0.046   7.720 -0.4731  0.3948  0.0555
 4216SOL    HW124284   1.368   0.059   7.811 -0.3186 -0.0885  0.0805
 4216SOL    HW224285   1.420   0.031   7.670 -0.3873 -0.2850  0.3874
 4217SOL     OW24286   2.962   3.033   7.118 -1.0179  0.3805 -0.1110
 4217SOL    HW124287   2.876   3.039   7.076 -0.7524  0.3969 -0.6491
 4217SOL    HW224288   3.028   3.027   7.049  2.1896  0.3344  2.9499
 4218SOL     OW24289   2.570   2.100  10.460  0.1997  0.3342  0.1391
 4218SOL    HW124290   2.495   2.122  10.516  2.5870  1.6935  2.8060
 4218SOL    HW224291   2.532   2.099  10.372 -0.2044  1.6236  0.2977
 4219SOL     OW24292   2.006   3.836   1.424 -0.0771 -0.1212 -0.0964
 4219SOL    HW124293   2.048   3.819   1.508 -1.3968  2.5398  1.0968
 4219SOL    HW224294   1.978   3.927   1.428  1.1958  0.2751 -0.1627
 4220SOL     OW24295   0.274   2.797   6.451  0.1283  0.0646  0.5996
 4220SOL    HW124296   0.303   2.706   6.447  0.2214  0.1805 -1.2324
 4220SOL    HW224297   0.192   2.789   6.402  0.2343 -1.1234  0.6226
 4221SOL     OW24298   2.869   1.411   4.058 -0.3972  0.2187  0.0288
 4221SOL    HW124299   2.892   1.324   4.091  3.9215  1.2300 -0.3289
 4221SOL    HW224300   2.868   1.400   3.963 -0.5092 -2.7642  0.3692
 4222SOL     OW24301   1.954   1.886   3.178  0.5072 -0.0068  0.2489
 4222SOL    HW124302   1.933   1.966   3.130 -0.2380 -0.5305 -0.3043
 4222SOL    HW224303   2.034   1.856   3.134 -1.1644 -1.7392 -1.6382
 4223SOL     OW24304   1.692   1.249   7.087  0.2605 -0.1859 -0.2790
 4223SOL    HW124305   1.784   1.235   7.065  0.5819  0.0864  0.9309
 4223SOL    HW224306   1.672   1.332   7.044 -1.8076 -0.2256  0.5875
 4224SOL     OW24307   4.038   4.289   8.390  0.5458  0.8200  0.1228
 4224SOL    HW124308   3.968   4.350   8.367  0.3092  1.0019  1.3038
 4224SOL    HW224309   4.059   4.253   8.304 -1.8349 -1.2408  0.4041
 4225SOL     OW24310   1.581   4.249   2.467 -0.1166  0.3664  0.1229
 4225SOL    HW124311   1.593   4.169   2.416  1.6148  0.9169 -0.3370
 4225SOL    HW224312   1.659   4.236   2.521  0.7484 -1.4840 -1.5818
 4226SOL     OW24313   4.709   0.025   8.063 -0.0510 -0.2725  0.0545
 4226SOL    HW124314   4.633   0.015   8.006  1.0754 -1.8307 -1.1967
 4226SOL    HW224315   4.707   0.115   8.095 -0.6583 -1.0101  2.1030
 4227SOL     OW24316   3.353   2.351   2.428 -0.6496 -0.1755 -0.3739
 4227SOL    HW124317   3.399   2.296   2.492 -1.9126 -2.3070 -1.3089
 4227SOL    HW224318   3.409   2.331   2.353 -0.1042 -0.3576  0.0822
 4228SOL     OW24319   1.680   3.808   7.229 -0.3046  0.1382  0.2313
 4228SOL    HW124320   1.640   3.827   7.314 -0.9560 -0.1622 -0.0081
 4228SOL    HW224321   1.717   3.725   7.259  1.0833  0.2899 -1.0419
 4229SOL     OW24322   2.268   2.840   7.633  0.0178  0.6074  0.6258
 4229SOL    HW124323   2.244   2.902   7.564  1.9684  0.1498 -0.4469
 4229SOL    HW224324   2.303   2.899   7.700  0.2992  0.9233  0.2030
 4230SOL     OW24325   2.340   3.663  12.194  0.4097 -0.0907  0.0741
 4230SOL    HW124326   2.318   3.573  12.217 -0.0322  0.0444  0.1726
 4230SOL    HW224327   2.435   3.658  12.202  0.5289  0.0814 -1.2697
 4231SOL     OW24328   0.666   3.202   8.394  0.2098  0.7175  0.2363
 4231SOL    HW124329   0.640   3.152   8.317  1.0747 -0.3028  0.6152
 4231SOL    HW224330   0.731   3.264   8.362  0.0126 -0.9196 -3.3103
 4232SOL     OW24331   2.469   2.065   6.957 -0.1234  0.2241 -0.3920
 4232SOL    HW124332   2.510   2.073   7.043  1.3546 -0.7229 -1.0113
 4232SOL    HW224333   2.380   2.099   6.967 -0.3794 -0.6136  0.1885
 4233SOL     OW24334   2.720   3.609  16.815  0.2331 -0.2139  0.4109
 4233SOL    HW124335   2.784   3.635  16.882 -1.3741 -3.0333  3.0365
 4233SOL    HW224336   2.742   3.517  16.827 -0.1891 -0.6129 -1.9414
 4234SOL     OW24337   1.703   2.414   7.425 -0.2956  0.8962  0.1006
 4234SOL    HW124338   1.786   2.406   7.470  1.1063  2.0301 -2.2762
 4234SOL    HW224339   1.664   2.339   7.470  2.3990 -0.6209 -0.1560
 4235SOL     OW24340   1.948   3.035   6.146  0.1094  0.1838  0.4199
 4235SOL    HW124341   1.877   3.067   6.201  1.0785  0.5342  1.4836
 4235SOL    HW224342   1.904   2.952   6.126  1.8371 -0.8652  0.9621
 4236SOL     OW24343   4.031   4.372   2.419 -0.1308 -0.2659  0.4786
 4236SOL    HW124344   4.085   4.444   2.385 -1.6508  0.8161  0.3435
 4236SOL    HW224345   4.047   4.376   2.513  0.1489  0.0302  0.4207
 4237SOL     OW24346   3.985   2.708   7.564 -0.2371 -0.6350  0.3683
 4237SOL    HW124347   4.053   2.738   7.624  1.7563 -2.9630 -0.7245
 4237SOL    HW224348   3.966   2.617   7.587  0.9024 -1.0729 -0.4399
 4238SOL     OW24349   3.211   3.794  15.253 -0.2672 -0.1628 -0.4264
 4238SOL    HW124350   3.253   3.724  15.302  1.3676  0.8699 -0.3714
 4238SOL    HW224351   3.165   3.847  15.318  1.7564  0.8093  0.1998
 4239SOL     OW24352   3.526   2.556   6.443 -0.6791 -0.4829  0.0227
 4239SOL    HW124353   3.557   2.500   6.515 -1.5661 -1.0852 -0.0710
 4239SOL    HW224354   3.574   2.524   6.366  1.0262  2.9995 -0.3399
 4240SOL     OW24355   3.125   3.352   2.439 -0.9052 -0.4123 -0.1117
 4240SOL    HW124356   3.121   3.402   2.521  1.3240  0.9671 -0.8474
 4240SOL    HW224357   3.179   3.408   2.383 -1.3553 -1.1445 -1.2800
 4241SOL     OW24358   0.226   3.845   4.318 -0.0631 -0.4431 -0.2858
 4241SOL    HW124359   0.302   3.807   4.276  0.2692  0.5004 -0.5482
 4241SOL    HW224360   0.251   3.937   4.331 -0.0950 -0.4465 -0.1959
 4242SOL     OW24361   0.932   0.016  12.294 -0.4436 -0.9603  0.1100
 4242SOL    HW124362   0.957   0.100  12.331 -0.2466 -1.0706  0.2255
 4242SOL    HW224363   0.952   0.033  12.202  2.1005 -0.3164  0.7847
 4243SOL     OW24364   0.755   1.165  10.772 -0.2938 -0.0882  0.4699
 4243SOL    HW124365   0.807   1.176  10.852  2.7901  1.4425 -1.7264
 4243SOL    HW224366   0.739   1.071  10.779 -0.4774 -0.0955 -0.0577
 4244SOL     OW24367   2.737   3.380   7.672  0.2098 -0.1347  0.3913
 4244SOL    HW124368   2.676   3.440   7.715 -1.4299 -2.4094  1.2385
 4244SOL    HW224369   2.730   3.305   7.730  0.2887 -0.2913  0.1993
 4245SOL     OW24370   0.790   3.493   5.943  0.1446  0.4213 -0.1757
 4245SOL    HW124371   0.786   3.588   5.949  1.3154  0.5904 -2.1909
 4245SOL    HW224372   0.780   3.464   6.034  2.4781 -1.5268 -0.5271
 4246SOL     OW24373   1.321   1.290   7.549 -0.4971 -0.2693 -0.1372
 4246SOL    HW124374   1.371   1.248   7.620 -1.1456  1.0169  1.0769
 4246SOL    HW224375   1.373   1.370   7.540  0.4990 -0.8624  0.2058
 4247SOL     OW24376   4.408   4.147   4.122  0.7527 -0.2117 -0.5242
 4247SOL    HW124377   4.441   4.193   4.199  0.1655 -0.2290 -0.2655
 4247SOL    HW224378   4.351   4.213   4.081 -1.7465 -2.6119 -0.9030
 4248SOL     OW24379   0.060   2.139   2.617 -0.5679 -0.1284 -0.0253
 4248SOL    HW124380   0.104   2.169   2.538  1.9737 -1.1080  1.0163
 4248SOL    HW224381   0.024   2.226   2.639 -0.0529  0.2264 -0.5895
 4249SOL     OW24382   0.470   0.937   3.995  0.3087  0.3335  0.1288
 4249SOL    HW124383   0.486   0.862   4.052 -0.6307  1.9227  2.4523
 4249SOL    HW224384   0.502   1.011   4.047 -3.1224  1.0968  1.0967
 4250SOL     OW24385   1.429   2.028  10.537 -0.4145  0.1308 -0.7006
 4250SOL    HW124386   1.382   1.945  10.523 -2.2820  1.2367 -1.0285
 4250SOL    HW224387   1.457   2.024  10.628  1.1503 -0.3539 -1.2177
 4251SOL     OW24388   2.499   2.540   6.040 -0.7363 -0.1350  0.0330
 4251SOL    HW124389   2.442   2.491   6.098 -0.9034  0.8996  0.7476
 4251SOL    HW224390   2.506   2.483   5.963  1.2611 -0.0808  0.1645
 4252SOL     OW24391   0.762   4.649  10.436 -0.6718 -1.0071 -0.1386
 4252SOL    HW124392   0.812   4.579  10.478 -2.1175 -1.5184  0.7567
 4252SOL    HW224393   0.809   4.654  10.353 -0.8120  0.6522 -0.1222
 4253SOL     OW24394   0.827   2.523  15.704  0.7312  0.1537  0.5809
 4253SOL    HW124395   0.882   2.599  15.685 -1.8031  1.7159 -0.5371
 4253SOL    HW224396   0.799   2.493  15.617  0.8773 -1.7738  1.2112
 4254SOL     OW24397   4.735   2.717   8.960  0.4736 -0.6199 -0.0096
 4254SOL    HW124398   0.053   2.718   8.881  1.0135 -1.0311  0.3483
 4254SOL    HW224399   4.664   2.662   8.928  0.0303 -0.0035 -0.0820
 4255SOL     OW24400   3.421   3.374   4.447  0.1740 -0.0072  0.1930
 4255SOL    HW124401   3.355   3.317   4.486  0.8757 -2.5502 -2.3339
 4255SOL    HW224402   3.362   3.445   4.420 -1.5515 -0.5662  2.5654
 4256SOL     OW24403   2.704   0.007   3.287  0.1531  0.4341  0.7161
 4256SOL    HW124404   2.642   4.726   3.358  1.5406 -0.7627  1.6643
 4256SOL    HW224405   2.695   0.101   3.269  0.3207  0.7530  2.2752
 4257SOL     OW24406   1.650   4.010   2.366  0.8450 -0.2184 -0.6065
 4257SOL    HW124407   1.630   3.924   2.329 -3.3909 -0.1476  1.5244
 4257SOL    HW224408   1.735   4.022   2.322  0.7654  2.3294 -0.0753
 4258SOL     OW24409   0.081   2.298   4.655  0.5402  0.0964 -0.1241
 4258SOL    HW124410   0.125   2.373   4.695  0.6139 -1.9982  3.6892
 4258SOL    HW224411   0.009   2.345   4.613 -0.7443 -0.6148  1.2968
 4259SOL     OW24412   3.441   2.422   1.939  0.2446  0.2309 -0.6125
 4259SOL    HW124413   3.365   2.416   1.881 -0.0713 -0.1083 -0.1588
 4259SOL    HW224414   3.503   2.472   1.885 -0.3686 -0.2117 -1.7315
 4260SOL     OW24415   2.582   1.122   7.919 -0.2065 -0.4396 -0.2604
 4260SOL    HW124416   2.593   1.161   8.006 -0.1487 -0.5076 -0.2375
 4260SOL    HW224417   2.606   1.032   7.937  1.7095  0.5075  1.9881
 4261SOL     OW24418   3.322   1.225   6.587  0.7577  0.0560 -0.4615
 4261SOL    HW124419   3.257   1.165   6.621  0.7596  0.8837  1.0057
 4261SOL    HW224420   3.309   1.301   6.645 -0.8475 -0.8310  0.3282
 4262SOL     OW24421   0.344   1.134  15.569  0.9258 -0.1430 -0.4182
 4262SOL    HW124422   0.274   1.069  15.563  3.3992 -2.9834  1.8302
 4262SOL    HW224423   0.286   1.209  15.550  2.4996  1.3066  0.4626
 4263SOL     OW24424   1.710   2.394  14.748 -0.0589  0.0350 -0.2092
 4263SOL    HW124425   1.784   2.336  14.763 -0.4312 -0.4527 -0.2408
 4263SOL    HW224426   1.753   2.467  14.705  2.5483 -1.5808 -0.3481
 4264SOL     OW24427   1.465   0.226   4.615 -0.3247  0.5889  1.0304
 4264SOL    HW124428   1.531   0.157   4.609 -0.5756  0.3014  1.5781
 4264SOL    HW224429   1.388   0.186   4.575  0.0103 -1.3528  2.3356
 4265SOL     OW24430   0.952   3.684   8.906 -0.7834 -0.0185 -0.5300
 4265SOL    HW124431   0.973   3.637   8.988  1.6262  0.5863 -0.7880
 4265SOL    HW224432   0.870   3.726   8.928 -0.8509  0.5496 -1.8696
 4266SOL     OW24433   1.859   2.029  16.967  0.2946 -0.1605 -0.1917
 4266SOL    HW124434   1.770   2.063  16.967  0.3550 -0.0004 -0.0811
 4266SOL    HW224435   1.908   2.090  16.913  2.4205  1.4096  3.5012
 4267SOL     OW24436   3.605   3.245   4.302  0.3910  0.1103  0.0932
 4267SOL    HW124437   3.558   3.320   4.337  1.6178  0.2322  1.4657
 4267SOL    HW224438   3.594   3.264   4.208  0.0711  0.1716  0.1438
 4268SOL     OW24439   1.780   4.128   5.239 -0.1970 -0.0824 -0.8926
 4268SOL    HW124440   1.858   4.183   5.231  0.0279 -0.3975 -0.8644
 4268SOL    HW224441   1.708   4.183   5.209  0.6323  1.4472 -0.0427
 4269SOL     OW24442   0.359   0.979   8.064  0.4531  0.5793 -0.1180
 4269SOL    HW124443   0.387   1.028   7.987 -2.5241 -0.3030 -1.7500
 4269SOL    HW224444   0.447   0.945   8.081  0.3168 -0.6656 -1.9616
 4270SOL     OW24445   1.806   0.093  14.494  0.1099  0.0199 -0.1436
 4270SOL    HW124446   1.858   0.038  14.436  1.0431  0.2756  0.4513
 4270SOL    HW224447   1.719   0.069  14.462  0.2910 -0.4672 -0.2645
 4271SOL     OW24448   4.274   2.044  13.514 -0.3849 -0.6576  0.1548
 4271SOL    HW124449   4.335   2.068  13.445 -1.4731  0.0343 -0.5581
 4271SOL    HW224450   4.316   2.080  13.593  0.1082  0.9376 -0.8365
 4272SOL     OW24451   4.307   4.545   4.437  0.0465  0.3166  0.4637
 4272SOL    HW124452   4.324   4.571   4.527  0.3775  1.0449  0.1905
 4272SOL    HW224453   4.291   4.631   4.398  0.9905 -0.3211 -1.3586
 4273SOL     OW24454   2.866   0.059  14.444  0.0205  0.4729 -0.2832
 4273SOL    HW124455   2.820   0.080  14.525 -2.8091 -1.3345 -1.4299
 4273SOL    HW224456   2.901   0.146  14.426  1.7440 -0.2227 -0.3516
 4274SOL     OW24457   4.366   1.569  12.909 -0.2824  0.0620  0.1404
 4274SOL    HW124458   4.316   1.507  12.962  0.5520  0.9470  1.9579
 4274SOL    HW224459   4.317   1.650  12.925 -0.8132 -0.3346  0.5177
 4275SOL     OW24460   4.689   1.157   5.456  0.0888  0.1090 -0.0443
 4275SOL    HW124461   4.677   1.204   5.539  0.4703  0.6480 -0.2927
 4275SOL    HW224462   4.605   1.110   5.452 -1.1561  2.1648  1.6513
 4276SOL     OW24463   0.729   2.099   2.190  0.3701 -0.4452 -0.0631
 4276SOL    HW124464   0.754   2.084   2.281 -0.3727  0.6544  0.3334
 4276SOL    HW224465   0.817   2.117   2.157  0.9197 -0.1124  1.5430
 4277SOL     OW24466   0.770   4.004   2.392 -0.6376 -0.6359  0.2456
 4277SOL    HW124467   0.852   4.038   2.428 -0.8415 -0.1493  0.2571
 4277SOL    HW224468   0.809   3.925   2.355  0.3266  0.0842 -0.2731
 4278SOL     OW24469   0.423   3.373   5.221 -0.8877  0.4355 -0.3201
 4278SOL    HW124470   0.335   3.344   5.200  0.4828 -3.1650 -1.0358
 4278SOL    HW224471   0.440   3.410   5.134 -0.5085 -0.7206 -0.7313
 4279SOL     OW24472   3.549   0.572  10.050 -0.3076 -0.2124  0.0332
 4279SOL    HW124473   3.569   0.614  10.133  0.3508 -1.1682  0.3557
 4279SOL    HW224474   3.557   0.480  10.073 -0.2521  0.1938  1.6212
 4280SOL     OW24475   0.048   1.777   3.197  0.0782 -0.5132  0.0182
 4280SOL    HW124476   0.082   1.866   3.207  0.9837 -0.8548  0.0497
 4280SOL    HW224477   0.014   1.761   3.285  2.4356 -0.2577  0.9872
 4281SOL     OW24478   2.401   0.771   5.740  0.4775  0.7110 -1.1574
 4281SOL    HW124479   2.376   0.788   5.649 -1.8001  3.2204 -0.0917
 4281SOL    HW224480   2.444   0.856   5.750  1.2096  0.2979 -0.8154
 4282SOL     OW24481   4.170   2.936   8.754  0.2263 -0.1415 -0.3707
 4282SOL    HW124482   4.110   2.862   8.766 -2.6329  2.4435  1.2527
 4282SOL    HW224483   4.251   2.899   8.789  0.1174 -1.7993 -1.9065
 4283SOL     OW24484   1.225   1.135   5.866  0.0562  0.7300 -0.2441
 4283SOL    HW124485   1.145   1.121   5.918  1.5657  0.4921  2.0290
 4283SOL    HW224486   1.244   1.226   5.891 -0.7307  0.5411  1.0563
 4284SOL     OW24487   1.447   2.688   6.321 -0.4325 -0.0313 -0.0661
 4284SOL    HW124488   1.417   2.746   6.392  0.5406  2.7258 -1.9059
 4284SOL    HW224489   1.366   2.681   6.271 -0.1851 -0.4538 -0.4053
 4285SOL     OW24490   1.362   1.526  17.209  0.7472  0.2535 -0.4900
 4285SOL    HW124491   1.326   1.527  17.121  0.9882 -1.0522 -0.6114
 4285SOL    HW224492   1.308   1.458  17.251 -0.8907  1.3839 -0.7839
 4286SOL     OW24493   0.005   4.361   9.392 -0.1430  0.1913 -0.1427
 4286SOL    HW124494   0.013   4.266   9.407  0.4424  0.1360 -0.7992
 4286SOL    HW224495   4.650   4.370   9.419  0.2860  0.7334  1.0796
 4287SOL     OW24496   2.527   4.604  15.580 -0.0130  0.3166  0.4479
 4287SOL    HW124497   2.540   4.673  15.515  1.4159 -0.5578 -0.1710
 4287SOL    HW224498   2.468   4.550  15.527 -1.2806  1.5841  0.5382
 4288SOL     OW24499   3.851   0.306  13.860 -0.3779 -0.5841 -0.2123
 4288SOL    HW124500   3.882   0.335  13.774  1.0511 -0.9551  0.1832
 4288SOL    HW224501   3.770   0.357  13.866  0.7482  1.2367 -0.2838
 4289SOL     OW24502   4.429   1.039  16.482  0.3569 -0.2828  0.4317
 4289SOL    HW124503   4.408   0.950  16.453  1.4357  0.1674 -1.7771
 4289SOL    HW224504   4.417   1.011  16.572 -0.7755  0.5084  0.5268
 4290SOL     OW24505   3.590   2.657   8.817 -0.2949 -0.1911  0.4439
 4290SOL    HW124506   3.668   2.668   8.762  0.1719  1.4767  1.4569
 4290SOL    HW224507   3.615   2.698   8.899  1.4551  1.8568 -1.1276
 4291SOL     OW24508   0.060   2.067   8.070  0.0983  0.5873 -0.7068
 4291SOL    HW124509   4.733   1.995   8.063 -1.8763  2.2579 -0.2006
 4291SOL    HW224510   0.124   2.031   8.132 -1.4470  0.4832  0.8379
 4292SOL     OW24511   3.554   2.944   3.704  0.1775 -0.3562 -0.1892
 4292SOL    HW124512   3.557   2.885   3.779 -0.2811 -1.0652 -0.7348
 4292SOL    HW224513   3.592   3.017   3.752 -2.8332 -0.2280  1.9942
 4293SOL     OW24514   0.217   3.758  11.764 -0.6589 -0.5306  0.3168
 4293SOL    HW124515   0.147   3.711  11.809  1.3503 -0.2362  3.7301
 4293SOL    HW224516   0.241   3.696  11.694 -1.7326  1.4734 -1.8352
 4294SOL     OW24517   3.670   1.793   3.363 -0.1592 -0.0846  0.2628
 4294SOL    HW124518   3.701   1.734   3.433 -0.6600  1.5555  1.8572
 4294SOL    HW224519   3.577   1.801   3.387 -0.3249  1.0906 -0.8127
 4295SOL     OW24520   4.689   4.025   9.017 -0.2042  0.0084 -0.1847
 4295SOL    HW124521   4.718   3.958   9.079  0.1761  0.2988 -0.0471
 4295SOL    HW224522   4.617   3.975   8.977 -2.0213  0.7690  2.1474
 4296SOL     OW24523   1.245   2.858   8.194 -0.5167 -0.2826  0.3644
 4296SOL    HW124524   1.195   2.798   8.249 -1.2256  1.0983  1.2344
 4296SOL    HW224525   1.177   2.868   8.128  0.8930  0.8966 -0.9144
 4297SOL     OW24526   4.152   1.607   6.684 -0.2497  0.2453 -0.1961
 4297SOL    HW124527   4.109   1.663   6.619 -3.1227 -2.0527 -0.2331
 4297SOL    HW224528   4.101   1.625   6.762 -0.6344 -0.2368 -0.3374
 4298SOL     OW24529   2.490   0.170   7.527  0.2849 -0.5659 -1.2036
 4298SOL    HW124530   2.397   0.193   7.521  0.3304  0.1149  0.5068
 4298SOL    HW224531   2.489   0.081   7.493  1.7651 -1.1594  0.3056
 4299SOL     OW24532   2.845   0.074   0.972  0.3129 -0.0603  0.2938
 4299SOL    HW124533   2.926   0.036   0.939  0.7186  1.0551  0.0152
 4299SOL    HW224534   2.784   0.007   0.942 -1.6268  1.1361  1.5667
 4300SOL     OW24535   3.829   1.650   7.504  0.1817 -0.5651  0.8427
 4300SOL    HW124536   3.786   1.657   7.419  1.6529 -3.3115 -0.1325
 4300SOL    HW224537   3.916   1.690   7.496 -1.4921  2.7506 -0.6398
 4301SOL     OW24538   3.513   0.342   4.819  0.1887  0.1994 -0.2331
 4301SOL    HW124539   3.447   0.313   4.755 -0.5314 -1.6732  1.3627
 4301SOL    HW224540   3.570   0.265   4.825  0.5858  0.7790  3.4836
 4302SOL     OW24541   2.415   0.586   7.207 -0.3157 -0.9299 -0.5994
 4302SOL    HW124542   2.335   0.535   7.190 -0.4209 -0.5467 -1.2615
 4302SOL    HW224543   2.411   0.600   7.302  0.7523 -1.4766 -0.4842
 4303SOL     OW24544   4.364   1.829   4.304  0.8003  0.0775  0.0964
 4303SOL    HW124545   4.281   1.787   4.281  1.1086 -1.2025  1.3966
 4303SOL    HW224546   4.336   1.918   4.328  0.1441  0.0305 -0.4737
 4304SOL     OW24547   3.712   4.256   7.334 -0.0818 -0.2905 -0.0014
 4304SOL    HW124548   3.805   4.247   7.353 -0.4641 -0.4070  1.7913
 4304SOL    HW224549   3.700   4.195   7.262 -1.9179 -1.5924  1.4046
 4305SOL     OW24550   4.355   1.128   5.795 -0.2337  0.8530  0.2277
 4305SOL    HW124551   4.275   1.168   5.760  0.3615  2.5722  0.8152
 4305SOL    HW224552   4.341   1.113   5.888  5.1995  0.6578  1.0317
 4306SOL     OW24553   3.104   1.393   4.715  0.2592 -0.0214  0.2921
 4306SOL    HW124554   3.038   1.411   4.781 -0.0753  0.2519 -0.1168
 4306SOL    HW224555   3.174   1.365   4.774 -0.1783  2.8714  2.1537
 4307SOL     OW24556   1.296   2.632   4.334  0.8236 -0.1786 -0.2584
 4307SOL    HW124557   1.219   2.669   4.289 -0.4701  0.2814  2.3684
 4307SOL    HW224558   1.359   2.699   4.308  1.5523 -0.1369  1.6295
 4308SOL     OW24559   3.173   4.338   4.733 -0.2036  0.2945  0.4701
 4308SOL    HW124560   3.146   4.269   4.794 -0.4327  0.1905  0.2507
 4308SOL    HW224561   3.266   4.355   4.747  0.1660 -1.0682 -0.3681
 4309SOL     OW24562   1.344   2.643   4.606  0.3578 -0.0325  0.2115
 4309SOL    HW124563   1.316   2.660   4.516  1.2408 -1.4844 -0.3299
 4309SOL    HW224564   1.367   2.551   4.595  0.1808  0.1225 -1.5741
 4310SOL     OW24565   2.910   1.684   2.320  0.2566  0.3633 -0.3724
 4310SOL    HW124566   2.945   1.606   2.363 -0.7143  1.1713  1.8363
 4310SOL    HW224567   2.817   1.678   2.342  0.2216 -1.6692 -1.1085
 4311SOL     OW24568   1.011   1.097   5.418  0.3789  0.1687 -0.3684
 4311SOL    HW124569   0.976   1.024   5.468  0.0757  0.4486 -0.1689
 4311SOL    HW224570   1.026   1.053   5.335 -2.7138 -0.4916 -0.5684
 4312SOL     OW24571   0.775   2.403   7.639  0.6759 -0.2125  0.5423
 4312SOL    HW124572   0.819   2.426   7.721 -0.0531  0.2309  0.8091
 4312SOL    HW224573   0.745   2.490   7.612  1.9017  0.6603  2.0541
 4313SOL     OW24574   0.123   1.416  14.157  0.0680  0.1610 -0.3869
 4313SOL    HW124575   0.093   1.501  14.188 -0.5668  0.3542 -1.5186
 4313SOL    HW224576   0.214   1.413  14.186  0.1834 -1.1979 -0.8947
 4314SOL     OW24577   2.616   0.590   5.797  0.1452  0.0448 -0.3746
 4314SOL    HW124578   2.547   0.523   5.795  1.2307 -1.0123 -1.9057
 4314SOL    HW224579   2.560   0.664   5.774 -0.2796  0.2433  1.2453
 4315SOL     OW24580   3.169   0.323   5.589  0.0844  0.3283 -0.0734
 4315SOL    HW124581   3.160   0.400   5.533  0.5261  0.3415 -0.1304
 4315SOL    HW224582   3.226   0.353   5.660  0.5093  0.0815 -0.3039
 4316SOL     OW24583   1.497   4.264  12.296  0.3260  0.0599 -0.0876
 4316SOL    HW124584   1.554   4.211  12.241  0.4657 -1.1776  1.2663
 4316SOL    HW224585   1.407   4.236  12.280  1.2285 -3.5060  1.1515
 4317SOL     OW24586   0.282   0.261   6.034  0.1055  0.0402 -0.2014
 4317SOL    HW124587   0.260   0.333   6.092 -1.7040 -1.5556  1.0916
 4317SOL    HW224588   0.256   0.184   6.085 -0.2410 -0.1498 -0.6559
 4318SOL     OW24589   1.012   1.631   4.667 -0.0831  0.7343  0.2565
 4318SOL    HW124590   1.033   1.561   4.729  3.5784  1.4401 -0.2062
 4318SOL    HW224591   0.950   1.585   4.611  2.0476 -0.7565 -0.8742
 4319SOL     OW24592   2.560   4.083  15.803  0.5105  0.1683  0.1887
 4319SOL    HW124593   2.481   4.136  15.812  0.2611 -0.0019 -1.0616
 4319SOL    HW224594   2.633   4.140  15.827  0.3310  1.9241 -3.6007
 4320SOL     OW24595   2.771   3.701   3.111 -0.2698 -0.0854  0.0804
 4320SOL    HW124596   2.738   3.709   3.021 -0.9644  0.0460  0.3492
 4320SOL    HW224597   2.865   3.702   3.090 -0.4718  0.6113 -0.7976
 4321SOL     OW24598   3.410   1.691  10.387 -0.0527  0.0441  0.6078
 4321SOL    HW124599   3.353   1.622  10.352 -1.0879  0.5192  1.3617
 4321SOL    HW224600   3.345   1.721  10.450 -1.7805 -2.4927  0.0269
 4322SOL     OW24601   3.729   2.529   9.195 -1.2778  0.1131 -0.6612
 4322SOL    HW124602   3.760   2.441   9.217  1.6520  0.8549 -1.7740
 4322SOL    HW224603   3.703   2.505   9.106 -0.9718 -1.6515 -0.2685
 4323SOL     OW24604   0.359   1.677  14.475 -0.4561 -0.2474 -0.3255
 4323SOL    HW124605   0.430   1.618  14.448 -0.0457 -0.4539  1.1691
 4323SOL    HW224606   0.402   1.756  14.508 -2.0861  0.3419  0.3361
 4324SOL     OW24607   2.581   0.058   0.230 -0.0999  0.0341 -0.1712
 4324SOL    HW124608   2.637   0.050   0.307 -0.0762 -0.4033 -0.2335
 4324SOL    HW224609   2.519   4.722   0.248 -0.1786  0.0570 -0.3489
 4325SOL     OW24610   3.225   1.741   6.736 -0.2738 -0.1832 -0.1921
 4325SOL    HW124611   3.132   1.753   6.755 -0.1408  1.5542 -0.6460
 4325SOL    HW224612   3.248   1.706   6.823 -1.8571  0.3268  0.4213
 4326SOL     OW24613   1.810   1.171  16.884 -0.4080 -0.1337 -0.1130
 4326SOL    HW124614   1.886   1.215  16.846  1.4449 -1.7812  1.7053
 4326SOL    HW224615   1.747   1.226  16.838  0.5530  0.6849 -0.4263
 4327SOL     OW24616   1.491   0.768   4.646  0.6553  0.1885 -0.0271
 4327SOL    HW124617   1.453   0.760   4.558 -0.4246  0.3303  0.4196
 4327SOL    HW224618   1.478   0.675   4.665  2.8915  0.1450  1.2369
 4328SOL     OW24619   4.552   3.045   6.334 -0.1106  0.5009  0.4721
 4328SOL    HW124620   4.484   2.979   6.348  0.0049  0.0930 -0.8717
 4328SOL    HW224621   4.508   3.081   6.256  1.2391  3.4697  1.0614
 4329SOL     OW24622   1.460   2.716  15.967 -0.1667 -0.1749  0.5176
 4329SOL    HW124623   1.365   2.711  15.955  0.1551  0.9420 -2.5672
 4329SOL    HW224624   1.469   2.805  15.931 -0.6989 -0.5228 -0.4689
 4330SOL     OW24625   2.901   3.906   3.283  0.1020  0.1648 -0.4559
 4330SOL    HW124626   2.830   3.868   3.230  0.6751 -1.8946  0.2969
 4330SOL    HW224627   2.904   3.838   3.350 -0.3530 -0.9739 -1.5847
 4331SOL     OW24628   2.710   4.331   8.034 -0.4307  0.3614  0.1228
 4331SOL    HW124629   2.692   4.237   8.046 -0.0563 -0.1734 -3.2591
 4331SOL    HW224630   2.792   4.326   7.984 -0.4198 -2.9433  0.4477
 4332SOL     OW24631   2.316   2.052   9.614 -0.1496 -0.4877  0.0905
 4332SOL    HW124632   2.396   2.003   9.629  1.2403  0.9244 -2.6024
 4332SOL    HW224633   2.331   2.108   9.690  1.2169  0.0442 -0.5615
 4333SOL     OW24634   4.465   1.023   5.212 -0.3227  0.0078 -0.0549
 4333SOL    HW124635   4.472   0.963   5.286  0.4858 -0.5717 -0.5991
 4333SOL    HW224636   4.557   1.042   5.193 -0.1717 -0.4170  0.2389
 4334SOL     OW24637   1.491   4.429   7.579  0.2267 -0.1224  0.5441
 4334SOL    HW124638   1.430   4.416   7.652 -0.4944 -1.3414 -0.2758
 4334SOL    HW224639   1.567   4.405   7.632  1.1705 -0.0382 -0.7832
 4335SOL     OW24640   1.200   3.897   2.149  0.2221 -0.1145 -0.6127
 4335SOL    HW124641   1.128   3.882   2.087  0.0361  1.6910 -0.8097
 4335SOL    HW224642   1.243   3.972   2.108  1.9313 -2.3224 -2.8747
 4336SOL     OW24643   4.563   3.715   7.676 -0.0027 -0.2095 -0.6892
 4336SOL    HW124644   4.544   3.766   7.755 -0.4117  0.3294 -1.1359
 4336SOL    HW224645   4.658   3.725   7.671 -0.0651  0.1649 -1.1462
 4337SOL     OW24646   0.408   2.959   6.802  0.4369 -0.3811  0.2735
 4337SOL    HW124647   0.413   2.905   6.723 -0.7394 -0.5281  0.3064
 4337SOL    HW224648   0.453   2.908   6.870  2.0600  0.3544 -0.2370
 4338SOL     OW24649   2.828   2.356  17.275 -0.3356  0.4051 -0.2284
 4338SOL    HW124650   2.801   2.274  17.234  0.5466 -0.4312  0.8770
 4338SOL    HW224651   2.742   2.383  17.308 -1.0464 -0.7569 -1.1396
 4339SOL     OW24652   3.092   4.713   1.911  0.0561 -0.0415  0.0962
 4339SOL    HW124653   3.167   0.002   1.965  0.5533  0.2079 -0.7219
 4339SOL    HW224654   3.093   4.618   1.925 -2.5352 -0.4702 -2.5390
 4340SOL     OW24655   4.037   0.666   7.821  0.1636  0.4037 -0.1707
 4340SOL    HW124656   3.946   0.638   7.814  0.6090 -0.6771 -1.6307
 4340SOL    HW224657   4.044   0.751   7.778 -0.7182  0.7086  0.2793
 4341SOL     OW24658   1.030   3.955   0.223 -0.3351 -0.7412 -0.1648
 4341SOL    HW124659   1.054   3.974   0.132  1.0777  3.8512  1.1441
 4341SOL    HW224660   1.020   4.043   0.260  2.9702 -1.5476  2.5849
 4342SOL     OW24661   3.140   2.969  17.663 -0.1323  0.0588  0.0705
 4342SOL    HW124662   3.048   2.994  17.652 -0.8774 -3.5231 -1.7275
 4342SOL    HW224663   3.182   3.054  17.675 -0.3384  0.2725 -0.6738
 4343SOL     OW24664   3.414   3.439   5.313  0.2740 -0.0795 -0.5815
 4343SOL    HW124665   3.445   3.529   5.319 -0.8803  0.1002  2.8345
 4343SOL    HW224666   3.449   3.383   5.383 -1.2128  2.1755  1.9479
 4344SOL     OW24667   1.736   0.999   0.221  0.2465  0.7513 -0.4165
 4344SOL    HW124668   1.733   0.997   0.125 -2.4293 -0.8638 -0.3104
 4344SOL    HW224669   1.684   0.919   0.230  0.6316  0.4563 -0.8226
 4345SOL     OW24670   0.391   3.076   7.921  0.1666 -0.0354  0.0016
 4345SOL    HW124671   0.483   3.087   7.895  0.6043  0.1836  1.6381
 4345SOL    HW224672   0.357   3.055   7.834  1.7833  2.8909 -1.3720
 4346SOL     OW24673   3.212   3.572   4.892 -0.6305 -0.1914 -0.3116
 4346SOL    HW124674   3.272   3.508   4.854 -0.1651  0.0035  0.0963
 4346SOL    HW224675   3.221   3.547   4.985  2.0004 -0.7107 -0.7049
 4347SOL     OW24676   4.475   0.463  11.644  0.1165 -0.7389 -0.1883
 4347SOL    HW124677   4.436   0.444  11.559 -2.7849  0.4495  0.8843
 4347SOL    HW224678   4.536   0.530  11.612  0.8946 -2.6746 -2.7439
 4348SOL     OW24679   2.100   0.828   3.500 -0.5675  0.1625  0.3331
 4348SOL    HW124680   2.076   0.753   3.554 -1.0839 -0.3679 -0.6147
 4348SOL    HW224681   2.121   0.791   3.414 -0.6581 -0.8578  0.7472
 4349SOL     OW24682   4.200   0.363  11.639  0.1835 -0.1715  0.1786
 4349SOL    HW124683   4.215   0.280  11.685 -2.3826 -1.3423 -1.0427
 4349SOL    HW224684   4.223   0.337  11.549  0.4769 -2.1229  0.8068
 4350SOL     OW24685   4.166   3.299   8.256  0.4040  0.1288  0.2897
 4350SOL    HW124686   4.121   3.281   8.339  1.5290 -2.0499  0.4343
 4350SOL    HW224687   4.098   3.357   8.225  0.6971  0.1186 -0.3594
 4351SOL     OW24688   3.404   0.799   6.001  0.0313 -0.1426 -0.3648
 4351SOL    HW124689   3.493   0.766   5.990  0.4104  0.6023  0.5272
 4351SOL    HW224690   3.359   0.733   5.948  1.5358  0.4648 -2.3838
 4352SOL     OW24691   2.538   1.023   5.761  0.0596 -0.7004 -0.4495
 4352SOL    HW124692   2.592   1.013   5.682 -2.0471  0.3688 -2.0416
 4352SOL    HW224693   2.595   1.064   5.826 -0.7480  0.2221 -0.3185
 4353SOL     OW24694   4.507   0.868   7.621 -0.8109 -0.0285 -0.0564
 4353SOL    HW124695   4.436   0.833   7.568  0.2258 -1.5020 -0.4731
 4353SOL    HW224696   4.452   0.907   7.689 -0.0070  1.0430 -0.0175
 4354SOL     OW24697   1.808   3.554   7.240 -0.2052 -0.3017  0.3709
 4354SOL    HW124698   1.788   3.461   7.241 -0.0796 -0.3707 -3.7981
 4354SOL    HW224699   1.883   3.569   7.183 -0.7989  1.6295  0.0797
 4355SOL     OW24700   3.803   0.458   0.566 -0.6117 -0.0723 -0.2943
 4355SOL    HW124701   3.740   0.528   0.586 -2.0579 -0.7880 -2.3642
 4355SOL    HW224702   3.800   0.469   0.471 -2.0588  0.6548 -0.1600
 4356SOL     OW24703   2.293   4.336   3.425  0.6497  0.2719  0.1246
 4356SOL    HW124704   2.357   4.280   3.381 -0.9511 -1.8205  0.4302
 4356SOL    HW224705   2.344   4.404   3.469  1.3304 -0.0810 -0.1187
 4357SOL     OW24706   1.707   0.864   8.932 -0.3485  0.6191  0.4174
 4357SOL    HW124707   1.636   0.822   8.883  0.1700  0.2523 -0.0322
 4357SOL    HW224708   1.775   0.802   8.904 -0.1859  1.2722 -0.6396
 4358SOL     OW24709   3.886   2.684   5.182  0.9231 -0.1455  0.2182
 4358SOL    HW124710   3.828   2.737   5.237 -0.5558 -1.4893 -0.0541
 4358SOL    HW224711   3.907   2.613   5.242 -2.4477  0.1355  1.7373
 4359SOL     OW24712   4.533   1.000   4.643 -0.3181 -0.4174  0.0635
 4359SOL    HW124713   4.482   1.030   4.718  0.0795  0.5553 -0.0553
 4359SOL    HW224714   4.615   1.048   4.655  0.1424 -1.2779  0.3789
 4360SOL     OW24715   0.310   3.549   8.391  0.4226 -0.0313 -0.2100
 4360SOL    HW124716   0.244   3.481   8.404 -0.6167  0.6183 -2.1281
 4360SOL    HW224717   0.313   3.580   8.481  0.1036  3.4962 -1.4160
 4361SOL     OW24718   0.608   3.938   7.251  0.4420  0.1544  0.2143
 4361SOL    HW124719   0.621   3.893   7.168 -1.9738 -0.4977  0.1973
 4361SOL    HW224720   0.516   3.918   7.268 -0.1591  1.5432 -1.3957
 4362SOL     OW24721   2.356   2.268   4.543 -0.0418 -0.1530  0.1540
 4362SOL    HW124722   2.263   2.253   4.528 -0.1879  0.0925  0.8144
 4362SOL    HW224723   2.371   2.363   4.543 -1.0185  0.0009  1.2113
 4363SOL     OW24724   0.442   3.228   1.769 -0.1396  0.7511  0.2857
 4363SOL    HW124725   0.537   3.236   1.779  0.0795 -0.9792 -0.4683
 4363SOL    HW224726   0.419   3.230   1.862 -3.0437 -1.3686 -0.3873
 4364SOL     OW24727   0.511   3.640   6.159 -0.1984 -0.3690  0.1825
 4364SOL    HW124728   0.597   3.629   6.200 -0.3617 -0.6233  0.4605
 4364SOL    HW224729   0.447   3.644   6.231 -1.0026  1.6647 -0.6586
 4365SOL     OW24730   3.743   2.845   8.444  0.0894  0.2465  0.3631
 4365SOL    HW124731   3.655   2.877   8.462  0.2298 -0.9495  3.1582
 4365SOL    HW224732   3.736   2.751   8.458  3.2477 -0.3655 -2.1027
 4366SOL     OW24733   0.578   4.174   8.822  0.5560 -0.5856  0.6029
 4366SOL    HW124734   0.526   4.136   8.894 -1.0190  0.6155  0.0849
 4366SOL    HW224735   0.663   4.139   8.848  0.7888 -0.6932 -0.3080
 4367SOL     OW24736   4.219   1.291   2.272 -0.4988 -0.3264  0.1940
 4367SOL    HW124737   4.192   1.373   2.230 -1.0190  0.0436  1.2498
 4367SOL    HW224738   4.314   1.307   2.279 -0.5267 -0.6642  1.2938
 4368SOL     OW24739   3.721   4.601  14.684  0.5476  0.2861 -0.2353
 4368SOL    HW124740   3.644   4.548  14.705  0.5452  0.4483  0.1546
 4368SOL    HW224741   3.705   4.683  14.730  1.3198 -0.1822  0.8668
 4369SOL     OW24742   1.251   0.367  16.875 -0.0986 -0.3403 -0.4997
 4369SOL    HW124743   1.259   0.324  16.960 -0.6955 -0.8637 -0.7087
 4369SOL    HW224744   1.235   0.459  16.897  0.2869 -1.3051  3.7188
 4370SOL     OW24745   2.740   0.657   4.053  0.3460  0.2305  0.3230
 4370SOL    HW124746   2.809   0.680   4.115  0.1526  0.3833  0.4813
 4370SOL    HW224747   2.714   0.570   4.082 -2.3809  0.5481 -1.1710
 4371SOL     OW24748   3.800   2.033   7.862 -0.4076  0.8308 -0.5670
 4371SOL    HW124749   3.841   1.974   7.799  1.5193 -1.1338  2.5611
 4371SOL    HW224750   3.754   1.964   7.909 -1.7913  1.9435 -0.2872
 4372SOL     OW24751   2.601   1.351   5.699  0.5609 -0.1337  0.4501
 4372SOL    HW124752   2.627   1.440   5.722  2.3195 -0.8313  1.1128
 4372SOL    HW224753   2.638   1.301   5.771 -2.6814 -1.1037  1.4393
 4373SOL     OW24754   4.273   3.718   0.948 -0.1259  0.1997 -0.0826
 4373SOL    HW124755   4.305   3.640   0.993 -4.1186 -1.6094 -0.3848
 4373SOL    HW224756   4.242   3.775   1.019 -2.6669 -1.3412  0.0567
 4374SOL     OW24757   4.117   3.299   7.347 -0.0958 -0.5277 -0.0870
 4374SOL    HW124758   4.203   3.260   7.329 -0.7510 -2.1143  0.1817
 4374SOL    HW224759   4.061   3.221   7.343 -1.6018  0.4385  2.4380
 4375SOL     OW24760   1.322   4.582   7.382 -0.1541 -0.1598  0.5930
 4375SOL    HW124761   1.347   4.495   7.351 -4.3303 -0.9984 -0.4456
 4375SOL    HW224762   1.369   4.584   7.465  2.3792 -1.2975 -0.8067
 4376SOL     OW24763   2.405   3.992   5.115  0.0602 -0.1803 -0.2779
 4376SOL    HW124764   2.479   3.980   5.174  0.7043  1.1321 -0.7995
 4376SOL    HW224765   2.334   3.937   5.148  0.6556  0.2526  1.6781
 4377SOL     OW24766   4.231   0.783  12.931  0.2960 -0.5793 -0.5006
 4377SOL    HW124767   4.173   0.736  12.991  0.3336  0.1813  0.1307
 4377SOL    HW224768   4.317   0.747  12.952  0.8950  0.9185 -0.3592
 4378SOL     OW24769   2.861   3.433   9.313  0.1225  0.3522  0.3912
 4378SOL    HW124770   2.808   3.407   9.389  1.5300  2.1915  2.0110
 4378SOL    HW224771   2.951   3.424   9.345  1.0624  1.4177 -1.9942
 4379SOL     OW24772   3.587   3.453   6.175  0.3892  0.0573 -0.2958
 4379SOL    HW124773   3.624   3.430   6.089 -0.2452  0.8168 -0.7703
 4379SOL    HW224774   3.614   3.545   6.178 -0.1570  0.1803  0.7708
 4380SOL     OW24775   1.391   4.133  10.336 -0.3761  0.3928 -0.2133
 4380SOL    HW124776   1.449   4.068  10.375 -0.3812  0.9762  0.7698
 4380SOL    HW224777   1.399   4.206  10.398 -1.3945  0.0260  0.3513
 4381SOL     OW24778   2.252   4.210   5.038  0.5552  0.8350  0.0478
 4381SOL    HW124779   2.278   4.273   5.106  1.3313  0.1141  0.4172
 4381SOL    HW224780   2.308   4.140   5.071  1.3708  1.5074  0.1020
 4382SOL     OW24781   0.884   1.202   0.411 -0.1412 -0.3160  0.1079
 4382SOL    HW124782   0.822   1.220   0.340 -0.6469 -1.5186  0.2353
 4382SOL    HW224783   0.964   1.247   0.386 -1.3537  1.5528 -0.3776
 4383SOL     OW24784   3.170   0.362  10.868  0.8331  0.3895  0.1441
 4383SOL    HW124785   3.093   0.359  10.812  0.8814 -1.2870  0.1773
 4383SOL    HW224786   3.166   0.456  10.888 -3.3087 -0.5595  3.8767
 4384SOL     OW24787   0.251   3.371   3.411  0.4104 -0.3652 -0.3141
 4384SOL    HW124788   0.280   3.353   3.322 -2.3547  1.1386 -1.4862
 4384SOL    HW224789   0.294   3.456   3.418  2.6988 -1.5703  0.6650
 4385SOL     OW24790   0.331   1.642  12.487  0.7443  0.0990 -0.4739
 4385SOL    HW124791   0.394   1.676  12.551 -0.3636  0.3587  0.4978
 4385SOL    HW224792   0.290   1.726  12.464  0.3295  0.3459  1.1549
 4386SOL     OW24793   1.287   1.521   9.640 -0.0742 -0.5009 -0.0132
 4386SOL    HW124794   1.192   1.506   9.644  0.1825 -1.7820  1.6301
 4386SOL    HW224795   1.304   1.563   9.556 -1.3489  0.6871  0.3156
 4387SOL     OW24796   1.457   1.184   5.210  0.0669 -0.3724  0.2438
 4387SOL    HW124797   1.486   1.167   5.300  2.4618  1.0921 -0.2618
 4387SOL    HW224798   1.530   1.228   5.168 -1.5367  2.6819  0.7140
 4388SOL     OW24799   1.955   2.406   6.650 -0.0553  0.2352 -0.4808
 4388SOL    HW124800   1.877   2.455   6.676  0.7915  0.7893  1.0153
 4388SOL    HW224801   1.993   2.373   6.732 -0.7236 -0.0694 -0.2928
 4389SOL     OW24802   4.430   0.189   7.269  0.0498  0.3407 -0.5322
 4389SOL    HW124803   4.431   0.096   7.292  1.5908  0.0731 -1.7366
 4389SOL    HW224804   4.521   0.208   7.291  0.0606  0.2665 -0.5112
 4390SOL     OW24805   0.311   1.229   6.844  0.1306  0.2907 -0.0423
 4390SOL    HW124806   0.318   1.235   6.749 -1.6708  1.4317 -0.0917
 4390SOL    HW224807   0.382   1.168   6.866 -0.4071  0.0385  0.9734
 4391SOL     OW24808   0.799   4.543   9.331 -0.2670  0.0992 -0.3424
 4391SOL    HW124809   0.857   4.589   9.391 -0.6098  0.2813 -0.1504
 4391SOL    HW224810   0.742   4.494   9.390  1.1019 -1.1769 -0.0780
 4392SOL     OW24811   3.122   3.813   4.239  0.2990 -0.7510  0.4384
 4392SOL    HW124812   3.101   3.733   4.191 -1.1375 -0.1276  0.0347
 4392SOL    HW224813   3.057   3.868   4.195  0.3872 -1.6357 -0.8009
 4393SOL     OW24814   3.644   0.380   8.215 -0.0012 -0.3333 -0.4205
 4393SOL    HW124815   3.722   0.325   8.210 -0.3940 -0.7079 -2.7748
 4393SOL    HW224816   3.643   0.417   8.303  0.9171 -2.8611  0.6468
 4394SOL     OW24817   4.157   2.920  13.979  0.5917 -0.1293 -0.5496
 4394SOL    HW124818   4.126   3.010  13.965 -3.4178 -1.7867 -2.4230
 4394SOL    HW224819   4.159   2.910  14.074 -0.6908  0.1501 -0.4832
 4395SOL     OW24820   0.279   1.663   7.639  0.0949 -0.3449 -0.0463
 4395SOL    HW124821   0.368   1.644   7.608  0.0222  0.5006 -0.7532
 4395SOL    HW224822   0.284   1.673   7.734  1.1749  0.3211 -0.1720
 4396SOL     OW24823   1.262   2.823   5.394  0.0712  0.0038 -0.3264
 4396SOL    HW124824   1.173   2.817   5.429  0.4326 -1.5220  0.3081
 4396SOL    HW224825   1.257   2.742   5.344  0.9829  0.4354 -1.1229
 4397SOL     OW24826   1.736   1.704   2.628  0.5171  0.6026 -0.4615
 4397SOL    HW124827   1.734   1.609   2.615  1.3726  0.3747  1.1535
 4397SOL    HW224828   1.661   1.732   2.575  0.0815 -0.2552 -0.3032
 4398SOL     OW24829   0.708   3.809   8.806 -0.9185 -0.7756 -0.4260
 4398SOL    HW124830   0.784   3.823   8.750 -0.2172 -0.7994  0.5270
 4398SOL    HW224831   0.705   3.885   8.865 -0.6998  0.9377 -2.5967
 4399SOL     OW24832   0.618   1.690   4.617 -0.0628 -0.2388  0.5069
 4399SOL    HW124833   0.555   1.639   4.566 -0.0558 -1.4159  1.6735
 4399SOL    HW224834   0.695   1.657   4.571 -0.0982 -1.6606  1.4738
 4400SOL     OW24835   0.225   4.343  16.014 -0.2298 -0.8399  0.1662
 4400SOL    HW124836   0.296   4.295  16.057  1.0425  0.6397 -0.2766
 4400SOL    HW224837   0.275   4.401  15.956 -0.3502  1.3130  2.2281
 4401SOL     OW24838   2.915   2.702   6.941 -0.1721  0.4640 -0.1098
 4401SOL    HW124839   2.998   2.676   6.900  1.2444  0.6378  2.6422
 4401SOL    HW224840   2.904   2.796   6.924 -2.7666  0.2407  0.3138
 4402SOL     OW24841   0.785   0.331   2.891 -0.1422 -0.9400 -0.0142
 4402SOL    HW124842   0.764   0.361   2.802  2.6873  0.9130 -0.0749
 4402SOL    HW224843   0.717   0.382   2.934 -0.5137  0.0995 -1.8357
 4403SOL     OW24844   0.777   4.661   8.850 -0.4222 -0.0770 -0.1572
 4403SOL    HW124845   0.771   4.603   8.926 -2.3262  0.5081  0.1311
 4403SOL    HW224846   0.701   4.637   8.797 -0.2326 -0.5447 -0.2217
 4404SOL     OW24847   2.225   3.663   2.832  0.1171  0.6125  0.0018
 4404SOL    HW124848   2.307   3.642   2.788  0.1640  0.7605  0.0182
 4404SOL    HW224849   2.221   3.579   2.876  1.2105  1.3337  1.4603
 4405SOL     OW24850   0.848   2.335   7.905 -0.5440 -0.3931 -0.3174
 4405SOL    HW124851   0.914   2.281   7.859  0.4185  1.1816 -0.7785
 4405SOL    HW224852   0.781   2.267   7.897  0.2156 -1.2162  0.2878
 4406SOL     OW24853   2.453   1.255   5.958  0.0364 -0.3266  0.4577
 4406SOL    HW124854   2.411   1.180   5.914  1.1791 -0.3564 -0.5878
 4406SOL    HW224855   2.386   1.323   5.950  1.5965  1.2563  0.9211
 4407SOL     OW24856   1.147   2.401   6.857  0.5872  0.1162 -0.3525
 4407SOL    HW124857   1.223   2.359   6.897 -0.5010  1.1158  2.8115
 4407SOL    HW224858   1.092   2.324   6.850  1.4919 -0.7872  2.4423
 4408SOL     OW24859   2.565   4.709   8.512  0.4416 -0.2278  0.0523
 4408SOL    HW124860   2.619   4.630   8.503  1.4256  0.4143  0.3531
 4408SOL    HW224861   2.488   4.667   8.552  1.0951 -1.6472 -0.1673
 4409SOL     OW24862   3.051   1.566   5.593  0.0944  0.7547  0.0632
 4409SOL    HW124863   3.019   1.490   5.643  2.1711 -0.0317  0.1916
 4409SOL    HW224864   3.138   1.578   5.632  0.3816  1.3618 -0.7577
 4410SOL     OW24865   1.293   3.851   0.900  0.4451 -0.3484 -0.6296
 4410SOL    HW124866   1.200   3.873   0.905  0.4254 -0.5165 -0.2787
 4410SOL    HW224867   1.298   3.769   0.948 -4.9018 -0.4712 -0.2714
 4411SOL     OW24868   2.968   2.654   9.069 -0.1532 -0.1407  0.3404
 4411SOL    HW124869   3.057   2.679   9.043 -0.5258  1.3910  0.5599
 4411SOL    HW224870   2.962   2.573   9.019 -0.5070 -0.0812  0.2853
 4412SOL     OW24871   0.043   4.086   9.395 -0.5458  0.0930 -0.0125
 4412SOL    HW124872   4.728   4.104   9.315  1.6378  3.7864 -0.5652
 4412SOL    HW224873   4.717   4.037   9.449 -1.7101  1.8900  0.2637
 4413SOL     OW24874   4.478   2.178   9.586 -0.2091 -0.1142 -0.3641
 4413SOL    HW124875   4.525   2.259   9.565 -0.2718 -0.7481 -2.9800
 4413SOL    HW224876   4.544   2.137   9.641  0.0717  1.9513  0.8518
 4414SOL     OW24877   2.972   3.382  14.206 -0.3506 -0.0073  0.2107
 4414SOL    HW124878   2.929   3.305  14.169  2.6391 -1.1953 -0.8373
 4414SOL    HW224879   2.988   3.428  14.124 -0.6635 -0.2130  0.0357
 4415SOL     OW24880   4.505   1.968  13.348 -0.7432  0.2086 -0.0047
 4415SOL    HW124881   4.558   2.032  13.300  1.4761 -2.0214 -0.5379
 4415SOL    HW224882   4.571   1.936  13.409  0.1706 -2.0829 -2.1748
 4416SOL     OW24883   4.553   1.566   9.765  0.2137 -0.4168 -0.6936
 4416SOL    HW124884   4.624   1.504   9.750  1.6043  1.1776 -0.7521
 4416SOL    HW224885   4.597   1.644   9.733 -0.5303  0.9680  1.6322
 4417SOL     OW24886   1.544   4.677   4.566  0.2723 -0.4757 -0.1031
 4417SOL    HW124887   1.535   4.644   4.655 -1.7470  1.5661  0.4384
 4417SOL    HW224888   1.531   4.593   4.521 -0.8109  0.6627 -1.9239
 4418SOL     OW24889   4.640   3.864   7.212  0.4357  0.0069  0.0042
 4418SOL    HW124890   4.620   3.796   7.148 -1.3029  0.1874  0.3730
 4418SOL    HW224891   4.681   3.939   7.169 -0.6114  1.8257  2.1961
 4419SOL     OW24892   3.802   1.975  17.348  0.2102  0.2484  0.2460
 4419SOL    HW124893   3.861   2.049  17.363 -2.3927  2.5747 -0.8693
 4419SOL    HW224894   3.833   1.963  17.258 -0.0878  0.7633  0.0745
 4420SOL     OW24895   0.002   2.837   6.350  0.6544  0.0206 -0.2847
 4420SOL    HW124896   0.062   2.860   6.279 -0.1713  0.0000 -0.9898
 4420SOL    HW224897   4.678   2.912   6.341 -0.0940 -0.6173 -0.6533
 4421SOL     OW24898   2.253   1.474   9.291 -0.2235 -0.8245 -0.3315
 4421SOL    HW124899   2.224   1.403   9.348 -1.9593 -0.8551 -1.2506
 4421SOL    HW224900   2.185   1.491   9.225  0.4142  1.6253 -0.3697
 4422SOL     OW24901   1.917   1.374  11.812 -0.1811 -0.0915  0.3424
 4422SOL    HW124902   1.865   1.450  11.787 -0.9125 -0.7299 -0.0931
 4422SOL    HW224903   1.934   1.343  11.722  0.7948 -1.8912  1.1419
 4423SOL     OW24904   2.619   2.614   2.874 -0.6829 -0.2952  0.2071
 4423SOL    HW124905   2.689   2.674   2.900 -0.4927 -1.1617  1.6951
 4423SOL    HW224906   2.669   2.534   2.859 -0.7315 -0.1113 -0.9460
 4424SOL     OW24907   0.816   2.864   0.034 -0.4048 -0.3277 -0.1777
 4424SOL    HW124908   0.722   2.859   0.049 -0.0336 -0.1441  2.1556
 4424SOL    HW224909   0.846   2.775   0.051  0.2768  0.3602  2.2875
 4425SOL     OW24910   1.688   1.713   3.630  0.3360  0.5598  0.4524
 4425SOL    HW124911   1.654   1.798   3.660  0.9579  1.6401 -1.8674
 4425SOL    HW224912   1.766   1.734   3.579 -1.8782  3.0139 -1.9817
 4426SOL     OW24913   3.831   0.127   3.626  0.6960  0.3289  0.4656
 4426SOL    HW124914   3.831   0.213   3.586  2.4242 -1.0066 -2.3645
 4426SOL    HW224915   3.919   0.124   3.662  0.0705 -1.5209  1.8763
 4427SOL     OW24916   2.569   2.899   9.678  0.2869  0.4698 -0.1994
 4427SOL    HW124917   2.583   2.969   9.614  2.4185 -1.1787 -1.5511
 4427SOL    HW224918   2.630   2.915   9.751 -1.9518  0.5644  1.6573
 4428SOL     OW24919   2.495   4.084   4.570 -0.0686 -0.0917 -0.0122
 4428SOL    HW124920   2.410   4.042   4.565  0.3537 -0.9351 -0.0496
 4428SOL    HW224921   2.515   4.061   4.660  1.5731 -0.6476 -0.5129
 4429SOL     OW24922   3.929   3.554   7.050  0.1798  0.3915  0.0181
 4429SOL    HW124923   3.873   3.491   7.095  0.2425 -0.1144 -0.6015
 4429SOL    HW224924   3.939   3.515   6.963  1.9392  2.5166 -0.7292
 4430SOL     OW24925   1.427   3.473   2.570 -0.0558  0.2434  0.3143
 4430SOL    HW124926   1.462   3.523   2.496 -1.1701 -0.2210 -0.5261
 4430SOL    HW224927   1.428   3.543   2.635 -2.1186 -1.1364  1.8139
 4431SOL     OW24928   2.408   1.798  10.355  0.3930 -0.2541 -0.6255
 4431SOL    HW124929   2.334   1.777  10.413 -0.8615  1.1374 -1.7135
 4431SOL    HW224930   2.377   1.884  10.328  2.0438  0.8505  1.0051
 4432SOL     OW24931   2.298   2.051   4.804 -0.2667  0.6126 -0.0840
 4432SOL    HW124932   2.361   2.109   4.761 -1.2201  0.6388 -1.4558
 4432SOL    HW224933   2.301   2.096   4.889  2.0827  0.9517 -0.3539
 4433SOL     OW24934   0.633   1.413   6.492  0.0514 -0.7143 -0.3121
 4433SOL    HW124935   0.714   1.404   6.442  0.4071 -2.5105  0.6011
 4433SOL    HW224936   0.645   1.491   6.546 -0.4728 -0.9721  0.1811
 4434SOL     OW24937   2.273   0.218   3.871 -0.0461 -0.3890 -0.1515
 4434SOL    HW124938   2.269   0.137   3.923 -2.4489 -0.9461 -1.2075
 4434SOL    HW224939   2.208   0.198   3.804 -1.4488 -3.3112  2.0452
 4435SOL     OW24940   4.416   2.354  16.647  0.2847 -0.4341 -0.1394
 4435SOL    HW124941   4.396   2.446  16.629  0.1053 -0.3697  0.3984
 4435SOL    HW224942   4.498   2.334  16.600  1.4589  1.0349  1.2883
 4436SOL     OW24943   1.426   3.811   3.124 -0.4210  0.3884 -0.2974
 4436SOL    HW124944   1.507   3.774   3.159 -1.4206 -0.8947  0.6545
 4436SOL    HW224945   1.460   3.891   3.085 -0.1452  0.2739 -0.2881
 4437SOL     OW24946   2.118   1.853   8.624  0.1283  0.2316  0.3752
 4437SOL    HW124947   2.057   1.912   8.669 -0.2617  1.4135 -1.6864
 4437SOL    HW224948   2.144   1.791   8.691  1.0102 -1.6191 -1.6866
 4438SOL     OW24949   2.939   3.248  14.449  0.3763  0.3793  0.0772
 4438SOL    HW124950   2.939   3.292  14.365 -2.5174  0.6467  0.2349
 4438SOL    HW224951   3.031   3.220  14.459 -0.2113 -1.0573  1.5508
 4439SOL     OW24952   1.300   4.659   6.132 -0.2884  0.0737  0.1343
 4439SOL    HW124953   1.289   4.701   6.047 -1.2314  1.0736  0.7592
 4439SOL    HW224954   1.217   4.688   6.168 -0.2816  1.1768 -0.7419
 4440SOL     OW24955   0.230   2.227   5.631 -0.1851  0.8987  0.2313
 4440SOL    HW124956   0.315   2.184   5.634 -1.0672 -1.0228 -2.4082
 4440SOL    HW224957   0.234   2.301   5.691 -1.2744  1.8131 -0.8137
 4441SOL     OW24958   0.124   3.394   6.272  0.3309 -0.0085  1.2455
 4441SOL    HW124959   0.193   3.394   6.206  1.2481 -1.2860  2.1902
 4441SOL    HW224960   0.159   3.336   6.340 -0.3215  0.9036  2.3715
 4442SOL     OW24961   1.228   0.822   6.806  0.0142  0.1956  0.3428
 4442SOL    HW124962   1.242   0.843   6.899 -0.9079 -1.7840  0.9297
 4442SOL    HW224963   1.191   0.736   6.824  0.1196 -0.0310 -0.5156
 4443SOL     OW24964   3.917   0.298   7.957  0.4695  0.6652 -0.5995
 4443SOL    HW124965   3.940   0.317   8.048  3.5631 -1.9701 -0.8335
 4443SOL    HW224966   3.879   0.380   7.925 -0.9566  1.1769  2.3637
 4444SOL     OW24967   1.170   3.184   6.689  0.7146  0.2067 -0.0523
 4444SOL    HW124968   1.082   3.218   6.706  1.0269  0.7613  0.4425
 4444SOL    HW224969   1.212   3.241   6.625 -0.0766  2.1782  1.1943
 4445SOL     OW24970   3.732   3.715   1.729 -0.1379 -1.1607  0.0423
 4445SOL    HW124971   3.788   3.792   1.723 -0.1262 -1.1622  0.1323
 4445SOL    HW224972   3.785   3.669   1.793 -0.4002  0.1435  1.1870
 4446SOL     OW24973   2.172   3.134   3.034 -0.2461  0.6622  0.1154
 4446SOL    HW124974   2.129   3.124   3.119 -2.1941 -1.9921 -1.2065
 4446SOL    HW224975   2.125   3.068   2.983  2.9144 -1.3799 -0.0998
 4447SOL     OW24976   1.633   4.200   4.115 -0.0735  0.5530 -0.3251
 4447SOL    HW124977   1.723   4.232   4.108  0.7527 -1.2350  2.0254
 4447SOL    HW224978   1.630   4.156   4.030 -1.2734  1.1204 -0.5731
 4448SOL     OW24979   3.088   0.091   6.770 -0.1390  0.0755  0.5040
 4448SOL    HW124980   3.047   0.177   6.768  0.2220  0.3011  2.1155
 4448SOL    HW224981   3.113   0.084   6.862 -1.1597  1.7737  0.9032
 4449SOL     OW24982   0.165   2.860  17.709  0.1871 -0.0090 -0.2599
 4449SOL    HW124983   0.227   2.822  17.648  0.5644 -0.5643  0.4713
 4449SOL    HW224984   0.207   2.943  17.733 -1.2633  0.2474  1.3975
 4450SOL     OW24985   2.182   2.745   1.790 -0.0377 -0.2270  0.7614
 4450SOL    HW124986   2.190   2.837   1.812  0.1582 -0.3011  0.9953
 4450SOL    HW224987   2.180   2.749   1.694 -0.9418 -2.1371  0.6995
 4451SOL     OW24988   1.808   2.615   3.035  0.5094 -0.2410 -0.2244
 4451SOL    HW124989   1.815   2.551   2.964  1.6541 -0.6937  0.2996
 4451SOL    HW224990   1.728   2.587   3.081  0.8731  1.5584  1.4961
 4452SOL     OW24991   3.405   0.426   8.843 -0.2580  0.6181  0.2191
 4452SOL    HW124992   3.344   0.416   8.916 -0.6981 -2.2318 -0.5187
 4452SOL    HW224993   3.477   0.365   8.864 -0.1115  0.8611  0.4283
 4453SOL     OW24994   2.682   1.203  13.625  0.1520 -0.0445  0.3572
 4453SOL    HW124995   2.662   1.147  13.701  1.8920 -0.1323  0.7448
 4453SOL    HW224996   2.776   1.193  13.613  0.3695  0.8765  1.3284
 4454SOL     OW24997   3.833   1.885  11.673 -0.0165  0.0762  0.0847
 4454SOL    HW124998   3.752   1.836  11.682  0.4368 -0.7392 -0.2863
 4454SOL    HW224999   3.887   1.852  11.745  2.5070  1.2121 -1.2653
 4455SOL     OW25000   3.577   4.563  10.422 -0.1799 -0.0616  0.6153
 4455SOL    HW125001   3.644   4.498  10.401  0.9887  0.7971  1.6761
 4455SOL    HW225002   3.513   4.543  10.354 -0.2632  0.0365  0.6638
 4456SOL     OW25003   0.477   3.866   3.853  0.0435  0.5431 -0.5043
 4456SOL    HW125004   0.404   3.857   3.793  1.0298 -0.1751 -1.6103
 4456SOL    HW225005   0.435   3.890   3.936 -3.1215 -1.1071 -1.6299
 4457SOL     OW25006   4.393   3.987   2.333  0.3012  0.4132 -0.4901
 4457SOL    HW125007   4.410   3.912   2.390 -0.6196  0.8595  0.3730
 4457SOL    HW225008   4.451   4.048   2.378  1.5710  0.4920 -2.1918
 4458SOL     OW25009   0.958   2.647   9.491  0.4058  1.5428  0.5106
 4458SOL    HW125010   0.905   2.597   9.553 -0.5127  2.6832  0.6513
 4458SOL    HW225011   0.891   2.709   9.461  0.6230  1.5375  0.0214
 4459SOL     OW25012   0.772   4.025  15.377 -0.3392 -0.2200  0.3675
 4459SOL    HW125013   0.816   3.945  15.404 -0.6696 -0.5016  0.0849
 4459SOL    HW225014   0.820   4.082  15.436 -1.7291  1.4446 -0.1058
 4460SOL     OW25015   4.587   2.500   4.228 -0.0824 -0.3712  0.2363
 4460SOL    HW125016   4.510   2.499   4.285 -0.4060 -0.0952 -0.1916
 4460SOL    HW225017   4.585   2.416   4.182 -0.1951 -0.2733  0.0625
 4461SOL     OW25018   1.481   2.909  13.590  0.5060 -0.3047 -0.0044
 4461SOL    HW125019   1.441   2.922  13.676  2.3237 -0.1499  0.8274
 4461SOL    HW225020   1.558   2.860  13.621 -0.2914  0.2325  2.8308
 4462SOL     OW25021   3.910   0.864   3.612  0.2327 -0.0497  0.1943
 4462SOL    HW125022   3.851   0.912   3.555 -1.1029  0.1179  1.7287
 4462SOL    HW225023   3.856   0.846   3.689 -0.5312 -1.4476 -0.6685
 4463SOL     OW25024   0.894   4.538  16.784  0.0634 -0.6792  0.0423
 4463SOL    HW125025   0.811   4.493  16.797 -0.1657  0.1815  1.5924
 4463SOL    HW225026   0.944   4.482  16.725  1.1114  2.8681 -2.3934
 4464SOL     OW25027   0.375   1.538   4.861  0.4287  0.5113 -0.3340
 4464SOL    HW125028   0.297   1.588   4.836 -0.7129 -1.2776 -0.3647
 4464SOL    HW225029   0.374   1.536   4.957 -0.5796 -1.2704 -0.3856
 4465SOL     OW25030   0.950   2.519   5.536  0.2043  0.6531  0.1226
 4465SOL    HW125031   0.889   2.490   5.468  0.1646 -0.1167  0.4808
 4465SOL    HW225032   0.955   2.614   5.539 -0.2153  0.7090 -0.9815
 4466SOL     OW25033   3.644   4.520   8.651 -0.5761 -0.7619  0.3655
 4466SOL    HW125034   3.584   4.467   8.599 -2.0625 -1.0717  2.4364
 4466SOL    HW225035   3.684   4.565   8.576 -2.3619  0.1834 -0.0171
 4467SOL     OW25036   1.319   3.215  17.525 -0.7573  0.0543 -0.4165
 4467SOL    HW125037   1.409   3.189  17.508 -0.7303 -0.1736  0.0633
 4467SOL    HW225038   1.302   3.176  17.611  1.7079 -1.2607 -0.5429
 4468SOL     OW25039   2.999   3.397   0.993 -0.2197 -0.6897  0.5564
 4468SOL    HW125040   3.067   3.340   1.029 -0.2368 -0.5445  0.8170
 4468SOL    HW225041   3.032   3.408   0.904 -1.2696  3.9164  0.7361
 4469SOL     OW25042   0.327   4.569   5.536 -0.1767  0.4263  0.0564
 4469SOL    HW125043   0.296   4.582   5.625  0.4871  0.2647  0.3165
 4469SOL    HW225044   0.419   4.560   5.561 -0.3302  1.0921  0.8508
 4470SOL     OW25045   1.030   3.583  13.209  0.0898 -0.1214  0.2817
 4470SOL    HW125046   0.984   3.641  13.270  0.6083 -1.8274  2.2863
 4470SOL    HW225047   0.996   3.605  13.123  0.9251  1.9948  0.4701
 4471SOL     OW25048   1.769   2.071   8.132  0.0072  0.3268  0.1773
 4471SOL    HW125049   1.821   2.048   8.209  3.0377  1.4398 -1.5482
 4471SOL    HW225050   1.705   1.999   8.129 -0.0596  0.3916  0.0591
 4472SOL     OW25051   1.501   1.192   6.434  0.7065 -0.5134  0.8554
 4472SOL    HW125052   1.523   1.203   6.341  0.1771 -1.9609  0.5710
 4472SOL    HW225053   1.444   1.116   6.427  0.9577 -0.8885  2.8679
 4473SOL     OW25054   1.168   1.844   4.680  0.6059 -0.7068  0.2825
 4473SOL    HW125055   1.169   1.869   4.588  1.0439  1.2805  0.8312
 4473SOL    HW225056   1.111   1.768   4.669 -0.2600 -0.0909  0.5351
 4474SOL     OW25057   2.687   3.584  14.844 -0.3624 -0.0987  0.6918
 4474SOL    HW125058   2.651   3.516  14.900 -1.4984 -0.0674 -0.0044
 4474SOL    HW225059   2.678   3.542  14.759  1.2401 -0.5942  0.7821
 4475SOL     OW25060   0.376   4.184   5.175  0.2823 -0.2049  0.1693
 4475SOL    HW125061   0.387   4.114   5.239  1.2420 -0.0131  0.2145
 4475SOL    HW225062   0.466   4.192   5.143  0.7662  0.5356  1.7001
 4476SOL     OW25063   3.387   3.193   8.001 -0.0816  0.1975 -0.0833
 4476SOL    HW125064   3.437   3.268   8.033 -2.7451  2.0252 -0.2287
 4476SOL    HW225065   3.336   3.245   7.939 -0.9050 -0.9311 -0.3557
 4477SOL     OW25066   1.762   1.227  15.729 -0.2212  0.3506 -0.4979
 4477SOL    HW125067   1.825   1.156  15.717 -0.3736 -0.7865  5.3612
 4477SOL    HW225068   1.686   1.171  15.717  0.6021 -1.0135  0.6676
 4478SOL     OW25069   0.337   0.037  16.206  0.1849 -0.1292 -0.0099
 4478SOL    HW125070   0.356   4.678  16.203 -0.5700 -0.1784 -2.5178
 4478SOL    HW225071   0.403   0.065  16.270 -0.8742  0.5757  0.7868
 4479SOL     OW25072   3.191   1.677   4.264 -0.2306 -0.3255 -0.1611
 4479SOL    HW125073   3.101   1.690   4.233 -0.4609 -1.0807  0.1822
 4479SOL    HW225074   3.178   1.647   4.354  0.6210 -0.9011 -0.2277
 4480SOL     OW25075   4.394   1.234   7.377  0.1506 -0.0748 -0.4380
 4480SOL    HW125076   4.334   1.183   7.323  1.1524  0.0078 -1.6218
 4480SOL    HW225077   4.344   1.242   7.458 -2.4201 -0.5906 -1.9622
 4481SOL     OW25078   2.282   0.595   2.887 -0.0679  0.7263 -0.0883
 4481SOL    HW125079   2.327   0.519   2.924  1.3593  2.4191  1.6402
 4481SOL    HW225080   2.248   0.636   2.967 -3.5789 -0.0775 -1.1378
 4482SOL     OW25081   1.436   2.965   6.162 -0.0025  0.0083  0.2073
 4482SOL    HW125082   1.519   3.001   6.130 -0.7271  0.9027 -0.6465
 4482SOL    HW225083   1.452   2.875   6.132  0.6233  0.4967 -0.9313
 4483SOL     OW25084   3.711   3.352   5.931 -0.8943 -0.1172  0.3991
 4483SOL    HW125085   3.804   3.334   5.941 -1.0711 -2.4026 -1.7809
 4483SOL    HW225086   3.683   3.278   5.877  1.6574  0.6978 -2.0456
 4484SOL     OW25087   0.650   0.618  14.103  0.5800 -0.2655 -0.1196
 4484SOL    HW125088   0.647   0.713  14.100  2.7143 -0.2030 -0.3667
 4484SOL    HW225089   0.614   0.600  14.190 -1.7969  1.0832 -0.8392
 4485SOL     OW25090   2.943   2.429  15.608  0.2069  0.1963 -0.3057
 4485SOL    HW125091   2.912   2.403  15.522  0.2405 -0.3911 -0.1383
 4485SOL    HW225092   3.037   2.411  15.610  0.5198  1.7963 -0.3970
 4486SOL     OW25093   4.148   1.036   2.210 -0.2568 -0.4181  0.0451
 4486SOL    HW125094   4.213   1.028   2.140 -0.7938 -3.3986 -0.1382
 4486SOL    HW225095   4.176   1.119   2.247  1.7355 -0.0240 -2.3488
 4487SOL     OW25096   0.378   0.687  14.072 -0.4244 -0.3281 -0.3152
 4487SOL    HW125097   0.438   0.642  14.012 -3.2902 -2.4636 -1.5941
 4487SOL    HW225098   0.411   0.776  14.069 -0.5756 -0.2626 -0.0452
 4488SOL     OW25099   2.271   0.135   7.967  0.9525 -0.2758 -0.0024
 4488SOL    HW125100   2.218   0.177   8.035  1.7917  0.6741  0.0769
 4488SOL    HW225101   2.339   0.092   8.019 -0.7581 -2.5610  0.2957
 4489SOL     OW25102   3.609   3.445   6.948  0.2085  0.1959 -0.3181
 4489SOL    HW125103   3.689   3.397   6.972  0.7321  2.1627  1.9066
 4489SOL    HW225104   3.582   3.472   7.035 -1.6979 -1.5325 -0.3935
 4490SOL     OW25105   0.584   2.698   5.836  0.2836  0.0230 -0.0005
 4490SOL    HW125106   0.504   2.733   5.796  0.5982 -2.2622 -2.6640
 4490SOL    HW225107   0.639   2.762   5.791  1.6208 -1.3231 -0.2727
 4491SOL     OW25108   3.926   0.152   2.054  0.2182 -0.3218 -0.8657
 4491SOL    HW125109   3.875   0.149   2.135  3.5422  1.8547  1.2936
 4491SOL    HW225110   3.995   0.204   2.095 -0.6112  0.9681 -1.0944
 4492SOL     OW25111   1.396   1.050  11.774 -0.2849 -0.0805 -0.3765
 4492SOL    HW125112   1.346   1.124  11.740 -2.2416 -1.0194  0.4750
 4492SOL    HW225113   1.375   1.039  11.867 -0.9932  1.5522 -0.3366
 4493SOL     OW25114   2.635   1.449   8.234 -0.0509  0.3609  0.2306
 4493SOL    HW125115   2.655   1.409   8.319  2.8287 -0.7358 -0.9635
 4493SOL    HW225116   2.570   1.511   8.267 -0.6717 -0.4218  0.4695
 4494SOL     OW25117   0.682   2.581   2.507 -0.0814 -0.0677  0.2306
 4494SOL    HW125118   0.697   2.673   2.528 -1.0995  0.0931  0.2850
 4494SOL    HW225119   0.675   2.587   2.412 -0.3424  2.0588  0.3778
 4495SOL     OW25120   1.753   0.723   2.031 -0.0715 -0.0031 -0.3083
 4495SOL    HW125121   1.767   0.628   2.037  0.6664 -0.0300 -2.2717
 4495SOL    HW225122   1.672   0.733   1.981  0.0735 -1.1991 -0.7928
 4496SOL     OW25123   1.533   3.144   8.285  0.6095 -0.4212 -0.3219
 4496SOL    HW125124   1.459   3.113   8.337 -1.3744  3.0721 -1.0966
 4496SOL    HW225125   1.590   3.067   8.290  0.8510 -0.3029 -1.2181
 4497SOL     OW25126   4.004   1.112  12.981 -0.2585 -0.4367 -0.0445
 4497SOL    HW125127   3.938   1.044  12.970  1.1759 -2.2027  2.4605
 4497SOL    HW225128   4.072   1.071  12.928 -2.4024 -2.4704 -1.2315
 4498SOL     OW25129   1.247   2.689   7.105  0.4899  0.2518 -0.1747
 4498SOL    HW125130   1.326   2.719   7.151  0.3959 -1.2389  0.9460
 4498SOL    HW225131   1.268   2.606   7.062 -0.5611  0.3589 -0.9075
 4499SOL     OW25132   0.066   1.242   9.010  0.0251  0.2130 -0.3151
 4499SOL    HW125133   0.114   1.320   9.035 -1.8532  0.6508  1.9011
 4499SOL    HW225134   0.138   1.193   8.970 -0.2654 -0.1216 -0.4306
 4500SOL     OW25135   3.012   4.487   6.733  0.2415  0.0019  0.8237
 4500SOL    HW125136   2.976   4.498   6.645  0.9178  1.5358  0.7271
 4500SOL    HW225137   3.019   4.392   6.741 -2.6907 -0.1359  1.6362
 4501SOL     OW25138   1.379   0.440  12.497  0.2886 -0.0227 -0.3565
 4501SOL    HW125139   1.459   0.440  12.550 -0.2127  0.4296  0.3934
 4501SOL    HW225140   1.421   0.444  12.411 -0.9103 -0.4441 -0.9678
 4502SOL     OW25141   1.999   3.906   9.033 -0.3778  0.5993 -0.1208
 4502SOL    HW125142   2.070   3.899   8.969  1.0421 -0.1739  1.5439
 4502SOL    HW225143   2.002   3.816   9.066  1.4597  0.7448  0.0920
 4503SOL     OW25144   3.017   3.896   1.550 -0.1775  0.1403 -0.2873
 4503SOL    HW125145   3.048   3.850   1.472  0.6654 -0.0973  0.1896
 4503SOL    HW225146   2.956   3.830   1.582  2.7853 -1.4957  2.0367
 4504SOL     OW25147   0.939   1.481   3.753  0.3715 -0.0615 -0.1850
 4504SOL    HW125148   0.924   1.460   3.660  2.6281  0.5102 -0.6695
 4504SOL    HW225149   0.980   1.567   3.747 -0.0579  0.0968 -0.9575
 4505SOL     OW25150   2.470   1.337   3.932  0.4616 -0.0270  0.0995
 4505SOL    HW125151   2.446   1.428   3.948 -0.1541 -0.6880  2.9928
 4505SOL    HW225152   2.395   1.287   3.963 -1.1523  0.7373 -2.5826
 4506SOL     OW25153   2.430   3.905   3.364  0.0424 -0.0156  0.1911
 4506SOL    HW125154   2.336   3.907   3.345  0.0056 -0.2645  0.3390
 4506SOL    HW225155   2.448   3.999   3.367  0.5160 -0.1443  1.4800
 4507SOL     OW25156   0.968   2.268   1.876  0.2625 -0.1816  0.0295
 4507SOL    HW125157   1.006   2.185   1.903  0.3748 -0.1892 -0.1487
 4507SOL    HW225158   0.879   2.269   1.909  0.4951  0.1157  0.6493
 4508SOL     OW25159   1.383   4.399   9.207  0.2345  0.1870 -0.8705
 4508SOL    HW125160   1.413   4.440   9.288  0.4261  0.3445 -1.0191
 4508SOL    HW225161   1.294   4.432   9.194 -0.7991 -1.5477  1.8332
 4509SOL     OW25162   3.302   0.641   2.977 -0.3975 -0.2306  0.0139
 4509SOL    HW125163   3.274   0.672   3.063 -1.4579 -1.8560  0.2609
 4509SOL    HW225164   3.235   0.572   2.972 -0.5484 -0.1303  0.7297
 4510SOL     OW25165   4.724   2.430   5.772  0.1045  0.9057 -0.2234
 4510SOL    HW125166   0.003   2.354   5.829 -2.4956  2.0884  1.9803
 4510SOL    HW225167   4.633   2.450   5.791  0.2081 -1.1751  2.4738
 4511SOL     OW25168   3.349   4.015   2.913 -0.2600  0.0499 -0.6193
 4511SOL    HW125169   3.287   4.081   2.885  0.8832  0.9704 -0.9677
 4511SOL    HW225170   3.429   4.058   2.883  0.3012  0.0097  0.8287
 4512SOL     OW25171   0.634   3.069   3.009 -0.2884  0.8036  0.1859
 4512SOL    HW125172   0.643   3.038   2.919 -1.5970 -0.4396  0.4825
 4512SOL    HW225173   0.616   2.994   3.066  0.6012 -1.3997 -2.4513
 4513SOL     OW25174   0.829   4.226   1.257  0.4229 -0.3117 -0.5565
 4513SOL    HW125175   0.810   4.319   1.253 -0.8014 -0.5072  0.6556
 4513SOL    HW225176   0.741   4.190   1.254  0.6915 -1.0412  0.2825
 4514SOL     OW25177   2.196   3.796   5.638  0.1216  0.5076  0.2631
 4514SOL    HW125178   2.190   3.769   5.729 -0.2687  1.1886  0.4377
 4514SOL    HW225179   2.285   3.826   5.617 -0.1660  0.8977 -0.4213
 4515SOL     OW25180   1.509   0.394   7.941 -0.1072  0.0382  0.1282
 4515SOL    HW125181   1.508   0.474   7.993  1.3188 -0.9561  1.7256
 4515SOL    HW225182   1.466   0.328   7.996  1.2952 -1.5319 -0.6347
 4516SOL     OW25183   2.264   0.715  11.499 -0.2893 -0.0924 -0.4162
 4516SOL    HW125184   2.235   0.626  11.517 -3.2100  1.2434  1.4732
 4516SOL    HW225185   2.178   0.756  11.502  0.5565  1.5412  1.8369
 4517SOL     OW25186   0.306   1.141   8.908  0.2584  0.3186 -0.2905
 4517SOL    HW125187   0.317   1.046   8.906 -1.5948  0.1365 -1.2310
 4517SOL    HW225188   0.390   1.170   8.943  0.0068  0.0048  0.5720
 4518SOL     OW25189   0.463   4.676   7.502 -0.0892  0.0917 -0.3387
 4518SOL    HW125190   0.412   4.707   7.576  3.2219  0.7910  1.6627
 4518SOL    HW225191   0.518   4.614   7.550  1.2744 -0.1306 -2.1932
 4519SOL     OW25192   1.061   4.700   5.166 -0.0559 -0.3322 -0.3941
 4519SOL    HW125193   0.976   4.723   5.127  0.5294 -0.8555 -1.9614
 4519SOL    HW225194   1.075   4.614   5.127  2.6027  0.5539 -1.3463
 4520SOL     OW25195   1.501   4.036   4.634  0.2524  0.1617 -0.1224
 4520SOL    HW125196   1.507   4.009   4.542 -0.9375  1.1067 -0.4831
 4520SOL    HW225197   1.524   4.129   4.624  0.2507  0.2533  0.7393
 4521SOL     OW25198   3.253   0.853   6.341  0.2787  0.1894  0.6548
 4521SOL    HW125199   3.268   0.945   6.361 -1.6563  0.9346 -1.3847
 4521SOL    HW225200   3.225   0.825   6.428 -1.3105 -0.0275  0.0720
 4522SOL     OW25201   2.577   1.670   2.538 -0.3237  0.2155  0.3283
 4522SOL    HW125202   2.526   1.589   2.548 -1.5766  0.9426 -0.1043
 4522SOL    HW225203   2.556   1.716   2.620 -0.4098 -0.2779  0.5831
 4523SOL     OW25204   3.950   3.812   5.279 -0.1118 -0.1424 -0.6491
 4523SOL    HW125205   3.947   3.727   5.324 -0.7541  0.0356 -0.3541
 4523SOL    HW225206   3.899   3.854   5.349  2.5408 -0.2372  1.3461
 4524SOL     OW25207   3.105   1.414  11.568  0.1202  0.4283  0.0818
 4524SOL    HW125208   3.136   1.502  11.589 -3.2860  1.5245  0.5770
 4524SOL    HW225209   3.033   1.415  11.632  1.0807 -1.7482  1.2097
 4525SOL     OW25210   1.671   1.472   2.978 -0.5364  0.4369 -0.1997
 4525SOL    HW125211   1.698   1.543   3.036  0.0700 -0.4298  0.5743
 4525SOL    HW225212   1.609   1.516   2.920 -2.8843 -0.7304  1.4152
 4526SOL     OW25213   3.163   1.730  10.131  0.3874  0.4816  0.4025
 4526SOL    HW125214   3.071   1.718  10.155 -0.3097  2.0877 -1.5218
 4526SOL    HW225215   3.208   1.755  10.212 -1.0056  1.7036  0.8010
 4527SOL     OW25216   4.435   2.963  11.262  0.8771 -0.4672  0.1830
 4527SOL    HW125217   4.448   2.869  11.257 -2.1055 -0.7662 -1.8212
 4527SOL    HW225218   4.381   2.989  11.187  0.4977 -2.1093 -0.1132
 4528SOL     OW25219   0.616   0.975   1.676  0.7108  0.1962  0.0634
 4528SOL    HW125220   0.529   0.934   1.674  0.3149  0.9998  0.8728
 4528SOL    HW225221   0.627   0.981   1.770 -0.3964 -2.1074  0.3360
 4529SOL     OW25222   1.244   2.098   2.253 -0.0804 -0.0415 -0.0084
 4529SOL    HW125223   1.209   2.164   2.193 -0.2084  0.7566  0.9312
 4529SOL    HW225224   1.300   2.052   2.192 -1.2623 -0.8019 -0.5050
 4530SOL     OW25225   3.724   0.565   2.443 -0.0082  0.3114 -0.5794
 4530SOL    HW125226   3.732   0.616   2.362  1.0738 -0.8628 -1.2077
 4530SOL    HW225227   3.708   0.634   2.507  1.5451  1.4777 -1.4278
 4531SOL     OW25228   3.272   4.297   3.169 -0.1545  0.0706  0.1132
 4531SOL    HW125229   3.318   4.343   3.099  0.6418 -0.8047  0.0671
 4531SOL    HW225230   3.237   4.219   3.126  0.9051 -1.1172  1.4012
 4532SOL     OW25231   1.117   2.405   8.679 -0.4238  0.3905 -0.0152
 4532SOL    HW125232   1.198   2.392   8.631 -0.8192  0.6928 -0.7530
 4532SOL    HW225233   1.129   2.357   8.761 -0.4503 -0.1394 -0.3206
 4533SOL     OW25234   1.835   4.392   4.568  0.6933 -0.3201  0.0551
 4533SOL    HW125235   1.928   4.380   4.587  1.0547  1.3956 -0.6493
 4533SOL    HW225236   1.818   4.479   4.604 -0.5527 -0.9154  0.9408
 4534SOL     OW25237   0.184   0.756   2.074 -0.3437 -0.4806  0.5310
 4534SOL    HW125238   0.103   0.728   2.117 -0.8230  1.7452  1.0625
 4534SOL    HW225239   0.184   0.717   1.987  1.3576  0.8993 -0.0676
 4535SOL     OW25240   2.953   4.579   9.188 -0.3492 -0.3698 -0.3525
 4535SOL    HW125241   2.871   4.535   9.165 -0.0377 -0.3766 -1.4628
 4535SOL    HW225242   2.919   4.651   9.241  0.7552 -0.4947  0.5277
 4536SOL     OW25243   2.544   4.406  15.981  0.0416  0.6261  0.1271
 4536SOL    HW125244   2.613   4.455  15.935  1.4486  1.8527  3.5475
 4536SOL    HW225245   2.493   4.478  16.019 -0.1048  1.6804 -2.0486
 4537SOL     OW25246   1.246   1.498   7.750 -0.8953  0.6308 -0.2735
 4537SOL    HW125247   1.247   1.421   7.693 -0.6786  0.0083  0.5689
 4537SOL    HW225248   1.298   1.477   7.828 -1.0403  2.1628  0.2307
 4538SOL     OW25249   2.615   3.320   6.657  0.1842  0.0861  0.2512
 4538SOL    HW125250   2.676   3.247   6.670 -1.1136 -1.4833 -2.2569
 4538SOL    HW225251   2.611   3.367   6.740 -0.8669 -3.9288  2.4650
 4539SOL     OW25252   3.991   2.173  17.347  0.1909  0.5410  0.4558
 4539SOL    HW125253   4.046   2.204  17.275  0.5973 -0.6580  0.2471
 4539SOL    HW225254   4.053   2.149  17.415 -1.9048 -2.6842  1.1926
 4540SOL     OW25255   4.639   1.931   3.658 -0.0574  0.0726  0.7367
 4540SOL    HW125256   4.647   1.884   3.741 -2.3590 -1.0220  0.3194
 4540SOL    HW225257   4.731   1.956   3.649  0.1353 -1.3408 -1.2553
 4541SOL     OW25258   4.089   4.134   3.282 -0.0803  0.0514  0.0881
 4541SOL    HW125259   4.066   4.217   3.240  2.2583  1.0686  0.8246
 4541SOL    HW225260   4.183   4.129   3.267 -0.1699  0.1583 -0.5314
 4542SOL     OW25261   1.087   2.405   3.689  0.0175 -0.4583 -0.7030
 4542SOL    HW125262   1.044   2.477   3.644 -0.0934  0.1004  0.2917
 4542SOL    HW225263   1.100   2.339   3.622 -2.5779  0.3917 -2.0263
 4543SOL     OW25264   0.719   2.425   3.093 -0.4408 -0.4679  0.2057
 4543SOL    HW125265   0.739   2.408   3.185  1.5272  1.4194  0.1303
 4543SOL    HW225266   0.664   2.346   3.087  0.6068 -1.1807  0.0864
 4544SOL     OW25267   1.850   0.281  12.843 -0.0798  0.5488 -0.1260
 4544SOL    HW125268   1.868   0.337  12.919 -0.4762 -0.3809  0.6474
 4544SOL    HW225269   1.779   0.232  12.886  0.5522  1.8147  2.4153
 4545SOL     OW25270   0.984   3.997  10.896 -0.1043  0.0737  0.2217
 4545SOL    HW125271   1.014   4.003  10.805 -0.7013 -2.8893 -0.1818
 4545SOL    HW225272   1.019   4.081  10.926 -0.2379 -0.8757  3.0366
 4546SOL     OW25273   0.985   0.047   0.588 -0.2126 -0.1373  0.5131
 4546SOL    HW125274   1.051   0.075   0.651 -1.5788  1.9875  0.9945
 4546SOL    HW225275   0.992   4.688   0.601  2.9460  0.1012  0.4330
 4547SOL     OW25276   4.148   4.458   6.700  0.2874 -0.5467  0.0128
 4547SOL    HW125277   4.217   4.490   6.758  1.3321 -1.2161 -0.8722
 4547SOL    HW225278   4.188   4.486   6.617 -0.1332  1.9003  0.6432
 4548SOL     OW25279   4.295   2.877   4.065 -0.2476  0.7003 -0.0950
 4548SOL    HW125280   4.348   2.906   4.139 -0.7605  0.0776  0.5200
 4548SOL    HW225281   4.347   2.905   3.990  3.2147  0.6017  2.2709
 4549SOL     OW25282   1.119   0.725  10.060 -0.1248  0.1683 -0.3271
 4549SOL    HW125283   1.034   0.740  10.018  0.0666  0.0836 -0.7429
 4549SOL    HW225284   1.098   0.650  10.116 -0.7883  0.8096  0.2879
 4550SOL     OW25285   4.666   1.375  15.614  0.0445 -0.0848  0.1452
 4550SOL    HW125286   4.658   1.376  15.709  1.5861 -0.3464  0.2737
 4550SOL    HW225287   4.583   1.336  15.587  1.9260 -2.3958 -2.3256
 4551SOL     OW25288   3.849   1.235   9.368  0.1075  0.7368 -0.2426
 4551SOL    HW125289   3.933   1.246   9.322  0.5337 -3.0621 -0.3229
 4551SOL    HW225290   3.795   1.295   9.316 -1.4404 -1.3693 -1.0839
 4552SOL     OW25291   2.550   2.495   7.053  0.0753 -0.3031 -0.1742
 4552SOL    HW125292   2.610   2.491   6.978 -1.2147 -1.0735 -1.1519
 4552SOL    HW225293   2.578   2.574   7.099  2.1240 -0.6908 -0.7169
 4553SOL     OW25294   2.620   1.597   5.823 -0.4590 -0.3826 -0.1296
 4553SOL    HW125295   2.641   1.690   5.813 -3.4641  0.1847 -1.0343
 4553SOL    HW225296   2.529   1.614   5.847 -0.1628  1.2289 -0.1619
 4554SOL     OW25297   2.428   0.451   4.527  0.8064  0.2708 -0.2705
 4554SOL    HW125298   2.371   0.439   4.604  1.6744  0.5029  0.4082
 4554SOL    HW225299   2.428   0.545   4.511  0.6548  0.3110 -0.0446
 4555SOL     OW25300   4.403   4.606   8.598  0.2108  0.0978  0.4291
 4555SOL    HW125301   4.355   4.682   8.631  4.1098  2.0922  1.4944
 4555SOL    HW225302   4.328   4.546   8.593  0.7145 -0.4622 -0.5980
 4556SOL     OW25303   0.232   3.149   6.913  0.1346  0.2786 -0.6496
 4556SOL    HW125304   0.302   3.188   6.966 -0.7288  1.6518 -0.5075
 4556SOL    HW225305   0.287   3.086   6.869  0.4521  0.9927 -1.2681
 4557SOL     OW25306   4.036   2.972   1.863  0.3284 -0.2125 -0.0589
 4557SOL    HW125307   4.081   3.013   1.789 -0.0791  1.2106  0.4883
 4557SOL    HW225308   3.946   2.998   1.846  0.3269 -0.2287 -0.0756
 4558SOL     OW25309   0.395   1.693  15.945 -0.1855  0.3957 -0.4958
 4558SOL    HW125310   0.319   1.665  15.995  1.6319 -0.4918  1.7493
 4558SOL    HW225311   0.353   1.726  15.865 -0.1238  2.5266  0.3300
 4559SOL     OW25312   4.051   4.106   2.311  0.0397  0.0435  0.4202
 4559SOL    HW125313   4.045   4.195   2.347  2.3660  0.5878 -0.4891
 4559SOL    HW225314   3.989   4.107   2.238  1.4056  0.9090 -0.7443
 4560SOL     OW25315   2.395   3.453   7.233 -0.4956 -0.2059 -0.4322
 4560SOL    HW125316   2.377   3.389   7.164  1.7444 -2.2609  0.9148
 4560SOL    HW225317   2.426   3.393   7.302 -0.2396  0.2812 -0.1290
 4561SOL     OW25318   3.450   3.661   2.291 -0.1458  0.0394  0.6383
 4561SOL    HW125319   3.489   3.579   2.320 -0.4277 -0.5482 -0.6533
 4561SOL    HW225320   3.488   3.663   2.203 -0.7103 -0.6271  0.3764
 4562SOL     OW25321   2.117   2.593   9.201  0.4657 -0.4178  0.2437
 4562SOL    HW125322   2.190   2.545   9.161 -0.1428 -2.1437  1.1860
 4562SOL    HW225323   2.172   2.654   9.249 -1.2849  0.3038  1.3018
 4563SOL     OW25324   3.296   0.334   2.369  0.4368  0.2949 -0.2873
 4563SOL    HW125325   3.243   0.392   2.315  1.3790  0.7117 -0.7808
 4563SOL    HW225326   3.232   0.287   2.421 -1.0005  1.9448 -0.5787
 4564SOL     OW25327   1.583   0.277   6.892  0.6196 -0.8541  0.3619
 4564SOL    HW125328   1.518   0.337   6.855 -0.7598 -1.8360  1.1941
 4564SOL    HW225329   1.663   0.316   6.856 -0.4433  0.8266 -0.1621
 4565SOL     OW25330   3.443   3.823   9.441 -0.2759 -0.1979 -0.2639
 4565SOL    HW125331   3.526   3.825   9.393 -1.4264 -0.9736 -2.3036
 4565SOL    HW225332   3.389   3.785   9.371  0.4404  0.1162 -0.9850
 4566SOL     OW25333   3.943   2.870   4.445  0.4875 -0.2011 -0.0830
 4566SOL    HW125334   3.879   2.937   4.466  0.0890 -0.3271 -0.8949
 4566SOL    HW225335   3.962   2.881   4.351 -0.9155  1.6659 -0.1336
 4567SOL     OW25336   2.205   1.927  17.675 -0.0057 -0.4237  0.0961
 4567SOL    HW125337   2.152   2.007  17.679  0.4187 -0.2141  1.6031
 4567SOL    HW225338   2.271   1.942  17.608 -2.6065  0.4836 -2.2486
 4568SOL     OW25339   0.433   0.038  15.818 -0.1394  0.3241 -0.0990
 4568SOL    HW125340   0.379   0.092  15.876  2.1750  1.7147  0.7203
 4568SOL    HW225341   0.393   0.061  15.734  1.0924 -3.8905 -1.8188
 4569SOL     OW25342   0.146   3.707  13.713  0.4573 -0.4605 -0.3403
 4569SOL    HW125343   0.178   3.793  13.740 -0.9711 -0.1410  0.3461
 4569SOL    HW225344   0.143   3.735  13.622 -1.1621  1.0510  0.1883
 4570SOL     OW25345   1.199   1.506   4.479  0.1295  0.0166  0.6704
 4570SOL    HW125346   1.144   1.522   4.556 -0.9060 -2.1548  0.3856
 4570SOL    HW225347   1.286   1.531   4.510  0.9346 -0.7905 -0.9453
 4571SOL     OW25348   1.644   1.251   5.881 -0.3833 -0.1718 -0.0742
 4571SOL    HW125349   1.684   1.234   5.796  2.0805  1.3878  0.7678
 4571SOL    HW225350   1.652   1.347   5.882  0.0693 -0.1993 -0.8226
 4572SOL     OW25351   0.915   3.126   8.588 -0.5683 -0.5921  0.1352
 4572SOL    HW125352   0.877   3.180   8.520 -0.9031 -1.3361 -0.2607
 4572SOL    HW225353   0.956   3.189   8.648  2.1045 -1.7742 -0.4308
 4573SOL     OW25354   2.198   3.337   4.251 -0.1230  0.0584 -0.0533
 4573SOL    HW125355   2.278   3.292   4.223  1.1167  2.7357 -0.7915
 4573SOL    HW225356   2.132   3.305   4.190 -0.5180 -0.9419  0.8900
 4574SOL     OW25357   4.240   1.782  10.021 -0.0288  0.1829  0.2056
 4574SOL    HW125358   4.181   1.707  10.033 -0.5771  0.3674 -1.3585
 4574SOL    HW225359   4.247   1.782   9.926 -0.5416 -0.1282  0.1678
 4575SOL     OW25360   2.350   2.535   4.526  0.1181  0.6951  0.4060
 4575SOL    HW125361   2.429   2.566   4.570 -0.1192  0.8868  0.6927
 4575SOL    HW225362   2.286   2.605   4.527 -2.7242 -1.8252 -2.2325
 4576SOL     OW25363   0.617   1.483  10.044  0.2912 -0.3902  0.1635
 4576SOL    HW125364   0.536   1.533  10.030  0.1413 -0.3072  1.2999
 4576SOL    HW225365   0.663   1.524   9.971 -0.7246 -2.7097 -1.7786
 4577SOL     OW25366   1.135   1.168   6.855 -0.6034  0.4849  0.1319
 4577SOL    HW125367   1.144   1.172   6.760 -0.1877 -0.0009  0.1547
 4577SOL    HW225368   1.225   1.192   6.874 -0.6347  0.4431  0.3326
 4578SOL     OW25369   1.970   1.190  13.312  0.0842  0.1166 -0.3414
 4578SOL    HW125370   1.952   1.181  13.405 -1.9156 -0.2890 -0.7549
 4578SOL    HW225371   2.060   1.158  13.303  0.2246 -0.4304  3.0962
 4579SOL     OW25372   3.034   4.047   4.601 -0.6217  0.6634  0.1469
 4579SOL    HW125373   3.107   4.013   4.653  1.0797  0.1549 -2.5539
 4579SOL    HW225374   3.083   4.095   4.534 -1.3419  0.4880 -0.5065
 4580SOL     OW25375   2.616   0.200   2.729 -0.6461  0.0497 -0.2556
 4580SOL    HW125376   2.572   0.202   2.644  2.1874 -0.5065 -1.7307
 4580SOL    HW225377   2.611   0.106   2.747 -0.5562  0.1197  0.1450
 4581SOL     OW25378   0.155   1.474   8.822 -0.0778 -0.4329  0.0726
 4581SOL    HW125379   0.065   1.448   8.802  0.5675 -1.8992 -0.8661
 4581SOL    HW225380   0.163   1.554   8.770  0.4506 -1.9615 -2.1395
 4582SOL     OW25381   2.475   2.467   8.281  0.2736  0.9842 -0.2728
 4582SOL    HW125382   2.489   2.395   8.220 -1.3375 -0.5944  1.1999
 4582SOL    HW225383   2.533   2.441   8.352 -2.1041  1.4933  1.8962
 4583SOL     OW25384   3.115   3.245   7.810 -0.1416  0.2007 -0.6070
 4583SOL    HW125385   3.083   3.198   7.733  2.5574 -1.6701 -0.5989
 4583SOL    HW225386   3.173   3.309   7.767 -1.7312  1.7917 -0.3815
 4584SOL     OW25387   1.838   2.293   6.428  0.0709 -0.5584 -0.3697
 4584SOL    HW125388   1.920   2.252   6.452 -0.0959  0.0538  1.2611
 4584SOL    HW225389   1.863   2.384   6.446  3.6373 -1.7029  0.3774
 4585SOL     OW25390   0.259   3.389  16.042  0.4368  0.4808 -0.2321
 4585SOL    HW125391   0.330   3.359  16.098 -0.7204 -0.6822  0.6321
 4585SOL    HW225392   0.203   3.318  16.074  0.2343  0.0894 -1.4608
 4586SOL     OW25393   3.906   2.267   5.525 -0.0080  0.2855  0.1693
 4586SOL    HW125394   3.908   2.265   5.621  2.4324 -0.4216  0.1086
 4586SOL    HW225395   3.826   2.218   5.506 -0.5910  1.9038 -1.5226
 4587SOL     OW25396   0.585   2.806   2.767  0.5497  0.0570  0.0237
 4587SOL    HW125397   0.610   2.728   2.816  0.9374  0.5584  0.6135
 4587SOL    HW225398   0.500   2.770   2.739  0.0264  0.7032  0.7706
 4588SOL     OW25399   2.288   4.624  14.783 -0.1414  0.4068 -0.2590
 4588SOL    HW125400   2.361   4.563  14.769 -0.9665 -0.6029 -0.2131
 4588SOL    HW225401   2.212   4.567  14.793 -0.0657  0.0401 -1.6682
 4589SOL     OW25402   2.889   4.603   6.965 -0.1287 -0.0971  0.5447
 4589SOL    HW125403   2.836   4.681   6.949 -2.2928 -0.8945  3.6902
 4589SOL    HW225404   2.891   4.558   6.881 -1.0747  0.1604  0.3852
 4590SOL     OW25405   2.924   3.400   4.996  0.2762  0.4170  0.1760
 4590SOL    HW125406   2.853   3.349   4.958  1.5601 -1.4995  0.3263
 4590SOL    HW225407   2.891   3.490   4.990 -1.2119 -0.1757 -0.3262
 4591SOL     OW25408   1.597   0.418  12.663  0.1651  0.0305 -0.1728
 4591SOL    HW125409   1.582   0.326  12.685 -1.3640  0.1544 -0.6314
 4591SOL    HW225410   1.677   0.440  12.709 -0.8197  2.4927  0.3758
 4592SOL     OW25411   1.035   2.045   4.333  0.0761  0.2363  0.1815
 4592SOL    HW125412   0.986   1.989   4.394 -1.4967  0.3947 -0.9331
 4592SOL    HW225413   0.982   2.123   4.347  1.7439  1.2318  0.8213
 4593SOL     OW25414   2.580   3.174   8.333  0.4513  0.0611 -0.2103
 4593SOL    HW125415   2.660   3.221   8.309  0.7179 -1.9291 -3.2443
 4593SOL    HW225416   2.610   3.086   8.311  0.8810 -0.4182  2.2669
 4594SOL     OW25417   0.802   3.173   5.411 -0.0608 -0.3445 -0.2578
 4594SOL    HW125418   0.807   3.171   5.316 -0.3998  1.7509 -0.3261
 4594SOL    HW225419   0.755   3.090   5.423 -0.4119 -0.4829 -2.5524
 4595SOL     OW25420   3.757   2.776   6.698  0.2738 -0.9208 -0.5291
 4595SOL    HW125421   3.738   2.846   6.760 -0.6789  0.0935 -1.9607
 4595SOL    HW225422   3.671   2.735   6.694  0.6188 -1.7239  0.1147
 4596SOL     OW25423   1.398   1.870   8.878  0.4220  0.2592 -0.3292
 4596SOL    HW125424   1.487   1.837   8.880  1.2950  2.7297  1.1315
 4596SOL    HW225425   1.368   1.814   8.806  1.4121  1.2732 -1.5339
 4597SOL     OW25426   1.280   1.950   6.661 -0.1307  0.6462  0.0806
 4597SOL    HW125427   1.369   1.930   6.632  0.9016  0.7786  3.1463
 4597SOL    HW225428   1.297   1.940   6.755 -0.3080 -1.6823 -0.1330
 4598SOL     OW25429   0.612   4.535  11.092 -0.1272 -0.3418  0.1650
 4598SOL    HW125430   0.587   4.617  11.050  3.7724  0.1580 -1.1807
 4598SOL    HW225431   0.684   4.500  11.040  0.6252 -1.5679  2.0565
 4599SOL     OW25432   2.338   4.637  10.860  0.2927  0.0937 -0.3733
 4599SOL    HW125433   2.255   4.682  10.876 -1.0258 -2.0342 -1.3133
 4599SOL    HW225434   2.302   4.554  10.831 -1.6524  0.8261 -0.0315
 4600SOL     OW25435   2.812   1.570   6.033  0.2521 -0.2910  0.3458
 4600SOL    HW125436   2.742   1.575   6.097 -0.4083  0.8760 -0.4556
 4600SOL    HW225437   2.763   1.588   5.953 -0.2996  0.6434  0.8905
 4601SOL     OW25438   4.381   2.146   7.837 -0.7577  0.0138  0.4088
 4601SOL    HW125439   4.337   2.173   7.918 -0.1821  0.0172  0.7247
 4601SOL    HW225440   4.389   2.232   7.797 -1.9578 -1.1381 -2.2595
 4602SOL     OW25441   3.103   3.751   5.072 -0.3768 -0.3677 -0.0866
 4602SOL    HW125442   3.072   3.734   4.983 -1.6769 -2.4520  0.7543
 4602SOL    HW225443   3.145   3.666   5.088 -0.6207 -0.8378 -1.9612
 4603SOL     OW25444   2.824   1.608  15.339  0.6002 -0.4129 -0.3600
 4603SOL    HW125445   2.837   1.631  15.247  0.5588  0.0038 -0.2621
 4603SOL    HW225446   2.875   1.528  15.351  0.5346 -0.4275 -0.1747
 4604SOL     OW25447   1.726   0.891  10.251  0.2162  0.0273 -0.1062
 4604SOL    HW125448   1.746   0.985  10.254 -0.4610  0.1060  2.0688
 4604SOL    HW225449   1.753   0.874  10.342 -2.3859  0.2641  0.7073
 4605SOL     OW25450   2.626   4.542  14.260 -0.4101  0.1720  0.5904
 4605SOL    HW125451   2.563   4.500  14.202 -1.8177  2.9548  0.0973
 4605SOL    HW225452   2.673   4.605  14.205 -1.5438  3.4533  3.3862
 4606SOL     OW25453   0.737   2.179   3.593 -0.5687 -0.2563  0.0674
 4606SOL    HW125454   0.774   2.189   3.681 -0.6298  0.3469  0.0225
 4606SOL    HW225455   0.646   2.153   3.608 -1.1039  1.0262 -0.9841
 4607SOL     OW25456   0.013   0.430   6.392 -0.5425  0.0433 -0.6098
 4607SOL    HW125457   0.065   0.385   6.458 -1.2624  0.8925  0.5284
 4607SOL    HW225458   4.671   0.445   6.446  0.2901  2.3754 -0.0970
 4608SOL     OW25459   3.656   2.813   9.076 -0.0736  0.4392  0.4940
 4608SOL    HW125460   3.620   2.873   9.141 -0.4052  0.6787  0.0875
 4608SOL    HW225461   3.722   2.864   9.028  1.0892 -1.5948 -0.0483
 4609SOL     OW25462   2.434   3.293  11.728 -0.0518  0.0466 -0.4695
 4609SOL    HW125463   2.467   3.205  11.709 -0.2204 -0.2223  0.4704
 4609SOL    HW225464   2.366   3.284  11.795  0.9070 -2.4562  0.1553
 4610SOL     OW25465   3.563   4.385   6.591 -0.6889  0.2877  0.1395
 4610SOL    HW125466   3.583   4.475   6.616  0.4607  0.1063 -0.1411
 4610SOL    HW225467   3.544   4.392   6.498 -0.9072 -1.4011  0.0522
 4611SOL     OW25468   1.750   0.761   8.353  0.5002  0.1870 -0.2259
 4611SOL    HW125469   1.712   0.830   8.407  0.8180  1.2365 -1.3511
 4611SOL    HW225470   1.841   0.789   8.347  0.5423 -0.1838 -1.2453
 4612SOL     OW25471   0.979   0.650   4.017 -0.0414  0.3888 -0.5002
 4612SOL    HW125472   0.938   0.575   3.976 -1.2106  0.3102  0.8472
 4612SOL    HW225473   1.067   0.613   4.013  1.0349  2.8101  0.3146
 4613SOL     OW25474   3.331   2.884   8.355 -0.0028 -0.3160 -0.0576
 4613SOL    HW125475   3.268   2.953   8.332 -0.5955 -0.4880  1.0485
 4613SOL    HW225476   3.272   2.809   8.366  0.9955 -1.3090 -1.4472
 4614SOL     OW25477   4.627   3.280  13.379 -0.8120  0.0895 -0.5014
 4614SOL    HW125478   4.653   3.368  13.407  1.0842 -0.6717  0.1066
 4614SOL    HW225479   4.655   3.219  13.447  0.7514 -0.3479 -1.5542
 4615SOL     OW25480   0.688   3.442  16.946 -0.4211  0.2134 -0.4159
 4615SOL    HW125481   0.698   3.386  16.869 -1.3610 -1.5172  0.7091
 4615SOL    HW225482   0.717   3.527  16.915  2.0287 -0.7086 -0.5959
 4616SOL     OW25483   1.317   1.868   8.300  0.0207 -0.5097 -0.2300
 4616SOL    HW125484   1.244   1.875   8.361 -0.3520  0.5633 -0.8019
 4616SOL    HW225485   1.291   1.788   8.254 -3.4847  0.9073 -0.7040
 4617SOL     OW25486   3.600   1.315   4.402  0.1912  0.4095 -0.3071
 4617SOL    HW125487   3.650   1.394   4.384 -2.5618  2.5515  1.5281
 4617SOL    HW225488   3.512   1.351   4.389  0.3469  1.0978  0.5412
 4618SOL     OW25489   3.535   4.426   2.479  0.2704 -0.2260  0.2734
 4618SOL    HW125490   3.558   4.382   2.560 -0.4766  1.3989  1.3788
 4618SOL    HW225491   3.620   4.440   2.437 -0.1061  1.3886  0.0081
 4619SOL     OW25492   2.559   4.130  15.141  0.2353  0.3917 -0.4242
 4619SOL    HW125493   2.613   4.193  15.093  0.0032 -0.4636 -1.8160
 4619SOL    HW225494   2.600   4.048  15.112  2.0491  1.0978  0.1797
 4620SOL     OW25495   4.729   3.588  13.921  0.4569 -0.3050  0.6469
 4620SOL    HW125496   4.659   3.652  13.935  1.3001  0.9519 -0.8129
 4620SOL    HW225497   0.034   3.630  13.845  0.7429  1.3708  1.7292
 4621SOL     OW25498   2.297   2.038  17.254 -0.6063  0.2347  0.5502
 4621SOL    HW125499   2.246   2.092  17.194 -0.3646 -0.6750 -0.4653
 4621SOL    HW225500   2.276   1.952  17.219 -1.7626  0.6323  0.2780
 4622SOL     OW25501   3.067   1.308  12.407 -0.6297 -0.1222 -0.3101
 4622SOL    HW125502   3.115   1.229  12.432  0.2079  1.0289  1.6610
 4622SOL    HW225503   3.027   1.340  12.488  1.1079  2.0496 -0.3244
 4623SOL     OW25504   1.966   3.406  15.784  0.1672 -0.1589 -0.5042
 4623SOL    HW125505   2.035   3.410  15.717  1.2969  1.7709  0.7502
 4623SOL    HW225506   2.013   3.388  15.866  0.3846 -0.1396 -0.6224
 4624SOL     OW25507   1.553   2.165   1.816 -0.4245 -0.3296  0.1322
 4624SOL    HW125508   1.585   2.248   1.851 -1.2229  0.9603 -2.1847
 4624SOL    HW225509   1.489   2.192   1.750  0.5013  0.6650 -0.3553
 4625SOL     OW25510   3.902   0.881   0.731 -0.3605  0.3345 -0.4012
 4625SOL    HW125511   3.811   0.853   0.745  0.2844 -1.4801  0.1843
 4625SOL    HW225512   3.906   0.968   0.772 -1.1295 -0.0189  0.4322
 4626SOL     OW25513   0.891   3.105   7.230  0.1849 -0.3337  0.4349
 4626SOL    HW125514   0.866   3.129   7.141 -0.7796 -2.5723  0.1087
 4626SOL    HW225515   0.984   3.128   7.223  0.2036 -0.3498  0.6110
 4627SOL     OW25516   2.216   0.746  13.183 -0.1961  0.7251 -0.3359
 4627SOL    HW125517   2.248   0.706  13.101 -0.2626  2.0192 -0.9921
 4627SOL    HW225518   2.177   0.828  13.153  0.2480  0.4073 -1.8239
 4628SOL     OW25519   3.155   0.310   2.094  0.0957 -0.0871 -0.3244
 4628SOL    HW125520   3.248   0.328   2.107  0.0971  0.4775 -1.1157
 4628SOL    HW225521   3.146   0.216   2.110 -1.0035 -0.2076 -1.5644
 4629SOL     OW25522   3.201   1.903   7.657  0.1041  0.2459 -0.3503
 4629SOL    HW125523   3.141   1.956   7.605  1.9181  2.4539 -0.1901
 4629SOL    HW225524   3.278   1.903   7.600 -0.4162  0.0720 -1.0510
 4630SOL     OW25525   1.652   3.324   3.602  0.0692 -0.0670 -0.0975
 4630SOL    HW125526   1.608   3.259   3.657 -0.8392  2.7167  2.5048
 4630SOL    HW225527   1.611   3.303   3.519 -0.7051  0.1843  0.2215
 4631SOL     OW25528   3.257   2.868   5.045 -0.4037  0.2865 -0.4109
 4631SOL    HW125529   3.261   2.931   4.973 -3.4221  0.1047 -0.7707
 4631SOL    HW225530   3.303   2.804   4.991  1.7374  0.2500  1.4641
 4632SOL     OW25531   2.325   2.933   3.569  0.2651 -0.1660 -0.3654
 4632SOL    HW125532   2.259   2.996   3.598  2.1010  1.0508  1.1891
 4632SOL    HW225533   2.347   2.968   3.483 -0.5025  2.2514  0.4156
 4633SOL     OW25534   4.561   1.344   9.335 -0.6740 -0.2368 -0.6755
 4633SOL    HW125535   4.558   1.301   9.421  0.1368 -2.9860 -2.0195
 4633SOL    HW225536   4.652   1.326   9.311 -0.5179  2.0335 -1.7692
 4634SOL     OW25537   1.409   4.552   2.530 -0.4570 -0.5063 -0.4765
 4634SOL    HW125538   1.467   4.535   2.455 -2.1975  0.3563 -2.0272
 4634SOL    HW225539   1.326   4.588   2.497 -0.8577 -1.7337 -0.8050
 4635SOL     OW25540   3.444   0.621   1.634 -0.3692 -0.2532  0.5323
 4635SOL    HW125541   3.421   0.538   1.591 -1.7044  0.0180  0.7066
 4635SOL    HW225542   3.509   0.592   1.698 -0.1844 -0.5732  0.2014
 4636SOL     OW25543   0.500   4.270   6.228 -0.2197 -0.1976  0.1825
 4636SOL    HW125544   0.436   4.331   6.265  0.0600 -0.8641  1.7421
 4636SOL    HW225545   0.543   4.260   6.312  4.2943  1.6753 -1.9163
 4637SOL     OW25546   1.314   3.024   3.647 -0.1480  0.5083  0.3250
 4637SOL    HW125547   1.296   3.060   3.560  0.3666 -0.9616 -0.3827
 4637SOL    HW225548   1.264   2.943   3.655 -1.3662  1.3015  0.7745
 4638SOL     OW25549   1.911   1.335   6.268 -0.1990  0.3368 -0.4824
 4638SOL    HW125550   1.888   1.417   6.310  0.2249  0.8612 -1.2829
 4638SOL    HW225551   1.919   1.279   6.346  2.9634  1.6730  0.1737
 4639SOL     OW25552   2.156   0.419  16.563 -0.1091  0.1405  0.2701
 4639SOL    HW125553   2.096   0.357  16.603 -0.0454  0.7312  1.2937
 4639SOL    HW225554   2.136   0.405  16.471 -2.0962  1.8112  0.4538
 4640SOL     OW25555   2.240   4.658   5.285 -0.0204  0.0838 -0.2348
 4640SOL    HW125556   2.262   4.721   5.217  0.6853  0.3275  0.2120
 4640SOL    HW225557   2.330   4.628   5.303  0.2110  1.2456  0.5105
 4641SOL     OW25558   2.379   2.204  12.427  0.3244 -0.3063 -0.4945
 4641SOL    HW125559   2.343   2.131  12.375 -0.0792  0.1527 -0.8623
 4641SOL    HW225560   2.468   2.170  12.437  0.0268 -0.5358  1.3630
 4642SOL     OW25561   2.413   4.616   0.534  0.1128 -0.1890 -0.2377
 4642SOL    HW125562   2.333   4.661   0.563 -0.5431 -0.8955 -0.9693
 4642SOL    HW225563   2.395   4.621   0.440 -0.9967  0.2896  0.0009
 4643SOL     OW25564   2.658   3.261   0.459 -0.1906  0.4718  0.3672
 4643SOL    HW125565   2.600   3.226   0.391 -1.2249  0.4710  1.2550
 4643SOL    HW225566   2.744   3.258   0.416  0.0883 -0.2521  0.9591
 4644SOL     OW25567   0.446   0.101   5.056 -0.0346  0.6057  0.2857
 4644SOL    HW125568   0.410   0.171   5.110 -1.8083  1.3243 -1.8029
 4644SOL    HW225569   0.395   0.030   5.094  0.7976 -0.2292 -0.1556
 4645SOL     OW25570   2.738   2.593  15.115  0.2231  0.2662  0.4151
 4645SOL    HW125571   2.669   2.528  15.097 -0.5617  2.2415 -3.8462
 4645SOL    HW225572   2.785   2.587  15.032 -1.6095 -0.7974 -0.5577
 4646SOL     OW25573   2.514   0.377  13.846  0.0798 -0.0101 -0.0238
 4646SOL    HW125574   2.430   0.363  13.889  0.5358 -3.7395 -0.3124
 4646SOL    HW225575   2.475   0.390  13.759  2.4219  1.0522 -0.9166
 4647SOL     OW25576   0.397   2.081  13.090 -0.0689 -0.1810 -0.5002
 4647SOL    HW125577   0.451   2.094  13.168 -0.8070 -0.2321  0.0261
 4647SOL    HW225578   0.341   2.159  13.089 -0.3114 -0.3140  1.4137
 4648SOL     OW25579   0.176   1.334   6.399  0.5163  0.1661 -0.0686
 4648SOL    HW125580   0.107   1.392   6.366 -0.1082  0.1427  1.1739
 4648SOL    HW225581   0.243   1.402   6.402  0.8058 -0.1852  1.5251
 4649SOL     OW25582   3.622   0.062   3.433 -0.2611 -0.1345  0.4061
 4649SOL    HW125583   3.622   4.725   3.496 -0.3258 -1.4050 -1.0321
 4649SOL    HW225584   3.683   0.121   3.477 -0.6075  1.4919 -1.3169
 4650SOL     OW25585   2.731   4.603   8.877 -0.2290  0.0953  0.2486
 4650SOL    HW125586   2.753   4.568   8.791 -3.0909  2.5185 -1.4767
 4650SOL    HW225587   2.757   4.535   8.939  0.4094  1.3031  1.3359
 4651SOL     OW25588   4.508   4.651  12.241 -0.3183  0.1015  0.1840
 4651SOL    HW125589   4.583   4.644  12.182 -0.7617 -1.2244 -0.2124
 4651SOL    HW225590   4.436   4.594  12.214 -0.3305 -0.1980  0.8573
 4652SOL     OW25591   1.276   4.710  11.252  0.1230 -0.1993 -0.6191
 4652SOL    HW125592   1.323   4.653  11.191  0.8714 -0.4679  0.2078
 4652SOL    HW225593   1.185   4.703  11.223 -0.0252  2.0459 -0.6739
 4653SOL     OW25594   2.416   2.279  15.445  0.0741  0.1532  0.0357
 4653SOL    HW125595   2.375   2.318  15.523  0.5255 -0.1772  0.4335
 4653SOL    HW225596   2.342   2.259  15.388  0.5316 -1.2898 -0.0440
 4654SOL     OW25597   1.747   2.413   3.673  0.5208 -0.3376  0.2832
 4654SOL    HW125598   1.722   2.404   3.581  2.5039  1.3727 -0.4165
 4654SOL    HW225599   1.790   2.498   3.671  2.1111 -1.0818  2.6482
 4655SOL     OW25600   3.699   3.082  15.924 -0.5008 -0.5439  0.5294
 4655SOL    HW125601   3.674   2.997  15.888 -0.1860 -1.8183  3.2661
 4655SOL    HW225602   3.775   3.093  15.866  0.5775 -0.7304  1.9044
 4656SOL     OW25603   0.195   1.938   7.063 -0.1939  0.0930  0.4592
 4656SOL    HW125604   0.105   1.915   7.042 -0.0848  0.6414 -0.6565
 4656SOL    HW225605   0.190   2.033   7.072  0.9921  0.1480  0.5275
 4657SOL     OW25606   0.006   4.439  10.412  0.1474  0.9369 -0.0584
 4657SOL    HW125607   0.072   4.374  10.388 -1.8547 -1.7817  1.7869
 4657SOL    HW225608   4.697   4.399  10.487  3.1036  2.3766  2.4231
 4658SOL     OW25609   1.499   3.015  11.188 -0.0736 -0.0146 -0.1526
 4658SOL    HW125610   1.509   3.110  11.179 -0.5695  0.2560  2.1539
 4658SOL    HW225611   1.521   2.983  11.101  1.6262  0.9476 -0.0760
 4659SOL     OW25612   4.554   3.929   4.476 -0.4027 -0.1538 -0.2016
 4659SOL    HW125613   4.643   3.902   4.494 -0.0429  0.2362 -1.3683
 4659SOL    HW225614   4.538   3.981   4.554  0.0811 -0.2953 -0.0109
 4660SOL     OW25615   4.023   3.293   1.122  0.1053 -0.0650 -0.1857
 4660SOL    HW125616   4.095   3.266   1.178 -1.0630 -2.1599  0.2894
 4660SOL    HW225617   4.008   3.211   1.075 -3.2060  0.9603 -0.9723
 4661SOL     OW25618   2.283   0.138   3.386 -0.0141  0.0396  0.4179
 4661SOL    HW125619   2.279   0.046   3.358 -0.1621  0.3857 -0.7199
 4661SOL    HW225620   2.198   0.140   3.430  0.8016  2.8629  1.8406
 4662SOL     OW25621   4.521   1.723   8.252  0.1900  0.1460  0.1740
 4662SOL    HW125622   4.558   1.793   8.306 -0.3727 -0.2981  1.1369
 4662SOL    HW225623   4.551   1.765   8.172  0.6538  1.9795  1.2993
 4663SOL     OW25624   0.626   3.334   2.846 -0.3538  0.0519 -0.2644
 4663SOL    HW125625   0.558   3.318   2.781 -2.1548 -1.4998  2.0220
 4663SOL    HW225626   0.641   3.248   2.885 -0.9500 -0.6034 -1.4841
 4664SOL     OW25627   3.481   3.071   3.324 -0.2342  0.4582 -0.3788
 4664SOL    HW125628   3.517   3.147   3.278  0.1853  1.9467  2.4210
 4664SOL    HW225629   3.558   3.015   3.324  0.3203  1.2435 -2.8892
 4665SOL     OW25630   4.707   2.034   4.345 -0.3123  0.4820  0.7215
 4665SOL    HW125631   0.049   1.988   4.310  0.5153  1.0083  1.8617
 4665SOL    HW225632   0.005   2.115   4.384  2.5836 -0.7687  0.9010
 4666SOL     OW25633   1.390   1.738  12.981 -0.0228 -0.1023  0.1881
 4666SOL    HW125634   1.317   1.712  13.037 -1.0734  0.0711 -1.1082
 4666SOL    HW225635   1.371   1.828  12.956  0.0117  0.2818  1.5460
 4667SOL     OW25636   2.608   1.597   6.565 -0.8525  0.7728 -0.1141
 4667SOL    HW125637   2.676   1.647   6.611 -0.1990  0.3779 -0.6544
 4667SOL    HW225638   2.662   1.574   6.490  1.7593 -0.6449  2.1933
 4668SOL     OW25639   1.251   3.415   7.377 -0.4918 -0.2176  0.2695
 4668SOL    HW125640   1.325   3.471   7.355 -0.8317 -0.2283 -0.9026
 4668SOL    HW225641   1.171   3.461   7.353  0.1473  0.3654 -0.7497
 4669SOL     OW25642   0.965   0.959  10.942 -0.5881  0.1597  0.1145
 4669SOL    HW125643   0.962   0.915  11.027  1.6502  0.1398  0.2017
 4669SOL    HW225644   0.880   0.945  10.901  0.4131 -2.4789 -1.0061
 4670SOL     OW25645   1.673   0.859   3.250 -0.1358  0.1027  0.3911
 4670SOL    HW125646   1.738   0.843   3.318  2.1680  1.7111 -1.4142
 4670SOL    HW225647   1.656   0.768   3.228 -2.2993  1.2358 -2.7608
 4671SOL     OW25648   0.131   0.588   0.350  0.2153  0.4867 -0.0088
 4671SOL    HW125649   0.047   0.590   0.395  0.6598  3.0080  0.7437
 4671SOL    HW225650   0.119   0.531   0.274 -2.0065  1.0301 -0.0724
 4672SOL     OW25651   1.049   0.250   7.088 -0.0106  0.1982  0.2231
 4672SOL    HW125652   1.055   0.343   7.065 -1.0143 -1.1351 -5.4302
 4672SOL    HW225653   0.977   0.257   7.152  0.2229 -1.0700  0.6177
 4673SOL     OW25654   3.426   1.683   2.028  0.2480 -0.2314  0.0837
 4673SOL    HW125655   3.469   1.689   2.114  2.2814  0.0046 -0.9393
 4673SOL    HW225656   3.456   1.761   1.981 -1.4037 -1.2080 -2.5640
 4674SOL     OW25657   3.258   1.900  17.239 -0.2996 -0.2667 -0.3937
 4674SOL    HW125658   3.230   1.991  17.233 -1.0958 -0.5898 -1.5628
 4674SOL    HW225659   3.354   1.908  17.233 -0.2047 -0.2184  1.2224
 4675SOL     OW25660   0.454   2.114  14.014  0.1874 -0.2478 -0.8508
 4675SOL    HW125661   0.496   2.039  13.973 -0.7439 -0.9996 -0.4240
 4675SOL    HW225662   0.527   2.147  14.066  1.4267 -0.0968 -2.6928
 4676SOL     OW25663   2.141   1.633   2.819  0.5437  0.4058 -0.1570
 4676SOL    HW125664   2.080   1.566   2.852  0.3206  1.1893  1.0155
 4676SOL    HW225665   2.228   1.598   2.840  0.2917  0.1877  0.5625
 4677SOL     OW25666   1.911   4.586   2.375 -0.1037  0.4173  0.5201
 4677SOL    HW125667   1.986   4.634   2.341 -0.3156  0.5539  0.2486
 4677SOL    HW225668   1.864   4.642   2.435 -0.2158  0.3642  0.4818
 4678SOL     OW25669   0.909   1.717   4.346  0.0912  0.2440  0.7057
 4678SOL    HW125670   0.946   1.738   4.260 -1.0767 -1.1259 -0.1354
 4678SOL    HW225671   0.867   1.631   4.342 -0.4024  0.6029 -1.7077
 4679SOL     OW25672   1.035   2.884  17.043 -0.3475  0.8693  0.2446
 4679SOL    HW125673   1.009   2.976  17.037  0.3185  1.1865  2.1825
 4679SOL    HW225674   1.022   2.852  16.954  1.2692 -1.9398  1.0356
 4680SOL     OW25675   4.249   2.934  11.492  0.2450 -0.6902  0.0059
 4680SOL    HW125676   4.309   2.949  11.419 -0.5971 -0.8425 -0.7271
 4680SOL    HW225677   4.237   3.023  11.524 -0.6931 -0.5668 -0.6792
 4681SOL     OW25678   0.275   3.068   5.398  0.0694  0.3435 -0.2495
 4681SOL    HW125679   0.286   3.125   5.474 -0.7628 -0.7206  0.6704
 4681SOL    HW225680   0.303   2.982   5.427 -0.7769 -0.0119 -0.4916
 4682SOL     OW25681   0.294   3.039   7.673 -0.3734  0.3649 -0.0522
 4682SOL    HW125682   0.229   2.970   7.688  0.1501 -0.5745 -2.1231
 4682SOL    HW225683   0.344   3.002   7.601 -1.2948 -1.2986  0.1688
 4683SOL     OW25684   2.037   1.073   3.594  0.2378 -0.6400  0.2001
 4683SOL    HW125685   2.032   0.979   3.577 -0.8549 -0.7722  1.1791
 4683SOL    HW225686   2.125   1.075   3.631  0.9720 -0.5523 -1.5349
 4684SOL     OW25687   2.856   2.661   5.440 -0.1058 -0.2096 -0.9327
 4684SOL    HW125688   2.882   2.750   5.417  1.0890 -0.2633  0.1741
 4684SOL    HW225689   2.779   2.652   5.385 -1.1058 -0.8850  0.5891
 4685SOL     OW25690   2.164   2.506   3.013 -0.3320 -0.4827 -0.3024
 4685SOL    HW125691   2.105   2.468   2.949  0.6190  0.3521 -1.6637
 4685SOL    HW225692   2.244   2.453   3.007 -0.3880 -0.7132  0.8814
 4686SOL     OW25693   0.703   2.076   1.827  0.2674 -0.2744  0.4156
 4686SOL    HW125694   0.714   2.055   1.735 -3.4313  0.2763 -0.1869
 4686SOL    HW225695   0.720   1.993   1.870  0.0101 -0.5274  0.0302
 4687SOL     OW25696   1.763   3.063  11.785  0.0441  0.4102 -0.2869
 4687SOL    HW125697   1.818   3.139  11.805  1.3155 -0.8785  1.1524
 4687SOL    HW225698   1.809   3.038  11.705  1.8568  2.3595  0.1577
 4688SOL     OW25699   1.403   3.378   8.241  0.1046 -0.3202 -0.3362
 4688SOL    HW125700   1.453   3.435   8.300 -0.9217  1.3095 -1.0388
 4688SOL    HW225701   1.447   3.293   8.234 -2.7841 -1.7431 -1.3446
 4689SOL     OW25702   3.665   1.799   2.864  0.0469 -0.2045 -1.0678
 4689SOL    HW125703   3.629   1.710   2.864  1.5193 -0.8108 -2.4111
 4689SOL    HW225704   3.735   1.788   2.800  0.0348 -1.0674 -0.9309
 4690SOL     OW25705   3.377   0.698   4.081 -0.2882  0.1167  0.0540
 4690SOL    HW125706   3.356   0.607   4.061  3.5705 -0.6994 -0.1426
 4690SOL    HW225707   3.395   0.726   3.991  0.3176  2.3434  0.8810
 4691SOL     OW25708   3.920   2.661   3.011 -0.5824  0.6186  0.1306
 4691SOL    HW125709   3.837   2.704   3.028  0.6938  2.8632  0.6800
 4691SOL    HW225710   3.894   2.570   3.025  1.6853 -0.4990 -2.9470
 4692SOL     OW25711   2.581   0.202   5.377 -0.0740  0.4903 -0.1519
 4692SOL    HW125712   2.548   0.150   5.450  3.3604 -1.1782  0.1885
 4692SOL    HW225713   2.658   0.245   5.414 -1.3892  3.9902 -1.4875
 4693SOL     OW25714   1.201   1.413   8.757 -0.1643 -0.0333  0.0121
 4693SOL    HW125715   1.142   1.340   8.773  0.6667 -1.3210 -2.7929
 4693SOL    HW225716   1.187   1.400   8.663  0.3424 -3.6788  0.4312
 4694SOL     OW25717   0.322   3.046   8.884  0.1455  0.1922 -0.5082
 4694SOL    HW125718   0.304   2.969   8.938  0.6589  0.3713 -0.0802
 4694SOL    HW225719   0.299   3.127   8.931  0.3248  0.8589 -1.5586
 4695SOL     OW25720   1.616   3.233   5.418  0.1056 -0.5015 -0.7826
 4695SOL    HW125721   1.587   3.315   5.377  0.3921 -0.2139 -0.4176
 4695SOL    HW225722   1.699   3.227   5.370 -0.8016  1.9196 -2.6512
 4696SOL     OW25723   3.970   0.395  11.770  0.4741  0.1034 -0.1418
 4696SOL    HW125724   4.058   0.401  11.733 -0.3627 -0.0114 -2.1482
 4696SOL    HW225725   3.969   0.453  11.846  0.8566  0.6074 -0.5210
 4697SOL     OW25726   4.636   0.818   3.677 -0.0400  0.4095  0.1950
 4697SOL    HW125727   4.671   0.737   3.714  0.9475  1.5462  1.7004
 4697SOL    HW225728   4.705   0.876   3.708  1.4182 -0.3986 -1.5310
 4698SOL     OW25729   4.207   4.463   8.954 -0.1103  0.0088  0.3017
 4698SOL    HW125730   4.146   4.401   8.994  0.1874 -0.5035 -0.0482
 4698SOL    HW225731   4.186   4.468   8.861  0.2552  0.2350  0.2327
 4699SOL     OW25732   3.122   0.786   7.244 -0.2550 -0.1957 -0.2497
 4699SOL    HW125733   3.034   0.747   7.240 -0.6531  0.8118 -1.2623
 4699SOL    HW225734   3.107   0.847   7.316 -0.1686  0.0301 -0.4230
 4700SOL     OW25735   1.831   3.986   3.616 -0.1986 -0.1892  0.0364
 4700SOL    HW125736   1.833   4.046   3.690 -2.5342  0.8206 -0.7213
 4700SOL    HW225737   1.867   3.908   3.659  0.0935  0.2100  0.5188
 4701SOL     OW25738   2.423   2.695   3.689 -0.6436  0.0718  0.1793
 4701SOL    HW125739   2.453   2.641   3.616  1.1853 -0.4727  1.3267
 4701SOL    HW225740   2.385   2.769   3.641 -0.4464 -0.7576 -1.2520
 4702SOL     OW25741   4.135   0.542   9.918 -0.1558  0.1455  0.7061
 4702SOL    HW125742   4.146   0.636   9.906  1.4926 -0.4209 -2.1993
 4702SOL    HW225743   4.101   0.514   9.833  1.2590 -2.5438  1.0288
 4703SOL     OW25744   3.960   0.630   8.342  0.5675 -0.9984 -0.3137
 4703SOL    HW125745   3.963   0.626   8.247 -0.7193  2.9604 -0.5279
 4703SOL    HW225746   3.879   0.678   8.358  1.6175  0.4479  0.6879
 4704SOL     OW25747   3.114   2.241   3.413 -0.7608  0.3633  0.4781
 4704SOL    HW125748   3.203   2.261   3.443 -0.5371 -0.5468  0.4292
 4704SOL    HW225749   3.123   2.153   3.377 -1.4195  0.3200  0.4257
 4705SOL     OW25750   0.465   0.734   4.598 -0.3185 -0.2754 -0.2633
 4705SOL    HW125751   0.558   0.714   4.602 -0.2293  0.5129  1.4156
 4705SOL    HW225752   0.426   0.648   4.583  0.1223 -0.3653 -0.9021
 4706SOL     OW25753   2.059   3.345  14.746 -0.4372 -0.2024 -0.4407
 4706SOL    HW125754   2.012   3.422  14.712 -1.3683  0.5048  2.4016
 4706SOL    HW225755   2.058   3.374  14.837 -0.2556  0.5362 -0.6779
 4707SOL     OW25756   3.606   3.064  14.012 -0.6673 -0.5138 -0.8587
 4707SOL    HW125757   3.530   3.039  14.063  1.3675 -0.8594  1.9887
 4707SOL    HW225758   3.616   2.998  13.944  0.8651 -0.1248 -1.0120
 4708SOL     OW25759   1.068   3.264   7.001 -0.0643 -0.4011  0.0264
 4708SOL    HW125760   1.084   3.339   6.944  0.1121 -0.6649 -0.2723
 4708SOL    HW225761   1.143   3.268   7.060 -0.3079 -0.1635  0.3213
 4709SOL     OW25762   3.047   0.488   4.161  0.4615  0.3645  0.0027
 4709SOL    HW125763   3.033   0.395   4.174 -1.8565  0.6591 -0.3516
 4709SOL    HW225764   3.003   0.530   4.235  0.3072  0.7171 -0.2866
 4710SOL     OW25765   0.079   0.429   7.314  0.1761  0.0979 -0.4370
 4710SOL    HW125766   0.035   0.346   7.328 -1.7494  1.2628  0.3520
 4710SOL    HW225767   0.128   0.428   7.396  1.4306  0.2057 -1.1797
 4711SOL     OW25768   3.725   2.983   9.462  0.5446  0.0755  0.4462
 4711SOL    HW125769   3.792   2.999   9.395  0.6455 -0.2680  0.4620
 4711SOL    HW225770   3.777   2.925   9.518  0.3078 -0.3616  0.2132
 4712SOL     OW25771   2.748   4.510   5.360 -0.1871 -0.4365  0.1742
 4712SOL    HW125772   2.742   4.415   5.371 -0.9690 -0.5399 -1.1646
 4712SOL    HW225773   2.841   4.533   5.365 -0.7646  1.5889  1.3947
 4713SOL     OW25774   4.277   3.033   7.944  0.1232 -0.1233 -0.2145
 4713SOL    HW125775   4.183   3.050   7.939 -0.0422 -0.9776  0.1369
 4713SOL    HW225776   4.308   3.124   7.947  1.6196 -0.5500 -2.2057
 4714SOL     OW25777   4.566   3.009  15.412  0.0035 -0.2481 -0.5258
 4714SOL    HW125778   4.604   3.091  15.382  1.2808 -0.9754 -0.8917
 4714SOL    HW225779   4.554   2.964  15.328 -1.6647  0.2603 -0.5713
 4715SOL     OW25780   4.222   2.022   6.313 -0.1837  0.6076 -0.5355
 4715SOL    HW125781   4.252   1.954   6.373 -0.1450  1.1786  0.0900
 4715SOL    HW225782   4.165   2.073   6.371  1.7621  2.0963  0.0829
 4716SOL     OW25783   0.031   1.123  14.903 -0.4338  0.2467 -0.1349
 4716SOL    HW125784   0.078   1.170  14.835  0.4475  0.2371  0.4678
 4716SOL    HW225785   0.110   1.113  14.956 -0.1996 -1.0698 -0.7131
 4717SOL     OW25786   2.503   3.468   9.348 -0.3642 -0.4483 -0.3036
 4717SOL    HW125787   2.465   3.450   9.262 -1.1526  2.2345 -0.5321
 4717SOL    HW225788   2.482   3.383   9.387  1.4275 -0.8129 -0.1558
 4718SOL     OW25789   4.045   4.001   3.524 -0.1455 -0.5651 -0.2709
 4718SOL    HW125790   3.996   4.073   3.564  1.3865 -1.0636  2.4910
 4718SOL    HW225791   4.078   4.046   3.446 -1.6470  1.5273  0.2912
 4719SOL     OW25792   0.154   1.399  12.364  0.2861 -0.3804  0.1251
 4719SOL    HW125793   0.105   1.454  12.425 -0.6106 -1.2228  0.1537
 4719SOL    HW225794   0.125   1.313  12.392  1.3538 -0.5447  0.7200
 4720SOL     OW25795   1.363   0.935   2.269 -0.2313  0.3072  0.0896
 4720SOL    HW125796   1.392   1.008   2.322  1.7777  0.0822 -0.6861
 4720SOL    HW225797   1.272   0.932   2.297 -0.5965 -0.3855 -1.1806
 4721SOL     OW25798   2.284   1.107   8.004 -0.3529  0.3516 -0.2294
 4721SOL    HW125799   2.380   1.097   8.004 -0.2235  1.5994  0.5499
 4721SOL    HW225800   2.255   1.063   8.084  0.1113 -0.3602 -0.4537
 4722SOL     OW25801   2.958   0.581   6.979  0.0787 -0.7214 -0.3116
 4722SOL    HW125802   2.920   0.616   7.059 -1.0465  0.9644 -1.5914
 4722SOL    HW225803   2.893   0.598   6.911 -0.7971  2.2578  1.2441
 4723SOL     OW25804   1.976   1.350   2.600  0.0277  0.5339  0.5271
 4723SOL    HW125805   1.890   1.322   2.570  0.1516  0.3210  0.3642
 4723SOL    HW225806   1.953   1.361   2.692 -1.8609 -0.0353  0.1182
 4724SOL     OW25807   0.684   1.175   3.851  0.1272 -0.0516 -1.0371
 4724SOL    HW125808   0.611   1.202   3.795  1.4412  1.0311 -2.2367
 4724SOL    HW225809   0.739   1.130   3.787  1.1272 -0.8792  0.3947
 4725SOL     OW25810   3.153   2.817   3.829  0.1882 -0.3056  0.0376
 4725SOL    HW125811   3.133   2.902   3.866 -1.2080 -1.3314  1.6238
 4725SOL    HW225812   3.207   2.778   3.897 -0.4585  0.2129  0.8356
 4726SOL     OW25813   3.786   1.770   6.450 -0.1654 -0.5278 -0.6682
 4726SOL    HW125814   3.858   1.786   6.512 -0.7006 -0.9265  0.0521
 4726SOL    HW225815   3.818   1.801   6.365 -1.6945  0.9013 -0.7324
 4727SOL     OW25816   1.006   2.004   4.047  0.2679 -0.3461 -0.4061
 4727SOL    HW125817   1.013   2.015   4.142  0.7378  0.9863 -0.5869
 4727SOL    HW225818   1.046   2.085   4.014 -1.3837  0.4446 -0.4661
 4728SOL     OW25819   4.697   2.287   0.614 -0.1664  0.0311  0.3089
 4728SOL    HW125820   4.637   2.360   0.632  1.2613  1.2703  0.1130
 4728SOL    HW225821   4.682   2.230   0.689 -1.6257 -1.6372 -1.2638
 4729SOL     OW25822   4.433   1.919   6.762  0.3858  0.1239 -0.3654
 4729SOL    HW125823   4.501   1.983   6.742 -0.2759  0.9547  0.0229
 4729SOL    HW225824   4.475   1.841   6.726 -1.5360 -0.1745 -1.9497
 4730SOL     OW25825   2.857   1.309   6.721 -0.0983 -0.0836 -0.1340
 4730SOL    HW125826   2.855   1.379   6.787 -0.7863 -1.0152  0.8418
 4730SOL    HW225827   2.783   1.253   6.746 -0.5526  1.4799  2.0920
 4731SOL     OW25828   1.617   2.746   5.297  0.5738 -0.3610  0.0848
 4731SOL    HW125829   1.628   2.723   5.205  0.1376  2.6094 -0.7317
 4731SOL    HW225830   1.706   2.738   5.331  1.2351 -0.3514 -1.6468
 4732SOL     OW25831   3.280   2.871   7.374 -0.0821  0.2629  0.5921
 4732SOL    HW125832   3.222   2.942   7.403  0.0383 -0.4124  2.4822
 4732SOL    HW225833   3.354   2.918   7.338 -0.1586  1.6131  2.1943
 4733SOL     OW25834   3.347   1.087  14.686 -0.6436 -0.5250  0.4306
 4733SOL    HW125835   3.359   0.998  14.653 -0.4380  0.1191 -1.2328
 4733SOL    HW225836   3.320   1.072  14.776 -0.8863  0.9309  0.6039
 4734SOL     OW25837   0.961   3.133  15.363  0.0862  0.0198 -0.0819
 4734SOL    HW125838   0.941   3.180  15.444 -1.2660 -0.7031 -0.0009
 4734SOL    HW225839   1.056   3.138  15.367  0.2784 -1.3924 -3.0155
 4735SOL     OW25840   1.653   2.715  13.689  0.2726  0.2060  0.2944
 4735SOL    HW125841   1.728   2.681  13.639  1.9163  2.2202  1.3860
 4735SOL    HW225842   1.678   2.664  13.766 -0.1501  1.2495  1.1166
 4736SOL     OW25843   0.625   1.249   2.447 -0.4031 -0.5204 -0.3552
 4736SOL    HW125844   0.580   1.167   2.468 -0.5511 -0.5553 -0.8196
 4736SOL    HW225845   0.656   1.268   2.536  1.1012 -0.0881 -0.9685
 4737SOL     OW25846   1.326   2.622   1.966 -0.1298  0.0286  0.3535
 4737SOL    HW125847   1.407   2.572   1.973 -0.3546 -0.4496 -0.4789
 4737SOL    HW225848   1.316   2.632   1.871  1.7900  0.5922  0.2059
 4738SOL     OW25849   3.786   3.513   6.446  0.3873 -0.2109 -0.2509
 4738SOL    HW125850   3.837   3.561   6.380 -1.5597  0.4076 -1.2994
 4738SOL    HW225851   3.764   3.437   6.392 -2.0274  0.8741 -0.8121
 4739SOL     OW25852   2.451   2.176   5.960  0.6019  0.2747  0.8311
 4739SOL    HW125853   2.368   2.215   5.987  0.7880  2.0041 -1.1402
 4739SOL    HW225854   2.478   2.248   5.903 -1.1923 -0.7865 -1.3755
 4740SOL     OW25855   3.385   4.506  13.419 -0.0545 -0.1697 -0.0239
 4740SOL    HW125856   3.479   4.505  13.402 -0.7267 -1.1479 -3.7500
 4740SOL    HW225857   3.369   4.591  13.458  1.4196 -0.3199  0.8947
 4741SOL     OW25858   4.449   1.598   4.896 -0.4852 -0.6711  0.3671
 4741SOL    HW125859   4.360   1.631   4.902 -0.5189 -0.7100  0.0577
 4741SOL    HW225860   4.427   1.505   4.900 -0.7703 -0.5316  2.3811
 4742SOL     OW25861   2.988   0.004  15.081  0.3497  0.3207 -0.3062
 4742SOL    HW125862   2.923   4.674  15.055 -0.4338 -0.0582  2.5879
 4742SOL    HW225863   2.933   0.042  15.149  0.2463 -0.0376 -0.1919
 4743SOL     OW25864   0.415   1.505   4.577 -0.1697 -0.8212  0.2657
 4743SOL    HW125865   0.351   1.570   4.547  0.7818  0.8388  1.8550
 4743SOL    HW225866   0.424   1.528   4.669  0.9581  0.8071 -0.2482
 4744SOL     OW25867   0.156   1.444   7.536 -0.0250 -0.6937  0.2306
 4744SOL    HW125868   0.093   1.413   7.601  0.3820 -1.3254  0.3214
 4744SOL    HW225869   0.173   1.534   7.564 -1.0081 -0.4645  0.0917
 4745SOL     OW25870   1.251   4.545  14.442  0.2127 -0.4572  0.3277
 4745SOL    HW125871   1.157   4.528  14.446  0.7726 -2.9264  2.5034
 4745SOL    HW225872   1.264   4.595  14.523  4.4288 -1.9691  0.5764
 4746SOL     OW25873   0.905   1.397   8.493 -0.3333 -0.6252 -0.0592
 4746SOL    HW125874   0.886   1.416   8.585  0.3065 -0.6772  0.0854
 4746SOL    HW225875   1.001   1.405   8.498 -0.4412  0.8730 -0.5068
 4747SOL     OW25876   3.321   3.111  12.597 -0.3983  0.2771  0.0251
 4747SOL    HW125877   3.399   3.101  12.652  0.0869 -0.4475 -0.8070
 4747SOL    HW225878   3.365   3.101  12.513  1.2940  0.2693  0.9227
 4748SOL     OW25879   4.208   0.356  13.124  0.4649 -0.1814  0.0408
 4748SOL    HW125880   4.297   0.330  13.101  0.2958  1.4173 -2.4777
 4748SOL    HW225881   4.161   0.343  13.041  1.5483 -0.4619 -0.5254
 4749SOL     OW25882   2.475   0.402   8.301 -0.0111  0.4092  0.1086
 4749SOL    HW125883   2.520   0.327   8.263  1.5990  1.7616 -0.6026
 4749SOL    HW225884   2.461   0.465   8.231  1.5224 -0.8510 -1.3308
 4750SOL     OW25885   3.219   0.532   8.474  0.2294  0.2326 -0.2494
 4750SOL    HW125886   3.255   0.447   8.503  0.1920  0.7725  1.3999
 4750SOL    HW225887   3.138   0.550   8.521 -0.5044 -1.9557 -0.6630
 4751SOL     OW25888   2.565   1.822   3.626 -0.4166 -0.9886 -0.9270
 4751SOL    HW125889   2.511   1.860   3.695  0.6789 -0.9752 -0.0664
 4751SOL    HW225890   2.566   1.727   3.637 -2.9231 -0.7052  1.6582
 4752SOL     OW25891   2.998   0.237   7.177 -0.2790 -0.2668 -0.8798
 4752SOL    HW125892   3.055   0.252   7.102  0.9199 -0.2800  0.0323
 4752SOL    HW225893   3.027   0.147   7.192 -2.7718 -1.3174 -2.2847
 4753SOL     OW25894   1.695   0.746  13.926  0.2383  0.2957 -0.5659
 4753SOL    HW125895   1.789   0.764  13.929  0.5123 -0.9515 -1.4561
 4753SOL    HW225896   1.708   0.651  13.924 -0.1104  0.2589 -1.1051
 4754SOL     OW25897   0.706   2.680   5.492 -1.0983  0.1419 -0.3744
 4754SOL    HW125898   0.718   2.629   5.412  1.1379 -1.2734  0.8496
 4754SOL    HW225899   0.717   2.770   5.461 -1.1611  0.3139  0.0964
 4755SOL     OW25900   0.201   4.431   5.347 -0.9574 -0.1400  0.2093
 4755SOL    HW125901   0.231   4.475   5.426 -0.9228  0.7871 -0.3109
 4755SOL    HW225902   0.246   4.346   5.348  1.5233  1.1954  1.7856
 4756SOL     OW25903   2.276   0.440   0.942 -0.6576 -0.5363 -0.3602
 4756SOL    HW125904   2.194   0.395   0.962 -1.0701  0.6454  0.5677
 4756SOL    HW225905   2.328   0.434   1.023 -0.2088  3.1643 -0.3698
 4757SOL     OW25906   3.637   2.712   2.190  0.1796  0.6045 -0.5484
 4757SOL    HW125907   3.688   2.638   2.223  0.8348  1.4347  0.2724
 4757SOL    HW225908   3.549   2.673   2.185 -0.3681  1.7606  0.0175
 4758SOL     OW25909   0.309   0.860   8.904  0.0951  0.4903  0.1510
 4758SOL    HW125910   0.257   0.803   8.962  1.2116  0.4409  1.1010
 4758SOL    HW225911   0.302   0.816   8.819  0.3333  1.8121 -0.5472
 4759SOL     OW25912   4.355   3.125   4.513  0.2624 -0.0118  0.7631
 4759SOL    HW125913   4.288   3.192   4.502 -2.1682 -1.9616  3.6572
 4759SOL    HW225914   4.305   3.044   4.528 -1.2390  1.6124  4.5598
 4760SOL     OW25915   3.312   1.967   8.367  0.5426  0.1750 -0.1005
 4760SOL    HW125916   3.358   2.035   8.416  1.2570  0.6022 -1.3482
 4760SOL    HW225917   3.222   1.998   8.358 -0.1664 -2.1787 -1.3094
 4761SOL     OW25918   0.608   4.531   4.877 -0.5260  0.0568  0.3346
 4761SOL    HW125919   0.671   4.596   4.845  0.6419 -2.1151 -1.7908
 4761SOL    HW225920   0.525   4.576   4.862  0.5951  2.0196  0.0254
 4762SOL     OW25921   2.245   0.426  15.041 -0.5835 -0.5497 -0.3947
 4762SOL    HW125922   2.280   0.471  15.118 -0.0508  0.2822 -1.1273
 4762SOL    HW225923   2.163   0.392  15.076  0.7556 -2.8689  0.5051
 4763SOL     OW25924   0.479   1.607   8.847 -0.1601 -0.4714  0.4426
 4763SOL    HW125925   0.486   1.545   8.775  2.7638  0.2687  0.1083
 4763SOL    HW225926   0.467   1.549   8.923  0.6291  0.4642  1.2742
 4764SOL     OW25927   1.568   0.170  12.782  0.4252  0.3016 -0.0260
 4764SOL    HW125928   1.617   0.141  12.860  1.7046  1.8537 -0.2536
 4764SOL    HW225929   1.570   0.089  12.732  2.0460 -1.1682  2.3811
 4765SOL     OW25930   3.052   2.900   3.341  1.0217 -0.3974  0.3007
 4765SOL    HW125931   2.990   2.879   3.271 -1.2822 -0.1436  2.2643
 4765SOL    HW225932   3.012   2.980   3.375  0.6573  0.1933 -1.5084
 4766SOL     OW25933   1.913   1.825   2.803 -0.4945 -0.2689  0.0405
 4766SOL    HW125934   1.992   1.775   2.825 -0.5272 -0.1110  0.5307
 4766SOL    HW225935   1.866   1.764   2.745 -1.9254  2.2430 -1.4109
 4767SOL     OW25936   1.461   1.488   5.381  0.2723  0.3300 -0.4159
 4767SOL    HW125937   1.512   1.441   5.315  1.5548  3.7988 -1.8616
 4767SOL    HW225938   1.506   1.571   5.365  1.4978  0.0133  1.4117
 4768SOL     OW25939   0.735   0.659   4.532 -0.3721 -0.0151  0.4037
 4768SOL    HW125940   0.711   0.642   4.441  0.8115 -0.4195  0.1699
 4768SOL    HW225941   0.752   0.573   4.570  2.2523 -0.7142 -2.3233
 4769SOL     OW25942   3.597   2.780   9.824 -0.2337 -0.2238 -0.2239
 4769SOL    HW125943   3.604   2.839   9.749 -0.9161 -1.4807 -1.2924
 4769SOL    HW225944   3.512   2.797   9.864 -1.1492 -2.0258 -1.3551
 4770SOL     OW25945   2.524   3.540   7.701  0.1814 -0.5198 -0.1470
 4770SOL    HW125946   2.542   3.634   7.704 -1.9480 -0.2378  3.0453
 4770SOL    HW225947   2.456   3.544   7.768 -0.1165  2.0228 -0.5799
 4771SOL     OW25948   1.834   1.120   4.320  0.3005 -0.0423 -0.2811
 4771SOL    HW125949   1.824   1.046   4.260 -1.7686 -0.7935  0.9519
 4771SOL    HW225950   1.929   1.120   4.330  0.0762 -0.4752  1.8702
 4772SOL     OW25951   3.970   2.426   7.544  0.6567  0.2263  0.1459
 4772SOL    HW125952   3.966   2.330   7.541 -3.4585  0.4603 -3.0978
 4772SOL    HW225953   3.963   2.449   7.452  2.9123 -1.3825 -0.4218
 4773SOL     OW25954   3.359   1.976   6.727  0.0112  0.0312  0.2423
 4773SOL    HW125955   3.311   1.898   6.698 -0.8996 -0.3954  2.8799
 4773SOL    HW225956   3.285   2.037   6.731 -2.1396 -2.6756  1.7249
 4774SOL     OW25957   2.732   2.684   8.443 -0.1600 -0.3022 -0.7746
 4774SOL    HW125958   2.656   2.627   8.455  0.5328 -1.1376 -0.3153
 4774SOL    HW225959   2.800   2.617   8.428 -1.1430 -1.8501  1.6246
 4775SOL     OW25960   4.221   4.057   2.571 -0.8712  0.0661 -0.0680
 4775SOL    HW125961   4.201   4.089   2.483 -0.7274 -2.3283 -0.9669
 4775SOL    HW225962   4.136   4.019   2.593 -1.0395  0.9047  0.7089
 4776SOL     OW25963   1.028   0.140  16.970 -0.1524 -1.0050  0.3092
 4776SOL    HW125964   1.063   0.150  17.058  0.2726  0.6203 -0.0313
 4776SOL    HW225965   1.062   0.054  16.947 -0.9508 -0.5125 -2.7728
 4777SOL     OW25966   2.715   2.763   2.093  0.1694  0.0017 -0.2527
 4777SOL    HW125967   2.646   2.828   2.105  0.3168  0.4536 -1.9359
 4777SOL    HW225968   2.776   2.810   2.037 -1.6081  2.2920 -0.2829
 4778SOL     OW25969   2.460   2.876   4.769  0.1683  0.1887 -0.0002
 4778SOL    HW125970   2.365   2.878   4.782  0.1768  0.0570  0.0833
 4778SOL    HW225971   2.478   2.962   4.731 -0.0267  0.2618  0.0728
 4779SOL     OW25972   1.279   0.653   8.344 -0.0864  0.1656 -0.6420
 4779SOL    HW125973   1.323   0.652   8.429  0.8199 -1.0834 -1.1340
 4779SOL    HW225974   1.189   0.628   8.366 -0.3553  2.7120  1.2259
 4780SOL     OW25975   4.605   0.243   1.614 -0.3995 -0.2254  0.2322
 4780SOL    HW125976   4.629   0.319   1.667 -0.4223 -0.7575  1.0058
 4780SOL    HW225977   4.673   0.180   1.639 -1.0803 -0.4636  1.4825
 4781SOL     OW25978   4.572   1.784  16.164  1.0222 -0.1676 -0.0354
 4781SOL    HW125979   4.593   1.691  16.160  0.4577 -0.3069  0.2255
 4781SOL    HW225980   4.601   1.812  16.078  2.5536  0.3264  0.6327
 4782SOL     OW25981   2.683   1.613   4.803 -0.2324 -0.6548  0.0850
 4782SOL    HW125982   2.609   1.633   4.745  0.0651  1.1312  0.3219
 4782SOL    HW225983   2.750   1.660   4.754 -0.3038  0.0811  0.6911
 4783SOL     OW25984   4.516   0.944   3.479  0.3907  0.0305 -0.0868
 4783SOL    HW125985   4.553   0.886   3.545  0.4627  0.9920  0.7127
 4783SOL    HW225986   4.594   0.964   3.428 -0.1691 -0.1799 -1.0281
 4784SOL     OW25987   2.585   3.442  12.059 -0.3865  0.1411 -0.0956
 4784SOL    HW125988   2.536   3.493  11.994  1.0873  1.0970 -0.4671
 4784SOL    HW225989   2.576   3.516  12.119  1.5188 -0.6908  1.1853
 4785SOL     OW25990   0.250   0.477   6.225 -0.2460  0.4699  0.2410
 4785SOL    HW125991   0.249   0.571   6.212 -1.2727  1.1097  4.7522
 4785SOL    HW225992   0.181   0.476   6.292 -0.7135 -1.3477 -0.2667
 4786SOL     OW25993   3.233   4.640   3.282 -0.4922  0.1465 -0.1701
 4786SOL    HW125994   3.301   4.575   3.301  1.2652  1.4961 -1.7559
 4786SOL    HW225995   3.259   4.676   3.197  0.4369 -2.2836 -0.8928
 4787SOL     OW25996   2.135   0.015   2.241  0.4533  0.0359  0.1370
 4787SOL    HW125997   2.144   0.083   2.308  1.3814 -0.7111  0.7735
 4787SOL    HW225998   2.223   0.020   2.203 -0.1572  0.8456 -1.1410
 4788SOL     OW25999   0.634   2.941   4.340 -0.3267 -0.2339  0.4177
 4788SOL    HW126000   0.643   3.028   4.302  0.2415 -0.2079  0.6208
 4788SOL    HW226001   0.725   2.914   4.332 -0.2284  0.7016 -1.5405
 4789SOL     OW26002   2.523   1.812   4.428 -0.3834  0.2204 -0.7511
 4789SOL    HW126003   2.445   1.865   4.407 -1.1181 -0.3130  0.6278
 4789SOL    HW226004   2.586   1.859   4.374 -0.5771  1.3954  0.0355
 4790SOL     OW26005   1.922   4.585   8.839 -0.4503  0.4516 -0.2336
 4790SOL    HW126006   1.936   4.629   8.756  0.1558  0.1153 -0.3089
 4790SOL    HW226007   1.897   4.497   8.810 -0.4530  0.4012 -0.0803
 4791SOL     OW26008   2.407   3.712   7.171  0.1296 -0.0485  0.1122
 4791SOL    HW126009   2.416   3.626   7.212 -1.6576 -0.2783  0.0335
 4791SOL    HW226010   2.312   3.714   7.157  0.3370  1.0708 -1.1065
 4792SOL     OW26011   3.987   1.761  14.652  0.1541  0.0884 -0.4762
 4792SOL    HW126012   3.894   1.748  14.672  0.3680 -0.5292  0.1414
 4792SOL    HW226013   3.992   1.855  14.637  0.3882  0.1394 -0.0758
 4793SOL     OW26014   2.308   3.142  15.979  0.2101 -0.5604 -0.5895
 4793SOL    HW126015   2.346   3.105  16.059  1.5681  0.5291 -0.7376
 4793SOL    HW226016   2.375   3.110  15.918  0.8702 -1.3628  0.5513
 4794SOL     OW26017   3.771   2.489   0.502  0.2485 -0.1960 -0.3719
 4794SOL    HW126018   3.792   2.403   0.538 -2.2480 -0.1867  1.1562
 4794SOL    HW226019   3.857   2.530   0.508 -0.0468  0.4631 -0.5272
 4795SOL     OW26020   1.789   4.400   2.208 -0.7403  0.2912  0.0122
 4795SOL    HW126021   1.874   4.388   2.165  1.1254  2.0935  3.1963
 4795SOL    HW226022   1.813   4.465   2.274 -0.5007 -1.2086  1.4022
 4796SOL     OW26023   4.413   3.793   5.373  0.0375 -0.5946 -0.4368
 4796SOL    HW126024   4.355   3.840   5.312  0.0761  1.4621  1.1020
 4796SOL    HW226025   4.498   3.812   5.333 -0.0923  0.5196 -0.1993
 4797SOL     OW26026   4.417   2.133   1.937  0.1218 -0.8458 -0.4029
 4797SOL    HW126027   4.473   2.211   1.940 -0.7063 -0.2874  0.2889
 4797SOL    HW226028   4.465   2.081   1.872 -0.0178 -1.4837  0.0111
 4798SOL     OW26029   4.533   0.141   4.121 -0.3672 -0.0385  0.1006
 4798SOL    HW126030   4.565   0.221   4.164  1.5012 -0.6890 -0.0463
 4798SOL    HW226031   4.451   0.121   4.165 -1.5462  1.6237 -1.3432
 4799SOL     OW26032   3.677   1.205   4.653  0.8631  0.3930  0.4255
 4799SOL    HW126033   3.642   1.255   4.580  0.1033  0.4009  0.8030
 4799SOL    HW226034   3.656   1.113   4.639  0.9298  0.5952 -1.0495
 4800SOL     OW26035   3.007   1.191   7.216  0.5486 -0.2288 -0.1455
 4800SOL    HW126036   2.989   1.097   7.210  0.4236 -0.2312  0.2511
 4800SOL    HW226037   2.914   1.212   7.216  0.5815 -0.0950  1.4089
 4801SOL     OW26038   4.438   1.058   4.900  0.3571 -0.1011  0.3859
 4801SOL    HW126039   4.349   1.027   4.915 -0.2058  1.2594 -0.1039
 4801SOL    HW226040   4.464   1.047   4.991 -1.0884  0.7727  0.8945
 4802SOL     OW26041   3.351   0.243   1.810  0.7072 -0.6854  0.3495
 4802SOL    HW126042   3.314   0.156   1.794  0.3979 -0.3673 -0.6393
 4802SOL    HW226043   3.376   0.240   1.903  1.3289 -0.6890  0.1834
 4803SOL     OW26044   4.125   0.894   3.067 -0.3575  0.0114  0.9016
 4803SOL    HW126045   4.164   0.960   3.124 -0.9658  0.0969  1.2178
 4803SOL    HW226046   4.207   0.852   3.039 -0.0867  0.5057  0.9531
 4804SOL     OW26047   3.106   0.057   0.850 -0.2328 -0.4048  0.2039
 4804SOL    HW126048   3.131   0.144   0.818 -0.0574 -0.7945 -0.7136
 4804SOL    HW226049   3.060   0.021   0.774 -1.6490 -1.6966  1.6887
 4805SOL     OW26050   3.078   0.355  12.052 -0.6316  0.1143  0.1467
 4805SOL    HW126051   3.011   0.420  12.031 -0.4659  0.3821  0.4432
 4805SOL    HW226052   3.053   0.320  12.138 -1.0995 -0.8599 -0.3892
 4806SOL     OW26053   0.731   4.155   5.937  1.0589  0.1975 -0.0196
 4806SOL    HW126054   0.774   4.171   5.853  0.7391 -0.9004 -0.3947
 4806SOL    HW226055   0.698   4.243   5.952  0.9657  0.0575  0.6162
 4807SOL     OW26056   3.874   3.218  17.713 -0.4384  0.1112  0.0299
 4807SOL    HW126057   3.805   3.256   0.026 -0.6237 -2.2187  1.4394
 4807SOL    HW226058   3.863   3.273  17.636  1.0667 -1.1219 -1.0660
 4808SOL     OW26059   2.063   2.701   2.083  0.0201 -0.7344  0.5735
 4808SOL    HW126060   2.009   2.713   2.161  0.0420 -1.4510  0.7016
 4808SOL    HW226061   2.104   2.786   2.089  0.0907 -0.7703  0.5954
 4809SOL     OW26062   0.392   1.469   8.185 -0.3967  0.3593  0.1296
 4809SOL    HW126063   0.350   1.463   8.271 -0.2387  0.1345  0.1895
 4809SOL    HW226064   0.481   1.442   8.206 -0.0522  0.1167 -1.6240
 4810SOL     OW26065   0.988   0.414   7.823  0.3996  0.1032  0.0377
 4810SOL    HW126066   0.997   0.321   7.843  1.0473  0.4299  1.2726
 4810SOL    HW226067   1.074   0.447   7.850  0.0836  1.2950 -0.4234
 4811SOL     OW26068   2.778   2.135  13.826 -0.1001 -0.1382 -0.3655
 4811SOL    HW126069   2.785   2.081  13.905  0.5649 -0.5414 -0.7021
 4811SOL    HW226070   2.765   2.215  13.876  0.0910 -1.2782  1.5144
 4812SOL     OW26071   0.838   0.323  16.987 -0.7450 -0.1197  0.2355
 4812SOL    HW126072   0.810   0.263  17.056  2.7420 -0.3979  1.4068
 4812SOL    HW226073   0.916   0.274  16.963  0.6162  1.0428  2.2998
 4813SOL     OW26074   4.583   1.201  12.084 -0.4008  0.2361  0.4012
 4813SOL    HW126075   4.652   1.180  12.021 -2.1762 -0.1114 -1.3897
 4813SOL    HW226076   4.568   1.294  12.065 -0.9624 -0.0205 -0.3551
 4814SOL     OW26077   0.333   4.396   6.626  0.0425  0.2608 -0.7938
 4814SOL    HW126078   0.263   4.452   6.661 -0.8402  0.4503 -2.8507
 4814SOL    HW226079   0.401   4.409   6.692 -1.4332 -0.5860  0.8770
 4815SOL     OW26080   1.623   3.495   4.244  0.1834  0.0088 -0.6443
 4815SOL    HW126081   1.680   3.420   4.260  3.3169  2.5728  0.0644
 4815SOL    HW226082   1.680   3.566   4.214 -2.8906  1.2329 -3.6149
 4816SOL     OW26083   3.711   2.640  15.010  0.1015 -0.2654 -0.0185
 4816SOL    HW126084   3.672   2.636  15.098 -0.1073  0.3211 -0.0870
 4816SOL    HW226085   3.635   2.641  14.952  0.9095 -1.0310 -1.0838
 4817SOL     OW26086   0.088   3.985   4.708 -0.2101  0.8711  0.7600
 4817SOL    HW126087   0.085   3.912   4.646 -4.1148  1.7891 -0.1333
 4817SOL    HW226088   0.157   3.965   4.771  2.0854  2.1442 -1.3381
 4818SOL     OW26089   3.569   2.223   7.345 -0.0512  0.2815 -0.5895
 4818SOL    HW126090   3.564   2.135   7.305 -0.4127 -0.3461  0.8504
 4818SOL    HW226091   3.486   2.267   7.327 -0.1967  0.7157  1.1680
 4819SOL     OW26092   1.302   2.228   9.497  0.9400  0.2523  0.5882
 4819SOL    HW126093   1.259   2.144   9.516 -1.7221  1.1894 -1.2948
 4819SOL    HW226094   1.309   2.264   9.586  0.8258  2.5758 -0.3569
 4820SOL     OW26095   1.512   0.828   3.639  0.0941  0.1144  0.4960
 4820SOL    HW126096   1.524   0.897   3.704  0.7813 -1.1391  1.7120
 4820SOL    HW226097   1.568   0.757   3.672  0.5180  0.7975  1.2365
 4821SOL     OW26098   3.393   0.380   9.269  0.1009 -0.0383 -0.4761
 4821SOL    HW126099   3.484   0.359   9.247  0.2744 -0.2078  0.3932
 4821SOL    HW226100   3.361   0.392   9.180  0.6702  0.4748 -0.6121
 4822SOL     OW26101   3.351   1.470   3.062 -0.0415 -0.2166 -0.4206
 4822SOL    HW126102   3.328   1.404   3.127 -0.3725 -0.3834 -0.7093
 4822SOL    HW226103   3.371   1.409   2.991  0.9803  0.1889 -0.4920
 4823SOL     OW26104   2.958   2.237   2.686 -0.1775  0.5541  0.3604
 4823SOL    HW126105   3.026   2.281   2.738 -0.9517  2.1498  0.0339
 4823SOL    HW226106   2.959   2.290   2.606 -2.5897  1.7795  1.1331
 4824SOL     OW26107   1.646   3.199   5.764  0.7646  0.9042  0.3118
 4824SOL    HW126108   1.701   3.256   5.709  1.7503 -1.1948 -0.8739
 4824SOL    HW226109   1.651   3.116   5.717  1.9498  0.7931  0.6416
 4825SOL     OW26110   1.430   2.141   8.885  0.1932  0.3863 -0.4138
 4825SOL    HW126111   1.402   2.053   8.911  0.4725  0.4619  0.1507
 4825SOL    HW226112   1.484   2.153   8.963  0.3720 -3.5569  0.1023
 4826SOL     OW26113   3.044   2.719   5.134  0.5100  0.0594 -0.3694
 4826SOL    HW126114   3.029   2.773   5.212 -0.7512 -0.7035 -0.0873
 4826SOL    HW226115   3.115   2.772   5.099  0.3857 -0.4549 -1.4054
 4827SOL     OW26116   4.560   4.075   4.702 -0.9549  0.0083 -0.5139
 4827SOL    HW126117   4.648   4.099   4.730 -0.9712  0.1714 -0.6050
 4827SOL    HW226118   4.496   4.115   4.761  0.3764  2.0134 -0.4303
 4828SOL     OW26119   3.274   2.457   0.091 -0.0582  0.1095 -0.4407
 4828SOL    HW126120   3.246   2.374   0.130  0.9340  0.2407  0.5875
 4828SOL    HW226121   3.318   2.481   0.173 -0.6992  0.2148 -0.1266
 4829SOL     OW26122   2.610   4.264  10.990 -0.1889  0.5593 -0.2783
 4829SOL    HW126123   2.676   4.232  11.051 -0.3143 -1.6118 -1.2554
 4829SOL    HW226124   2.536   4.271  11.050  0.4622  0.1880  0.5748
 4830SOL     OW26125   4.007   0.113   4.658  0.3665  0.4223 -0.3575
 4830SOL    HW126126   4.068   0.103   4.730  0.1429  0.5255 -0.1529
 4830SOL    HW226127   4.020   0.044   4.594  2.4889  0.1384  0.4136
 4831SOL     OW26128   0.247   3.467  13.587 -0.1509 -0.0338 -0.3788
 4831SOL    HW126129   0.190   3.534  13.624 -1.6138 -0.7524 -1.3384
 4831SOL    HW226130   0.263   3.399  13.653  0.2373  0.8473  0.4400
 4832SOL     OW26131   1.275   0.970   3.220  0.0073  0.6106 -0.4654
 4832SOL    HW126132   1.338   0.948   3.289 -0.3450  0.1681 -0.2848
 4832SOL    HW226133   1.287   0.893   3.165 -0.4474 -1.2802  2.0840
 4833SOL     OW26134   2.506   3.286  12.756  0.3374  0.1453  0.6256
 4833SOL    HW126135   2.578   3.335  12.795  0.5771  0.2985 -0.0117
 4833SOL    HW226136   2.519   3.307  12.664 -0.2315 -0.3354  0.4373
 4834SOL     OW26137   2.023   1.398   4.839  0.1162  0.3595  0.1176
 4834SOL    HW126138   1.994   1.459   4.771 -0.1044  1.0179  0.8004
 4834SOL    HW226139   1.937   1.385   4.879  0.7213 -0.7973  1.0133
 4835SOL     OW26140   3.715   3.293  13.266  0.3245  0.3994  0.3474
 4835SOL    HW126141   3.707   3.385  13.294  1.4197  0.8186 -0.7157
 4835SOL    HW226142   3.630   3.277  13.226  0.0018 -0.8751  1.5285
 4836SOL     OW26143   3.658   0.643   4.457  0.8541  0.3399 -0.6628
 4836SOL    HW126144   3.708   0.644   4.376 -0.2562  1.6916 -1.3260
 4836SOL    HW226145   3.572   0.668   4.423 -0.2743 -0.4049  1.6281
 4837SOL     OW26146   0.590   0.979   6.094  0.1241  0.0924 -0.2446
 4837SOL    HW126147   0.647   1.037   6.144  1.3598 -0.1354 -1.4157
 4837SOL    HW226148   0.619   0.892   6.122  1.8925  0.9470  0.5665
 4838SOL     OW26149   3.389   1.283   5.821 -0.0424  0.0913  0.1291
 4838SOL    HW126150   3.449   1.357   5.813  1.1745 -0.8466  0.5421
 4838SOL    HW226151   3.353   1.296   5.909  0.3454 -1.5074  0.5345
 4839SOL     OW26152   1.719   4.069  17.603  0.4121 -0.1903 -0.0115
 4839SOL    HW126153   1.733   4.152  17.558 -2.2457  1.4043  2.1013
 4839SOL    HW226154   1.766   4.082  17.686  0.2230  0.2368  0.0273
 4840SOL     OW26155   0.480   2.237   0.452  0.9424 -0.2596 -0.0288
 4840SOL    HW126156   0.403   2.189   0.481  3.3741 -3.0035  1.8360
 4840SOL    HW226157   0.518   2.172   0.393  0.4296 -0.0384 -0.6025
 4841SOL     OW26158   0.968   4.079   6.826  0.1928 -0.3023 -0.0558
 4841SOL    HW126159   0.890   4.135   6.828 -0.6471 -1.4803  0.3575
 4841SOL    HW226160   1.033   4.145   6.801 -1.2060  0.3879 -1.8491
 4842SOL     OW26161   4.016   3.040   7.894 -0.4179 -0.8592  0.0420
 4842SOL    HW126162   3.956   2.966   7.887 -1.5185 -0.2307  2.5900
 4842SOL    HW226163   3.980   3.101   7.830 -1.7862 -2.1880 -0.4459
 4843SOL     OW26164   2.600   0.061   2.303  0.2722  0.0407  0.1943
 4843SOL    HW126165   2.684   0.029   2.269 -0.4751  0.5160 -2.0778
 4843SOL    HW226166   2.546   4.718   2.305  0.3944  0.0187  2.8506
 4844SOL     OW26167   4.407   3.740  15.959  0.6460  0.0761 -0.2584
 4844SOL    HW126168   4.343   3.678  15.924 -0.4162 -0.4545  2.6535
 4844SOL    HW226169   4.354   3.819  15.967 -1.8242 -1.5702 -0.2235
 4845SOL     OW26170   3.676   1.436  10.054 -0.0823 -0.1481 -0.0603
 4845SOL    HW126171   3.707   1.434  10.145  0.7051 -0.0353 -0.3219
 4845SOL    HW226172   3.747   1.387  10.012 -0.7034  0.2824 -1.5717
 4846SOL     OW26173   0.754   3.270   5.751  0.2829 -0.0035  0.2000
 4846SOL    HW126174   0.736   3.363   5.766  1.0057  0.2679 -0.5989
 4846SOL    HW226175   0.670   3.230   5.773  0.2092 -0.4543 -0.8872
 4847SOL     OW26176   1.931   2.769   3.975 -0.7191 -0.0214 -0.0956
 4847SOL    HW126177   2.001   2.746   3.914  0.9886 -1.9938  2.5930
 4847SOL    HW226178   1.857   2.741   3.921 -0.5362 -0.0524 -0.3323
 4848SOL     OW26179   0.967   3.866  16.662 -0.1243  0.0571  0.1023
 4848SOL    HW126180   0.994   3.776  16.643 -3.1422 -0.5661 -1.2008
 4848SOL    HW226181   1.033   3.900  16.722  0.5326 -2.2808  0.7118
 4849SOL     OW26182   3.686   3.813   2.813 -0.1992 -0.4576  0.3394
 4849SOL    HW126183   3.632   3.825   2.734  0.8914 -1.0039 -0.4952
 4849SOL    HW226184   3.631   3.844   2.884 -0.2388  0.8173 -0.2580
 4850SOL     OW26185   3.610   4.471   8.200 -0.1228  0.4816  0.2105
 4850SOL    HW126186   3.620   4.527   8.123 -0.7700  2.1680  1.3475
 4850SOL    HW226187   3.665   4.396   8.180  1.0516  1.7988 -1.4373
 4851SOL     OW26188   3.692   2.586   3.328 -0.9708  0.8006 -0.3076
 4851SOL    HW126189   3.654   2.637   3.399  0.4746  0.6013  0.6099
 4851SOL    HW226190   3.631   2.519   3.296 -0.2083  0.4836 -1.0859
 4852SOL     OW26191   3.391   1.963  11.848 -0.3552 -0.0070  0.2333
 4852SOL    HW126192   3.401   1.981  11.942 -0.7654 -1.2016  0.5146
 4852SOL    HW226193   3.469   2.006  11.815  0.0171 -2.0822 -1.5412
 4853SOL     OW26194   1.071   2.394   4.262  0.3974  0.1231 -0.3215
 4853SOL    HW126195   1.165   2.382   4.254  0.2632 -0.2105 -1.3783
 4853SOL    HW226196   1.064   2.398   4.357  0.1978  1.5493 -0.3937
 4854SOL     OW26197   0.288   1.477   0.053 -0.2753 -0.3019 -0.4713
 4854SOL    HW126198   0.303   1.551  17.734  3.4354 -0.4710  0.2138
 4854SOL    HW226199   0.250   1.530   0.123  0.4271 -0.2950 -0.0886
 4855SOL     OW26200   2.752   2.564   2.302 -0.9200  0.2019  0.1064
 4855SOL    HW126201   2.751   2.641   2.358  0.1500 -0.2178  0.6969
 4855SOL    HW226202   2.762   2.603   2.214  1.9996 -0.4028  0.1632
 4856SOL     OW26203   2.562   2.282  12.154 -0.7510 -0.6789 -0.5669
 4856SOL    HW126204   2.640   2.270  12.100 -1.1929  1.1327 -1.5838
 4856SOL    HW226205   2.575   2.210  12.217  0.5480 -1.2670 -1.5070
 4857SOL     OW26206   1.134   4.632   2.451  0.0123 -0.2711  0.1190
 4857SOL    HW126207   1.065   4.581   2.493  0.0469 -0.0247  0.4681
 4857SOL    HW226208   1.142   4.579   2.372  1.5195  1.6339 -1.0315
 4858SOL     OW26209   2.026   4.284   7.921  0.5607 -0.6558  0.1657
 4858SOL    HW126210   2.094   4.328   7.870 -1.7237 -1.3821 -3.4907
 4858SOL    HW226211   2.080   4.226   7.973 -1.6821 -3.0334 -0.1532
 4859SOL     OW26212   1.008   4.217   2.169 -0.3190 -0.0467 -0.2554
 4859SOL    HW126213   0.986   4.123   2.170 -1.1030  0.1420  0.3666
 4859SOL    HW226214   1.090   4.207   2.120 -0.0602 -1.8764  0.5446
 4860SOL     OW26215   2.537   4.423  11.499 -0.0075 -0.3128  0.4152
 4860SOL    HW126216   2.598   4.356  11.528 -0.1727 -0.4246  0.5012
 4860SOL    HW226217   2.554   4.489  11.566  0.7196 -1.3608  1.2540
 4861SOL     OW26218   0.849   0.014   7.887 -0.4275 -0.2438 -0.0365
 4861SOL    HW126219   0.910   4.689   7.929 -0.4416  0.8972  1.6392
 4861SOL    HW226220   0.916   0.069   7.849 -0.3209  0.2498  0.8667
 4862SOL     OW26221   2.355   3.287   4.751 -0.8722 -0.9536  0.2858
 4862SOL    HW126222   2.347   3.253   4.840 -1.0809 -0.9053  0.2852
 4862SOL    HW226223   2.412   3.224   4.707 -1.5755 -1.4807  0.1403
 4863SOL     OW26224   4.065   3.623   9.878 -0.2129 -0.0972 -0.0150
 4863SOL    HW126225   4.002   3.553   9.863  2.4976 -2.4217 -0.2983
 4863SOL    HW226226   4.025   3.677   9.946 -1.3637 -0.7481 -0.1788
 4864SOL     OW26227   3.845   2.446   1.457 -0.4764  0.0265 -0.2069
 4864SOL    HW126228   3.782   2.515   1.478  0.2962  0.7023 -0.0908
 4864SOL    HW226229   3.912   2.473   1.519 -0.0433 -1.7902  0.1080
 4865SOL     OW26230   1.007   1.699  12.565  0.1148 -0.4197 -0.1635
 4865SOL    HW126231   0.950   1.760  12.519 -0.1131 -1.6926 -1.6107
 4865SOL    HW226232   1.024   1.631  12.499 -0.0419  0.9303 -1.5761
 4866SOL     OW26233   3.628   1.548   8.032 -0.0871 -0.2832  0.2683
 4866SOL    HW126234   3.669   1.537   7.947  0.4376  0.1425  0.4679
 4866SOL    HW226235   3.603   1.458   8.050 -1.8814  0.3721  1.1241
 4867SOL     OW26236   0.389   4.715  11.407 -0.5128 -0.3762  0.0120
 4867SOL    HW126237   0.477   0.007  11.381 -0.6531 -0.5014 -0.5890
 4867SOL    HW226238   0.338   0.028  11.342 -0.1044 -1.7742 -1.3498
 4868SOL     OW26239   1.078   1.212  10.679 -0.0634 -0.1338 -0.7050
 4868SOL    HW126240   1.166   1.179  10.695  0.5319  1.1468 -1.3141
 4868SOL    HW226241   1.047   1.227  10.768 -1.0232  1.8509 -1.3902
 4869SOL     OW26242   3.033   3.514   7.205 -0.1218 -0.3844  0.0281
 4869SOL    HW126243   3.024   3.458   7.282  0.5193  1.1698  1.2248
 4869SOL    HW226244   2.943   3.548   7.208  0.2899  1.0825 -3.3813
 4870SOL     OW26245   1.084   2.067   0.888 -0.9598  0.6831 -0.0147
 4870SOL    HW126246   1.068   2.065   0.982 -0.5563  0.7373  0.0565
 4870SOL    HW226247   1.012   2.126   0.868 -0.6020  0.7675 -1.0684
 4871SOL     OW26248   3.980   2.970   2.316 -0.8199 -0.6672  0.3048
 4871SOL    HW126249   4.048   2.904   2.329  0.0796 -0.2807 -2.5862
 4871SOL    HW226250   4.025   3.039   2.365 -0.2823 -3.0631  3.2288
 4872SOL     OW26251   2.833   2.062  11.520  0.2532 -0.1263 -0.1253
 4872SOL    HW126252   2.807   2.077  11.429  0.5178 -0.2332 -0.2180
 4872SOL    HW226253   2.750   2.098  11.552  0.3252 -1.4066  1.4748
 4873SOL     OW26254   1.633   1.875  16.080 -0.0077  0.4452  0.2999
 4873SOL    HW126255   1.721   1.890  16.047  0.6604 -1.9104  1.0051
 4873SOL    HW226256   1.628   1.922  16.163  1.2125 -0.5154  0.9179
 4874SOL     OW26257   3.834   1.238   6.386 -0.0503 -0.1511 -0.2334
 4874SOL    HW126258   3.909   1.274   6.432  2.1167 -2.4817 -1.8941
 4874SOL    HW226259   3.790   1.204   6.464  1.4728  1.6289  1.4054
 4875SOL     OW26260   2.935   0.284   6.015 -0.1617  0.0965  0.6762
 4875SOL    HW126261   2.908   0.364   5.970  1.6953 -1.1145 -2.5206
 4875SOL    HW226262   2.969   0.230   5.944  0.7946 -0.1996  1.3656
 4876SOL     OW26263   3.855   2.810   9.609 -0.3430  0.1469 -0.3787
 4876SOL    HW126264   3.826   2.750   9.540 -1.3934 -0.2744  0.4168
 4876SOL    HW226265   3.920   2.752   9.649 -1.6661 -0.5655  0.7645
 4877SOL     OW26266   0.882   2.631   2.128  0.2213 -0.1335  0.3868
 4877SOL    HW126267   0.941   2.592   2.192 -0.7234 -0.4096  1.1000
 4877SOL    HW226268   0.919   2.588   2.051 -3.7330 -1.5221 -0.7361
 4878SOL     OW26269   2.598   2.106   2.160  0.0879 -0.6814 -0.7489
 4878SOL    HW126270   2.602   2.184   2.216  2.8431 -0.8589 -0.6695
 4878SOL    HW226271   2.505   2.087   2.172  0.0677 -0.2373 -0.1852
 4879SOL     OW26272   1.436   1.157  16.900 -0.1598 -0.1063  0.7116
 4879SOL    HW126273   1.439   1.250  16.925 -0.6253  1.1318 -3.7635
 4879SOL    HW226274   1.492   1.163  16.822  0.1818  1.9303  1.1067
 4880SOL     OW26275   1.016   1.793   3.104 -0.4137 -0.4463 -0.1472
 4880SOL    HW126276   0.975   1.788   3.190  0.9715 -3.0521  0.3672
 4880SOL    HW226277   0.952   1.744   3.053 -2.1682  0.1391  1.4782
 4881SOL     OW26278   2.386   3.392   8.146 -0.6233 -0.0848 -0.4840
 4881SOL    HW126279   2.336   3.425   8.220  0.3532 -0.5674  0.3891
 4881SOL    HW226280   2.478   3.403   8.172 -0.3657 -1.7346 -0.6402
 4882SOL     OW26281   0.364   4.122   4.205 -0.2945 -0.0626 -0.0583
 4882SOL    HW126282   0.416   4.202   4.217  2.0886 -1.9126  1.8880
 4882SOL    HW226283   0.344   4.122   4.112 -2.1000  3.7613  0.3112
 4883SOL     OW26284   1.963   0.264   8.508  0.3170 -0.2064 -0.7897
 4883SOL    HW126285   1.911   0.212   8.447 -1.3479  0.7422 -0.1684
 4883SOL    HW226286   2.014   0.318   8.447  0.3729  0.9030  0.2398
 4884SOL     OW26287   3.165   0.786   6.589 -0.1657  0.1459  0.6613
 4884SOL    HW126288   3.204   0.794   6.676 -0.8312 -0.0223  0.9778
 4884SOL    HW226289   3.085   0.837   6.606 -1.0022 -1.2668  0.9560
 4885SOL     OW26290   3.772   2.428   1.738  0.4272 -0.1344 -0.2669
 4885SOL    HW126291   3.687   2.472   1.744  0.4712 -0.0180 -0.4644
 4885SOL    HW226292   3.832   2.499   1.713 -1.3076  0.9747 -1.3224
 4886SOL     OW26293   3.870   2.411   9.601 -0.1559 -0.3770  0.1207
 4886SOL    HW126294   3.870   2.427   9.695  1.4271 -0.4312  0.1320
 4886SOL    HW226295   3.823   2.328   9.599  2.4658 -1.8811  1.0336
 4887SOL     OW26296   3.045   3.455  15.727  0.0649  0.7995 -0.0936
 4887SOL    HW126297   2.995   3.528  15.689 -1.2193 -0.0420 -0.0186
 4887SOL    HW226298   3.132   3.494  15.717  0.7001 -0.0909  2.0523
 4888SOL     OW26299   0.764   2.819  12.645  0.0395  0.1896  0.1342
 4888SOL    HW126300   0.856   2.793  12.639 -0.3199 -0.7625 -1.3191
 4888SOL    HW226301   0.775   2.914  12.642 -2.4291  0.4645 -0.8233
 4889SOL     OW26302   0.577   3.526   8.690 -0.0932 -0.2354  0.0696
 4889SOL    HW126303   0.651   3.581   8.664 -0.3566  0.8256  1.5876
 4889SOL    HW226304   0.590   3.453   8.629  0.1383  0.4105 -0.6593
 4890SOL     OW26305   4.202   3.358   6.279  0.7930  0.4657  0.1905
 4890SOL    HW126306   4.149   3.280   6.291  2.1012 -0.5236 -0.4217
 4890SOL    HW226307   4.290   3.325   6.258  0.8989 -0.4119  2.0423
 4891SOL     OW26308   0.217   0.778  10.344 -0.2833 -0.0431 -0.1127
 4891SOL    HW126309   0.168   0.731  10.276 -0.6746 -0.3082  0.3507
 4891SOL    HW226310   0.189   0.865  10.318 -1.7752  0.5730  3.5754
 4892SOL     OW26311   4.331   3.172   2.169  0.8062 -0.0520 -0.1660
 4892SOL    HW126312   4.299   3.189   2.257  0.6301  1.4809 -0.5269
 4892SOL    HW226313   4.305   3.081   2.150 -1.9032  0.7445 -0.2718
 4893SOL     OW26314   4.159   3.663   2.423 -0.0363 -0.7286  0.2775
 4893SOL    HW126315   4.231   3.724   2.412  0.3504 -1.4410 -1.1909
 4893SOL    HW226316   4.203   3.584   2.391 -0.2175 -0.0536 -1.6155
 4894SOL     OW26317   0.596   0.277   9.430  0.0428 -0.3240 -0.0252
 4894SOL    HW126318   0.633   0.204   9.380 -0.2574  1.7537 -3.2365
 4894SOL    HW226319   0.611   0.349   9.369  1.5182  1.9115  2.9614
 4895SOL     OW26320   1.165   2.206   3.495  0.2913  0.0051  0.3787
 4895SOL    HW126321   1.254   2.198   3.529  0.6305  0.0678 -0.4843
 4895SOL    HW226322   1.151   2.113   3.481 -1.4459  0.3950 -0.5019
 4896SOL     OW26323   2.911   1.589   3.576  0.4811 -0.1230 -0.1539
 4896SOL    HW126324   2.934   1.597   3.483  0.8659 -1.8774 -0.2077
 4896SOL    HW226325   2.979   1.643   3.618 -0.6406  0.1361  1.3301
 4897SOL     OW26326   1.047   0.100   1.204  0.7320  0.6248 -0.0266
 4897SOL    HW126327   0.964   0.139   1.233 -0.4489 -1.9037 -0.0141
 4897SOL    HW226328   1.097   0.098   1.286  0.3926  0.6220  0.1838
 4898SOL     OW26329   2.459   2.119   3.976 -0.5664  0.2917 -0.2186
 4898SOL    HW126330   2.400   2.116   3.901 -1.1484  0.8122  0.2184
 4898SOL    HW226331   2.484   2.211   3.974  0.5364  0.0067  0.8920
 4899SOL     OW26332   3.554   0.452   4.140 -0.3872 -0.3025 -0.1155
 4899SOL    HW126333   3.482   0.429   4.199 -0.1293 -1.2802 -0.1800
 4899SOL    HW226334   3.502   0.500   4.075 -2.2944 -0.2980  1.3882
 4900SOL     OW26335   2.675   2.849  15.214 -0.1979 -0.2843 -0.1878
 4900SOL    HW126336   2.681   2.754  15.205 -0.2754 -0.0541 -2.5209
 4900SOL    HW226337   2.734   2.883  15.147  0.9918 -0.4074  0.8075
 4901SOL     OW26338   2.072   4.667   7.096  0.2751  0.0506  0.5300
 4901SOL    HW126339   2.140   4.700   7.155  2.3378 -1.5867 -0.9141
 4901SOL    HW226340   2.132   4.612   7.045 -0.2094  1.1610 -1.2481
 4902SOL     OW26341   4.006   3.424  12.730  0.8145 -0.0596  0.1778
 4902SOL    HW126342   4.039   3.512  12.747 -0.5225  0.5765 -0.5584
 4902SOL    HW226343   4.070   3.401  12.663 -0.8218 -0.2384 -1.3143
 4903SOL     OW26344   1.778   1.499   2.156  0.1845  0.1274  0.1467
 4903SOL    HW126345   1.859   1.487   2.205  1.0869 -0.0681 -1.4123
 4903SOL    HW226346   1.732   1.415   2.161  0.8200 -0.2050  0.4541
 4904SOL     OW26347   1.103   1.270   5.592 -0.1519  0.1491 -0.4148
 4904SOL    HW126348   1.079   1.238   5.506  0.7906 -0.8039 -0.3310
 4904SOL    HW226349   1.181   1.217   5.610 -0.1288  0.9002  1.7097
 4905SOL     OW26350   0.279   1.807  15.727 -0.1609 -0.4974 -0.1316
 4905SOL    HW126351   0.355   1.866  15.721 -0.4730  0.2142  2.8999
 4905SOL    HW226352   0.233   1.846  15.653 -2.0234 -1.7888  0.3525
 4906SOL     OW26353   1.499   4.108  13.601 -0.5337  0.3613  0.8396
 4906SOL    HW126354   1.417   4.151  13.627 -0.3367  0.7570  0.8160
 4906SOL    HW226355   1.541   4.096  13.686 -2.4528 -0.0541  1.7324
 4907SOL     OW26356   2.055   1.346   2.026 -0.2158  0.6675  0.1190
 4907SOL    HW126357   2.050   1.298   2.109  0.6607 -1.7743 -1.2569
 4907SOL    HW226358   2.090   1.432   2.052 -0.1919  1.1658 -1.5271
 4908SOL     OW26359   1.654   3.194   1.739 -0.1561  0.3232 -0.0615
 4908SOL    HW126360   1.688   3.219   1.653  1.4771 -0.0035  0.4807
 4908SOL    HW226361   1.588   3.263   1.747 -1.2621 -0.5645 -1.5142
 4909SOL     OW26362   2.962   4.429   6.427  0.0120  0.8396 -0.3765
 4909SOL    HW126363   3.050   4.446   6.393 -0.3880 -1.5480 -2.5993
 4909SOL    HW226364   2.919   4.447   6.344  1.2874 -1.5211 -1.5555
 4910SOL     OW26365   3.964   4.642   6.542 -0.0264  0.8315  0.7430
 4910SOL    HW126366   3.993   4.698   6.613 -0.1793  3.5028 -1.2971
 4910SOL    HW226367   4.052   4.627   6.507 -1.2095 -0.6748 -1.5787
 4911SOL     OW26368   3.027   3.107   6.519  0.2878 -0.5426  0.1172
 4911SOL    HW126369   3.077   3.038   6.475 -0.2176 -0.6246 -0.3258
 4911SOL    HW226370   3.098   3.160   6.557 -0.8684 -0.1224  1.6795
 4912SOL     OW26371   0.060   2.368   7.711 -0.1891  0.4712  0.5065
 4912SOL    HW126372   0.068   2.273   7.711 -0.1785  0.4729  0.8670
 4912SOL    HW226373   0.150   2.393   7.732 -0.2517  0.8825  0.2805
 4913SOL     OW26374   1.863   4.188   2.602 -0.4084  0.8540  0.0656
 4913SOL    HW126375   1.825   4.229   2.679 -3.3140  0.2803 -1.0499
 4913SOL    HW226376   1.912   4.262   2.567  0.7104  0.2981  0.4567
 4914SOL     OW26377   1.367   2.394   3.974  0.1585  0.0176 -0.5334
 4914SOL    HW126378   1.385   2.483   3.946  0.1356  0.0975 -0.2925
 4914SOL    HW226379   1.415   2.348   3.905  0.1143 -0.5908 -0.1635
 4915SOL     OW26380   2.763   4.471   0.673  0.1115 -0.4442 -0.0923
 4915SOL    HW126381   2.708   4.437   0.602 -0.4186 -1.4877  0.8045
 4915SOL    HW226382   2.761   4.399   0.736  1.4279 -1.3929 -1.1512
 4916SOL     OW26383   3.747   1.094   2.225 -0.9651  0.8497 -0.0094
 4916SOL    HW126384   3.807   1.168   2.232 -0.2917  0.2845  0.1726
 4916SOL    HW226385   3.671   1.151   2.219 -2.0340 -0.7418 -1.5260
 4917SOL     OW26386   2.187   2.171   2.101  0.7926  0.5968 -0.5882
 4917SOL    HW126387   2.224   2.248   2.056  1.2552  0.2271 -0.8458
 4917SOL    HW226388   2.158   2.110   2.033 -1.7552  0.5680  0.5250
 4918SOL     OW26389   0.927   2.250   6.123  0.5069 -0.4068 -0.1976
 4918SOL    HW126390   0.990   2.240   6.051  0.5541 -0.1430 -0.1928
 4918SOL    HW226391   0.887   2.335   6.109  1.3310 -0.0137 -0.1400
 4919SOL     OW26392   1.997   2.985   2.902 -0.6988 -0.0671 -0.2594
 4919SOL    HW126393   1.972   2.912   2.959 -0.5591 -0.1021 -0.2441
 4919SOL    HW226394   2.058   2.940   2.844 -1.4490 -1.2130 -0.1680
 4920SOL     OW26395   3.058   2.380  17.692  0.5238 -0.1893  0.5845
 4920SOL    HW126396   3.136   2.418  17.731 -1.0576  0.5712  3.0127
 4920SOL    HW226397   3.028   2.325   0.024  1.5782 -1.3187  0.1734
 4921SOL     OW26398   2.631   0.494   7.459  0.0056 -0.0900 -0.2149
 4921SOL    HW126399   2.606   0.421   7.514 -0.8761 -0.8770 -1.6512
 4921SOL    HW226400   2.637   0.448   7.375 -1.3557  0.5169 -0.6342
 4922SOL     OW26401   2.429   1.598   3.989 -0.1611 -0.2020  0.6835
 4922SOL    HW126402   2.500   1.616   4.050  0.6525 -0.4856 -0.1879
 4922SOL    HW226403   2.433   1.683   3.946 -1.9108 -0.0474  0.8187
 4923SOL     OW26404   2.346   3.069   9.663 -0.1745 -1.0663 -0.3730
 4923SOL    HW126405   2.308   3.048   9.578 -2.9321  2.4125 -0.0004
 4923SOL    HW226406   2.394   2.987   9.670 -0.6524 -1.1665  1.9901
 4924SOL     OW26407   0.291   1.115  14.965  0.1334  0.0937  0.3780
 4924SOL    HW126408   0.297   1.188  15.027  1.4638  0.0928  0.2334
 4924SOL    HW226409   0.319   1.156  14.883 -0.3166  1.4358  0.8893
 4925SOL     OW26410   2.854   0.028   6.633 -0.2472 -0.0832  0.2458
 4925SOL    HW126411   2.934   0.012   6.684 -0.5611 -2.9698 -0.1244
 4925SOL    HW226412   2.790   4.699   6.662 -0.2853  0.8124  2.1248
 4926SOL     OW26413   4.092   0.213  15.455 -0.1720  0.1019  0.0911
 4926SOL    HW126414   4.022   0.279  15.458  0.7380  0.9537  2.4222
 4926SOL    HW226415   4.035   0.136  15.456 -0.0719  0.0373  0.9642
 4927SOL     OW26416   0.355   1.145   2.384 -0.7318  0.5700 -0.1637
 4927SOL    HW126417   0.357   1.164   2.478  1.4331 -2.2852  0.3699
 4927SOL    HW226418   0.335   1.052   2.394 -0.9966  0.7289  0.7722
 4928SOL     OW26419   1.468   0.467   1.652 -0.0215 -0.2690 -0.1169
 4928SOL    HW126420   1.403   0.409   1.692  1.3097 -2.9652 -1.8159
 4928SOL    HW226421   1.515   0.496   1.730 -1.4543 -0.6709  0.9011
 4929SOL     OW26422   3.171   2.106  11.478 -0.1650  0.2809  0.0479
 4929SOL    HW126423   3.207   2.033  11.527  0.5124  0.2048 -0.5655
 4929SOL    HW226424   3.098   2.069  11.429  0.0590 -1.2525  0.8685
 4930SOL     OW26425   2.184   3.442   8.325  0.4485 -0.0167 -0.1371
 4930SOL    HW126426   2.100   3.396   8.317  1.0211 -0.7412 -1.8326
 4930SOL    HW226427   2.147   3.528   8.346 -2.5967 -0.9201 -1.7495
 4931SOL     OW26428   2.763   3.968   5.040 -0.0703 -0.1608 -0.1540
 4931SOL    HW126429   2.690   3.949   5.100 -0.3683 -2.7237 -1.3400
 4931SOL    HW226430   2.719   3.970   4.955  0.6937  1.8737 -0.4897
 4932SOL     OW26431   1.524   3.966   9.062  0.7147  0.0431  0.2823
 4932SOL    HW126432   1.505   4.011   9.144 -1.3877 -1.4397  0.5838
 4932SOL    HW226433   1.454   4.005   9.010  1.0001  2.3765  1.6583
 4933SOL     OW26434   1.903   1.455  12.080  0.1207 -0.2762  0.4007
 4933SOL    HW126435   1.833   1.395  12.106 -0.9083  0.8058  0.1602
 4933SOL    HW226436   1.895   1.460  11.984 -2.3927  0.8645  0.6684
 4934SOL     OW26437   1.734   2.269   2.514  0.1590  0.3980  0.3492
 4934SOL    HW126438   1.773   2.329   2.578 -0.0293  1.1901 -0.2748
 4934SOL    HW226439   1.777   2.188   2.541  2.0661  0.4935 -2.3590
 4935SOL     OW26440   3.777   2.606   9.441 -0.1972 -0.3791 -0.2626
 4935SOL    HW126441   3.739   2.580   9.358 -0.3426  1.2073 -0.6893
 4935SOL    HW226442   3.818   2.530   9.483  2.0004 -0.4525 -2.5530
 4936SOL     OW26443   3.138   0.872  15.165 -0.0945 -0.4318 -0.0040
 4936SOL    HW126444   3.049   0.837  15.175 -0.0667 -0.4646  0.1241
 4936SOL    HW226445   3.155   0.922  15.245  2.5848 -0.3050 -0.6648
 4937SOL     OW26446   3.923   0.433   2.556  0.0463  0.6421 -0.2573
 4937SOL    HW126447   3.870   0.408   2.632 -1.2022 -1.1255 -1.7211
 4937SOL    HW226448   3.853   0.461   2.497 -0.7769  0.1328  0.4888
 4938SOL     OW26449   2.067   3.807   4.250  0.4611  0.1569 -0.4912
 4938SOL    HW126450   2.083   3.898   4.223  2.4776 -0.1694 -0.3535
 4938SOL    HW226451   2.149   3.761   4.236  0.1010  0.3695 -3.3645
 4939SOL     OW26452   1.283   2.279   5.296 -0.5555 -0.2300  0.1247
 4939SOL    HW126453   1.204   2.261   5.245 -1.6365  1.5052  1.1966
 4939SOL    HW226454   1.307   2.201   5.346  0.2768 -0.9858 -1.4705
 4940SOL     OW26455   3.006   3.587   4.143  0.1682 -0.5468 -0.1622
 4940SOL    HW126456   3.010   3.510   4.086 -1.6628  0.1375 -1.2073
 4940SOL    HW226457   3.008   3.541   4.226  0.6564 -0.8597 -0.3444
 4941SOL     OW26458   0.585   2.060   0.273  0.4592  0.3044  0.1294
 4941SOL    HW126459   0.590   2.078   0.179 -0.6880 -0.9082 -0.1632
 4941SOL    HW226460   0.665   2.010   0.286  0.1688 -0.7883 -2.3749
 4942SOL     OW26461   1.274   1.912   4.247 -0.7641 -0.0735  0.5261
 4942SOL    HW126462   1.351   1.968   4.253 -0.7847 -0.0139  0.2343
 4942SOL    HW226463   1.203   1.967   4.281  0.8693  1.9027  0.6662
 4943SOL     OW26464   4.710   2.140   5.573 -0.2421 -0.4360  0.3798
 4943SOL    HW126465   0.051   2.188   5.605 -0.7236  0.4397  0.2021
 4943SOL    HW226466   4.650   2.209   5.547  0.3407  0.2064  0.7304
 4944SOL     OW26467   3.841   1.046  12.128 -0.1318  0.4375 -0.2081
 4944SOL    HW126468   3.896   1.029  12.204 -0.5342 -0.9391 -0.2357
 4944SOL    HW226469   3.812   0.960  12.099  0.1828 -0.1164  1.1149
 4945SOL     OW26470   0.855   1.355   6.326  0.3455  0.0714  0.0116
 4945SOL    HW126471   0.889   1.402   6.402 -0.3118  1.0429 -0.3043
 4945SOL    HW226472   0.877   1.427   6.267 -1.0559  1.0346  0.6692
 4946SOL     OW26473   1.342   2.203   1.224  0.2427 -0.0026  0.1599
 4946SOL    HW126474   1.413   2.202   1.289  1.2036  2.2593 -0.8579
 4946SOL    HW226475   1.297   2.286   1.243  1.6531  1.2453 -1.9182
 4947SOL     OW26476   4.033   3.805   6.383 -0.5279 -0.1514 -0.2437
 4947SOL    HW126477   4.074   3.880   6.340  2.6187 -2.1605 -0.7547
 4947SOL    HW226478   4.109   3.753   6.411 -0.5360 -1.0034 -1.7789
 4948SOL     OW26479   1.687   1.076   2.325  0.0929 -0.6726 -0.3739
 4948SOL    HW126480   1.715   1.071   2.234 -2.7957 -2.1195 -1.1727
 4948SOL    HW226481   1.757   1.033   2.375  1.3772  1.1002 -0.6597
 4949SOL     OW26482   2.253   1.707   5.631  0.7130  0.2324  0.2714
 4949SOL    HW126483   2.272   1.696   5.724 -0.4285  0.7195  0.5572
 4949SOL    HW226484   2.338   1.681   5.596 -0.1080 -1.7436 -0.2306
 4950SOL     OW26485   1.932   4.135   9.165 -0.2589 -1.1303  0.0999
 4950SOL    HW126486   1.948   4.053   9.119  2.7497 -0.7424  0.4371
 4950SOL    HW226487   2.017   4.177   9.176 -2.1607  3.4828 -2.6215
 4951SOL     OW26488   0.713   2.636   2.929 -0.7260 -0.4026 -0.1985
 4951SOL    HW126489   0.676   2.558   2.970 -0.0419 -2.3934 -3.3515
 4951SOL    HW226490   0.711   2.703   2.997  2.6527 -0.2769 -0.2174
 4952SOL     OW26491   2.154   3.333   2.240  0.0268  0.4577  0.8720
 4952SOL    HW126492   2.107   3.299   2.164  0.6320  0.5875  0.4456
 4952SOL    HW226493   2.123   3.267   2.302  0.5990 -0.5149  0.1235
 4953SOL     OW26494   4.602   2.497  11.223 -0.0270  0.2776  0.1012
 4953SOL    HW126495   4.620   2.555  11.297  2.0358 -1.2834  0.8120
 4953SOL    HW226496   4.510   2.523  11.216  0.2668  0.7402 -1.9506
 4954SOL     OW26497   2.514   0.511   1.914 -0.0052  0.2317  0.8250
 4954SOL    HW126498   2.473   0.556   1.987 -2.0903 -1.0369  0.4517
 4954SOL    HW226499   2.603   0.500   1.948  1.1086  0.1766 -2.0722
 4955SOL     OW26500   0.967   2.778   5.029  0.3017 -0.0089 -0.2888
 4955SOL    HW126501   0.970   2.853   5.088  0.2729 -0.5493  0.4063
 4955SOL    HW226502   1.031   2.806   4.964 -0.5727  2.5095 -0.0665
 4956SOL     OW26503   3.199   0.719  13.601  0.3169 -0.3062 -0.3355
 4956SOL    HW126504   3.269   0.754  13.655  1.7889 -0.8763 -1.8806
 4956SOL    HW226505   3.143   0.675  13.665 -0.3901  2.3902  0.9082
 4957SOL     OW26506   1.939   1.280  11.539 -0.3139 -0.0400  0.4572
 4957SOL    HW126507   2.021   1.241  11.509  0.1378 -0.5235  2.2929
 4957SOL    HW226508   1.884   1.264  11.463  0.2255 -0.2475  0.1112
 4958SOL     OW26509   0.074   2.645   4.292 -0.0060 -0.1494  0.0041
 4958SOL    HW126510   4.724   2.603   4.278 -0.0331  0.2072 -0.9319
 4958SOL    HW226511   0.054   2.733   4.323  0.5770  0.0243 -0.1255
 4959SOL     OW26512   2.407   3.072   2.543  0.0244  0.4880 -0.6207
 4959SOL    HW126513   2.442   3.159   2.528 -1.2487  1.0852 -0.1073
 4959SOL    HW226514   2.390   3.046   2.452  0.4662 -3.1429  0.2978
 4960SOL     OW26515   0.052   1.023   2.637 -0.3657  0.2625  0.3623
 4960SOL    HW126516   0.142   1.029   2.670  0.4937  0.0109 -1.9364
 4960SOL    HW226517   0.037   0.930   2.654 -0.4781  0.1900 -0.1496
 4961SOL     OW26518   3.933   1.353   4.285 -0.2381 -0.1537 -0.4660
 4961SOL    HW126519   4.027   1.336   4.276 -0.0064  0.8964 -0.0295
 4961SOL    HW226520   3.940   1.421   4.351  1.4920 -1.5620  0.8016
 4962SOL     OW26521   2.362   1.276   2.292 -0.4879  0.1565  0.4483
 4962SOL    HW126522   2.277   1.248   2.258  0.9709 -0.9985 -2.1760
 4962SOL    HW226523   2.334   1.272   2.384  1.1365 -0.4830  0.9121
 4963SOL     OW26524   3.127   3.727  14.198 -0.2123  0.4261  0.1404
 4963SOL    HW126525   3.111   3.744  14.291 -0.6055  0.8970 -0.0114
 4963SOL    HW226526   3.069   3.655  14.175 -0.1660  0.2002  0.7411
 4964SOL     OW26527   2.338   3.585   3.123  0.0340  0.6157  0.1793
 4964SOL    HW126528   2.281   3.529   3.070  0.5685  1.4403 -1.2552
 4964SOL    HW226529   2.419   3.548   3.090 -1.3699 -1.1960 -1.2163
 4965SOL     OW26530   4.581   4.222   1.381  0.1045 -0.0632 -0.9954
 4965SOL    HW126531   4.667   4.200   1.417 -0.4564 -1.5466 -0.5779
 4965SOL    HW226532   4.556   4.303   1.425 -0.5419 -1.6055  1.4437
 4966SOL     OW26533   4.445   0.397   2.576  0.7322  0.5054 -0.1648
 4966SOL    HW126534   4.369   0.381   2.521  0.9921 -1.4268  0.0299
 4966SOL    HW226535   4.407   0.370   2.660  1.9547 -0.4824  0.0750
 4967SOL     OW26536   1.532   0.842  15.562  0.0961 -0.1047 -0.2415
 4967SOL    HW126537   1.566   0.931  15.572  0.4254 -0.3701  1.0352
 4967SOL    HW226538   1.440   0.860  15.543  0.0181 -0.1320  0.0968
 4968SOL     OW26539   0.686   3.081  11.938 -0.2022  0.5558 -0.0624
 4968SOL    HW126540   0.612   3.088  11.999 -0.7909 -0.2936 -0.6912
 4968SOL    HW226541   0.661   3.156  11.884  1.8884  0.6559 -0.8820
 4969SOL     OW26542   3.522   0.111   3.182  0.4091  0.0693  0.4598
 4969SOL    HW126543   3.563   0.098   3.268  1.3318 -0.8086 -0.1070
 4969SOL    HW226544   3.513   0.206   3.187  0.3970  0.1224 -0.6366
 4970SOL     OW26545   1.209   4.266  12.246  0.2128  0.1527 -0.2010
 4970SOL    HW126546   1.199   4.329  12.318  0.2853  2.4881 -2.2584
 4970SOL    HW226547   1.159   4.317  12.182  0.5872  1.2643  0.4030
 4971SOL     OW26548   3.016   4.152   8.988 -0.6395 -0.2709 -0.1127
 4971SOL    HW126549   2.987   4.100   8.914 -1.5307  1.5767 -1.0645
 4971SOL    HW226550   2.992   4.095   9.061  3.9416 -0.5633  1.1864
 4972SOL     OW26551   0.877   3.211   1.626 -0.2307  0.3729  0.4167
 4972SOL    HW126552   0.865   3.184   1.535 -0.7571  0.4834  0.4536
 4972SOL    HW226553   0.888   3.129   1.674  1.4577  0.4903  0.2297
 4973SOL     OW26554   0.847   1.045   7.923 -0.3164  0.1102  0.3494
 4973SOL    HW126555   0.804   1.058   8.007 -0.8874  0.7454 -0.0414
 4973SOL    HW226556   0.800   0.977   7.874  0.9335 -0.4655 -0.0693
 4974SOL     OW26557   2.335   2.076  14.969  0.3507 -0.0028  0.3613
 4974SOL    HW126558   2.375   1.992  14.949 -0.0587  0.0495 -0.7149
 4974SOL    HW226559   2.280   2.085  14.891  1.7136  1.2197 -0.4557
 4975SOL     OW26560   0.015   3.981   3.795  0.0105  0.2628  0.0052
 4975SOL    HW126561   4.684   3.951   3.857 -2.3444  2.8543 -1.2485
 4975SOL    HW226562   4.690   4.018   3.730 -0.8306 -0.9413  0.0914
 4976SOL     OW26563   0.698   2.863   7.717  0.3100  0.3162 -0.3518
 4976SOL    HW126564   0.794   2.862   7.713  0.2556 -0.6520 -1.2229
 4976SOL    HW226565   0.680   2.943   7.766  2.2184  1.7863 -2.0456
 4977SOL     OW26566   0.489   3.551   3.783  0.1910 -0.5798 -0.2858
 4977SOL    HW126567   0.395   3.564   3.772 -0.0252 -1.2666  0.6941
 4977SOL    HW226568   0.482   3.476   3.843  2.5112  0.5099  1.3444
 4978SOL     OW26569   4.554   2.460   1.967  0.1283  0.1991 -0.3186
 4978SOL    HW126570   4.592   2.534   2.013  0.3339  0.1952 -0.4839
 4978SOL    HW226571   4.628   2.399   1.969 -1.8825 -2.2315  0.0519
 4979SOL     OW26572   1.848   2.166   3.744  0.4125 -0.2387 -0.3844
 4979SOL    HW126573   1.894   2.156   3.661 -3.4731 -1.7747 -2.3296
 4979SOL    HW226574   1.807   2.251   3.731  0.3700 -0.4364 -1.5275
 4980SOL     OW26575   1.815   2.505   2.757 -0.2255 -0.3243  0.5443
 4980SOL    HW126576   1.869   2.576   2.721  0.7280 -1.2407  0.1783
 4980SOL    HW226577   1.883   2.438   2.759  0.3277  0.2296  0.6183
 4981SOL     OW26578   2.196   1.755  15.151  0.3465 -0.6166 -0.3166
 4981SOL    HW126579   2.119   1.758  15.208  2.0771  0.7982  1.9004
 4981SOL    HW226580   2.243   1.685  15.195  0.9807 -0.0613 -0.1205
 4982SOL     OW26581   1.160   3.509   6.869  0.3442  0.3282  0.4558
 4982SOL    HW126582   1.192   3.468   6.788  0.7876  1.3410  0.1216
 4982SOL    HW226583   1.214   3.588   6.863 -0.3362  0.9550  2.7714
 4983SOL     OW26584   2.859   3.133   6.312 -0.1072  0.7443 -0.5962
 4983SOL    HW126585   2.772   3.096   6.296  0.1461 -0.1085  0.0551
 4983SOL    HW226586   2.868   3.124   6.406 -0.1616  2.7951 -0.3850
 4984SOL     OW26587   3.414   2.345   4.997  0.0464  0.2411 -0.2475
 4984SOL    HW126588   3.418   2.253   5.022  0.4883  1.5146  4.4878
 4984SOL    HW226589   3.362   2.385   5.067  0.4187  1.8454 -0.8784
 4985SOL     OW26590   1.693   0.703  10.723  0.0126 -0.2728 -0.4769
 4985SOL    HW126591   1.684   0.611  10.749 -1.3836  0.0351  0.1209
 4985SOL    HW226592   1.685   0.744  10.809  2.6976  0.0187 -0.3399
 4986SOL     OW26593   2.083   3.955   8.151  0.1649  0.1875 -0.2282
 4986SOL    HW126594   2.112   3.885   8.092  1.4813 -1.2174  2.1056
 4986SOL    HW226595   2.007   3.913   8.191  0.5718 -1.8728 -1.6182
 4987SOL     OW26596   3.503   3.759   9.703 -0.0919  0.2180 -0.0917
 4987SOL    HW126597   3.419   3.757   9.750  0.1134 -0.0590  0.2659
 4987SOL    HW226598   3.471   3.762   9.613  0.2544  1.3384 -0.1817
 4988SOL     OW26599   3.479   1.500   6.487  0.3001  0.5560 -0.4447
 4988SOL    HW126600   3.473   1.596   6.482  0.4636  0.5276 -1.1673
 4988SOL    HW226601   3.390   1.477   6.460 -0.3924  1.6161  0.9447
 4989SOL     OW26602   1.627   4.059   3.094  0.2161  0.5945  0.7556
 4989SOL    HW126603   1.711   4.083   3.132  1.2704  0.1401 -1.2494
 4989SOL    HW226604   1.569   4.088   3.164  0.5336 -0.5593  1.5020
 4990SOL     OW26605   0.191   2.254   2.399 -0.2973  0.3383  0.0862
 4990SOL    HW126606   0.196   2.347   2.377 -0.5494  0.4217  0.3785
 4990SOL    HW226607   0.211   2.213   2.315 -0.8928  1.3089 -0.5234
 4991SOL     OW26608   0.476   0.894   3.082 -0.1466  0.0268  0.1336
 4991SOL    HW126609   0.546   0.945   3.123 -0.6262  1.1740 -0.4558
 4991SOL    HW226610   0.395   0.941   3.101  0.5693  2.1397 -2.0299
 4992SOL     OW26611   0.640   4.195   5.344  0.4779  0.6408  0.1580
 4992SOL    HW126612   0.703   4.266   5.359 -0.1562  1.1317  0.5080
 4992SOL    HW226613   0.614   4.184   5.436  0.9579  0.1781  0.2412
 4993SOL     OW26614   2.290   0.433  11.238 -0.6418 -0.1584  0.6883
 4993SOL    HW126615   2.299   0.463  11.329 -1.8865 -0.3217  0.8633
 4993SOL    HW226616   2.195   0.442  11.231 -0.6361  0.3581  1.2027
 4994SOL     OW26617   0.177   1.587  16.067  0.5102  0.5484 -0.0617
 4994SOL    HW126618   0.099   1.540  16.096  0.9950  1.0820  2.0845
 4994SOL    HW226619   0.217   1.614  16.150 -0.5930  0.3307  0.5448
 4995SOL     OW26620   0.851   2.471   7.105 -0.2283  0.6888 -0.2689
 4995SOL    HW126621   0.900   2.540   7.059  2.2072 -0.6353  0.3856
 4995SOL    HW226622   0.834   2.516   7.188 -0.1238  0.4336 -0.1117
 4996SOL     OW26623   2.301   2.091   9.331 -0.5044 -0.0176 -0.3017
 4996SOL    HW126624   2.321   2.067   9.422  1.6448 -2.1694 -1.3560
 4996SOL    HW226625   2.251   2.015   9.302 -0.2202  0.4508 -2.0301
 4997SOL     OW26626   3.598   3.832   3.815 -0.1236 -0.2550  0.1365
 4997SOL    HW126627   3.582   3.920   3.780  1.5474 -0.2047 -0.5274
 4997SOL    HW226628   3.571   3.840   3.906 -1.3993  1.3631 -0.3706
 4998SOL     OW26629   0.352   0.973   6.588  0.3571 -0.4114 -0.4292
 4998SOL    HW126630   0.391   0.933   6.510  0.1286 -0.0832 -0.7150
 4998SOL    HW226631   0.408   1.050   6.584 -1.1432  0.5808 -2.4858
 4999SOL     OW26632   3.696   2.925   6.065  0.0276 -0.2565 -0.1722
 4999SOL    HW126633   3.743   2.999   6.104  1.2184 -1.0346 -0.1450
 4999SOL    HW226634   3.630   2.899   6.129 -0.6919 -1.3133 -1.3532
 5000SOL     OW26635   4.316   0.031  12.849  0.3788 -0.2810  1.2214
 5000SOL    HW126636   4.308   4.673  12.828  1.0464  0.5102 -2.4926
 5000SOL    HW226637   4.360   0.018  12.933  0.3528  0.9851  1.4325
 5001SOL     OW26638   3.604   0.779  17.501 -0.2738  0.5037 -0.4091
 5001SOL    HW126639   3.509   0.782  17.492 -0.2496  2.1095 -0.0840
 5001SOL    HW226640   3.625   0.872  17.496 -1.0434  0.7280  0.5036
 5002SOL     OW26641   4.698   3.875  17.438 -0.0716 -0.2718  0.5116
 5002SOL    HW126642   0.022   3.802  17.453  1.4721  1.0176  0.7336
 5002SOL    HW226643   0.009   3.934  17.498 -0.4760 -1.2933  1.8307
 5003SOL     OW26644   2.595   4.319   2.078 -0.0640 -0.2090  0.1139
 5003SOL    HW126645   2.648   4.398   2.078  0.3636 -0.4925  0.4435
 5003SOL    HW226646   2.637   4.279   2.154  2.2144  0.6843 -0.6852
 5004SOL     OW26647   2.914   1.405  11.235  0.2798 -0.2320  0.1904
 5004SOL    HW126648   2.949   1.342  11.298 -0.2807 -0.9274 -0.2036
 5004SOL    HW226649   2.864   1.347  11.178 -0.3322 -0.9360  1.4273
 5005SOL     OW26650   3.387   4.663   9.899 -0.1852 -0.3170  0.5134
 5005SOL    HW126651   3.376   0.021   9.919 -1.0878 -1.3033  4.7702
 5005SOL    HW226652   3.419   4.635   9.985  0.5192 -0.1326  0.3105
 5006SOL     OW26653   0.315   2.621  15.145  0.0489  0.1421  0.3408
 5006SOL    HW126654   0.390   2.680  15.132 -1.0455  1.8336  1.8190
 5006SOL    HW226655   0.288   2.644  15.233  1.4845  0.2589  0.7469
 5007SOL     OW26656   2.063   0.634   0.276 -0.0657 -0.5977  0.4052
 5007SOL    HW126657   2.158   0.622   0.278  0.2693  1.6056 -2.4782
 5007SOL    HW226658   2.055   0.721   0.238  0.6839 -0.2287  1.0874
 5008SOL     OW26659   3.617   2.410   5.963  0.0909  0.2868  0.1836
 5008SOL    HW126660   3.555   2.339   5.979 -0.9946  1.3395  0.7464
 5008SOL    HW226661   3.640   2.401   5.871 -0.8615 -2.6135  0.2334
 5009SOL     OW26662   2.831   3.044  16.863 -0.2921 -0.0581  0.0173
 5009SOL    HW126663   2.742   3.079  16.871 -0.3510 -0.1821 -0.0938
 5009SOL    HW226664   2.809   3.017  16.774 -1.9323  0.0216  0.3971
 5010SOL     OW26665   4.554   1.299   6.110 -0.1422 -0.1287 -0.0486
 5010SOL    HW126666   4.617   1.351   6.161  0.8246 -0.2277 -1.1400
 5010SOL    HW226667   4.527   1.227   6.167 -0.5465  1.2188  1.4655
 5011SOL     OW26668   0.189   2.486  12.354  0.0177  0.1626  0.3140
 5011SOL    HW126669   0.234   2.420  12.407  0.0283 -1.4984 -1.7595
 5011SOL    HW226670   0.099   2.484  12.384 -1.2516  1.1484 -3.3573
 5012SOL     OW26671   3.901   3.165   3.412 -0.3229  0.5881  0.0476
 5012SOL    HW126672   3.935   3.226   3.346 -2.5145  2.9535  1.0845
 5012SOL    HW226673   3.852   3.100   3.362 -2.1934  1.0117  1.3020
 5013SOL     OW26674   3.165   1.486   3.869 -0.4742  0.0499  0.0795
 5013SOL    HW126675   3.078   1.448   3.878 -0.6418  0.6681  1.1384
 5013SOL    HW226676   3.184   1.479   3.776  0.0695  2.8206 -0.0337
 5014SOL     OW26677   2.281   3.030   7.174 -0.3429  0.2107 -0.3654
 5014SOL    HW126678   2.264   2.987   7.091  1.7600  0.2098 -0.7925
 5014SOL    HW226679   2.344   3.094   7.142 -1.3526  0.9279 -0.9402
 5015SOL     OW26680   1.177   3.189   3.427 -0.1787  0.0063 -0.6766
 5015SOL    HW126681   1.142   3.238   3.353 -1.3534  0.3367  0.1072
 5015SOL    HW226682   1.149   3.107   3.388 -0.5234  0.3589 -1.1683
 5016SOL     OW26683   3.757   4.581   2.320 -0.2159  0.3084  0.8306
 5016SOL    HW126684   3.820   4.616   2.257 -1.2723  0.2226 -0.2524
 5016SOL    HW226685   3.786   4.633   2.396 -0.4609  0.3904  0.8679
 5017SOL     OW26686   4.094   1.095   8.201 -0.0230  0.2365 -0.0040
 5017SOL    HW126687   4.155   1.023   8.190  0.4139  0.6352 -0.1736
 5017SOL    HW226688   4.048   1.062   8.279  0.2874 -1.1439 -0.4161
 5018SOL     OW26689   1.637   1.264   5.003  0.1237  0.5202 -0.1789
 5018SOL    HW126690   1.698   1.204   4.959  1.4864  1.6331  0.2083
 5018SOL    HW226691   1.694   1.341   5.009  0.3400  0.3299  0.2357
 5019SOL     OW26692   3.229   2.953   8.012  0.3103  0.2000  0.1098
 5019SOL    HW126693   3.280   3.030   8.034  0.9538  0.5075 -2.3697
 5019SOL    HW226694   3.284   2.900   7.953 -0.0182 -0.4470  0.3834
 5020SOL     OW26695   3.627   2.362  16.707 -0.0080  0.4257  0.0193
 5020SOL    HW126696   3.543   2.406  16.695  0.4066  1.3938  0.6272
 5020SOL    HW226697   3.679   2.390  16.632 -0.3106  1.4464  0.1973
 5021SOL     OW26698   0.011   0.573   4.308  0.0996  0.2720  0.2364
 5021SOL    HW126699   0.035   0.541   4.394 -2.2241 -1.2588  0.3147
 5021SOL    HW226700   4.651   0.574   4.320 -0.2343 -0.5854 -2.2070
 5022SOL     OW26701   2.694   1.071   6.747 -0.0172  0.2652 -0.1180
 5022SOL    HW126702   2.654   1.027   6.823 -0.6564  2.0711  0.5925
 5022SOL    HW226703   2.782   1.034   6.744 -0.7459 -1.7099  2.4337
 5023SOL     OW26704   0.971   3.397  14.960  0.5767  0.9445  0.0806
 5023SOL    HW126705   0.995   3.317  15.007  0.6682  0.4412 -0.8330
 5023SOL    HW226706   1.003   3.369  14.874  1.4233 -0.4123  0.8389
 5024SOL     OW26707   3.333   3.206   1.684  0.5813 -0.8459 -0.2690
 5024SOL    HW126708   3.325   3.122   1.639 -1.7548  0.0026 -1.4362
 5024SOL    HW226709   3.297   3.173   1.766  1.0536 -3.0901 -0.9813
 5025SOL     OW26710   4.242   2.687  14.323 -0.3530 -0.1681 -0.1809
 5025SOL    HW126711   4.268   2.660  14.235 -1.7596 -0.6884 -0.4503
 5025SOL    HW226712   4.197   2.769  14.302  2.5569  1.3329 -0.4349
 5026SOL     OW26713   2.466   1.749  17.465 -0.2593  0.2821 -0.1225
 5026SOL    HW126714   2.455   1.728  17.372  1.0612  3.6758 -1.0588
 5026SOL    HW226715   2.471   1.844  17.465 -0.4052  0.2980 -1.5314
 5027SOL     OW26716   4.420   3.711   4.377 -0.1420 -0.1228 -0.0835
 5027SOL    HW126717   4.492   3.649   4.383  2.3250  2.7564  0.4503
 5027SOL    HW226718   4.457   3.783   4.428 -0.6810  0.5777 -0.6763
 5028SOL     OW26719   2.447   4.244   7.025  0.4341 -0.1679  0.2787
 5028SOL    HW126720   2.375   4.214   7.081 -1.2376  1.3544 -1.0678
 5028SOL    HW226721   2.500   4.169   7.051  0.3324 -0.2286  0.3134
 5029SOL     OW26722   4.136   0.187   2.221 -0.0392 -0.2067  0.5176
 5029SOL    HW126723   4.138   0.117   2.286  1.9050  0.0565  0.7609
 5029SOL    HW226724   4.230   0.181   2.201 -0.4520  0.3575 -1.5467
 5030SOL     OW26725   4.413   2.309  11.835 -0.2068 -0.6315 -0.0975
 5030SOL    HW126726   4.360   2.356  11.899  0.9138  0.2668  0.1830
 5030SOL    HW226727   4.488   2.366  11.853  1.0462 -1.7556 -1.7523
 5031SOL     OW26728   0.211   0.318   6.563  0.4418 -0.1127  0.0889
 5031SOL    HW126729   0.267   0.243   6.583  0.1115 -0.5082 -0.4615
 5031SOL    HW226730   0.281   0.364   6.517  2.2502 -2.4921  0.4382
 5032SOL     OW26731   1.872   3.488   3.575  0.1141 -0.0584 -0.4807
 5032SOL    HW126732   1.787   3.444   3.577 -0.0707  0.3727  0.8255
 5032SOL    HW226733   1.912   3.469   3.490 -2.3374 -0.5644 -1.5342
 5033SOL     OW26734   2.143   3.270   7.485  0.2373 -0.5372  0.7946
 5033SOL    HW126735   2.094   3.209   7.430 -1.3352  0.8295  0.6780
 5033SOL    HW226736   2.075   3.298   7.547 -0.9267  1.2057 -1.2849
 5034SOL     OW26737   1.590   2.183   9.332  0.9232 -0.2932 -0.2646
 5034SOL    HW126738   1.647   2.178   9.410  1.0985  0.2165 -0.3608
 5034SOL    HW226739   1.506   2.179   9.377  1.4407 -3.4837  0.4745
 5035SOL     OW26740   4.630   4.225   3.960  0.0692  0.3478  0.1216
 5035SOL    HW126741   4.556   4.232   4.020  0.7897  1.8116  0.8555
 5035SOL    HW226742   4.694   4.186   4.019  0.4832 -1.3190 -1.4377
 5036SOL     OW26743   3.715   2.830   1.959  0.1425  0.3357  0.0085
 5036SOL    HW126744   3.652   2.901   1.959  0.4094  0.5765  1.5249
 5036SOL    HW226745   3.711   2.805   2.052  2.6648  1.9234  0.5517
 5037SOL     OW26746   0.523   3.073   3.945  0.1697  0.0890 -0.1862
 5037SOL    HW126747   0.452   3.046   4.004 -0.4954  0.2543 -0.9207
 5037SOL    HW226748   0.558   2.984   3.934  1.4028  0.7834 -1.7443
 5038SOL     OW26749   4.717   1.240   2.434 -0.6526 -0.4425  0.5008
 5038SOL    HW126750   4.701   1.197   2.518  1.9069  1.1777  1.8302
 5038SOL    HW226751   0.009   1.160   2.388 -0.5871  1.1269 -2.1556
 5039SOL     OW26752   4.595   4.410   2.074 -0.2003 -0.3145  0.1565
 5039SOL    HW126753   4.569   4.318   2.076  0.8217 -0.5666  1.1769
 5039SOL    HW226754   4.604   4.431   2.167 -0.8276 -1.3517  0.4501
 5040SOL     OW26755   3.683   2.581   3.974 -0.2108 -0.0519 -0.4357
 5040SOL    HW126756   3.688   2.617   3.885  1.1727  0.9822  0.0604
 5040SOL    HW226757   3.773   2.575   4.007  0.0643 -1.1614 -1.3819
 5041SOL     OW26758   2.271   4.318  11.392  0.1961  0.0428  0.6054
 5041SOL    HW126759   2.344   4.372  11.422 -0.5945 -0.0880  2.8167
 5041SOL    HW226760   2.260   4.365  11.309  2.2058 -1.0052 -0.2509
 5042SOL     OW26761   2.527   1.174   6.204 -0.3249  0.6935 -0.1740
 5042SOL    HW126762   2.482   1.092   6.180  2.1690 -0.9589  0.8613
 5042SOL    HW226763   2.499   1.235   6.135 -1.3699  0.6015  0.1620
 5043SOL     OW26764   3.542   2.610  13.807  0.0867 -0.0035 -0.2924
 5043SOL    HW126765   3.552   2.703  13.785  0.3130 -0.6005 -2.7021
 5043SOL    HW226766   3.581   2.559  13.736  0.6446 -0.3920  0.2894
 5044SOL     OW26767   2.501   0.290  15.096 -0.0608 -0.1698 -0.4621
 5044SOL    HW126768   2.531   0.225  15.033  2.2974 -0.7693  1.2863
 5044SOL    HW226769   2.442   0.340  15.040  2.6775  1.4091 -1.9655
 5045SOL     OW26770   1.309   2.661   8.983  0.2581 -1.1176  0.1163
 5045SOL    HW126771   1.360   2.728   9.029  0.3671 -1.5897  0.6779
 5045SOL    HW226772   1.299   2.688   8.892 -0.6587 -0.0331  0.5233
 5046SOL     OW26773   2.874   4.484   5.999 -0.1900  0.0138 -0.3303
 5046SOL    HW126774   2.832   4.494   6.084  1.2542 -3.0021  0.7298
 5046SOL    HW226775   2.822   4.550   5.953  1.3000  0.7343 -0.9829
 5047SOL     OW26776   2.154   4.669   6.034 -0.2251  0.3308  0.4078
 5047SOL    HW126777   2.072   4.621   6.048 -0.0582 -0.3175 -0.8269
 5047SOL    HW226778   2.181   4.688   6.123  0.1831 -3.1155  1.0336
 5048SOL     OW26779   3.794   3.510   8.510 -0.4194 -0.0929 -0.0687
 5048SOL    HW126780   3.717   3.558   8.482 -0.6747 -1.0401 -1.0220
 5048SOL    HW226781   3.762   3.426   8.477 -2.3623  0.5762  0.1396
 5049SOL     OW26782   3.868   4.722   2.530  0.4169 -0.2012 -0.3014
 5049SOL    HW126783   3.888   4.701   2.621 -0.6466  1.8648  0.4022
 5049SOL    HW226784   3.947   0.019   2.488  0.8371 -0.7827  0.0387
 5050SOL     OW26785   3.398   2.812  11.654  1.2782  0.0637 -0.2996
 5050SOL    HW126786   3.490   2.805  11.682  1.0358 -1.3698  0.1673
 5050SOL    HW226787   3.371   2.720  11.651 -1.0224  0.6455  3.2820
 5051SOL     OW26788   3.783   0.915   3.217 -0.0397 -0.0667 -0.5287
 5051SOL    HW126789   3.750   0.857   3.147 -1.9405 -0.7459  0.9131
 5051SOL    HW226790   3.839   0.856   3.267 -1.3832 -0.2872  0.7101
 5052SOL     OW26791   4.053   2.692  16.192 -0.1429  0.0879  0.0354
 5052SOL    HW126792   4.140   2.705  16.156 -1.0271 -0.0343 -2.1697
 5052SOL    HW226793   3.997   2.685  16.114 -0.7600 -0.2729  0.5035
 5053SOL     OW26794   2.726   3.741   5.433  0.0274  0.3624  0.1409
 5053SOL    HW126795   2.769   3.663   5.397 -2.5106 -0.2686 -1.4793
 5053SOL    HW226796   2.797   3.763   5.494  0.4185 -2.2683  0.6404
 5054SOL     OW26797   3.131   3.634  10.599  0.2795  0.2113 -0.0703
 5054SOL    HW126798   3.106   3.726  10.614 -1.5613 -0.2700 -0.1696
 5054SOL    HW226799   3.095   3.626  10.510 -1.4397  1.3972  0.4954
 5055SOL     OW26800   3.068   4.466   4.518  0.0653  0.1760  0.3072
 5055SOL    HW126801   3.118   4.408   4.576  1.6523 -0.6014 -1.7954
 5055SOL    HW226802   2.995   4.408   4.497 -1.1755  2.1115 -0.6645
 5056SOL     OW26803   3.194   4.483   9.554 -0.1042  0.4750  0.5010
 5056SOL    HW126804   3.159   4.473   9.465 -0.7260 -0.1010  0.8055
 5056SOL    HW226805   3.141   4.432   9.615  0.7935 -1.1257 -0.0521
 5057SOL     OW26806   3.204   2.345  12.555  0.2117  0.0909 -0.2689
 5057SOL    HW126807   3.211   2.256  12.520 -0.8480 -1.0524  2.4284
 5057SOL    HW226808   3.272   2.388  12.503  0.2384  1.0364  0.5536
 5058SOL     OW26809   3.301   0.217   7.405 -0.5234  0.0343  0.1079
 5058SOL    HW126810   3.363   0.150   7.376  0.5744  1.6487 -1.2371
 5058SOL    HW226811   3.325   0.288   7.346 -0.2740 -0.0520  0.1053
 5059SOL     OW26812   0.212   3.205   3.753  0.5622  0.3875 -0.1260
 5059SOL    HW126813   0.306   3.200   3.734  0.1050 -1.9562 -1.8671
 5059SOL    HW226814   0.180   3.124   3.711 -2.4169  1.3651  0.2589
 5060SOL     OW26815   2.721   2.131   5.977  0.4045 -0.3352  0.4594
 5060SOL    HW126816   2.626   2.144   5.982  0.3143 -1.0850  0.6908
 5060SOL    HW226817   2.749   2.145   6.067 -0.9148  0.7934  0.6950
 5061SOL     OW26818   0.113   2.777  16.793 -0.2226  0.1622  0.6236
 5061SOL    HW126819   0.138   2.870  16.785  0.8697 -0.2251 -0.5016
 5061SOL    HW226820   0.104   2.764  16.887  0.5115 -0.9431  0.5419
 5062SOL     OW26821   1.007   1.222  10.946 -0.4987  0.1226 -0.0024
 5062SOL    HW126822   1.000   1.129  10.970  1.6643 -0.0952 -0.2321
 5062SOL    HW226823   1.059   1.250  11.021  0.9835 -0.2829 -0.8734
 5063SOL     OW26824   2.789   1.962   7.509 -0.1819 -0.2094 -0.9264
 5063SOL    HW126825   2.845   2.008   7.446 -0.7590  0.8672 -0.6427
 5063SOL    HW226826   2.698   1.984   7.493  0.0377 -0.6039 -2.7224
 5064SOL     OW26827   1.349   1.935  15.420  0.6760 -0.0438 -0.1164
 5064SOL    HW126828   1.355   2.005  15.355  0.5758  0.6048  0.5670
 5064SOL    HW226829   1.423   1.969  15.471  0.5835 -0.2293  0.1416
 5065SOL     OW26830   1.416   1.309   0.164 -0.6584  0.1918  0.0045
 5065SOL    HW126831   1.498   1.318   0.117 -1.5120 -0.0946 -1.5346
 5065SOL    HW226832   1.355   1.328   0.093 -0.2115  0.0973 -0.4061
 5066SOL     OW26833   2.194   4.490   4.283  0.2013 -0.2266  0.9979
 5066SOL    HW126834   2.282   4.525   4.285  0.0909  0.2077 -2.2411
 5066SOL    HW226835   2.210   4.403   4.246 -0.5005  0.1707 -0.2350
 5067SOL     OW26836   3.153   1.782   5.799  0.6921 -0.0251  0.0674
 5067SOL    HW126837   3.156   1.692   5.768 -1.1862 -0.5426  1.4077
 5067SOL    HW226838   3.198   1.771   5.883  0.6539 -2.4244 -0.2279
 5068SOL     OW26839   1.589   3.764   2.244  0.4028  0.5378 -0.9534
 5068SOL    HW126840   1.612   3.764   2.151  3.0172 -0.1200 -0.3201
 5068SOL    HW226841   1.495   3.745   2.242  0.5983 -0.5816  0.2809
 5069SOL     OW26842   2.891   3.747  14.953  0.2313 -0.2692 -0.2135
 5069SOL    HW126843   2.947   3.700  14.892  2.3825 -0.1135  1.6431
 5069SOL    HW226844   2.810   3.712  14.915  1.0291 -1.5403 -0.7665
 5070SOL     OW26845   3.544   0.133  12.740 -0.3546 -0.8285  0.1029
 5070SOL    HW126846   3.593   0.189  12.681  1.7867 -1.7119  1.0364
 5070SOL    HW226847   3.519   0.058  12.686  2.3849 -1.0973 -0.7578
 5071SOL     OW26848   0.329   1.565   5.626  0.2570 -0.3125 -0.3948
 5071SOL    HW126849   0.403   1.512   5.594  1.6223  2.7183 -2.2102
 5071SOL    HW226850   0.290   1.493   5.676  0.5518 -0.5030 -0.4398
 5072SOL     OW26851   4.287   1.088  12.301  0.2439 -0.1840 -0.1068
 5072SOL    HW126852   4.379   1.070  12.320 -0.3647 -3.1224  0.1228
 5072SOL    HW226853   4.271   1.017  12.239 -0.4898 -0.0614 -0.0613
 5073SOL     OW26854   3.335   3.920  13.500  0.6006  0.3853 -0.3724
 5073SOL    HW126855   3.415   3.921  13.551 -0.1924 -2.1914  0.9385
 5073SOL    HW226856   3.353   3.994  13.441 -2.2115 -0.6775 -2.6039
 5074SOL     OW26857   3.415   3.051   5.184  0.2301 -0.2948  0.6808
 5074SOL    HW126858   3.397   3.032   5.276 -0.4487  1.0363  0.8201
 5074SOL    HW226859   3.328   3.026   5.152  1.5783 -3.6728 -0.3448
 5075SOL     OW26860   1.184   1.868   2.715 -0.5449 -0.4112  0.6085
 5075SOL    HW126861   1.089   1.871   2.726 -0.4753 -0.3814  1.2246
 5075SOL    HW226862   1.209   1.825   2.797 -0.5613 -3.2213 -0.8847
 5076SOL     OW26863   3.017   4.438   8.359 -0.1146 -0.3405 -0.1395
 5076SOL    HW126864   2.955   4.505   8.385  0.3028 -0.3127  0.7902
 5076SOL    HW226865   3.073   4.486   8.298  0.9831 -1.1356  0.2286
 5077SOL     OW26866   4.516   0.813  13.676  0.1657  0.1311 -0.2633
 5077SOL    HW126867   4.552   0.732  13.710 -1.4069 -0.4586  0.0192
 5077SOL    HW226868   4.498   0.872  13.750  0.8607  1.3572 -1.0719
 5078SOL     OW26869   1.514   1.939   0.197 -0.3975 -0.1643 -0.1243
 5078SOL    HW126870   1.608   1.954   0.189 -0.1147 -1.1875  1.3129
 5078SOL    HW226871   1.510   1.844   0.203  0.8811 -0.1292  1.3503
 5079SOL     OW26872   3.974   4.183   7.342 -0.1037 -0.6073  0.3333
 5079SOL    HW126873   3.994   4.113   7.280 -0.7786  0.2478 -0.8613
 5079SOL    HW226874   4.002   4.140   7.422  0.6317 -0.4297  0.1666
 5080SOL     OW26875   4.704   3.616   6.413 -0.0356 -0.3287  0.1690
 5080SOL    HW126876   0.008   3.553   6.352 -0.9036  1.8717 -2.6473
 5080SOL    HW226877   4.648   3.664   6.352  0.0539 -1.5059 -0.8304
 5081SOL     OW26878   4.734   3.202   7.097  0.3144 -0.5229  0.2029
 5081SOL    HW126879   0.061   3.188   7.026  0.8718  2.8818 -0.0082
 5081SOL    HW226880   0.020   3.130   7.157 -0.0239 -1.8266 -1.2538
 5082SOL     OW26881   3.570   4.198   4.314 -0.0302  0.1135  0.2820
 5082SOL    HW126882   3.646   4.249   4.284  2.3450 -1.8653  2.8961
 5082SOL    HW226883   3.575   4.115   4.267 -0.7533  1.3395 -1.9692
 5083SOL     OW26884   1.781   2.142  16.607  0.4855  0.3358 -0.2280
 5083SOL    HW126885   1.701   2.177  16.645  0.7295 -0.7895  1.3137
 5083SOL    HW226886   1.839   2.173  16.677 -0.0662  0.5403  0.1351
 5084SOL     OW26887   4.475   1.332   2.284 -0.1476 -0.0829  0.1554
 5084SOL    HW126888   4.500   1.308   2.195 -0.5086  1.1325 -0.2742
 5084SOL    HW226889   4.540   1.282   2.333 -1.1941 -0.6192  0.9997
 5085SOL     OW26890   3.722   4.724   8.445 -0.1136  0.3003 -0.3754
 5085SOL    HW126891   3.754   0.070   8.406 -0.2369  0.6930  0.3511
 5085SOL    HW226892   3.627   4.730   8.455 -0.2813 -1.3873 -0.9784
 5086SOL     OW26893   2.843   3.413   4.650 -0.0941 -0.4267 -0.4809
 5086SOL    HW126894   2.910   3.482   4.653  0.1300 -0.6499 -0.3215
 5086SOL    HW226895   2.834   3.390   4.557  3.3378 -2.3526 -0.3555
 5087SOL     OW26896   3.239   3.426   2.195  0.3938 -0.5029 -0.1173
 5087SOL    HW126897   3.187   3.383   2.127  0.3863 -0.2393 -0.2813
 5087SOL    HW226898   3.324   3.443   2.154 -0.3957  0.1572 -1.4756
 5088SOL     OW26899   2.245   3.360   6.023  0.4522  0.3142  0.1693
 5088SOL    HW126900   2.181   3.386   5.956  1.2174  0.5418 -0.4657
 5088SOL    HW226901   2.286   3.279   5.991  0.7707  1.5064 -2.4743
 5089SOL     OW26902   0.192   1.090   3.472 -0.1005 -0.7233 -1.0138
 5089SOL    HW126903   0.141   1.157   3.518 -0.0883 -0.9311 -0.6999
 5089SOL    HW226904   0.253   1.153   3.434  0.1280  0.3817  1.1492
 5090SOL     OW26905   3.999   2.443   5.317 -0.6394  0.1695  0.0571
 5090SOL    HW126906   3.943   2.395   5.256  0.4635 -0.2987 -0.5700
 5090SOL    HW226907   3.999   2.397   5.401 -0.5931 -0.3201 -0.2175
 5091SOL     OW26908   0.390   2.995   1.359 -0.7243  0.4743  0.0164
 5091SOL    HW126909   0.334   2.931   1.402  0.8034 -0.6683  0.3209
 5091SOL    HW226910   0.408   2.950   1.277 -2.3183 -1.3799  0.6901
 5092SOL     OW26911   1.046   3.777  13.507  0.2235 -0.1389  0.0410
 5092SOL    HW126912   1.063   3.868  13.529  1.3338 -0.0539 -1.1639
 5092SOL    HW226913   1.104   3.724  13.561  0.8670 -0.0314 -0.5469
 5093SOL     OW26914   1.969   0.078  12.691 -0.3594  0.1724  0.5196
 5093SOL    HW126915   1.923   0.141  12.747 -0.9970 -1.8358  2.2578
 5093SOL    HW226916   1.892   0.024  12.670  0.6700 -1.1671  0.2140
 5094SOL     OW26917   0.138   2.230  13.149  0.0156 -0.3637  0.0834
 5094SOL    HW126918   0.188   2.299  13.107  2.1197 -2.3449 -0.6728
 5094SOL    HW226919   0.182   2.216  13.233 -2.8961  2.0665  2.0177
 5095SOL     OW26920   1.015   4.483   0.534  0.0046 -0.1182 -0.0875
 5095SOL    HW126921   1.057   4.399   0.516 -0.6909 -0.1865 -1.4060
 5095SOL    HW226922   1.039   4.495   0.625  2.1093  2.3172 -0.9731
 5096SOL     OW26923   2.323   2.232  13.650  0.1623  0.3537  0.1825
 5096SOL    HW126924   2.367   2.161  13.697 -0.0088 -0.9501 -1.5787
 5096SOL    HW226925   2.267   2.179  13.592 -0.2291 -1.6972  2.4255
 5097SOL     OW26926   4.325   2.000   9.139  0.4667 -0.1141 -0.6881
 5097SOL    HW126927   4.266   2.062   9.181 -1.3054 -0.4933 -2.5893
 5097SOL    HW226928   4.379   2.060   9.089 -0.6014  1.7589  0.4079
 5098SOL     OW26929   2.537   0.042   3.512  0.0276 -0.5012 -0.0295
 5098SOL    HW126930   2.478   0.112   3.483 -1.3329 -1.3904  0.5743
 5098SOL    HW226931   2.594   0.084   3.576  0.6528 -0.8181 -0.3825
 5099SOL     OW26932   2.254   2.547   8.024 -0.4279 -0.4807  0.4382
 5099SOL    HW126933   2.299   2.587   8.099  0.6219  0.7476 -0.8372
 5099SOL    HW226934   2.200   2.620   7.991  0.3526 -0.1838 -0.1979
 5100SOL     OW26935   3.358   4.365   8.922  0.2752  0.5324 -0.1447
 5100SOL    HW126936   3.350   4.293   8.860 -0.9843 -0.6070  1.3393
 5100SOL    HW226937   3.269   4.402   8.920  0.0476  0.0029  0.0130
 5101SOL     OW26938   3.582   3.190   5.343 -0.1654  0.1162 -0.5676
 5101SOL    HW126939   3.567   3.121   5.278  0.5440  1.1876 -1.8603
 5101SOL    HW226940   3.677   3.182   5.353 -0.1992 -1.5855 -1.6300
 5102SOL     OW26941   3.668   4.140  11.669  0.7855 -0.2193  0.0004
 5102SOL    HW126942   3.599   4.183  11.619 -0.6323 -0.9846  1.2929
 5102SOL    HW226943   3.626   4.127  11.754 -0.2673  0.1660 -0.4615
 5103SOL     OW26944   2.381   0.333   0.719  0.0800  0.3334 -0.1976
 5103SOL    HW126945   2.325   0.363   0.791  0.7277 -0.6796  0.7369
 5103SOL    HW226946   2.463   0.315   0.766 -0.6869  1.4582  1.5754
 5104SOL     OW26947   3.718   3.517   5.235  0.0985  0.1619  0.4263
 5104SOL    HW126948   3.638   3.561   5.264 -0.5714  0.0103 -1.1904
 5104SOL    HW226949   3.694   3.426   5.222  0.1300  0.4499 -1.6634
 5105SOL     OW26950   4.402   1.239   5.367 -0.8068 -0.1400 -0.1285
 5105SOL    HW126951   4.425   1.160   5.318  2.0721 -1.0956  2.7415
 5105SOL    HW226952   4.332   1.204   5.422 -2.4880  2.1414 -0.8367
 5106SOL     OW26953   3.790   3.930  12.107  0.2404  0.0487  0.1376
 5106SOL    HW126954   3.824   4.010  12.149  2.2664  0.2249 -1.8735
 5106SOL    HW226955   3.862   3.907  12.049 -0.7436 -0.1469 -1.0129
 5107SOL     OW26956   3.086   3.407   8.306 -0.2748 -0.1151  0.0256
 5107SOL    HW126957   3.167   3.362   8.328 -0.0895 -0.5829 -1.6305
 5107SOL    HW226958   3.057   3.428   8.394 -0.0421 -1.1956  0.3538
 5108SOL     OW26959   1.210   3.621   7.979 -0.3805 -0.4218 -0.3995
 5108SOL    HW126960   1.243   3.636   7.890  1.3430 -0.7899  0.1744
 5108SOL    HW226961   1.127   3.576   7.966 -1.1098  0.3500  1.6437
 5109SOL     OW26962   1.372   1.171   3.569 -0.2074 -0.3306  0.5590
 5109SOL    HW126963   1.401   1.122   3.493  0.3522  0.3061  0.3612
 5109SOL    HW226964   1.284   1.205   3.550 -0.0926 -1.3424 -1.7360
 5110SOL     OW26965   2.405   2.226   4.270 -0.2412  0.0289 -0.1113
 5110SOL    HW126966   2.412   2.131   4.273 -1.0695 -0.2019 -4.4973
 5110SOL    HW226967   2.415   2.247   4.363  0.2248  0.0629 -0.1724
 5111SOL     OW26968   0.001   2.544   7.461  0.1969  0.7815  0.1101
 5111SOL    HW126969   0.028   2.489   7.534  0.6161  0.5234 -0.2389
 5111SOL    HW226970   4.652   2.503   7.439  1.0958 -1.4163  0.8027
 5112SOL     OW26971   4.294   0.553   3.329 -0.2820  0.1054 -0.0321
 5112SOL    HW126972   4.355   0.606   3.278 -0.6280  1.0969  0.5866
 5112SOL    HW226973   4.335   0.563   3.415 -0.0766  0.8482 -0.2197
 5113SOL     OW26974   0.044   2.676  12.617 -0.5683  0.1145 -0.1115
 5113SOL    HW126975   0.054   2.742  12.686 -2.5133  1.0179 -0.6790
 5113SOL    HW226976   0.124   2.625  12.620 -0.5093  0.1329 -1.5536
 5114SOL     OW26977   0.290   2.481   2.908 -0.0180 -0.0259 -0.1256
 5114SOL    HW126978   0.336   2.462   2.826 -1.6733 -0.4037 -0.9602
 5114SOL    HW226979   0.240   2.559   2.886  1.1346  0.7764  0.0563
 5115SOL     OW26980   1.852   2.963   5.740  0.1928  0.1989 -0.2594
 5115SOL    HW126981   1.860   2.873   5.772 -1.0049 -0.0716 -0.7046
 5115SOL    HW226982   1.817   2.943   5.653  2.5718 -0.6444 -1.0067
 5116SOL     OW26983   3.170   1.674   4.974 -0.0141 -0.2512 -0.1048
 5116SOL    HW126984   3.161   1.721   4.891 -0.8924  1.2152  0.8319
 5116SOL    HW226985   3.264   1.661   4.989 -0.1863  0.0665  1.1660
 5117SOL     OW26986   4.267   3.944   8.987 -0.2067 -0.3373  0.2223
 5117SOL    HW126987   4.310   3.893   8.918  0.8809 -0.1606  0.7745
 5117SOL    HW226988   4.315   4.026   8.981  1.1656 -1.0693  1.3324
 5118SOL     OW26989   0.389   3.025   4.559 -0.1856 -0.5285 -1.0659
 5118SOL    HW126990   0.458   3.086   4.583 -1.3997  0.6882 -0.7254
 5118SOL    HW226991   0.392   3.028   4.463 -1.1106 -1.0946 -1.1231
 5119SOL     OW26992   3.622   4.208   4.585  0.0818 -0.2675 -0.0067
 5119SOL    HW126993   3.629   4.119   4.621  0.6537  0.3394  1.3799
 5119SOL    HW226994   3.613   4.190   4.492 -0.3047 -1.1070  0.1876
 5120SOL     OW26995   2.036   2.238   3.318  0.0957  0.4723 -0.2474
 5120SOL    HW126996   2.041   2.312   3.377 -1.0865 -0.6345  1.2196
 5120SOL    HW226997   2.034   2.165   3.380 -0.9444  2.5008  2.0811
 5121SOL     OW26998   1.659   3.725   9.031  0.8204  0.2662 -0.0995
 5121SOL    HW126999   1.606   3.684   9.100 -0.4751  2.5853  0.2558
 5121SOL    HW227000   1.651   3.816   9.059 -1.0540  0.0236  0.2079
 5122SOL     OW27001   3.676   0.050   4.563  0.0630 -0.2671  0.2375
 5122SOL    HW127002   3.627   0.064   4.483  3.2852  0.1143 -1.6885
 5122SOL    HW227003   3.757   0.009   4.531  1.9884  4.4858 -0.9409
 5123SOL     OW27004   3.166   2.481   2.288  0.3263  0.2948 -0.2226
 5123SOL    HW127005   3.217   2.431   2.352  0.4277 -1.1054 -1.3827
 5123SOL    HW227006   3.079   2.468   2.324  0.0663  0.1021 -0.9177
 5124SOL     OW27007   4.227   0.457  12.189  0.1131 -0.7502  0.0440
 5124SOL    HW127008   4.273   0.516  12.129  1.4232 -1.5615  0.2481
 5124SOL    HW227009   4.185   0.389  12.136  0.9874 -0.3763 -1.1458
 5125SOL     OW27010   1.146   1.637  13.335 -0.0267 -0.0801 -0.1287
 5125SOL    HW127011   1.161   1.566  13.272 -0.0964 -1.3684  1.2830
 5125SOL    HW227012   1.055   1.657  13.316 -0.2853  0.1104  1.2844
 5126SOL     OW27013   4.582   1.611   9.164 -0.0381  0.6061 -0.1028
 5126SOL    HW127014   4.623   1.600   9.250 -0.8305  0.4235  0.2484
 5126SOL    HW227015   4.508   1.670   9.178  0.4497  0.8509  1.4912
 5127SOL     OW27016   4.714   4.228   6.786 -0.1187  0.7370  0.1932
 5127SOL    HW127017   0.064   4.188   6.771 -0.8006 -0.7586  0.3869
 5127SOL    HW227018   4.734   4.320   6.806  3.3855  0.7263 -3.2901
 5128SOL     OW27019   1.963   4.031  11.302  0.1621 -0.0458 -0.1984
 5128SOL    HW127020   2.058   4.042  11.297  0.2318  0.3110  1.8241
 5128SOL    HW227021   1.948   3.944  11.265 -0.2637 -1.1901  2.6816
 5129SOL     OW27022   3.354   1.309   5.126  0.3620  0.5297  0.3313
 5129SOL    HW127023   3.341   1.359   5.207 -0.7823  2.8604 -1.2682
 5129SOL    HW227024   3.293   1.236   5.139  0.2612  0.5455 -0.0500
 5130SOL     OW27025   2.831   4.239   5.418  0.1985  0.0942  0.5567
 5130SOL    HW127026   2.806   4.157   5.460 -3.7063  1.0025  0.0452
 5130SOL    HW227027   2.889   4.287   5.477 -0.6725  0.1652  1.3656
 5131SOL     OW27028   3.888   4.116   2.110 -0.2908 -0.2340 -1.1562
 5131SOL    HW127029   3.819   4.180   2.123 -1.0285 -0.8859 -1.8730
 5131SOL    HW227030   3.878   4.084   2.020 -0.9665 -0.2774 -1.0664
 5132SOL     OW27031   1.551   4.727   7.577 -0.0957  0.3278 -0.3524
 5132SOL    HW127032   1.639   0.014   7.545  0.2810  0.7949  1.0100
 5132SOL    HW227033   1.558   4.631   7.579 -1.5013  0.2376  0.4551
 5133SOL     OW27034   3.319   1.147  12.700  0.5839  0.3742 -0.2728
 5133SOL    HW127035   3.239   1.147  12.753 -0.3999 -1.2493 -1.7686
 5133SOL    HW227036   3.299   1.073  12.642 -1.1265  1.6800 -1.3687
 5134SOL     OW27037   0.978   4.093   9.599 -0.5413 -0.0836  0.3328
 5134SOL    HW127038   0.953   4.021   9.657  0.7205 -2.0891 -1.6003
 5134SOL    HW227039   0.940   4.162   9.654 -0.0279  0.6439 -0.2281
 5135SOL     OW27040   0.882   2.051   3.244 -0.3703  0.3292  0.0278
 5135SOL    HW127041   0.931   2.058   3.161 -1.9264  1.7513 -0.7785
 5135SOL    HW227042   0.815   1.988   3.219 -0.4186 -0.5659  2.4588
 5136SOL     OW27043   1.534   4.293   6.927 -0.1100 -0.8638 -0.2266
 5136SOL    HW127044   1.507   4.383   6.945  0.8364 -0.9199  1.4884
 5136SOL    HW227045   1.489   4.247   6.997  0.0248  0.3044  0.6257
 5137SOL     OW27046   3.809   1.218   9.883  0.7971  0.2135 -0.4341
 5137SOL    HW127047   3.765   1.236   9.800  1.9014  1.2613 -0.7741
 5137SOL    HW227048   3.894   1.259   9.868 -0.3926  2.9370  0.1876
 5138SOL     OW27049   0.383   1.451  15.440  0.3395 -0.4856  0.9657
 5138SOL    HW127050   0.330   1.422  15.366  0.4711  0.5523  0.4627
 5138SOL    HW227051   0.414   1.529  15.393  0.4051 -1.3161 -0.3821
 5139SOL     OW27052   1.916   1.393   1.004  0.3456 -0.6081  0.1030
 5139SOL    HW127053   1.980   1.421   0.938  0.6485 -1.8231 -0.1251
 5139SOL    HW227054   1.976   1.349   1.065  0.2677 -0.9727 -0.0848
 5140SOL     OW27055   3.176   0.229   9.359 -0.4911 -0.4654 -0.7928
 5140SOL    HW127056   3.247   0.281   9.319  1.6009 -0.8080  2.4844
 5140SOL    HW227057   3.225   0.166   9.411 -1.4965 -1.0112 -0.5237
 5141SOL     OW27058   4.656   3.847   8.133  0.8835 -0.2587  0.3185
 5141SOL    HW127059   4.649   3.776   8.197  1.5670 -0.4904  0.1319
 5141SOL    HW227060   4.707   3.920   8.167  0.2904 -0.6920  2.1146
 5142SOL     OW27061   2.546   1.841   4.009  0.3787  0.0073 -0.0235
 5142SOL    HW127062   2.517   1.921   3.965  2.0331  2.0914  2.6665
 5142SOL    HW227063   2.622   1.869   4.061  1.4121  0.2186 -1.6392
 5143SOL     OW27064   1.553   4.288   5.398  0.0371  0.0894 -0.5447
 5143SOL    HW127065   1.492   4.323   5.464 -0.4212 -1.0590 -0.3637
 5143SOL    HW227066   1.614   4.362   5.392 -0.0081  0.1777  0.0376
 5144SOL     OW27067   4.348   4.194   9.593  0.4132 -0.0541 -0.1461
 5144SOL    HW127068   4.260   4.216   9.565 -0.4706 -1.4729  1.5196
 5144SOL    HW227069   4.350   4.217   9.686  2.3607  1.9010 -0.6706
 5145SOL     OW27070   1.585   0.046  16.084  0.6863 -0.4351 -0.5256
 5145SOL    HW127071   1.551   4.733  16.009  0.2414 -1.0121  0.0431
 5145SOL    HW227072   1.572   0.136  16.057 -2.3640 -1.0439 -1.0558
 5146SOL     OW27073   0.417   4.324   7.280  0.0176 -0.4771 -0.6348
 5146SOL    HW127074   0.399   4.396   7.220 -0.6306  1.0378  1.3507
 5146SOL    HW227075   0.467   4.365   7.350 -3.1393  0.0912  1.3139
 5147SOL     OW27076   3.586   0.154   6.365  0.8232  0.1516  0.1400
 5147SOL    HW127077   3.678   0.132   6.376  0.9370 -0.1167 -1.3037
 5147SOL    HW227078   3.589   0.168   6.270  0.3568 -1.7954 -0.1605
 5148SOL     OW27079   3.490   4.629   3.998  0.2828 -0.4431 -0.0187
 5148SOL    HW127080   3.517   4.610   4.088 -0.3966 -1.1102  0.0458
 5148SOL    HW227081   3.531   4.555   3.952 -0.2156 -0.0590 -1.0724
 5149SOL     OW27082   2.112   2.535   7.317  0.5112  0.2131  0.2713
 5149SOL    HW127083   2.194   2.485   7.309 -0.7343 -1.7751 -0.1225
 5149SOL    HW227084   2.074   2.482   7.387  0.6314 -0.2833 -0.0345
 5150SOL     OW27085   3.176   3.554  10.004 -0.1055 -0.2825  0.1994
 5150SOL    HW127086   3.235   3.582  10.074  1.1201 -1.0039 -0.5342
 5150SOL    HW227087   3.224   3.593   9.931 -1.5804  3.1639  1.1194
 5151SOL     OW27088   4.383   1.778   8.736 -0.3729 -0.0664  0.1694
 5151SOL    HW127089   4.318   1.840   8.767 -0.3309 -1.1676  2.4853
 5151SOL    HW227090   4.463   1.830   8.745  0.5190 -0.8167 -3.4304
 5152SOL     OW27091   1.948   0.301  16.695  0.2755  0.4619 -0.3998
 5152SOL    HW127092   1.853   0.297  16.688  0.0263  2.2979  2.0095
 5152SOL    HW227093   1.957   0.236  16.764 -2.3257  0.7353  0.1844
 5153SOL     OW27094   3.531   2.585   7.101  0.7075  0.0831 -0.4612
 5153SOL    HW127095   3.441   2.558   7.086  0.8240 -0.1065 -0.8220
 5153SOL    HW227096   3.572   2.501   7.080  1.5827  0.1596  0.9527
 5154SOL     OW27097   3.031   3.197   4.699  0.1408 -0.1479  0.2085
 5154SOL    HW127098   3.050   3.165   4.788  2.3213  1.6496  0.3958
 5154SOL    HW227099   2.964   3.261   4.722  1.9805  0.9293  2.6110
 5155SOL     OW27100   0.845   4.392   5.352 -0.0379  0.4573  0.5388
 5155SOL    HW127101   0.895   4.442   5.417  0.2302  1.0677 -0.1380
 5155SOL    HW227102   0.815   4.463   5.296 -0.2560 -0.3287 -0.3502
 5156SOL     OW27103   3.159   1.114   6.840 -0.4444 -0.2829  0.8487
 5156SOL    HW127104   3.105   1.047   6.883  1.8009 -3.3611 -1.1347
 5156SOL    HW227105   3.143   1.189   6.898 -1.9721 -1.9231  2.5466
 5157SOL     OW27106   3.100   1.365   7.410  0.5481  0.0192 -0.3244
 5157SOL    HW127107   3.127   1.455   7.396 -0.5723 -0.0409 -2.8612
 5157SOL    HW227108   3.059   1.335   7.329 -1.3741 -0.6970  0.9140
 5158SOL     OW27109   0.498   2.688  12.536 -0.0713 -0.4135 -0.1279
 5158SOL    HW127110   0.567   2.688  12.603 -0.2876  3.0296  0.1279
 5158SOL    HW227111   0.541   2.746  12.473  0.2319 -1.6600 -1.0570
 5159SOL     OW27112   0.597   2.354  11.570 -0.3958  0.2015  0.3710
 5159SOL    HW127113   0.668   2.379  11.629 -0.9980  0.7252  0.8637
 5159SOL    HW227114   0.532   2.417  11.600 -2.4648 -2.2302  0.9988
 5160SOL     OW27115   3.582   4.541   7.075  0.3660  0.4760  0.2648
 5160SOL    HW127116   3.545   4.531   6.988 -1.3203 -0.0662  1.0447
 5160SOL    HW227117   3.658   4.596   7.055 -0.1571 -0.6926 -4.7602
 5161SOL     OW27118   2.998   1.515   9.267 -0.0471 -0.1111 -0.0102
 5161SOL    HW127119   2.940   1.471   9.328 -0.1914  0.2890  0.1380
 5161SOL    HW227120   3.040   1.583   9.319  0.7336  0.1792 -1.0123
 5162SOL     OW27121   2.007   1.214   5.740 -0.5128 -0.7273 -0.5723
 5162SOL    HW127122   2.082   1.171   5.781 -1.3807 -0.7576  0.9756
 5162SOL    HW227123   2.046   1.262   5.667 -1.6845  0.3773 -0.4758
 5163SOL     OW27124   1.491   0.121   2.334 -0.2611 -0.4121 -0.1753
 5163SOL    HW127125   1.412   0.106   2.282  0.3380  0.4330 -1.3480
 5163SOL    HW227126   1.555   0.084   2.274  1.2204  0.9852  0.5370
 5164SOL     OW27127   1.956   2.768   0.988 -0.2563  0.5033  0.1679
 5164SOL    HW127128   1.878   2.716   0.965 -0.7190  0.2553  2.3205
 5164SOL    HW227129   1.975   2.786   0.896  0.1850 -2.3276 -0.2999
 5165SOL     OW27130   1.575   2.954   4.527 -0.0949 -0.9759  0.2277
 5165SOL    HW127131   1.619   2.965   4.611 -0.5260  1.1148  0.1900
 5165SOL    HW227132   1.626   2.880   4.494 -0.8799 -1.4762  0.1375
 5166SOL     OW27133   0.804   0.400   5.699  0.0437  0.3935  0.0774
 5166SOL    HW127134   0.765   0.456   5.631 -0.7555 -0.7119 -0.3770
 5166SOL    HW227135   0.757   0.319   5.682  0.8953 -0.1308  0.1938
 5167SOL     OW27136   3.983   2.540   7.303 -0.0196  0.1965 -0.4155
 5167SOL    HW127137   3.906   2.593   7.282  0.0290  1.8206  3.3276
 5167SOL    HW227138   4.035   2.620   7.317 -0.6414 -0.0762  3.6531
 5168SOL     OW27139   1.753   1.271  14.686  0.1586  0.2189  0.1801
 5168SOL    HW127140   1.677   1.239  14.638  0.1166  0.0356  0.3649
 5168SOL    HW227141   1.708   1.276  14.771 -1.0462 -1.6908 -0.3496
 5169SOL     OW27142   2.009   4.716   1.626  0.1472 -0.1050  0.0577
 5169SOL    HW127143   2.070   0.044   1.664 -0.8068  0.3120  0.8962
 5169SOL    HW227144   2.057   4.685   1.549 -0.2023 -0.8948  0.1619
 5170SOL     OW27145   2.755   1.246   7.275 -0.2941  0.3456  0.2253
 5170SOL    HW127146   2.701   1.262   7.353 -1.7367 -0.4468 -0.6275
 5170SOL    HW227147   2.696   1.262   7.201 -0.4971  1.2131  0.5647
 5171SOL     OW27148   3.191   3.111   8.347  0.5825  0.1351  0.0035
 5171SOL    HW127149   3.096   3.112   8.363  0.3079 -1.5101 -1.5161
 5171SOL    HW227150   3.229   3.157   8.422  3.1471 -1.0471 -0.5837
 5172SOL     OW27151   4.377   3.553   8.001 -0.3217 -0.2907  0.0437
 5172SOL    HW127152   4.317   3.606   8.053 -0.3738  0.8115 -1.1676
 5172SOL    HW227153   4.424   3.627   7.962  1.7069 -1.4135  0.3116
 5173SOL     OW27154   0.706   3.482   3.175  0.5831 -0.0191  0.4804
 5173SOL    HW127155   0.707   3.387   3.188  0.4240 -0.1023 -0.1192
 5173SOL    HW227156   0.677   3.478   3.084  0.5471 -2.0295  0.5592
 5174SOL     OW27157   3.295   2.281   0.568 -0.1820 -0.1006 -0.3957
 5174SOL    HW127158   3.336   2.316   0.646  0.4683 -0.2495 -0.6712
 5174SOL    HW227159   3.238   2.353   0.542 -1.2978 -0.6744  0.4772
 5175SOL     OW27160   1.479   1.073  17.608  0.2213 -0.1417  0.0320
 5175SOL    HW127161   1.559   1.101  17.652  0.2375 -1.7286  1.0142
 5175SOL    HW227162   1.521   1.037  17.530 -1.7028 -2.3785  0.0074
 5176SOL     OW27163   2.475   3.734  16.620  0.4093 -0.4196 -0.0903
 5176SOL    HW127164   2.488   3.732  16.525  0.7276 -0.1357 -0.0523
 5176SOL    HW227165   2.486   3.639  16.627 -3.1925 -0.8497 -0.0576
 5177SOL     OW27166   0.698   4.350   7.148 -0.8732  0.2199  0.2285
 5177SOL    HW127167   0.700   4.445   7.138 -0.4495  0.0497 -1.1979
 5177SOL    HW227168   0.672   4.347   7.240 -0.9091 -1.5872  0.1502
 5178SOL     OW27169   3.488   2.641   5.486  0.0018 -0.4649 -0.1574
 5178SOL    HW127170   3.429   2.641   5.561 -0.4061  0.2078 -0.4718
 5178SOL    HW227171   3.568   2.661   5.534  0.2046 -2.3668  0.2806
 5179SOL     OW27172   0.350   2.488   1.730  0.4496 -0.3296  0.5671
 5179SOL    HW127173   0.347   2.395   1.752  1.3555 -0.1459  1.4423
 5179SOL    HW227174   0.308   2.502   1.645 -1.3789 -2.3754  1.1492
 5180SOL     OW27175   0.755   2.288   3.340 -0.6090 -0.0693  0.1799
 5180SOL    HW127176   0.802   2.210   3.310  0.5731  1.1449 -1.1219
 5180SOL    HW227177   0.764   2.272   3.434 -0.5689  1.7934  0.4817
 5181SOL     OW27178   1.168   3.527   6.590  0.1281  0.4945 -0.0106
 5181SOL    HW127179   1.257   3.525   6.555  1.0044  3.3237  2.1017
 5181SOL    HW227180   1.111   3.509   6.515  0.9294  2.3130 -1.0445
 5182SOL     OW27181   1.542   2.404  17.082 -0.0012  0.3740 -0.2864
 5182SOL    HW127182   1.584   2.465  17.021 -1.6452  1.5372 -0.2560
 5182SOL    HW227183   1.552   2.439  17.171  0.0186 -0.4185  0.0223
 5183SOL     OW27184   0.031   2.765   5.045  0.0129  0.6288 -0.0377
 5183SOL    HW127185   0.081   2.816   4.981  1.3486  0.4335  0.8616
 5183SOL    HW227186   0.004   2.828   5.112 -0.8101 -2.1757  2.2423
 5184SOL     OW27187   1.915   2.440   8.115  0.3307 -0.9038 -0.0185
 5184SOL    HW127188   1.867   2.521   8.096 -0.1474 -1.5223 -1.4053
 5184SOL    HW227189   1.993   2.473   8.159  0.0434 -0.8731  0.4775
 5185SOL     OW27190   0.421   0.873  16.124  0.0751 -0.2805  0.2204
 5185SOL    HW127191   0.463   0.908  16.045 -1.0382 -0.5478 -0.4832
 5185SOL    HW227192   0.460   0.941  16.179 -3.0644  2.9576 -1.5694
 5186SOL     OW27193   4.130   2.823  15.906 -0.2556 -0.3520 -0.2547
 5186SOL    HW127194   4.114   2.822  15.812 -0.4180 -0.6215 -0.2228
 5186SOL    HW227195   4.219   2.790  15.916 -0.0199  0.1029 -0.7973
 5187SOL     OW27196   1.840   0.517   5.300  0.0711 -0.2711 -0.4148
 5187SOL    HW127197   1.902   0.491   5.232 -1.0694 -0.1260 -1.5079
 5187SOL    HW227198   1.860   0.468   5.380 -0.6094 -1.5148 -1.0014
 5188SOL     OW27199   2.520   1.823   8.000  0.0280 -0.4124  1.0247
 5188SOL    HW127200   2.535   1.776   7.917 -0.7564 -0.3098  0.8220
 5188SOL    HW227201   2.425   1.830   7.986  0.2783  0.4767 -0.1900
 5189SOL     OW27202   0.465   1.129   7.835  0.0859  0.0385 -0.1463
 5189SOL    HW127203   0.465   1.186   7.759 -0.7359 -0.2594 -0.3631
 5189SOL    HW227204   0.460   1.044   7.793  0.8185 -1.1885  2.2648
 5190SOL     OW27205   3.238   2.188   5.712  0.2895 -0.1189  0.0930
 5190SOL    HW127206   3.278   2.129   5.648 -0.5295 -1.7064  1.0441
 5190SOL    HW227207   3.299   2.179   5.785  0.2155  1.5890  0.3828
 5191SOL     OW27208   4.662   1.079   1.576 -0.2584 -0.1139  0.3850
 5191SOL    HW127209   4.628   1.076   1.486 -1.2136 -0.5647  0.7590
 5191SOL    HW227210   4.655   1.171   1.602  0.7451  0.3166 -0.8855
 5192SOL     OW27211   2.779   4.498   4.835  0.1847  0.2537 -0.2781
 5192SOL    HW127212   2.736   4.420   4.872 -1.3472  1.1657 -0.1545
 5192SOL    HW227213   2.738   4.490   4.749  3.2383 -2.9044 -1.4530
 5193SOL     OW27214   0.370   4.688   4.835  0.7807 -0.4676 -0.3074
 5193SOL    HW127215   0.388   0.024   4.897 -0.8235  1.6508 -2.2866
 5193SOL    HW227216   0.274   4.689   4.830  0.7568  1.5337  0.6098
 5194SOL     OW27217   2.104   2.444   5.072  0.3722  0.0402 -0.1390
 5194SOL    HW127218   2.118   2.466   4.980 -1.0772 -1.6207 -0.7584
 5194SOL    HW227219   2.029   2.492   5.109 -0.0111 -1.1180  0.5742
 5195SOL     OW27220   3.817   1.247   8.382 -0.4336 -0.0759 -0.3979
 5195SOL    HW127221   3.863   1.219   8.303  0.3838  0.5208 -0.1335
 5195SOL    HW227222   3.867   1.200   8.449  1.5690  0.5331 -1.4510
 5196SOL     OW27223   2.934   3.808   1.884 -0.1707 -0.0184  0.1482
 5196SOL    HW127224   2.938   3.826   1.790 -2.2187 -0.3810 -0.0016
 5196SOL    HW227225   3.021   3.844   1.902 -0.3373 -0.1258  1.1571
 5197SOL     OW27226   0.086   1.902   9.141 -0.5754 -0.5876  0.1188
 5197SOL    HW127227   0.079   1.889   9.236 -0.7462 -1.6468 -0.0468
 5197SOL    HW227228   0.109   1.820   9.099 -0.4732 -0.6803  0.3558
 5198SOL     OW27229   0.421   2.717   9.515 -0.3359 -0.1840 -0.2689
 5198SOL    HW127230   0.435   2.810   9.532 -0.7450 -0.1779  0.0381
 5198SOL    HW227231   0.432   2.718   9.420  0.2947 -0.1190 -0.1907
 5199SOL     OW27232   2.215   3.174  12.656  0.4112  0.0269 -0.2663
 5199SOL    HW127233   2.296   3.147  12.700 -0.5945 -0.6878  1.1383
 5199SOL    HW227234   2.237   3.132  12.573  0.5622  1.0869 -0.7738
 5200SOL     OW27235   2.343   2.752   5.484  0.1288  0.8366  0.0889
 5200SOL    HW127236   2.265   2.789   5.525  1.1771  1.7955  1.2178
 5200SOL    HW227237   2.313   2.718   5.400 -0.9126  0.4154  0.6323
 5201SOL     OW27238   2.573   4.450   1.174  0.2796  0.1328  0.5997
 5201SOL    HW127239   2.486   4.487   1.159 -0.0275 -0.8687 -0.1188
 5201SOL    HW227240   2.629   4.522   1.201 -1.1794  1.1672  0.8541
 5202SOL     OW27241   3.561   3.656   0.374  0.4425 -0.0815 -0.2755
 5202SOL    HW127242   3.652   3.666   0.404 -0.2534 -2.0347  2.5041
 5202SOL    HW227243   3.542   3.563   0.384  1.7848 -0.2533  0.7578
 5203SOL     OW27244   0.117   1.414   2.598  0.2827 -0.0216 -0.2429
 5203SOL    HW127245   0.079   1.386   2.515 -1.7982 -0.0334  0.7017
 5203SOL    HW227246   0.199   1.366   2.609  0.4011  0.2751  0.1990
 5204SOL     OW27247   3.256   0.901   7.770  0.0884  0.3530  0.2958
 5204SOL    HW127248   3.166   0.873   7.788  0.0702 -0.6791 -1.3626
 5204SOL    HW227249   3.257   0.985   7.815 -0.9894 -0.0156  1.0065
 5205SOL     OW27250   0.860   1.753   6.512 -0.5813  0.6197 -0.4555
 5205SOL    HW127251   0.946   1.791   6.491 -0.4165  1.0168  0.9677
 5205SOL    HW227252   0.803   1.809   6.459 -1.9226  0.3161  0.6860
 5206SOL     OW27253   3.028   0.124   8.778  0.1479 -0.2285  0.4122
 5206SOL    HW127254   2.935   0.117   8.801  0.2578 -0.2212  0.8517
 5206SOL    HW227255   3.071   0.106   8.861  0.4267 -0.4249  0.2220
 5207SOL     OW27256   3.368   1.833  15.010  0.5833 -0.1290 -0.8056
 5207SOL    HW127257   3.406   1.841  14.923  1.7231 -0.4539 -0.3333
 5207SOL    HW227258   3.326   1.747  15.009  0.3843 -0.0382 -0.4115
 5208SOL     OW27259   0.984   3.987  10.181  0.0868 -0.0649  0.2430
 5208SOL    HW127260   1.035   4.022  10.254 -1.4865  0.9430  0.8608
 5208SOL    HW227261   0.993   4.053  10.112  0.0714 -0.7568 -0.4281
 5209SOL     OW27262   4.296   4.129  13.394 -0.4412  0.0841  0.1331
 5209SOL    HW127263   4.377   4.178  13.377 -0.1551 -0.3210  0.3187
 5209SOL    HW227264   4.288   4.165  13.482 -2.2566 -1.7820  0.7183
 5210SOL     OW27265   3.544   1.571  13.518  0.0515 -0.0532  0.2692
 5210SOL    HW127266   3.533   1.509  13.590  0.4985 -0.8326 -0.3359
 5210SOL    HW227267   3.579   1.649  13.562 -0.7750  1.1737 -1.2645
 5211SOL     OW27268   3.532   2.313   0.359  0.3232 -0.0978  0.0529
 5211SOL    HW127269   3.452   2.364   0.344  0.4960  0.1753  0.0666
 5211SOL    HW227270   3.586   2.379   0.403 -0.5438  0.3949  0.3826
 5212SOL     OW27271   4.560   3.073  11.460 -0.0066  0.0619  0.2112
 5212SOL    HW127272   4.617   3.000  11.483  0.8930  0.8050  0.3553
 5212SOL    HW227273   4.527   3.034  11.379  1.5447 -0.6164 -0.0986
 5213SOL     OW27274   2.769   2.283   2.065 -0.6429  0.7045 -0.1690
 5213SOL    HW127275   2.716   2.206   2.088 -2.0617  1.7683  0.1135
 5213SOL    HW227276   2.852   2.261   2.107 -1.1285  1.7030  1.2954
 5214SOL     OW27277   3.842   2.468   6.080  0.1013  0.2175  0.1061
 5214SOL    HW127278   3.923   2.419   6.062  0.0509 -0.2755  1.2857
 5214SOL    HW227279   3.774   2.439   6.019  0.2231  0.2457 -0.0432
 5215SOL     OW27280   1.558   3.820  13.046  0.2933 -0.3328  0.9616
 5215SOL    HW127281   1.573   3.733  13.084  1.6281 -0.1942  0.7579
 5215SOL    HW227282   1.646   3.857  13.053  0.6427 -1.2551  1.5187
 5216SOL     OW27283   3.900   4.668   3.859 -0.0989  0.7010  0.2793
 5216SOL    HW127284   3.971   4.727   3.832 -2.3106  3.2067 -0.0372
 5216SOL    HW227285   3.914   4.601   3.793 -0.9720 -0.3408  1.1497
 5217SOL     OW27286   0.286   1.277   4.354 -0.4148 -0.0313  0.0647
 5217SOL    HW127287   0.348   1.221   4.400  1.7557  1.7938 -0.5975
 5217SOL    HW227288   0.202   1.243   4.383 -0.2379 -1.2903 -0.9115
 5218SOL     OW27289   4.060   2.806  15.654  0.1831 -0.0299 -0.0418
 5218SOL    HW127290   4.001   2.805  15.578 -0.1277 -2.4917  0.2285
 5218SOL    HW227291   4.129   2.747  15.624 -1.5274 -1.9359 -0.2120
 5219SOL     OW27292   3.663   0.601   5.402  0.5248  0.5953  0.3813
 5219SOL    HW127293   3.742   0.603   5.455  0.3307 -1.8024  0.7581
 5219SOL    HW227294   3.626   0.670   5.458 -1.4298  1.1764 -1.6080
 5220SOL     OW27295   0.205   3.901  15.008  0.2860  0.0550  0.4135
 5220SOL    HW127296   0.254   3.913  15.090  2.3940  0.8960 -0.9650
 5220SOL    HW227297   0.143   3.973  15.013  0.3599  0.1146  0.4812
 5221SOL     OW27298   3.765   4.510   9.003 -0.2852 -0.2330 -0.1577
 5221SOL    HW127299   3.691   4.455   9.028 -0.4503 -0.3613 -0.9285
 5221SOL    HW227300   3.824   4.448   8.959 -1.4151 -0.9750 -0.6352
 5222SOL     OW27301   2.537   2.168   4.737  0.0686  0.2281  0.0396
 5222SOL    HW127302   2.572   2.254   4.764 -3.8802  1.6173  0.8124
 5222SOL    HW227303   2.503   2.194   4.652 -1.8451 -0.3548  0.6298
 5223SOL     OW27304   0.291   0.217  15.989  0.2838 -0.1950  0.8607
 5223SOL    HW127305   0.333   0.176  16.065  0.6696  0.4304  0.9860
 5223SOL    HW227306   0.223   0.272  16.026 -0.7648 -0.2108 -1.0278
 5224SOL     OW27307   1.049   3.544  11.974  0.2235 -0.4689  0.3674
 5224SOL    HW127308   0.961   3.571  11.945  1.3271  1.7561 -0.9014
 5224SOL    HW227309   1.088   3.538  11.887 -0.1888 -0.7838  0.2037
 5225SOL     OW27310   1.055   4.488   7.138 -0.0528  0.1665 -0.3202
 5225SOL    HW127311   1.036   4.395   7.125 -0.5933  0.3047 -0.4916
 5225SOL    HW227312   0.981   4.513   7.193  0.9883  0.5976  0.9131
 5226SOL     OW27313   2.543   2.308   6.682  0.1165  0.1462 -0.0896
 5226SOL    HW127314   2.606   2.239   6.664  1.4410  0.9536  1.6026
 5226SOL    HW227315   2.588   2.347   6.756 -0.5028  0.6563  0.0219
 5227SOL     OW27316   1.664   0.470   7.747  0.6535  0.4496  0.7050
 5227SOL    HW127317   1.691   0.550   7.793 -0.7576  1.6334 -0.5261
 5227SOL    HW227318   1.604   0.437   7.814 -0.6475 -0.7899 -1.0668
 5228SOL     OW27319   2.830   3.431   2.972  0.5602  0.0618 -0.1891
 5228SOL    HW127320   2.865   3.394   3.053 -3.6841  1.2408  2.1630
 5228SOL    HW227321   2.876   3.515   2.969 -0.2004  0.4368 -1.3291
 5229SOL     OW27322   3.703   0.656  17.277 -0.1296 -0.3952  0.4854
 5229SOL    HW127323   3.788   0.693  17.301  0.8630 -2.4432  0.2088
 5229SOL    HW227324   3.659   0.685  17.357 -0.5858  0.3168 -0.0225
 5230SOL     OW27325   3.103   4.475   4.153  0.5195 -0.1847 -0.3089
 5230SOL    HW127326   3.104   4.537   4.226 -0.9398  1.0657 -1.3424
 5230SOL    HW227327   3.048   4.404   4.186 -0.0028 -0.5112 -1.9079
 5231SOL     OW27328   3.164   0.026   7.222 -0.1719  0.0681 -0.6729
 5231SOL    HW127329   3.182   0.045   7.314  1.3415 -0.9591 -0.7465
 5231SOL    HW227330   3.250   0.035   7.181  0.4047  0.8370  0.6915
 5232SOL     OW27331   1.804   0.507   6.009  0.9100  0.0886  0.3384
 5232SOL    HW127332   1.749   0.555   6.072  1.8966  0.1816  1.1197
 5232SOL    HW227333   1.761   0.532   5.927 -2.4460 -0.5322  1.9120
 5233SOL     OW27334   4.357   4.693   4.660  0.7518 -0.3583  0.0113
 5233SOL    HW127335   4.401   4.672   4.742  0.2926 -2.1052 -0.1840
 5233SOL    HW227336   4.310   0.035   4.692  1.3739  0.6617 -1.5194
 5234SOL     OW27337   0.554   4.675   8.688 -0.0102  0.2035 -0.1690
 5234SOL    HW127338   0.532   4.604   8.628 -2.2052  1.0762 -0.3988
 5234SOL    HW227339   0.472   4.725   8.687 -0.3939 -0.4142  0.5850
 5235SOL     OW27340   4.091   2.101  10.387  0.4280  0.1736 -0.5377
 5235SOL    HW127341   4.166   2.138  10.433 -0.6697  1.7477 -0.0099
 5235SOL    HW227342   4.120   2.022  10.342  0.5151 -0.3711  0.4652
 5236SOL     OW27343   1.549   0.734   7.008  0.0581  0.5321 -0.0046
 5236SOL    HW127344   1.556   0.783   6.926  0.5340 -0.4575 -0.5514
 5236SOL    HW227345   1.512   0.807   7.058 -0.6075  0.1212  0.0993
 5237SOL     OW27346   3.854   2.275   1.981  0.2993 -0.0689 -0.4733
 5237SOL    HW127347   3.907   2.344   2.021  0.6478 -0.3686 -0.4085
 5237SOL    HW227348   3.853   2.308   1.891 -1.3849  1.5126  0.1322
 5238SOL     OW27349   2.268   0.443  11.517 -0.1696 -0.0224  0.6795
 5238SOL    HW127350   2.271   0.347  11.514 -2.7093 -0.1864  3.1318
 5238SOL    HW227351   2.272   0.453  11.612 -1.2416 -1.2148  0.8434
 5239SOL     OW27352   1.852   4.122   2.187  0.5049  0.2842  0.4097
 5239SOL    HW127353   1.813   4.209   2.187  0.7400  0.3773  2.7277
 5239SOL    HW227354   1.944   4.137   2.166 -0.3571  1.6314 -2.4446
 5240SOL     OW27355   2.918   1.833   3.959 -0.5124 -0.1373 -0.8964
 5240SOL    HW127356   2.953   1.809   3.874 -1.4182 -2.1241 -0.7053
 5240SOL    HW227357   2.869   1.913   3.937  0.4007  0.4619 -0.7547
 5241SOL     OW27358   1.336   0.784   7.964  0.2515 -0.1375  0.4097
 5241SOL    HW127359   1.254   0.828   7.987 -0.5641 -0.7011 -1.4618
 5241SOL    HW227360   1.396   0.857   7.951  1.1512 -0.5332  2.3044
 5242SOL     OW27361   4.041   2.638  10.299  0.8270 -0.6870  0.3625
 5242SOL    HW127362   3.949   2.640  10.272  0.9222  3.0206  0.3793
 5242SOL    HW227363   4.034   2.593  10.384 -0.0132 -2.0194 -0.4022
 5243SOL     OW27364   3.046   1.984   2.055 -0.1198 -0.1805 -0.5317
 5243SOL    HW127365   2.970   2.004   2.002 -1.2578 -0.4811  0.9716
 5243SOL    HW227366   2.999   1.951   2.132  0.4661  0.7470  0.2264
 5244SOL     OW27367   2.915   0.593   3.766  1.1098 -0.5457  0.2100
 5244SOL    HW127368   2.929   0.637   3.682 -0.5659  0.0576  0.2543
 5244SOL    HW227369   3.003   0.569   3.796  1.6561  0.8469 -0.3206
 5245SOL     OW27370   2.133   3.336  16.721 -0.2233 -0.4815  0.2267
 5245SOL    HW127371   2.216   3.364  16.682 -1.3490  1.1129 -1.0241
 5245SOL    HW227372   2.064   3.396  16.694  1.1472  1.5149  1.1782
 5246SOL     OW27373   2.664   1.570   1.928  0.0516 -0.5575 -0.1117
 5246SOL    HW127374   2.620   1.606   2.005 -1.5315 -2.7038 -0.0259
 5246SOL    HW227375   2.587   1.538   1.882  1.1865 -1.2411 -1.5409
 5247SOL     OW27376   0.709   0.410   4.689  0.0259  0.6907 -0.6692
 5247SOL    HW127377   0.731   0.380   4.777  0.7593 -2.3012 -1.8832
 5247SOL    HW227378   0.648   0.344   4.657 -0.5219  1.2598 -0.7958
 5248SOL     OW27379   4.569   4.386  15.235  0.2692 -0.1800 -0.0839
 5248SOL    HW127380   4.632   4.414  15.301 -0.7039  0.6269  0.5214
 5248SOL    HW227381   4.564   4.291  15.241  4.5669 -0.3486  0.5217
 5249SOL     OW27382   1.700   1.009   8.664  0.7481  0.5959 -0.0200
 5249SOL    HW127383   1.763   1.040   8.728  1.8482  0.1524 -0.8888
 5249SOL    HW227384   1.626   0.990   8.721  0.8116  0.3274 -0.0245
 5250SOL     OW27385   4.271   2.120   5.188  0.8300 -0.3364  0.1005
 5250SOL    HW127386   4.304   2.208   5.171 -1.0494 -0.2774 -3.1885
 5250SOL    HW227387   4.342   2.089   5.244  3.2239 -0.0640 -2.7901
 5251SOL     OW27388   2.768   2.034   2.553  0.4658 -0.0084  0.7781
 5251SOL    HW127389   2.836   2.097   2.578  0.9624  0.2413 -1.1717
 5251SOL    HW227390   2.689   2.068   2.595  0.5147  1.1891 -0.0992
 5252SOL     OW27391   1.901   2.204   1.263 -0.7254  0.0824  0.1412
 5252SOL    HW127392   1.876   2.124   1.217 -0.8674 -0.0425  0.4378
 5252SOL    HW227393   1.993   2.197   1.238 -0.4839  1.4553  0.6521
 5253SOL     OW27394   4.138   3.469  11.852  0.1985  0.0589  0.3388
 5253SOL    HW127395   4.166   3.439  11.766 -5.6017 -2.9471 -0.5096
 5253SOL    HW227396   4.211   3.520  11.888 -0.8097  0.6327  1.5550
 5254SOL     OW27397   4.261   3.571   2.748  0.4133  0.1907  0.0441
 5254SOL    HW127398   4.298   3.547   2.663 -0.0576 -1.3460  0.2716
 5254SOL    HW227399   4.313   3.650   2.763 -0.1890  0.3443  1.2759
 5255SOL     OW27400   0.508   0.719   2.873  0.0013 -0.6249 -0.1044
 5255SOL    HW127401   0.484   0.776   2.947 -1.6380 -0.1751 -0.9852
 5255SOL    HW227402   0.591   0.757   2.844 -0.5083 -0.3974 -1.2613
 5256SOL     OW27403   4.614   4.236   7.609 -0.3575 -0.0672 -0.1679
 5256SOL    HW127404   4.624   4.157   7.663 -1.5493  1.1199  1.7843
 5256SOL    HW227405   4.641   4.182   7.535 -1.3396 -1.2893  0.3698
 5257SOL     OW27406   3.554   0.896   7.820 -0.2456 -0.6070  0.4808
 5257SOL    HW127407   3.517   0.933   7.739 -0.6840  0.0732  0.9952
 5257SOL    HW227408   3.495   0.921   7.891 -0.1644 -0.6266  0.5551
 5258SOL     OW27409   1.050   3.406   4.683 -0.6370  0.3182  0.6581
 5258SOL    HW127410   1.091   3.490   4.704  0.5650 -0.4056  1.2409
 5258SOL    HW227411   1.053   3.410   4.587 -2.0978 -0.0691  0.5926
 5259SOL     OW27412   2.082   4.680   9.028 -0.2384  0.4426  0.5954
 5259SOL    HW127413   2.034   4.669   9.111 -0.4194 -0.6614  0.3546
 5259SOL    HW227414   2.024   4.635   8.967 -1.6291  0.9071  1.5680
 5260SOL     OW27415   2.709   1.604   4.475  0.0926 -0.0482  0.0124
 5260SOL    HW127416   2.636   1.667   4.469  2.0098  2.0323 -1.1472
 5260SOL    HW227417   2.766   1.636   4.545 -0.4524 -0.9520  0.8732
 5261SOL     OW27418   4.362   1.940   3.630  0.7576 -0.0842 -0.5974
 5261SOL    HW127419   4.341   1.945   3.537 -0.7346  1.8135 -0.1355
 5261SOL    HW227420   4.458   1.941   3.640  0.4626  1.5021  2.0710
 5262SOL     OW27421   1.247   3.186  15.353  0.0949  0.1671 -0.0364
 5262SOL    HW127422   1.335   3.173  15.319 -1.0852  1.7475 -3.6430
 5262SOL    HW227423   1.261   3.249  15.424 -0.7561 -0.4795  0.7090
 5263SOL     OW27424   2.969   4.249   0.529 -0.1686 -0.2409  0.7985
 5263SOL    HW127425   3.007   4.186   0.468 -2.1402 -1.9307  1.3351
 5263SOL    HW227426   3.028   4.324   0.533  0.1651 -0.4223 -0.6621
 5264SOL     OW27427   4.467   2.330   5.151 -0.6722 -0.4679  0.2531
 5264SOL    HW127428   4.485   2.304   5.060 -0.7963  2.1241 -0.5193
 5264SOL    HW227429   4.453   2.424   5.139 -0.9074 -0.4295  0.8269
 5265SOL     OW27430   4.517   2.534   1.288 -0.2786 -0.0405 -0.2984
 5265SOL    HW127431   4.481   2.605   1.236  0.3105  1.5709  1.5188
 5265SOL    HW227432   4.473   2.460   1.245 -1.7676  1.0437 -0.6255
 5266SOL     OW27433   0.324   0.338   2.510 -0.1894 -0.0464 -0.0356
 5266SOL    HW127434   0.341   0.418   2.460  0.6376  0.2466  0.7254
 5266SOL    HW227435   0.310   0.384   2.592 -0.3294  0.7358 -0.4951
 5267SOL     OW27436   3.271   2.056   3.576  0.2472  0.8692 -0.2006
 5267SOL    HW127437   3.227   1.992   3.520 -2.0531  0.4329  2.0970
 5267SOL    HW227438   3.231   2.045   3.663  0.5977 -0.9906 -0.2678
 5268SOL     OW27439   0.681   1.387  10.633 -0.2241 -0.1895 -0.4482
 5268SOL    HW127440   0.697   1.448  10.705  0.1858  1.4810 -1.9502
 5268SOL    HW227441   0.723   1.307  10.663  0.6784  0.4973  0.1134
 5269SOL     OW27442   2.711   3.987   6.569  0.2606 -0.0328 -0.4436
 5269SOL    HW127443   2.712   4.083   6.576 -0.5619  0.1314 -2.6282
 5269SOL    HW227444   2.804   3.967   6.577  0.5956  2.3883  1.7957
 5270SOL     OW27445   1.478   4.177   8.725 -0.4745  0.1937 -0.0952
 5270SOL    HW127446   1.418   4.230   8.673 -1.3604 -0.9455 -0.2316
 5270SOL    HW227447   1.490   4.238   8.798 -0.3356  0.0386  0.0119
 5271SOL     OW27448   1.786   4.302   5.779  0.3806  0.8400  0.3096
 5271SOL    HW127449   1.731   4.232   5.815  1.8161  0.3777  1.6146
 5271SOL    HW227450   1.822   4.270   5.696  0.5469  0.5163  0.5075
 5272SOL     OW27451   3.254   4.616   5.032  0.0034  0.2657  0.1025
 5272SOL    HW127452   3.231   4.535   5.077 -0.3516  0.5722  0.4635
 5272SOL    HW227453   3.178   4.613   4.974  0.2075 -0.4002 -0.1291
 5273SOL     OW27454   3.941   4.164   5.393 -0.0858 -0.1690  0.2596
 5273SOL    HW127455   3.982   4.158   5.306 -1.6038  1.2218 -0.5515
 5273SOL    HW227456   4.018   4.123   5.432  1.1478  0.6345 -1.3382
 5274SOL     OW27457   1.532   3.028  14.776 -0.0495 -0.6230 -0.1307
 5274SOL    HW127458   1.438   3.012  14.779 -0.0154 -0.9457 -0.8236
 5274SOL    HW227459   1.559   2.949  14.730 -1.3815 -0.3864 -1.3131
 5275SOL     OW27460   3.856   2.397   6.935  0.1699 -0.3823  0.6611
 5275SOL    HW127461   3.939   2.418   6.890 -1.6400  0.7421 -2.1627
 5275SOL    HW227462   3.896   2.370   7.018 -0.0352  0.0315  0.8961
 5276SOL     OW27463   2.212   3.572   2.392 -0.3244 -0.8166 -0.5099
 5276SOL    HW127464   2.200   3.493   2.341  0.5487 -0.0036 -1.9673
 5276SOL    HW227465   2.128   3.612   2.370 -0.8933 -1.8703 -0.2277
 5277SOL     OW27466   4.289   3.709   5.074 -0.0070 -0.6167  0.0115
 5277SOL    HW127467   4.242   3.662   5.144 -2.4487 -0.1591 -1.3067
 5277SOL    HW227468   4.274   3.798   5.106 -1.4999 -0.7007 -0.4460
 5278SOL     OW27469   2.623   2.396   6.436 -0.4378 -0.5996 -1.0599
 5278SOL    HW127470   2.580   2.363   6.357 -1.7300  1.4246 -1.2002
 5278SOL    HW227471   2.552   2.373   6.495 -0.4694  0.0326 -0.8452
 5279SOL     OW27472   3.795   2.624  12.419 -0.6471 -0.1284  0.1883
 5279SOL    HW127473   3.748   2.707  12.407  0.3776  0.2629 -1.1064
 5279SOL    HW227474   3.746   2.588  12.493 -0.2198 -1.2331 -0.0705
 5280SOL     OW27475   1.714   2.742   6.338 -0.0549 -0.0665  0.3789
 5280SOL    HW127476   1.711   2.783   6.425 -1.5053  0.6413  0.0064
 5280SOL    HW227477   1.623   2.718   6.321  0.2185 -1.8131  1.4920
 5281SOL     OW27478   4.466   2.108  16.800 -0.8409 -0.7021  0.2670
 5281SOL    HW127479   4.431   2.197  16.801  1.1488  0.0113  5.2565
 5281SOL    HW227480   4.382   2.064  16.812 -0.3130 -1.0045  2.8526
 5282SOL     OW27481   1.338   3.641  10.615 -0.0942  1.0655 -0.8877
 5282SOL    HW127482   1.427   3.615  10.593 -0.2980 -0.0725 -0.3959
 5282SOL    HW227483   1.324   3.601  10.701  1.3837 -0.0003 -1.1463
 5283SOL     OW27484   4.706   4.452   7.737  0.1237 -0.3005  0.6158
 5283SOL    HW127485   0.060   4.437   7.707 -0.5889 -0.0297 -1.6495
 5283SOL    HW227486   4.662   4.403   7.667 -1.9260  1.2336  0.8204
 5284SOL     OW27487   2.835   0.129  15.275 -0.0538  0.3732 -0.2464
 5284SOL    HW127488   2.783   0.203  15.245  0.7383  1.9906  2.3970
 5284SOL    HW227489   2.903   0.193  15.299 -1.9938  1.4119  2.4835
 5285SOL     OW27490   2.581   2.142   8.515 -0.1204  0.1225 -0.0101
 5285SOL    HW127491   2.602   2.068   8.571  0.8163  0.7457  0.4682
 5285SOL    HW227492   2.496   2.112   8.481 -0.1196  0.2595 -0.1341
 5286SOL     OW27493   4.401   4.685   7.389 -0.1779  0.0870  0.1571
 5286SOL    HW127494   4.415   4.686   7.484  2.4903 -0.4883 -0.2238
 5286SOL    HW227495   4.422   4.595   7.364  0.3916  0.4684 -0.7358
 5287SOL     OW27496   0.325   2.554   5.055  0.4062  0.6162 -0.1835
 5287SOL    HW127497   0.286   2.469   5.035  0.2053  0.9823 -1.3484
 5287SOL    HW227498   0.411   2.538   5.017 -0.2658 -0.6196 -1.1641
 5288SOL     OW27499   0.207   2.424   8.450  0.0273 -0.4786 -0.0849
 5288SOL    HW127500   0.265   2.425   8.374 -1.3485 -0.7621 -1.1372
 5288SOL    HW227501   0.257   2.392   8.525  1.5050  1.3907 -0.2748
 5289SOL     OW27502   0.081   1.413   4.836  0.1071 -0.3668 -0.1333
 5289SOL    HW127503   0.134   1.445   4.909  0.0440  2.7314 -1.4775
 5289SOL    HW227504   0.002   1.399   4.888  1.7446 -1.6984  2.0171
 5290SOL     OW27505   0.763   0.674   3.465  0.0544  0.3494  0.3599
 5290SOL    HW127506   0.758   0.623   3.545  1.0118  0.0472  0.2269
 5290SOL    HW227507   0.813   0.748   3.501  2.0421 -0.5136 -0.6453
 5291SOL     OW27508   3.304   1.683   9.449  0.0753  0.3226 -0.3026
 5291SOL    HW127509   3.334   1.638   9.528 -0.6540 -2.4611 -1.6202
 5291SOL    HW227510   3.209   1.684   9.454 -0.0337 -2.9198 -1.7757
 5292SOL     OW27511   3.520   0.611   7.746 -0.5422  0.3303 -0.3784
 5292SOL    HW127512   3.487   0.698   7.770  0.7371  1.1354 -1.5504
 5292SOL    HW227513   3.439   0.559   7.751 -1.5047  2.0167  1.7902
 5293SOL     OW27514   2.926   0.421   6.406  0.6224  0.1473  0.0091
 5293SOL    HW127515   2.860   0.431   6.337  2.3396  3.4175 -1.1534
 5293SOL    HW227516   2.980   0.497   6.386  0.6731  0.2660  0.6075
 5294SOL     OW27517   0.038   3.489   4.149 -0.4019  0.1953 -0.7210
 5294SOL    HW127518   0.053   3.449   4.063 -2.1488  1.1310 -1.4506
 5294SOL    HW227519   4.732   3.417   4.197 -0.0231 -1.6259 -3.1222
 5295SOL     OW27520   1.904   1.466  12.795  0.6809  0.0175 -0.1835
 5295SOL    HW127521   1.930   1.379  12.826 -1.2060 -0.0907  1.0360
 5295SOL    HW227522   1.935   1.467  12.704  1.4370 -1.0247  0.0550
 5296SOL     OW27523   3.688   0.758   4.722  0.2473  0.4217  0.1929
 5296SOL    HW127524   3.645   0.709   4.652  2.8139 -0.9972 -0.3798
 5296SOL    HW227525   3.679   0.846   4.685 -0.2415 -0.0561 -0.8061
 5297SOL     OW27526   4.579   3.770   3.941  0.4634  0.1099  0.2763
 5297SOL    HW127527   4.500   3.782   3.995  2.2394  1.8343  2.4634
 5297SOL    HW227528   4.645   3.758   4.009  2.4533 -1.9603 -2.0089
 5298SOL     OW27529   1.258   4.221   0.221  0.0497  0.5221  0.2974
 5298SOL    HW127530   1.255   4.201   0.314  2.1705  2.4996  0.7821
 5298SOL    HW227531   1.299   4.307   0.226 -0.0720  0.6923 -1.4365
 5299SOL     OW27532   3.054   1.087   2.730  0.0535 -0.5395  0.6986
 5299SOL    HW127533   3.076   1.171   2.689 -0.7188 -0.5440  0.2848
 5299SOL    HW227534   3.135   1.040   2.706  0.4943  0.5738 -0.0107
 5300SOL     OW27535   2.788   2.048   9.012  0.0511  0.0523  0.0396
 5300SOL    HW127536   2.693   2.035   9.018  0.2785 -0.6459  1.9704
 5300SOL    HW227537   2.814   2.122   9.067 -2.7566 -0.1571  1.6314
 5301SOL     OW27538   0.522   1.373   2.839  0.1419  0.4901 -0.1976
 5301SOL    HW127539   0.548   1.448   2.892 -0.0427  0.5500 -0.1922
 5301SOL    HW227540   0.608   1.340   2.813  1.0091  4.0563 -1.8737
 5302SOL     OW27541   3.387   0.556   5.600  0.0877 -0.5001 -0.4570
 5302SOL    HW127542   3.319   0.546   5.534 -0.9746 -0.5510  0.6553
 5302SOL    HW227543   3.436   0.625   5.555 -1.1285  1.1223  0.7236
 5303SOL     OW27544   2.303   4.416  13.806  0.1368 -0.0161  0.1026
 5303SOL    HW127545   2.266   4.393  13.720  0.1632  0.2875  0.0108
 5303SOL    HW227546   2.380   4.359  13.801 -0.4118 -0.6156 -1.5136
 5304SOL     OW27547   0.330   1.346   3.507  0.1499  0.3674  0.3369
 5304SOL    HW127548   0.279   1.416   3.466  0.4207  0.8790  0.8804
 5304SOL    HW227549   0.293   1.327   3.593 -2.3550  2.5217 -0.2764
 5305SOL     OW27550   2.011   1.368  14.894  0.0788 -0.0104  0.0505
 5305SOL    HW127551   2.100   1.398  14.914  0.2811 -1.7354  1.7303
 5305SOL    HW227552   2.022   1.353  14.800  0.1089  0.3354 -0.0014
 5306SOL     OW27553   3.726   1.172   6.082 -0.1916 -0.0405 -0.4290
 5306SOL    HW127554   3.661   1.102   6.070 -0.3943 -0.1914  1.5947
 5306SOL    HW227555   3.786   1.131   6.145  0.3351  1.4126 -0.0037
 5307SOL     OW27556   1.426   4.334   1.635 -0.6402  0.3512  0.2365
 5307SOL    HW127557   1.363   4.316   1.566  0.6526  3.4934 -1.7362
 5307SOL    HW227558   1.432   4.430   1.635  0.5236  0.2716  2.9242
 5308SOL     OW27559   4.514   4.578  11.788 -0.9924 -0.1766  0.3976
 5308SOL    HW127560   4.583   4.619  11.840 -0.3284 -1.0284  0.1826
 5308SOL    HW227561   4.480   4.518  11.854  0.4161 -0.4524  0.8685
 5309SOL     OW27562   3.804   2.035   3.463  0.0600  0.4663 -0.1461
 5309SOL    HW127563   3.739   1.978   3.423  0.2092  0.3098 -0.1679
 5309SOL    HW227564   3.810   2.094   3.388 -3.3037  0.1876 -0.6020
 5310SOL     OW27565   4.551   2.398   2.392  0.5121 -0.3026  0.1602
 5310SOL    HW127566   4.572   2.374   2.483 -1.6712  2.7013  1.4626
 5310SOL    HW227567   4.569   2.312   2.354 -1.6577 -1.2750  1.3108
 5311SOL     OW27568   3.760   0.158   2.297 -0.1751  0.2770  0.5740
 5311SOL    HW127569   3.731   0.130   2.384  0.3114 -0.6013  0.4454
 5311SOL    HW227570   3.697   0.226   2.274 -2.8180 -1.2159  3.3633
 5312SOL     OW27571   4.448   2.795   4.291  0.2676 -0.5954 -0.2178
 5312SOL    HW127572   4.374   2.818   4.347  0.4621  0.4114 -0.3736
 5312SOL    HW227573   4.427   2.706   4.260  1.9556 -1.2516  0.5410
 5313SOL     OW27574   1.006   4.558   0.793 -0.0144  0.4671  0.3663
 5313SOL    HW127575   1.090   4.546   0.837 -1.2148 -2.0061  2.0099
 5313SOL    HW227576   0.950   4.559   0.870  0.2842 -2.4725  0.6519
 5314SOL     OW27577   1.453   4.165   7.188 -0.4925 -0.0565 -0.0624
 5314SOL    HW127578   1.440   4.071   7.181  0.1529 -0.2246  0.9766
 5314SOL    HW227579   1.545   4.171   7.217 -0.0915 -0.0647 -1.3541
 5315SOL     OW27580   3.217   0.834   3.524  0.1307  0.2537 -0.2083
 5315SOL    HW127581   3.199   0.750   3.483 -1.3848  1.6440 -2.4010
 5315SOL    HW227582   3.179   0.823   3.611 -0.3985  1.2708 -0.3124
 5316SOL     OW27583   0.325   0.377   9.579 -0.0797  0.0460 -0.1682
 5316SOL    HW127584   0.388   0.323   9.531  0.6850 -0.5503  1.4816
 5316SOL    HW227585   0.313   0.449   9.518 -4.1149 -0.5509 -0.0937
 5317SOL     OW27586   4.127   4.631   4.064  0.2432  0.4076 -0.7589
 5317SOL    HW127587   4.088   4.647   3.978 -1.1570  2.0231  0.1882
 5317SOL    HW227588   4.054   4.661   4.119  1.2870  0.5737  0.5290
 5318SOL     OW27589   1.562   3.003   6.725 -0.5236  0.1554 -0.1754
 5318SOL    HW127590   1.650   2.968   6.710 -0.1467  0.5336  1.2022
 5318SOL    HW227591   1.537   2.956   6.804  0.1145  0.3108  0.1163
 5319SOL     OW27592   1.447   3.888   2.586  0.2036 -0.2936  0.3903
 5319SOL    HW127593   1.366   3.939   2.579 -1.8884 -3.3037  2.5097
 5319SOL    HW227594   1.505   3.954   2.548  0.6063  0.1283  1.7149
 5320SOL     OW27595   3.777   0.984  10.013  0.1256  0.1337 -0.1244
 5320SOL    HW127596   3.784   1.068   9.968  0.2206 -0.9281 -2.0793
 5320SOL    HW227597   3.688   0.955   9.995  0.1131  1.1619 -1.6583
 5321SOL     OW27598   3.977   1.425   5.777 -0.3505 -0.0179 -0.3596
 5321SOL    HW127599   4.007   1.449   5.865  2.8825 -2.4499 -0.8042
 5321SOL    HW227600   4.040   1.463   5.716  0.4212  0.2240  0.5964
 5322SOL     OW27601   1.169   4.089   6.635  0.0214  0.2324  0.6258
 5322SOL    HW127602   1.117   4.011   6.652 -1.3727  1.2395  1.0682
 5322SOL    HW227603   1.240   4.059   6.580 -0.7771  1.4049 -1.0315
 5323SOL     OW27604   4.625   2.230  11.136  0.0100 -0.3379 -1.1951
 5323SOL    HW127605   4.590   2.288  11.203  1.6786 -0.5435 -0.1611
 5323SOL    HW227606   4.583   2.149  11.164  0.4821 -0.1844 -0.0456
 5324SOL     OW27607   1.320   1.766   6.026 -0.7368 -0.4431 -0.2806
 5324SOL    HW127608   1.286   1.802   5.944 -1.5500  0.8537  0.6257
 5324SOL    HW227609   1.307   1.840   6.085  0.9089  0.1223 -0.6143
 5325SOL     OW27610   0.256   0.428   3.664  0.4947 -0.0378 -0.1420
 5325SOL    HW127611   0.228   0.373   3.737  1.0301  0.5242  0.4790
 5325SOL    HW227612   0.219   0.376   3.592 -0.3414 -1.8845  1.6056
 5326SOL     OW27613   1.729   4.514   5.198  0.5829 -0.5443 -0.2809
 5326SOL    HW127614   1.753   4.447   5.262  0.7132 -0.7244 -0.5222
 5326SOL    HW227615   1.805   4.571   5.212 -0.6964  1.0066  0.4177
 5327SOL     OW27616   1.647   2.040   2.264  0.1775  0.3292 -0.0307
 5327SOL    HW127617   1.618   2.027   2.174  0.2344  0.2221 -0.0325
 5327SOL    HW227618   1.730   1.993   2.268 -0.8888 -1.3968  1.2129
 5328SOL     OW27619   0.705   4.112   1.692  0.2860  0.2965 -0.2122
 5328SOL    HW127620   0.662   4.026   1.693  0.5365  0.1750  0.4236
 5328SOL    HW227621   0.626   4.150   1.654  0.8592  0.3463 -1.3482
 5329SOL     OW27622   4.345   0.117   1.889  0.0862 -0.2198  0.0669
 5329SOL    HW127623   4.440   0.118   1.898 -0.0938  0.9431  1.8049
 5329SOL    HW227624   4.325   0.211   1.893 -0.2657 -0.2690 -0.4647
 5330SOL     OW27625   0.431   3.491   4.978 -0.0647  0.3826  0.4373
 5330SOL    HW127626   0.400   3.582   4.986 -2.9895 -0.3997 -2.2449
 5330SOL    HW227627   0.482   3.483   4.898 -0.1300 -1.8697  0.6333
 5331SOL     OW27628   3.410   1.595  11.473  0.8150 -0.0599 -0.2922
 5331SOL    HW127629   3.455   1.514  11.448 -2.1102 -2.2098  1.4881
 5331SOL    HW227630   3.448   1.614  11.558 -0.5697 -0.7503  0.4697
 5332SOL     OW27631   2.867   1.992  16.849  0.2233 -0.4613 -0.0353
 5332SOL    HW127632   2.859   1.897  16.854  0.8428 -0.6435 -2.5379
 5332SOL    HW227633   2.812   2.011  16.774 -1.5244  0.2480  1.4218
 5333SOL     OW27634   2.034   0.671   0.987  0.1951 -0.2020 -0.4186
 5333SOL    HW127635   1.998   0.751   0.949 -1.0027  0.3860  1.9515
 5333SOL    HW227636   2.005   0.606   0.923  0.4569 -3.1119  2.3973
 5334SOL     OW27637   0.472   2.287   4.169 -0.5893 -0.8723 -0.0917
 5334SOL    HW127638   0.534   2.325   4.106 -1.7550  0.5103 -0.4043
 5334SOL    HW227639   0.402   2.269   4.106 -1.9865 -1.6014  1.6833
 5335SOL     OW27640   2.912   1.426  10.113 -0.0069 -0.4002  0.2905
 5335SOL    HW127641   2.838   1.479  10.083 -1.1140 -2.0310  0.1079
 5335SOL    HW227642   2.947   1.460  10.195 -0.7198  0.4276  0.2560
 5336SOL     OW27643   0.793   4.115   3.263  0.1166  0.2371 -0.2748
 5336SOL    HW127644   0.747   4.044   3.307 -0.1883 -1.2787 -3.0564
 5336SOL    HW227645   0.719   4.144   3.209  0.0157  0.8923  0.2135
 5337SOL     OW27646   4.398   0.998   8.707  0.1924 -0.1969  0.4977
 5337SOL    HW127647   4.376   0.948   8.786 -0.8351 -1.4473 -0.5812
 5337SOL    HW227648   4.428   1.083   8.740 -0.1199  0.1698 -0.1601
 5338SOL     OW27649   2.086   3.526   3.407  0.7936 -0.2860 -0.3067
 5338SOL    HW127650   2.125   3.587   3.470 -0.0794 -1.2254  1.1269
 5338SOL    HW227651   2.086   3.577   3.326 -0.2550 -1.3011 -0.9335
 5339SOL     OW27652   0.686   2.191  14.137 -0.1429 -0.2573  0.2371
 5339SOL    HW127653   0.679   2.286  14.134 -0.2503 -0.2724  0.0495
 5339SOL    HW227654   0.775   2.182  14.104  0.3998  1.6247  1.1804
 5340SOL     OW27655   4.082   3.504   4.902 -0.6968 -0.2095 -0.1095
 5340SOL    HW127656   4.137   3.452   4.843  0.9684  2.4936 -0.9114
 5340SOL    HW227657   4.000   3.455   4.904 -0.2728 -0.8592  0.9915
 5341SOL     OW27658   1.741   2.842   3.690  0.0532 -0.4611  0.1753
 5341SOL    HW127659   1.796   2.767   3.669  0.7196 -0.2499  1.1574
 5341SOL    HW227660   1.789   2.915   3.652 -0.9476  0.1586  0.0815
 5342SOL     OW27661   4.311   3.322   7.887  0.0073 -0.3921  0.4890
 5342SOL    HW127662   4.331   3.403   7.936 -2.1516  0.2589  0.2794
 5342SOL    HW227663   4.219   3.332   7.865  0.2141 -0.6669 -0.4857
 5343SOL     OW27664   1.587   4.433   2.893  0.0936 -0.4513  0.2724
 5343SOL    HW127665   1.673   4.393   2.879 -0.5097 -1.7576  0.3063
 5343SOL    HW227666   1.541   4.420   2.810 -0.6093  2.2477  0.2417
 5344SOL     OW27667   3.238   0.028   9.558 -0.0503  0.1092  0.5566
 5344SOL    HW127668   3.331   0.008   9.549  0.6588  3.0506  1.0988
 5344SOL    HW227669   3.196   4.678   9.568  1.2764 -0.2611  2.9168
 5345SOL     OW27670   0.352   1.187   5.984 -0.8444  0.3090 -0.5334
 5345SOL    HW127671   0.375   1.162   6.074 -0.3421 -1.5811 -1.2083
 5345SOL    HW227672   0.267   1.228   5.998 -0.5481  0.5184  0.6380
 5346SOL     OW27673   3.507   1.735  13.979  0.2755  0.0171 -0.2567
 5346SOL    HW127674   3.597   1.733  14.012  0.1005  2.8927  0.3302
 5346SOL    HW227675   3.471   1.659  14.025 -1.7277  0.4984 -1.0653
 5347SOL     OW27676   1.924   2.853  17.253 -0.3565  0.0443  0.3611
 5347SOL    HW127677   1.871   2.867  17.331  0.7291  3.2192  0.5381
 5347SOL    HW227678   2.003   2.809  17.285  1.0188  1.9495 -0.4053
 5348SOL     OW27679   2.112   3.499   8.694  0.2328  0.3447  0.5191
 5348SOL    HW127680   2.171   3.558   8.647 -1.2286  0.5638 -1.0091
 5348SOL    HW227681   2.027   3.511   8.653 -0.0376 -2.4659  0.2373
 5349SOL     OW27682   3.751   3.057   4.475 -0.0521  0.3295  0.0340
 5349SOL    HW127683   3.796   3.114   4.414 -0.9737 -1.3444 -2.2138
 5349SOL    HW227684   3.659   3.049   4.449 -0.0281 -0.0045  0.0453
 5350SOL     OW27685   0.061   3.350  10.641 -0.1779  0.2056  0.2034
 5350SOL    HW127686   4.708   3.387  10.645  0.0844  0.5395  2.5381
 5350SOL    HW227687   0.093   3.348  10.731  0.2115 -0.7209  0.0371
 5351SOL     OW27688   4.177   0.471  10.243 -0.4079 -0.0374 -0.1554
 5351SOL    HW127689   4.143   0.541  10.298  0.2052  0.6018 -0.5887
 5351SOL    HW227690   4.101   0.424  10.210  0.8980 -1.3806 -1.3122
 5352SOL     OW27691   1.597   3.434   6.252 -0.1303 -0.1504 -0.0849
 5352SOL    HW127692   1.509   3.445   6.217  0.2593 -1.5197 -1.4838
 5352SOL    HW227693   1.647   3.402   6.176  0.2550 -0.3917  0.2694
 5353SOL     OW27694   4.004   4.463  12.247  0.0650  0.1466  0.5838
 5353SOL    HW127695   3.913   4.435  12.252  0.1761 -0.5517 -1.3427
 5353SOL    HW227696   3.999   4.552  12.283  0.5148  0.5994 -0.4784
 5354SOL     OW27697   3.080   3.305  10.024 -0.3356 -0.7067  0.8868
 5354SOL    HW127698   3.096   3.305  10.118  0.4813 -1.0572  0.7467
 5354SOL    HW227699   3.102   3.394   9.997 -3.3612 -0.3288 -0.3181
 5355SOL     OW27700   3.467   3.407  17.585 -0.7158  0.2241 -0.0043
 5355SOL    HW127701   3.516   3.331  17.553 -1.4513 -0.1010 -0.3688
 5355SOL    HW227702   3.540   3.466  17.602 -0.8757  1.0508 -2.1687
 5356SOL     OW27703   0.441   3.758  17.080 -0.5944  0.2671  0.6143
 5356SOL    HW127704   0.432   3.819  17.154  1.5754 -1.4855  2.3176
 5356SOL    HW227705   0.503   3.697  17.119 -0.8015 -0.5564 -0.3642
 5357SOL     OW27706   3.949   4.308   6.300 -0.1222  0.1392  0.0817
 5357SOL    HW127707   3.919   4.220   6.276  0.1423  0.2443 -0.6446
 5357SOL    HW227708   3.946   4.355   6.216 -1.2616 -1.5606 -0.8232
 5358SOL     OW27709   4.466   2.938   3.818 -0.2910 -0.1999 -0.0745
 5358SOL    HW127710   4.427   2.949   3.731  0.0917 -0.3260 -0.2594
 5358SOL    HW227711   4.504   3.025   3.832  1.2870 -1.0435  0.8356
 5359SOL     OW27712   1.651   0.700   0.966  0.3233 -0.4785  0.2571
 5359SOL    HW127713   1.603   0.655   0.896  0.3075 -0.8658  0.5153
 5359SOL    HW227714   1.708   0.755   0.913  1.1315 -0.5473  1.0553
 5360SOL     OW27715   0.784   4.455   5.749  0.0772  0.2578  0.0148
 5360SOL    HW127716   0.837   4.519   5.701 -2.3158  1.5072 -0.9470
 5360SOL    HW227717   0.827   4.373   5.724 -1.1789 -0.4684  0.2358
 5361SOL     OW27718   1.990   3.138   4.047  0.5094  0.4671 -0.3789
 5361SOL    HW127719   1.936   3.138   4.125 -1.3561 -0.3031 -1.6739
 5361SOL    HW227720   2.031   3.052   4.058 -1.0215 -0.4868 -2.1295
 5362SOL     OW27721   3.803   3.717   7.516  0.3188  0.1346  0.1664
 5362SOL    HW127722   3.819   3.626   7.490  1.9393  0.6855 -0.7680
 5362SOL    HW227723   3.894   3.745   7.508  0.8003 -0.7514  2.3434
 5363SOL     OW27724   1.161   1.437   2.517 -0.6351 -0.2122 -0.3256
 5363SOL    HW127725   1.197   1.367   2.571  1.9274  0.2994 -1.3831
 5363SOL    HW227726   1.213   1.514   2.539  2.3737 -2.5837  0.7949
 5364SOL     OW27727   3.228   1.773   7.203  0.4153  0.2963  0.5250
 5364SOL    HW127728   3.158   1.838   7.198  1.2030  1.2518  2.1360
 5364SOL    HW227729   3.219   1.731   7.118 -0.1603  0.3925  0.5388
 5365SOL     OW27730   0.761   1.494   8.020 -0.3114  0.7870  0.0389
 5365SOL    HW127731   0.710   1.474   7.942  1.3093 -0.6339 -0.6650
 5365SOL    HW227732   0.799   1.578   7.996  0.6435  0.4092  0.2232
 5366SOL     OW27733   3.840   1.087   3.828 -0.2706 -0.0718  0.5734
 5366SOL    HW127734   3.850   1.124   3.740 -1.2310 -1.8061 -0.2523
 5366SOL    HW227735   3.835   1.170   3.876  0.4027  0.0802  0.3852
 5367SOL     OW27736   1.379   2.014   9.131 -0.1158  0.4280  0.4409
 5367SOL    HW127737   1.340   2.096   9.163 -0.7756  0.6976 -1.0235
 5367SOL    HW227738   1.465   2.018   9.172  0.7162  4.4787 -1.7465
 5368SOL     OW27739   0.656   1.496   5.178 -0.1695  0.0515  0.5709
 5368SOL    HW127740   0.662   1.544   5.096  0.7200 -0.5776  0.2725
 5368SOL    HW227741   0.745   1.483   5.210  0.3259  0.6867 -0.5743
 5369SOL     OW27742   4.138   0.743   4.974  0.3213 -0.0918  0.1327
 5369SOL    HW127743   4.073   0.736   4.904  0.0656 -1.9348  0.5616
 5369SOL    HW227744   4.144   0.652   5.003  0.9616 -0.7827 -2.1384
 5370SOL     OW27745   4.062   3.522   7.917 -0.0048  0.5221 -0.5267
 5370SOL    HW127746   4.074   3.574   7.997  1.1506 -2.2715  1.1105
 5370SOL    HW227747   3.980   3.476   7.934  0.9717 -0.3296  1.9468
 5371SOL     OW27748   0.814   4.082   9.341  0.4276  0.4119 -0.4792
 5371SOL    HW127749   0.848   4.064   9.429  2.6902 -0.4599 -1.5347
 5371SOL    HW227750   0.852   4.169   9.329 -2.6074  1.5510 -1.8122
 5372SOL     OW27751   0.399   0.586   1.868 -0.1640 -0.4196  0.1670
 5372SOL    HW127752   0.333   0.641   1.825  1.8452  0.8930 -1.2306
 5372SOL    HW227753   0.357   0.500   1.871 -0.0050 -0.4441  1.8766
 5373SOL     OW27754   1.241   1.970   3.231 -0.0532  0.2346 -0.6394
 5373SOL    HW127755   1.179   1.903   3.204  0.0653 -0.0933 -0.0876
 5373SOL    HW227756   1.201   2.047   3.190  2.7819  1.4960 -1.1014
 5374SOL     OW27757   4.203   3.581   3.689 -0.6096 -0.6031  0.1335
 5374SOL    HW127758   4.133   3.587   3.753  0.3506  0.1189  1.1128
 5374SOL    HW227759   4.280   3.627   3.723 -0.8908 -1.0500  1.3680
 5375SOL     OW27760   0.418   1.972   9.889  0.4323 -0.5600 -0.2749
 5375SOL    HW127761   0.450   1.991   9.977 -1.8252 -0.9980  0.6446
 5375SOL    HW227762   0.464   2.030   9.829 -1.1515  0.5087 -0.4541
 5376SOL     OW27763   2.266   3.807  11.780 -0.4448 -0.3158  0.1172
 5376SOL    HW127764   2.241   3.733  11.835  1.2521 -1.0453 -0.1042
 5376SOL    HW227765   2.337   3.765  11.732  1.2128  1.4256  1.0351
 5377SOL     OW27766   4.459   2.738  12.138  0.2425 -0.7710 -0.1224
 5377SOL    HW127767   4.460   2.729  12.234 -2.1843 -1.0109 -0.1293
 5377SOL    HW227768   4.547   2.722  12.105  0.8378  2.5692 -0.1826
 5378SOL     OW27769   2.815   1.573   0.762  0.0244 -0.1879 -0.2540
 5378SOL    HW127770   2.843   1.482   0.757  1.0226  0.1713 -1.1449
 5378SOL    HW227771   2.858   1.603   0.842  1.5617  0.3245 -1.2686
 5379SOL     OW27772   2.546   0.891   1.748 -0.4927  0.7639 -0.1369
 5379SOL    HW127773   2.462   0.856   1.777 -1.2142  1.0679 -1.8503
 5379SOL    HW227774   2.607   0.822   1.773 -0.9152  0.3865 -0.1469
 5380SOL     OW27775   2.766   3.314  17.629 -0.1929 -0.0080  0.1045
 5380SOL    HW127776   2.846   3.338  17.676  1.8050 -2.6483 -1.9303
 5380SOL    HW227777   2.791   3.232  17.586 -0.2317  0.3768 -0.6462
 5381SOL     OW27778   3.480   3.867   2.642  0.1745  0.0756  0.1755
 5381SOL    HW127779   3.490   3.866   2.547  0.8327  0.4822  0.2374
 5381SOL    HW227780   3.420   3.942   2.651  0.9916  0.7028  0.4093
 5382SOL     OW27781   4.034   4.023  14.212  0.5882  0.0139  0.1063
 5382SOL    HW127782   3.986   4.101  14.239 -0.0060 -0.2431 -0.2072
 5382SOL    HW227783   4.051   3.980  14.296  0.8361 -1.0839 -0.5012
 5383SOL     OW27784   2.376   3.819  15.302  0.3853  0.0262  0.1393
 5383SOL    HW127785   2.402   3.733  15.338  0.7641 -0.0432 -0.3064
 5383SOL    HW227786   2.434   3.841  15.230 -0.2117 -0.3749 -0.4614
 5384SOL     OW27787   3.930   3.093  17.186  0.1671  0.0759 -0.4135
 5384SOL    HW127788   3.997   3.151  17.223 -0.1484 -1.6236  2.8356
 5384SOL    HW227789   3.895   3.064  17.271 -0.1407 -0.7339 -0.8160
 5385SOL     OW27790   0.267   4.727   2.905 -0.1451 -0.1394  0.6134
 5385SOL    HW127791   0.216   4.649   2.884  0.7720 -0.8163  0.8889
 5385SOL    HW227792   0.271   4.715   3.000  0.4912  0.4291  0.6627
 5386SOL     OW27793   4.184   3.505   4.592 -0.5147 -0.0277  0.0998
 5386SOL    HW127794   4.255   3.481   4.651  0.3388 -0.8219 -1.2530
 5386SOL    HW227795   4.156   3.419   4.562  0.9127 -1.1071  1.8418
 5387SOL     OW27796   0.403   0.142   3.364  0.2857  0.2026  0.4983
 5387SOL    HW127797   0.416   0.203   3.291  1.3387 -0.1401  0.3974
 5387SOL    HW227798   0.463   0.183   3.426 -1.7512  0.1313  2.4871
 5388SOL     OW27799   2.641   2.435  15.612 -0.2683  0.1786 -0.0488
 5388SOL    HW127800   2.734   2.436  15.638  0.5394  0.9464 -2.9876
 5388SOL    HW227801   2.612   2.350  15.645  2.2182 -0.2890  0.9720
 5389SOL     OW27802   4.165   2.771   2.373  0.3917  0.2072 -0.5309
 5389SOL    HW127803   4.231   2.734   2.314  0.6606 -0.5574  0.2422
 5389SOL    HW227804   4.220   2.765   2.452 -1.3050 -3.1616  0.4049
 5390SOL     OW27805   1.450   3.586   8.454  0.5573  0.7971  0.6467
 5390SOL    HW127806   1.447   3.513   8.516 -0.9069  1.4989  1.3971
 5390SOL    HW227807   1.417   3.657   8.509  0.3292  0.9628  0.3003
 5391SOL     OW27808   1.799   2.912  10.442 -0.4660  0.1443 -0.2399
 5391SOL    HW127809   1.794   3.008  10.441 -0.9776  0.1117 -0.5783
 5391SOL    HW227810   1.883   2.904  10.397 -0.6487 -1.6974 -0.2608
 5392SOL     OW27811   1.471   0.738  10.515 -0.3802 -0.8476 -0.1826
 5392SOL    HW127812   1.503   0.737  10.605  3.2456 -1.2549 -1.4493
 5392SOL    HW227813   1.534   0.800  10.478 -1.0854 -0.8316 -1.3516
 5393SOL     OW27814   1.549   3.208   7.227  0.0625  0.9704 -0.2267
 5393SOL    HW127815   1.538   3.228   7.134  1.8993 -0.7138 -0.8218
 5393SOL    HW227816   1.637   3.244   7.237  0.5663  0.0294 -1.2785
 5394SOL     OW27817   3.668   2.161   8.061  0.2696  0.1774 -0.5172
 5394SOL    HW127818   3.722   2.139   7.985 -0.1472 -1.8580 -0.2207
 5394SOL    HW227819   3.707   2.103   8.126 -1.5217 -0.4583 -0.0174
 5395SOL     OW27820   1.497   0.436   9.596  0.4047  0.6371 -0.1047
 5395SOL    HW127821   1.478   0.422   9.688 -1.0776  0.9967 -0.3544
 5395SOL    HW227822   1.499   0.346   9.564  0.1020 -0.4340  2.9043
 5396SOL     OW27823   2.786   2.430   3.195  0.1055  0.1151  0.4337
 5396SOL    HW127824   2.858   2.483   3.229  0.6336 -0.7013  0.5839
 5396SOL    HW227825   2.729   2.506   3.182  0.0512  0.2415  1.3780
 5397SOL     OW27826   1.105   0.415   5.754 -0.5232  0.4318 -0.4581
 5397SOL    HW127827   1.011   0.395   5.751 -0.6356  0.8936  0.0061
 5397SOL    HW227828   1.151   0.341   5.713 -1.7200 -0.3614 -0.3864
 5398SOL     OW27829   4.090   2.200  13.120 -0.0734 -0.3401  0.3534
 5398SOL    HW127830   4.051   2.115  13.139  1.4315 -1.4628 -1.4788
 5398SOL    HW227831   4.181   2.199  13.149  0.5861  0.8269 -1.6669
 5399SOL     OW27832   0.600   3.321  11.812 -0.1613  0.3275  0.6085
 5399SOL    HW127833   0.544   3.399  11.817  0.6883  1.0068 -0.7484
 5399SOL    HW227834   0.618   3.321  11.718 -0.1475  0.0264  0.6106
 5400SOL     OW27835   3.829   1.332   7.050 -0.4230  0.1034  0.0204
 5400SOL    HW127836   3.787   1.275   7.114 -0.7813  1.3651  0.9111
 5400SOL    HW227837   3.811   1.282   6.970 -1.7708 -1.4234  1.2669
 5401SOL     OW27838   1.143   4.224   8.243 -0.2696  0.2559  0.6224
 5401SOL    HW127839   1.204   4.294   8.219  0.1872 -0.1163  0.7017
 5401SOL    HW227840   1.199   4.150   8.224 -0.2608 -0.0756  1.9452
 5402SOL     OW27841   4.680   1.237  15.924 -0.1865  0.1311 -0.6012
 5402SOL    HW127842   4.621   1.307  15.895  2.8132  2.7913 -0.3127
 5402SOL    HW227843   0.026   1.280  15.897  0.7465 -2.2817 -1.6806
 5403SOL     OW27844   4.123   0.398  15.036 -0.5351 -0.0263 -0.1503
 5403SOL    HW127845   4.172   0.479  15.052 -0.3508  0.1594 -1.6798
 5403SOL    HW227846   4.071   0.388  15.116  0.4414  2.2804  0.7835
 5404SOL     OW27847   3.212   4.184  10.208 -0.5220  0.2696  0.3158
 5404SOL    HW127848   3.270   4.229  10.146 -0.7426  1.6780  1.1322
 5404SOL    HW227849   3.162   4.263  10.227  1.2412  2.2757 -3.4355
 5405SOL     OW27850   1.196   3.180  16.239  0.4848 -0.2932  0.2523
 5405SOL    HW127851   1.139   3.255  16.256  0.5289 -0.1606 -0.1868
 5405SOL    HW227852   1.155   3.146  16.159 -0.8262  3.7639 -0.7997
 5406SOL     OW27853   3.367   2.753   6.714 -0.0482 -0.1386  0.0309
 5406SOL    HW127854   3.306   2.710   6.774 -1.3225  0.5395 -0.7913
 5406SOL    HW227855   3.418   2.679   6.683  0.7841  0.8803 -1.0537
 5407SOL     OW27856   1.693   1.947   3.820 -0.1236  0.2254  0.0145
 5407SOL    HW127857   1.738   2.023   3.781  0.5089 -0.3969 -0.4672
 5407SOL    HW227858   1.739   1.921   3.899  1.2629  0.1799 -0.8032
 5408SOL     OW27859   0.430   1.131   7.373 -0.2783  0.6422  0.2261
 5408SOL    HW127860   0.373   1.054   7.364  2.0986 -1.2712  1.5181
 5408SOL    HW227861   0.509   1.078   7.380  0.1455  1.1388 -0.9290
 5409SOL     OW27862   3.956   3.155  13.978 -0.1927  0.4381 -0.0592
 5409SOL    HW127863   3.930   3.225  14.037 -2.4008  1.1043 -1.8339
 5409SOL    HW227864   3.923   3.185  13.893 -0.3699  1.3784  0.3445
 5410SOL     OW27865   3.632   2.862   4.150 -0.6094  0.4052  0.4615
 5410SOL    HW127866   3.695   2.819   4.207 -0.6988  0.2854  0.4702
 5410SOL    HW227867   3.565   2.798   4.176  1.6569 -2.7487 -1.5668
 5411SOL     OW27868   2.595   2.937  12.098 -0.2530  0.3370 -0.5777
 5411SOL    HW127869   2.582   2.848  12.064 -2.1022  0.0615  0.8645
 5411SOL    HW227870   2.598   2.919  12.192  0.0982  2.0730 -0.2661
 5412SOL     OW27871   4.680   2.614   1.504 -0.0583 -0.2369 -0.0167
 5412SOL    HW127872   4.632   2.600   1.422  0.4940 -0.7496 -0.2548
 5412SOL    HW227873   4.617   2.585   1.570 -1.4512 -0.1444 -1.3202
 5413SOL     OW27874   0.153   2.541   9.767  0.0914  0.4674 -0.4629
 5413SOL    HW127875   0.131   2.572   9.855 -0.0449 -0.9052 -0.0132
 5413SOL    HW227876   0.197   2.616   9.727 -1.5919  1.3942 -0.5795
 5414SOL     OW27877   0.027   1.465   6.644 -0.0344  0.7131 -0.1484
 5414SOL    HW127878   0.053   1.382   6.683 -1.3095  0.1731 -0.4467
 5414SOL    HW227879   4.722   1.516   6.714 -0.1587  0.9816 -0.4102
 5415SOL     OW27880   4.173   1.227   6.145 -0.6870  0.6129  0.0547
 5415SOL    HW127881   4.198   1.140   6.113 -0.4375  1.3008 -1.6034
 5415SOL    HW227882   4.166   1.211   6.239  0.4455  1.1540  0.2370
 5416SOL     OW27883   3.314   3.613   7.012  0.0631  0.8502  0.6286
 5416SOL    HW127884   3.401   3.584   7.039 -0.1386 -0.8849 -0.5998
 5416SOL    HW227885   3.322   3.708   7.015  0.0962  0.8146  1.4976
 5417SOL     OW27886   2.969   2.265   4.834  0.5047 -0.4128  0.0891
 5417SOL    HW127887   2.982   2.272   4.929  0.0184  0.5874  0.0766
 5417SOL    HW227888   3.060   2.263   4.806  0.2736  0.2715 -0.7038
 5418SOL     OW27889   1.660   1.615   4.059  0.2639  0.1175  0.2995
 5418SOL    HW127890   1.581   1.667   4.069  0.8405  1.3887 -1.7517
 5418SOL    HW227891   1.619   1.529   4.048 -1.3057  0.4996  3.1180
 5419SOL     OW27892   2.569   2.648   4.677  0.1256  0.3752  0.0002
 5419SOL    HW127893   2.611   2.686   4.600 -2.0284 -0.4807 -1.5907
 5419SOL    HW227894   2.516   2.726   4.691 -2.9701 -1.9655  1.2316
 5420SOL     OW27895   3.386   4.697  12.550  0.5465  0.7728  0.3799
 5420SOL    HW127896   3.377   4.726  12.459  3.0949  0.7840  0.1199
 5420SOL    HW227897   3.382   4.603  12.538 -1.3594  1.0930 -1.4793
 5421SOL     OW27898   3.337   2.999  13.690 -0.1368  0.9141 -0.2474
 5421SOL    HW127899   3.277   2.949  13.635 -0.0571  0.0791  0.4204
 5421SOL    HW227900   3.344   3.080  13.640  0.0832 -0.3699 -2.2876
 5422SOL     OW27901   1.253   2.625   3.130  0.1246  0.0945 -0.0744
 5422SOL    HW127902   1.214   2.546   3.093  0.0199 -0.1821  0.6178
 5422SOL    HW227903   1.287   2.583   3.210  0.6805  1.6543  0.5239
 5423SOL     OW27904   2.048   3.329   5.531 -1.0913 -0.0221 -0.2541
 5423SOL    HW127905   2.094   3.406   5.498  1.2966 -0.8361  1.1664
 5423SOL    HW227906   2.051   3.346   5.625  1.1588 -0.3600 -0.2554
 5424SOL     OW27907   3.778   4.369   4.301 -0.0750  0.4360  0.3681
 5424SOL    HW127908   3.866   4.401   4.281  0.1929 -0.8901 -0.5703
 5424SOL    HW227909   3.783   4.371   4.397 -0.2944  2.9756  0.3050
 5425SOL     OW27910   2.407   2.806  17.522 -0.4983  0.0101  0.3516
 5425SOL    HW127911   2.409   2.888  17.473 -0.1415 -0.8463 -1.0677
 5425SOL    HW227912   2.316   2.812  17.549  0.0672  1.2028  2.0244
 5426SOL     OW27913   3.444   3.397   2.411  0.4696 -0.1402  0.0411
 5426SOL    HW127914   3.397   3.325   2.453 -1.1955  0.7393 -0.2794
 5426SOL    HW227915   3.455   3.461   2.482  1.1798 -0.3085  0.0771
 5427SOL     OW27916   4.021   3.583   1.129  0.4283 -0.3323  0.5537
 5427SOL    HW127917   4.029   3.488   1.143 -1.2112 -0.5309  0.1241
 5427SOL    HW227918   3.948   3.603   1.071  0.0759 -0.4150  0.9705
 5428SOL     OW27919   3.695   3.550  17.523 -0.0120  0.8600  0.5774
 5428SOL    HW127920   3.776   3.558  17.472 -0.4895 -0.8899 -0.4625
 5428SOL    HW227921   3.710   3.620  17.587  1.5453  0.5186  0.5930
 5429SOL     OW27922   1.133   1.250   5.024 -0.1908 -0.1342 -0.5820
 5429SOL    HW127923   1.080   1.190   5.077  1.4648 -2.1318 -1.1748
 5429SOL    HW227924   1.165   1.309   5.092 -0.7142  0.2461 -0.6624
 5430SOL     OW27925   0.186   1.065   5.330  0.1606  0.1328  0.1269
 5430SOL    HW127926   0.186   0.978   5.291 -1.2753  0.5539 -0.8083
 5430SOL    HW227927   0.103   1.061   5.378 -0.5777  1.1494 -1.0657
 5431SOL     OW27928   4.508   1.686   5.403  0.1562  0.7017  0.1789
 5431SOL    HW127929   4.567   1.690   5.479 -0.8264 -2.6916  1.1331
 5431SOL    HW227930   4.550   1.628   5.340 -0.4037  1.0145 -0.4776
 5432SOL     OW27931   1.803   1.170   0.829 -0.4571 -0.1207 -0.3629
 5432SOL    HW127932   1.823   1.261   0.850 -1.4348 -0.2749  1.2375
 5432SOL    HW227933   1.805   1.183   0.734 -1.9078 -0.6113 -0.4520
 5433SOL     OW27934   2.881   4.669   8.441 -0.4745  0.0716 -0.1106
 5433SOL    HW127935   2.868   4.733   8.371  1.2093 -0.7037 -1.1355
 5433SOL    HW227936   2.975   4.685   8.454 -1.2894  4.1294  1.0248
 5434SOL     OW27937   2.983   4.649   5.606  0.0143  0.3849  0.1262
 5434SOL    HW127938   2.972   4.648   5.511 -0.6033 -0.4544  0.2057
 5434SOL    HW227939   2.983   4.555   5.626 -3.5403 -0.4105 -3.6910
 5435SOL     OW27940   3.986   3.077  10.410  0.0155 -0.5184 -0.4397
 5435SOL    HW127941   4.056   3.015  10.388  0.7479 -0.4229  1.6401
 5435SOL    HW227942   3.908   3.041  10.367 -0.6776 -0.7450  1.0035
 5436SOL     OW27943   3.564   2.840  10.219  0.1731 -0.7980 -0.2123
 5436SOL    HW127944   3.495   2.859  10.156  0.1888  1.3872  0.4125
 5436SOL    HW227945   3.523   2.864  10.302 -0.6990 -1.9220 -0.3314
 5437SOL     OW27946   3.681   2.615   3.721  0.6431  0.1277 -0.2802
 5437SOL    HW127947   3.615   2.633   3.655  0.9794  0.6341 -0.4791
 5437SOL    HW227948   3.765   2.610   3.675 -0.3266  0.3308 -2.0706
 5438SOL     OW27949   2.394   1.448  17.082  0.2483 -0.1384  0.3820
 5438SOL    HW127950   2.461   1.395  17.040 -0.0193  0.2733 -0.5543
 5438SOL    HW227951   2.339   1.371  17.100  1.5138 -0.7775  1.5787
 5439SOL     OW27952   4.161   2.960  14.227  0.2747  0.1108  0.3268
 5439SOL    HW127953   4.096   2.957  14.297 -0.1655  2.3626 -0.0056
 5439SOL    HW227954   4.208   3.041  14.244  0.2666  0.1542  0.1489
 5440SOL     OW27955   0.237   1.244   8.041 -0.1594 -0.6155  0.0122
 5440SOL    HW127956   0.303   1.313   8.049 -1.1276  0.4276 -1.1173
 5440SOL    HW227957   0.208   1.250   7.950 -0.0075  0.7334  0.0488
 5441SOL     OW27958   1.668   0.680   7.924 -0.3204 -0.5118  0.3154
 5441SOL    HW127959   1.736   0.747   7.927 -0.2559 -0.5335 -0.7634
 5441SOL    HW227960   1.627   0.694   8.009 -1.8714 -1.3116 -0.2964
 5442SOL     OW27961   4.226   0.159   4.837 -0.0355  0.0658 -0.1107
 5442SOL    HW127962   4.220   0.255   4.835  1.1107  0.1480  0.1043
 5442SOL    HW227963   4.275   0.139   4.917  0.3729  1.4305 -0.0194
 5443SOL     OW27964   2.564   2.987   8.582  0.0528  0.1977  0.4423
 5443SOL    HW127965   2.611   3.060   8.622 -1.5062  1.4234  0.0731
 5443SOL    HW227966   2.614   2.967   8.503 -1.1848  1.7371 -0.7392
 5444SOL     OW27967   0.713   3.301   1.832 -0.1993  0.2291 -0.5287
 5444SOL    HW127968   0.806   3.304   1.854 -0.0735  0.8507 -1.1429
 5444SOL    HW227969   0.727   3.281   1.740  0.4018 -2.2008  0.0958
 5445SOL     OW27970   1.337   0.273   3.487  0.3308  0.0465  0.4825
 5445SOL    HW127971   1.245   0.246   3.486 -0.4163  2.6036 -0.0381
 5445SOL    HW227972   1.339   0.364   3.517 -1.7995 -0.0708  0.9413
 5446SOL     OW27973   4.068   1.109   5.243 -0.2003 -0.2236  0.2256
 5446SOL    HW127974   4.047   1.185   5.189 -0.4185 -1.0862 -0.9267
 5446SOL    HW227975   3.981   1.067   5.240 -0.8141  1.1517 -1.4005
 5447SOL     OW27976   3.657   0.936   7.418  0.1227 -0.0502 -0.9576
 5447SOL    HW127977   3.590   0.947   7.485  1.3220  0.8638  0.0840
 5447SOL    HW227978   3.659   0.842   7.401 -1.8105 -0.3852  0.6946
 5448SOL     OW27979   3.715   0.109   3.963 -0.0466 -0.0490 -0.1395
 5448SOL    HW127980   3.738   0.046   3.895  1.0319  1.3790 -1.0874
 5448SOL    HW227981   3.773   0.183   3.947  0.0012 -0.0312  0.1182
 5449SOL     OW27982   4.259   2.294  16.347 -0.0939  0.1411  0.2426
 5449SOL    HW127983   4.194   2.250  16.292  0.7426 -0.8815  0.0870
 5449SOL    HW227984   4.293   2.226  16.405 -0.9381 -0.9788 -0.5779
 5450SOL     OW27985   4.286   2.529  12.061 -0.7959  0.4193 -0.0756
 5450SOL    HW127986   4.323   2.615  12.079 -0.3670  0.5478 -1.6168
 5450SOL    HW227987   4.336   2.464  12.111 -0.0255  1.5913  0.6738
 5451SOL     OW27988   3.534   2.621   1.734 -0.2753  0.0802  0.0683
 5451SOL    HW127989   3.484   2.678   1.792  0.1761  0.3360  0.2062
 5451SOL    HW227990   3.462   2.592   1.678 -0.0617 -1.8929  0.8160
 5452SOL     OW27991   4.147   0.131   1.320  0.2405  0.2216 -0.1422
 5452SOL    HW127992   4.071   0.084   1.353  0.1495  1.4942  1.4107
 5452SOL    HW227993   4.193   0.139   1.403  0.0653  2.4703 -0.2653
 5453SOL     OW27994   4.190   1.644   5.960 -0.0332 -0.0476 -0.2131
 5453SOL    HW127995   4.111   1.602   5.994  1.5950 -2.0381  1.0938
 5453SOL    HW227996   4.230   1.559   5.940  0.4780 -0.0888  1.0287
 5454SOL     OW27997   0.216   2.067   3.267  0.1996 -0.1942 -0.0158
 5454SOL    HW127998   0.197   2.111   3.349  2.3913  0.6385  0.0420
 5454SOL    HW227999   0.243   2.143   3.216  0.8968 -1.9408 -2.2686
 5455SOL     OW28000   2.248   3.580  13.934 -0.1235  0.0637  0.1577
 5455SOL    HW128001   2.318   3.626  13.888  0.6485 -0.7254  0.5466
 5455SOL    HW228002   2.284   3.586  14.022  0.4125 -0.6408 -0.0130
 5456SOL     OW28003   4.202   0.992   5.013 -0.4417  0.0829 -0.7195
 5456SOL    HW128004   4.192   0.897   5.021 -0.8621  0.3327  1.5926
 5456SOL    HW228005   4.207   1.024   5.102 -3.5966  2.0810 -1.2793
 5457SOL     OW28006   3.433   0.112  11.442 -0.6443  0.3477 -0.0572
 5457SOL    HW128007   3.432   0.094  11.348 -0.9001  1.4110 -0.2560
 5457SOL    HW228008   3.441   0.020  11.468 -1.9844 -0.3639 -2.1981
 5458SOL     OW28009   2.313   2.213  14.633  0.0392  0.4210 -0.1251
 5458SOL    HW128010   2.220   2.196  14.616 -0.3490  1.5956  0.7831
 5458SOL    HW228011   2.350   2.126  14.645  1.1518  0.9346  0.1118
 5459SOL     OW28012   1.458   2.476   7.129  0.0263 -0.5354  0.5870
 5459SOL    HW128013   1.472   2.434   7.214 -0.7648  0.4221  1.1820
 5459SOL    HW228014   1.420   2.404   7.078 -0.8725  0.9281 -0.8136
 5460SOL     OW28015   4.507   3.223   4.687  1.1636 -0.2191  0.0953
 5460SOL    HW128016   4.451   3.193   4.616  0.1434  1.9798 -0.0509
 5460SOL    HW228017   4.530   3.144   4.735 -1.6616  0.1843  2.0939
 5461SOL     OW28018   0.893   1.384   7.032  0.1314  0.3438  0.2820
 5461SOL    HW128019   0.929   1.393   7.120 -0.3539  1.3437  0.3775
 5461SOL    HW228020   0.800   1.383   7.056  0.1155 -2.1309  0.1407
 5462SOL     OW28021   0.057   2.792   0.716  0.0686  0.4304  0.1092
 5462SOL    HW128022   0.077   2.711   0.669  0.0447 -0.4571  1.6332
 5462SOL    HW228023   0.122   2.847   0.672 -1.1583  1.5897 -0.2362
 5463SOL     OW28024   1.425   3.666   4.181 -0.0443  0.1767  0.8229
 5463SOL    HW128025   1.468   3.582   4.195 -3.2288 -1.5005  0.4164
 5463SOL    HW228026   1.379   3.678   4.264 -0.7510  2.3752  0.1141
 5464SOL     OW28027   1.395   3.368   4.351 -0.3377  0.1544 -0.2934
 5464SOL    HW128028   1.369   3.294   4.295 -0.3253  0.0190 -0.1198
 5464SOL    HW228029   1.476   3.392   4.305 -0.3443  2.3512  0.8811
 5465SOL     OW28030   2.546   0.279   2.469 -0.2025  0.2118  0.0040
 5465SOL    HW128031   2.563   0.194   2.427 -2.8062 -1.5099  2.4691
 5465SOL    HW228032   2.629   0.322   2.449  0.6329 -1.6217 -0.4887
 5466SOL     OW28033   2.356   2.411  12.254 -0.1815  0.0169 -0.1112
 5466SOL    HW128034   2.349   2.359  12.334  1.6307 -1.7643 -1.0951
 5466SOL    HW228035   2.425   2.363  12.208  2.7656  1.7863  2.4730
 5467SOL     OW28036   4.126   2.321   3.925  0.0830 -0.5489  0.1135
 5467SOL    HW128037   4.200   2.358   3.878 -0.5830 -0.3782 -0.8023
 5467SOL    HW228038   4.114   2.240   3.874  1.1172 -2.3361  2.7078
 5468SOL     OW28039   1.381   4.460   0.222  0.4109  0.0962 -0.5123
 5468SOL    HW128040   1.357   4.546   0.257 -1.0303 -0.1065 -1.0020
 5468SOL    HW228041   1.475   4.475   0.213  0.8836 -3.0264 -0.7477
 5469SOL     OW28042   2.208   4.332  10.174  0.4810  0.0239  0.1278
 5469SOL    HW128043   2.214   4.333  10.270 -1.3339 -3.1290  0.2770
 5469SOL    HW228044   2.182   4.242  10.154  0.0125 -0.0228  0.9194
 5470SOL     OW28045   0.697   0.380  13.917  0.2115  0.2174  0.0539
 5470SOL    HW128046   0.662   0.351  13.832 -3.6986 -0.6157  1.9803
 5470SOL    HW228047   0.657   0.466  13.922 -2.8259 -1.1208 -0.8834
 5471SOL     OW28048   0.538   3.198   1.415 -0.1858 -0.1715  0.4850
 5471SOL    HW128049   0.487   3.122   1.389 -1.3146  0.4109  1.0385
 5471SOL    HW228050   0.469   3.258   1.443 -0.1039  0.0052  0.3175
 5472SOL     OW28051   1.763   1.292   7.725  0.5861 -0.4245  0.6832
 5472SOL    HW128052   1.847   1.294   7.678  0.3427 -1.6135  0.1966
 5472SOL    HW228053   1.728   1.204   7.712  0.1861 -0.2165  0.3401
 5473SOL     OW28054   2.303   2.214   8.762 -0.2883 -1.0820 -0.3008
 5473SOL    HW128055   2.377   2.275   8.755 -0.9937 -0.0889  0.9365
 5473SOL    HW228056   2.296   2.181   8.673  0.5479  1.8089 -1.4554
 5474SOL     OW28057   3.155   3.320   6.633 -0.0251 -0.2769  0.0205
 5474SOL    HW128058   3.152   3.406   6.675 -1.2301 -0.5441  0.4881
 5474SOL    HW228059   3.237   3.336   6.586  1.3140  0.8034  2.7295
 5475SOL     OW28060   3.748   0.171   4.790  0.5784  0.3294  0.0409
 5475SOL    HW128061   3.721   0.133   4.706 -1.6302  0.0336  0.8730
 5475SOL    HW228062   3.843   0.170   4.778  0.5747  0.6439 -0.0079
 5476SOL     OW28063   1.414   3.167   2.370 -0.1904  0.3079  0.1380
 5476SOL    HW128064   1.322   3.159   2.344 -0.3797 -1.4170  1.2880
 5476SOL    HW228065   1.443   3.230   2.304  1.1534 -1.4504 -0.9497
 5477SOL     OW28066   3.787   2.427   9.857  0.3346 -0.1322  0.7608
 5477SOL    HW128067   3.695   2.408   9.877 -0.4103  0.2886 -2.3233
 5477SOL    HW228068   3.816   2.403   9.945  0.7688  1.0527  0.9356
 5478SOL     OW28069   3.158   0.134   2.543 -0.7834 -0.1473  0.5728
 5478SOL    HW128070   3.160   0.043   2.513 -0.8209 -1.2283  3.8427
 5478SOL    HW228071   3.184   0.127   2.635 -1.4807  0.4673  0.8152
 5479SOL     OW28072   2.790   0.597   4.323 -0.0808 -0.4561 -0.2234
 5479SOL    HW128073   2.790   0.552   4.408 -2.4869  1.3351  0.6902
 5479SOL    HW228074   2.770   0.684   4.355  2.2582  0.1919 -0.4823
 5480SOL     OW28075   4.450   2.305   2.825 -0.4789 -0.2855 -0.3603
 5480SOL    HW128076   4.463   2.375   2.888  1.2764 -0.2710 -0.7285
 5480SOL    HW228077   4.490   2.230   2.870 -1.7962 -0.9537 -0.3146
 5481SOL     OW28078   4.317   1.262   6.822 -0.1014  0.5160 -0.3296
 5481SOL    HW128079   4.405   1.224   6.824  0.2322  1.2742 -0.4991
 5481SOL    HW228080   4.273   1.192   6.773 -1.1602  1.7802 -1.1709
 5482SOL     OW28081   0.999   3.006  17.625  0.1837 -0.0417 -0.4684
 5482SOL    HW128082   0.913   2.972  17.650 -0.7812  2.2855 -0.6293
 5482SOL    HW228083   1.023   3.054  17.705  1.9731 -1.9609  0.1205
 5483SOL     OW28084   2.464   3.910   6.682 -0.1928  0.3611  0.3904
 5483SOL    HW128085   2.430   3.987   6.635  1.0843  0.7437  0.0831
 5483SOL    HW228086   2.557   3.910   6.659 -0.3984 -0.7013 -0.4227
 5484SOL     OW28087   0.662   1.472   7.445  0.5235 -0.0882 -0.1711
 5484SOL    HW128088   0.697   1.386   7.469 -2.4998 -1.6262 -1.2990
 5484SOL    HW228089   0.575   1.449   7.414  0.1998  1.6615 -0.5560
 5485SOL     OW28090   2.319   0.685  13.753 -0.0715 -0.1722  0.4409
 5485SOL    HW128091   2.339   0.762  13.701  0.4755 -0.4445  0.2496
 5485SOL    HW228092   2.312   0.731  13.837  2.6676  0.2956  0.4271
 5486SOL     OW28093   3.923   4.618   2.047 -0.0733 -0.3030  0.1455
 5486SOL    HW128094   3.956   4.708   2.053 -4.6426  1.1863  2.4417
 5486SOL    HW228095   3.994   4.568   2.006  0.2772  0.9742 -0.7901
 5487SOL     OW28096   2.776   3.060  15.380  0.0349 -0.4208  0.1244
 5487SOL    HW128097   2.850   3.035  15.435 -0.5174 -0.3304  0.8965
 5487SOL    HW228098   2.774   2.990  15.314 -1.0192  1.7727 -2.2026
 5488SOL     OW28099   3.942   1.278   8.656 -0.2365 -0.3500 -0.4238
 5488SOL    HW128100   3.957   1.190   8.622  1.4459 -0.7881  1.4527
 5488SOL    HW228101   3.872   1.244   8.713  0.3204  2.0154  1.7032
 5489SOL     OW28102   3.279   1.637  14.338  0.0404  0.0935  0.3517
 5489SOL    HW128103   3.229   1.644  14.257 -0.2997  2.8289  0.7735
 5489SOL    HW228104   3.350   1.581  14.308  0.2646  0.6254 -0.1233
 5490SOL     OW28105   1.630   1.896   8.445 -0.0886  0.3991  0.0092
 5490SOL    HW128106   1.546   1.922   8.482 -0.3179 -0.5876  0.1871
 5490SOL    HW228107   1.680   1.961   8.495 -0.5811  0.1010  0.8901
 5491SOL     OW28108   4.199   3.973   2.125 -0.3097 -0.3938 -0.1827
 5491SOL    HW128109   4.157   4.022   2.055 -0.8368  0.6372  0.8552
 5491SOL    HW228110   4.174   4.023   2.203 -0.3167  1.4382 -1.3667
 5492SOL     OW28111   1.665   3.706   5.257 -0.2303  0.3285  0.2832
 5492SOL    HW128112   1.673   3.789   5.305  1.7793 -0.8734  2.0140
 5492SOL    HW228113   1.586   3.673   5.299 -1.0060  3.6696  1.4674
 5493SOL     OW28114   3.576   1.173  12.818 -0.0517  0.0728  0.0894
 5493SOL    HW128115   3.630   1.094  12.808  0.0128  0.3303 -1.7109
 5493SOL    HW228116   3.492   1.152  12.779 -0.8042  0.8224  1.3251
 5494SOL     OW28117   4.643   3.076   5.652 -0.5218 -0.5793  0.2445
 5494SOL    HW128118   4.640   3.100   5.560  0.2542 -1.9123 -0.1143
 5494SOL    HW228119   4.571   3.131   5.683 -1.4800 -0.5847 -2.0197
 5495SOL     OW28120   2.640   0.047  11.385 -0.1791 -0.0908  0.2735
 5495SOL    HW128121   2.617   4.725  11.313  0.8290 -1.1844  0.8338
 5495SOL    HW228122   2.725   0.082  11.360 -0.6730  0.5204 -0.5607
 5496SOL     OW28123   2.083   0.908   1.556 -0.4606  0.2832 -0.3077
 5496SOL    HW128124   2.155   0.969   1.572  1.5533 -2.8598  2.6109
 5496SOL    HW228125   2.006   0.964   1.551 -0.9944 -0.5354 -1.4012
 5497SOL     OW28126   3.202   1.253   8.733 -0.0548  0.3988 -0.1933
 5497SOL    HW128127   3.287   1.267   8.692 -0.0289  1.6620  0.3103
 5497SOL    HW228128   3.213   1.157   8.735  4.2439  0.8566 -1.4404
 5498SOL     OW28129   1.839   1.702   1.567  0.1458  0.5222  0.4836
 5498SOL    HW128130   1.782   1.636   1.528  2.5797  0.7882 -3.5637
 5498SOL    HW228131   1.924   1.678   1.531  0.3586  1.5180  0.3151
 5499SOL     OW28132   1.590   2.022   1.022  0.2198 -0.2090 -0.1853
 5499SOL    HW128133   1.640   2.085   0.970 -4.3700  2.4642 -1.4651
 5499SOL    HW228134   1.543   2.078   1.085  0.3100  1.1633 -1.3374
 5500SOL     OW28135   0.989   0.627   6.328  0.0179  0.0617  0.5640
 5500SOL    HW128136   0.995   0.533   6.341  1.1521 -0.2465 -2.1842
 5500SOL    HW228137   1.032   0.640   6.244  1.5303 -0.8017  1.2167
 5501SOL     OW28138   2.926   1.150   2.956 -0.1022 -0.7062  0.6266
 5501SOL    HW128139   2.990   1.129   2.888 -1.1686 -0.5263 -0.4331
 5501SOL    HW228140   2.865   1.209   2.911 -2.5585 -2.4566  1.6148
 5502SOL     OW28141   0.191   1.707  14.264  0.4105  0.2169  0.3248
 5502SOL    HW128142   0.234   1.681  14.345  2.0801 -1.4137 -1.0655
 5502SOL    HW228143   0.253   1.760  14.214 -0.6067 -0.7990 -2.0462
 5503SOL     OW28144   0.888   0.275  12.373 -0.4271  0.1304 -0.7179
 5503SOL    HW128145   0.977   0.299  12.396  0.3861 -4.0825  0.5191
 5503SOL    HW228146   0.856   0.268  12.463 -4.0005  0.6636 -1.9184
 5504SOL     OW28147   0.125   3.446   9.342 -0.0525  0.6308 -0.1160
 5504SOL    HW128148   0.076   3.414   9.266 -0.5788 -0.2836  0.6085
 5504SOL    HW228149   0.071   3.394   9.402 -2.2588  0.5735 -2.1542
 5505SOL     OW28150   0.308   1.115   6.251 -0.4716 -0.6848  0.3464
 5505SOL    HW128151   0.261   1.163   6.319 -1.8728  1.4923 -2.1470
 5505SOL    HW228152   0.374   1.065   6.298 -3.0288 -2.7503  1.7555
 5506SOL     OW28153   3.340   1.456   6.745 -0.5487 -0.1117 -0.1803
 5506SOL    HW128154   3.293   1.540   6.750 -1.3278 -0.7643  3.3875
 5506SOL    HW228155   3.420   1.483   6.701  0.0694  0.4991  1.3297
 5507SOL     OW28156   0.204   1.032  11.231  0.3906 -0.5362  0.0676
 5507SOL    HW128157   0.233   0.949  11.268 -0.2514 -0.2585  1.1990
 5507SOL    HW228158   0.266   1.101  11.256  0.7773 -0.2811 -1.5870
 5508SOL     OW28159   4.085   0.066   8.357  0.1601 -0.1191  0.2542
 5508SOL    HW128160   4.113   0.004   8.424 -1.0338 -1.5541 -0.5818
 5508SOL    HW228161   4.167   0.112   8.336 -0.0533 -0.8434 -2.1946
 5509SOL     OW28162   0.100   4.536   1.799  0.0149 -0.2874  0.0042
 5509SOL    HW128163   0.095   4.447   1.834 -2.0819 -0.0309  0.3449
 5509SOL    HW228164   0.075   4.588   1.875  0.1585  0.7141 -0.6431
 5510SOL     OW28165   2.640   1.839   2.320 -0.7060 -0.1798  0.2773
 5510SOL    HW128166   2.627   1.775   2.390 -1.8609  1.6272  1.7135
 5510SOL    HW228167   2.573   1.902   2.348 -0.8030 -0.1906  0.0708
 5511SOL     OW28168   4.038   1.459   7.727 -0.1491 -0.0947 -0.0326
 5511SOL    HW128169   4.080   1.383   7.769  0.8714  1.2718  1.3895
 5511SOL    HW228170   3.956   1.424   7.691 -0.4956 -0.4203  1.0942
 5512SOL     OW28171   3.472   1.429  12.873  0.0904 -0.6693 -0.1334
 5512SOL    HW128172   3.516   1.363  12.820 -1.4365 -0.5273 -1.5624
 5512SOL    HW228173   3.433   1.387  12.950 -0.0069  0.3209  0.3546
 5513SOL     OW28174   2.886   1.136   1.304 -0.1116  0.0273  0.0546
 5513SOL    HW128175   2.836   1.073   1.252  1.1742 -0.6711 -0.3227
 5513SOL    HW228176   2.825   1.151   1.377  1.1640 -0.0817  1.1462
 5514SOL     OW28177   1.030   4.328   9.389 -0.5775 -0.1317 -0.2981
 5514SOL    HW128178   1.091   4.255   9.373 -0.0316  0.1227  0.6478
 5514SOL    HW228179   1.071   4.397   9.338  0.3680  0.9358  1.8943
 5515SOL     OW28180   4.345   0.087   1.546  0.1800  0.1003  0.9950
 5515SOL    HW128181   4.281   0.087   1.616  0.6078  1.4295  1.3815
 5515SOL    HW228182   4.393   0.166   1.570  0.8984 -1.3030  4.0799
 5516SOL     OW28183   4.735   3.758   4.166 -0.5191  0.1368  0.3502
 5516SOL    HW128184   0.011   3.665   4.188  2.1035  0.2123 -0.6161
 5516SOL    HW228185   0.060   3.803   4.225  0.4028  1.1161 -1.3306
 5517SOL     OW28186   0.491   0.681   5.964 -0.5023  0.3172  0.1717
 5517SOL    HW128187   0.484   0.736   5.886 -1.0606 -0.4535 -0.3238
 5517SOL    HW228188   0.543   0.608   5.932 -0.1698  2.1276 -3.3699
 5518SOL     OW28189   2.877   4.461   7.191 -0.2816 -0.3504 -0.3999
 5518SOL    HW128190   2.839   4.505   7.268  1.4780  0.4908  0.0014
 5518SOL    HW228191   2.880   4.525   7.120 -0.3267  0.2780  0.1568
 5519SOL     OW28192   3.951   3.840  11.906 -0.6688  0.0302 -0.4880
 5519SOL    HW128193   4.046   3.851  11.908 -0.8207  1.4976 -1.5029
 5519SOL    HW228194   3.933   3.880  11.821 -0.4493 -0.3254 -0.7045
 5520SOL     OW28195   1.855   0.988   2.107 -0.2675 -0.5557  0.7664
 5520SOL    HW128196   1.946   0.991   2.079  0.6211 -3.4478  3.3865
 5520SOL    HW228197   1.834   0.895   2.097  0.5131 -1.0152  3.4237
 5521SOL     OW28198   4.720   0.196   3.142 -0.1303 -0.2017 -0.1376
 5521SOL    HW128199   0.018   0.284   3.158 -1.3268 -0.0649  1.5367
 5521SOL    HW228200   0.010   0.145   3.219  0.8207 -1.7604 -1.4737
 5522SOL     OW28201   4.384   3.883   8.737  0.2551 -0.3747 -0.1480
 5522SOL    HW128202   4.421   3.808   8.688 -0.5274 -1.3516  0.7609
 5522SOL    HW228203   4.441   3.954   8.709  1.0819 -0.4587  1.3403
 5523SOL     OW28204   0.393   4.092   4.494  0.2775 -0.2541 -0.5317
 5523SOL    HW128205   0.312   4.121   4.536 -0.5280 -1.9003 -0.9904
 5523SOL    HW228206   0.377   4.123   4.405  0.4528  0.9991 -0.1288
 5524SOL     OW28207   0.269   2.623   6.116  0.6429  0.0323 -0.1752
 5524SOL    HW128208   0.313   2.708   6.116 -0.4535  0.6092  1.5283
 5524SOL    HW228209   0.337   2.565   6.152  1.3007  1.2758  0.6183
 5525SOL     OW28210   1.004   3.348   9.299 -0.2793 -0.8061 -0.5909
 5525SOL    HW128211   1.057   3.268   9.305  1.9016  0.7366  1.0097
 5525SOL    HW228212   0.995   3.376   9.391 -0.4618 -0.4166 -0.7276
 5526SOL     OW28213   3.744   1.066   8.696  0.0749 -0.3198 -0.0151
 5526SOL    HW128214   3.665   1.014   8.686  0.1002  0.6111 -5.0690
 5526SOL    HW228215   3.806   0.996   8.715 -0.8424 -0.5981  1.8919
 5527SOL     OW28216   3.323   4.670  14.990 -0.0832  0.1719  0.1952
 5527SOL    HW128217   3.347   4.678  15.083 -1.6181 -0.0578  0.6164
 5527SOL    HW228218   3.230   4.691  14.988 -0.5458 -1.7422  1.6679
 5528SOL     OW28219   1.098   0.776   5.546 -0.4784  0.7218  0.0163
 5528SOL    HW128220   1.003   0.786   5.546 -0.2900  2.5212 -0.9320
 5528SOL    HW228221   1.117   0.734   5.462 -0.3320 -0.3863  0.6126
 5529SOL     OW28222   2.214   2.528  15.435 -0.4709 -0.0627  0.4902
 5529SOL    HW128223   2.218   2.438  15.401  0.5535  0.5102 -0.8745
 5529SOL    HW228224   2.151   2.569  15.376 -0.5674 -0.4849  0.2927
 5530SOL     OW28225   1.861   1.479  10.374 -0.3962 -0.4270 -0.1047
 5530SOL    HW128226   1.769   1.455  10.367 -0.7172 -0.3192  3.7959
 5530SOL    HW228227   1.861   1.535  10.296  0.0414 -3.9389 -2.6048
 5531SOL     OW28228   2.112   2.939   5.531 -0.1914 -0.2309 -0.3062
 5531SOL    HW128229   2.142   3.020   5.491 -1.4416  1.2297  1.7170
 5531SOL    HW228230   2.031   2.934   5.481 -0.1801 -2.6771 -0.0847
 5532SOL     OW28231   1.230   4.141   1.995  0.2824 -0.4102 -0.4197
 5532SOL    HW128232   1.227   4.117   1.903 -2.0024 -0.9069 -0.2001
 5532SOL    HW228233   1.315   4.185   1.998  0.1144 -0.0309 -1.0301
 5533SOL     OW28234   2.270   1.915   7.450 -0.6547  0.3007 -0.3900
 5533SOL    HW128235   2.225   1.999   7.443 -0.4434  0.3466 -1.2425
 5533SOL    HW228236   2.236   1.875   7.370 -1.0830  1.2743 -0.6940
 5534SOL     OW28237   3.074   0.552  12.802  0.0842  0.3836 -0.0102
 5534SOL    HW128238   2.993   0.564  12.850  0.6477  2.1949  0.4873
 5534SOL    HW228239   3.042   0.555  12.712  0.7989  1.6003 -0.2296
 5535SOL     OW28240   0.019   0.569   0.799  0.0237 -0.6178  0.0324
 5535SOL    HW128241   4.692   0.535   0.863  1.7825 -0.8044  1.6613
 5535SOL    HW228242   0.035   0.502   0.734 -0.8120  1.6110 -2.4643
 5536SOL     OW28243   1.696   1.496  12.959 -0.4658  0.4504  0.0851
 5536SOL    HW128244   1.713   1.429  13.026 -2.1041 -0.1350 -0.0846
 5536SOL    HW228245   1.781   1.486  12.917 -1.1746  1.6448 -1.6405
 5537SOL     OW28246   2.517   3.561  15.275  0.2117  0.0130  0.1819
 5537SOL    HW128247   2.567   3.520  15.346  0.2248  0.3460  0.3637
 5537SOL    HW228248   2.555   3.511  15.203  0.9484 -0.4018  0.8516
 5538SOL     OW28249   3.400   3.329   6.523 -0.0389 -0.4037  0.5048
 5538SOL    HW128250   3.455   3.407   6.537  0.2355 -0.1849 -1.7283
 5538SOL    HW228251   3.456   3.252   6.532  2.5026  1.2254 -1.4117
 5539SOL     OW28252   4.265   4.073   5.469  0.0327 -0.9848  0.0090
 5539SOL    HW128253   4.356   4.093   5.490 -0.4497  1.4050 -0.1577
 5539SOL    HW228254   4.270   4.006   5.401 -1.2462 -0.8966 -0.1630
 5540SOL     OW28255   1.618   0.124   7.097  0.1322  0.0493 -0.1896
 5540SOL    HW128256   1.712   0.118   7.080  0.2724  0.9793  0.2440
 5540SOL    HW228257   1.589   0.170   7.018 -0.4238 -1.7999 -1.0453
 5541SOL     OW28258   3.179   1.192   7.603  0.3707  0.5110  0.0590
 5541SOL    HW128259   3.132   1.255   7.549 -0.5921 -0.0389  0.2700
 5541SOL    HW228260   3.266   1.233   7.600  0.4688  0.3620  0.7501
 5542SOL     OW28261   3.943   4.071  14.532 -0.1548 -0.1415 -0.2974
 5542SOL    HW128262   3.931   4.109  14.619  1.3307 -0.4864  0.0532
 5542SOL    HW228263   3.977   4.155  14.500  0.5848  0.4771  2.1473
 5543SOL     OW28264   0.899   0.963   8.551 -0.5941 -0.3059 -0.1577
 5543SOL    HW128265   0.836   0.967   8.480 -0.0608 -0.7495 -0.6621
 5543SOL    HW228266   0.833   0.978   8.619 -0.3455  0.5533 -0.1064
 5544SOL     OW28267   1.237   4.404   6.822 -0.5973 -0.2503 -0.4900
 5544SOL    HW128268   1.230   4.352   6.742 -0.0719  1.0555 -1.3748
 5544SOL    HW228269   1.247   4.333   6.886 -2.3585 -0.5926 -0.5763
 5545SOL     OW28270   3.196   1.868   4.022  0.6142 -0.1740 -0.4180
 5545SOL    HW128271   3.105   1.838   4.029  0.1574  1.7115  1.8111
 5545SOL    HW228272   3.210   1.864   4.116  2.0766  1.3755 -0.5790
 5546SOL     OW28273   4.625   1.103   2.870  0.2268 -0.3161 -0.3488
 5546SOL    HW128274   4.689   1.108   2.800  1.5016  1.9968  0.9959
 5546SOL    HW228275   4.541   1.107   2.824  0.0195 -0.7307 -0.0101
 5547SOL     OW28276   3.193   3.194   8.892  0.2468 -0.3319 -0.7466
 5547SOL    HW128277   3.219   3.103   8.901 -0.4571 -0.5115 -0.5104
 5547SOL    HW228278   3.155   3.207   8.979 -0.1012  1.9228 -1.2224
 5548SOL     OW28279   3.807   1.566   7.216  0.1286  0.4214 -0.6930
 5548SOL    HW128280   3.788   1.520   7.135  1.3431 -0.5752 -0.4100
 5548SOL    HW228281   3.902   1.578   7.216  0.3762 -1.4982  1.4229
 5549SOL     OW28282   0.510   2.763  12.134 -0.1994 -0.0575 -0.6205
 5549SOL    HW128283   0.517   2.712  12.053 -0.9679 -0.4004 -0.4698
 5549SOL    HW228284   0.599   2.761  12.171 -0.4911  1.0934  0.1197
 5550SOL     OW28285   4.255   4.586   5.816 -0.3888  0.7658 -0.2542
 5550SOL    HW128286   4.170   4.596   5.859 -0.5331  1.0238 -0.6068
 5550SOL    HW228287   4.244   4.663   5.761  1.1397  0.2625 -1.2736
 5551SOL     OW28288   3.909   0.107   7.755  0.5698  0.9134 -0.3353
 5551SOL    HW128289   3.898   0.174   7.823 -0.3006 -0.5652  0.9795
 5551SOL    HW228290   3.917   0.029   7.809  1.4346  0.6896 -0.7861
 5552SOL     OW28291   0.695   0.680  10.916  0.7122 -0.3259  0.0618
 5552SOL    HW128292   0.615   0.682  10.968  0.5518  3.6362 -0.3485
 5552SOL    HW228293   0.709   0.587  10.896 -2.0125 -0.9392  0.9958
 5553SOL     OW28294   2.787   0.447   1.576 -0.6497  0.1188  1.0322
 5553SOL    HW128295   2.851   0.514   1.599  0.4260  0.1148 -1.9475
 5553SOL    HW228296   2.846   0.379   1.543 -0.9552 -0.0415  0.8069
 5554SOL     OW28297   3.328   1.981   2.532  0.0172 -0.6388  0.0420
 5554SOL    HW128298   3.300   1.922   2.461  0.3218 -0.0445 -0.5749
 5554SOL    HW228299   3.268   1.943   2.596 -0.9830  1.9562  0.5996
 5555SOL     OW28300   2.789   4.454   2.394  0.2209  0.6269 -0.6986
 5555SOL    HW128301   2.781   4.454   2.489 -0.4597 -1.8997 -0.7628
 5555SOL    HW228302   2.771   4.365   2.364 -2.7498  1.1243 -0.3343
 5556SOL     OW28303   3.002   3.374  17.725  0.2420  0.3016  0.0781
 5556SOL    HW128304   3.042   3.456   0.011  0.2509 -0.2553  1.8187
 5556SOL    HW228305   3.074   3.311  17.729  1.0399  1.3037  1.3369
 5557SOL     OW28306   1.203   4.331   5.856 -0.1785  0.0740 -0.2089
 5557SOL    HW128307   1.175   4.239   5.854 -4.1863  1.2990 -0.7288
 5557SOL    HW228308   1.235   4.347   5.945 -1.8997  1.3533  0.1731
 5558SOL     OW28309   3.157   2.293   8.504  0.2846  0.4519  0.1220
 5558SOL    HW128310   3.223   2.257   8.444 -2.8574 -1.8845 -1.9270
 5558SOL    HW228311   3.078   2.252   8.469  0.6377 -1.3705  1.4279
 5559SOL     OW28312   1.855   0.058   5.482  0.0304  0.7865  0.1504
 5559SOL    HW128313   1.891   4.716   5.440  0.3989  0.7347  0.5586
 5559SOL    HW228314   1.766   0.035   5.508 -0.8956  0.2791 -3.4371
 5560SOL     OW28315   4.101   3.582  11.497 -0.1886  0.3756 -0.0481
 5560SOL    HW128316   4.146   3.645  11.441 -0.3965  1.4069  0.9516
 5560SOL    HW228317   4.151   3.575  11.578 -1.2809  0.3984  0.6354
 5561SOL     OW28318   3.821   0.974  13.512 -0.0146 -0.5330 -0.1999
 5561SOL    HW128319   3.856   0.926  13.587 -0.5103 -0.6606 -0.0490
 5561SOL    HW228320   3.858   0.920  13.442  1.4208 -0.4869  0.5349
 5562SOL     OW28321   1.707   1.828  10.940  0.2454  0.1868 -0.7891
 5562SOL    HW128322   1.760   1.857  11.015  0.2851  0.0047 -0.7465
 5562SOL    HW228323   1.622   1.819  10.984  0.3858 -2.5041 -1.0517
 5563SOL     OW28324   0.500   0.525   8.173  0.3913 -0.6342 -0.0876
 5563SOL    HW128325   0.474   0.446   8.220  0.1280  1.2275  2.9418
 5563SOL    HW228326   0.586   0.501   8.140  0.7040  2.5573 -1.6108
 5564SOL     OW28327   3.808   2.410   6.368  0.1396 -0.1209 -0.4980
 5564SOL    HW128328   3.833   2.423   6.276  2.2731 -3.0702 -0.3531
 5564SOL    HW228329   3.881   2.453   6.412 -1.4880  1.2297  0.8956
 5565SOL     OW28330   3.416   0.893   8.260 -0.2030  0.6857 -0.2452
 5565SOL    HW128331   3.432   0.802   8.236  1.9902  1.0898 -0.3472
 5565SOL    HW228332   3.410   0.934   8.174  1.3177 -0.0093 -0.6878
 5566SOL     OW28333   1.405   3.413  13.164 -0.1096  0.2781 -0.0988
 5566SOL    HW128334   1.345   3.468  13.213 -1.3956  0.8618 -2.3361
 5566SOL    HW228335   1.400   3.329  13.210  3.0258  0.0819 -0.1265
 5567SOL     OW28336   2.445   2.991   5.059 -0.4072  0.4340  0.7323
 5567SOL    HW128337   2.463   2.938   4.982 -0.9311  1.3524 -0.0093
 5567SOL    HW228338   2.478   2.936   5.131 -1.0795 -1.1740 -0.1851
 5568SOL     OW28339   3.141   4.618   2.391  0.3990  0.4466  0.2676
 5568SOL    HW128340   3.054   4.603   2.428  0.1195  0.2787 -0.4540
 5568SOL    HW228341   3.178   4.534   2.365 -0.6551  0.0604  0.0119
 5569SOL     OW28342   3.643   2.881   7.691  0.0450 -0.5467 -0.1165
 5569SOL    HW128343   3.715   2.853   7.747 -0.6344 -0.6157  0.7157
 5569SOL    HW228344   3.565   2.851   7.738  1.2743 -0.8870  1.7267
 5570SOL     OW28345   1.496   4.689   4.834 -1.0499 -0.4823  0.4201
 5570SOL    HW128346   1.460   4.685   4.922 -0.5551  1.5896  0.7001
 5570SOL    HW228347   1.583   4.651   4.847 -1.0988 -1.4939 -2.0918
 5571SOL     OW28348   0.177   2.171  10.271 -0.1498  0.1769 -0.5573
 5571SOL    HW128349   0.124   2.231  10.322 -0.8438 -1.8873  1.1390
 5571SOL    HW228350   0.131   2.185  10.188  1.1390 -0.6418 -1.4089
 5572SOL     OW28351   0.991   0.401   0.106  0.2276 -0.5314  0.4079
 5572SOL    HW128352   0.952   0.487   0.121  2.0515 -0.1424  2.9278
 5572SOL    HW228353   1.004   0.399   0.011 -1.4650  0.0111  0.1682
 5573SOL     OW28354   2.005   0.840   5.616 -0.1336  0.1794 -0.0458
 5573SOL    HW128355   1.940   0.861   5.550  1.5740  0.6907 -1.5571
 5573SOL    HW228356   2.062   0.916   5.604 -0.4661  0.7652  1.9113
 5574SOL     OW28357   2.168   2.920   4.140 -0.0459 -0.0501  0.2018
 5574SOL    HW128358   2.219   2.923   4.059  0.7327  0.4118  0.7122
 5574SOL    HW228359   2.122   2.837   4.126  0.3769 -0.7546  2.8941
 5575SOL     OW28360   1.095   1.995  16.016  0.2970  0.1131  0.1181
 5575SOL    HW128361   1.152   1.930  15.974 -1.0284 -1.3948  0.6651
 5575SOL    HW228362   1.017   1.950  15.984  1.0041  0.6732 -2.4002
 5576SOL     OW28363   1.355   2.981   8.797 -0.0810 -0.0554  0.1519
 5576SOL    HW128364   1.283   2.920   8.778  0.6852 -1.0484  0.4781
 5576SOL    HW228365   1.418   2.960   8.728 -1.5533 -0.8336 -0.9729
 5577SOL     OW28366   4.414   1.883   2.534 -0.3525 -0.5378  0.3937
 5577SOL    HW128367   4.373   1.947   2.476  0.4441 -1.0064 -0.6982
 5577SOL    HW228368   4.508   1.896   2.524 -0.6302  2.2341  1.3362
 5578SOL     OW28369   2.321   3.401   1.774 -0.1226 -0.1029  0.0687
 5578SOL    HW128370   2.394   3.396   1.836 -0.2708  1.6700  0.3921
 5578SOL    HW228371   2.369   3.391   1.693  0.5571 -0.1149  0.4726
 5579SOL     OW28372   2.941   0.581  16.155 -1.0017 -0.4217 -0.3663
 5579SOL    HW128373   2.945   0.590  16.059  1.9949  0.2211 -0.1676
 5579SOL    HW228374   3.019   0.532  16.180 -0.5193 -0.2036 -1.4113
 5580SOL     OW28375   4.465   2.832  11.679  0.2207  0.7788  0.3086
 5580SOL    HW128376   4.406   2.857  11.608  0.0494  0.2550  0.2653
 5580SOL    HW228377   4.542   2.861  11.629  0.5580  1.3342  1.1504
 5581SOL     OW28378   4.200   3.752  10.575 -0.0424  0.1337  0.3147
 5581SOL    HW128379   4.286   3.719  10.598  0.4480  2.5525  1.9800
 5581SOL    HW228380   4.205   3.752  10.480  0.4331  3.8400  0.3279
 5582SOL     OW28381   0.969   1.249  14.629  0.5187  0.2381 -0.1943
 5582SOL    HW128382   1.009   1.315  14.572  2.6917 -0.6671  0.3079
 5582SOL    HW228383   1.035   1.226  14.694  0.5677 -1.8397 -0.9813
 5583SOL     OW28384   2.688   1.293  10.380  0.5155  0.0760 -0.2833
 5583SOL    HW128385   2.747   1.366  10.401  0.0830  0.6645 -1.1007
 5583SOL    HW228386   2.689   1.240  10.460 -1.1080  1.8181  0.9082
 5584SOL     OW28387   3.392   1.990   7.220 -0.1202 -0.1645  0.4283
 5584SOL    HW128388   3.318   2.045   7.196 -0.8861 -1.5823 -0.4632
 5584SOL    HW228389   3.358   1.902   7.236 -1.0751 -0.0244 -0.8801
 5585SOL     OW28390   1.683   1.278   7.352  0.6998 -0.7060  0.0052
 5585SOL    HW128391   1.661   1.269   7.260  0.0072 -2.8963  0.3772
 5585SOL    HW228392   1.766   1.326   7.357  1.2978 -1.8259  0.8998
 5586SOL     OW28393   3.351   1.140   6.329 -0.2064 -0.3419 -0.3190
 5586SOL    HW128394   3.404   1.196   6.272  0.5075  2.1859  2.8686
 5586SOL    HW228395   3.358   1.183   6.414 -0.6987  0.3742 -0.6362
 5587SOL     OW28396   3.880   2.250   5.160  0.0997 -0.4077 -0.3240
 5587SOL    HW128397   3.910   2.199   5.236 -0.0076 -1.4303 -0.9701
 5587SOL    HW228398   3.788   2.233   5.181  0.0960 -0.5054 -0.4201
 5588SOL     OW28399   3.965   1.770  11.912  0.5035  0.0563  0.4144
 5588SOL    HW128400   4.039   1.806  11.960 -0.2719 -1.3320  2.6808
 5588SOL    HW228401   4.018   1.699  11.875  0.1642  0.0079  0.0270
 5589SOL     OW28402   4.174   1.985   6.682  0.4649 -0.0798 -0.3724
 5589SOL    HW128403   4.249   1.938   6.718  0.6864 -1.5990 -2.7829
 5589SOL    HW228404   4.203   2.075   6.670 -1.4118  0.4028 -1.3406
 5590SOL     OW28405   3.134   1.729  17.428  0.1080  0.1873 -0.1833
 5590SOL    HW128406   3.176   1.788  17.365  1.3667  0.6031  1.0663
 5590SOL    HW228407   3.142   1.648  17.379  1.1708  1.0430 -1.4153
 5591SOL     OW28408   4.567   3.156   7.835 -0.1230 -0.2489 -0.6615
 5591SOL    HW128409   4.488   3.204   7.859  1.5817  1.6878  1.0400
 5591SOL    HW228410   4.599   3.121   7.918  0.0493  2.2331  0.3209
 5592SOL     OW28411   4.531   2.006  17.075 -0.2666 -0.3302 -0.0663
 5592SOL    HW128412   4.444   2.018  17.037  1.5946  4.7642 -2.6944
 5592SOL    HW228413   4.585   2.050  17.009 -0.7613  0.2367 -0.0919
 5593SOL     OW28414   1.389   2.500   3.357  0.5002  0.2353 -0.2498
 5593SOL    HW128415   1.407   2.412   3.389  1.5628  1.4248  2.4153
 5593SOL    HW228416   1.360   2.548   3.435  0.4639 -0.0622 -0.0818
 5594SOL     OW28417   3.270   1.264   3.272 -0.4705 -0.1820  0.1141
 5594SOL    HW128418   3.355   1.229   3.243 -1.2286 -0.8145 -1.3378
 5594SOL    HW228419   3.215   1.188   3.254  0.4841 -0.8599  0.0358
 5595SOL     OW28420   3.374   3.425   7.843 -0.6325  0.2349  0.1946
 5595SOL    HW128421   3.398   3.494   7.905 -2.6832  1.1199 -0.0033
 5595SOL    HW228422   3.352   3.486   7.773  1.3513  1.8076  0.9189
 5596SOL     OW28423   3.258   3.556   6.726 -0.0405  0.1979 -0.3155
 5596SOL    HW128424   3.239   3.584   6.816 -2.7375 -0.8049 -0.5914
 5596SOL    HW228425   3.326   3.620   6.707  0.0655 -0.1247 -1.0090
 5597SOL     OW28426   4.685   1.427   1.962 -0.0650  0.4793 -0.2354
 5597SOL    HW128427   4.616   1.370   1.994  0.6086  0.5363  1.2965
 5597SOL    HW228428   4.707   1.451   2.052  1.4641  0.4858 -0.6137
 5598SOL     OW28429   2.097   3.468   7.230  0.1760 -0.3444 -0.4033
 5598SOL    HW128430   2.192   3.457   7.223  0.4337  0.6860  1.3525
 5598SOL    HW228431   2.067   3.394   7.176 -1.0916  0.5649 -0.9463
 5599SOL     OW28432   3.022   4.177   8.417  0.2807  0.5023  0.1738
 5599SOL    HW128433   3.042   4.144   8.330 -0.4960 -0.5294  0.3880
 5599SOL    HW228434   2.994   4.268   8.405 -0.4395  0.0439 -1.7005
 5600SOL     OW28435   1.127   1.506   1.966  0.7581 -0.1756  0.2221
 5600SOL    HW128436   1.157   1.431   1.914 -0.8881  0.9491 -2.3715
 5600SOL    HW228437   1.139   1.575   1.901 -0.9410  1.2274  1.4145
 5601SOL     OW28438   3.451   2.993   8.815  0.5865  0.0024 -0.2113
 5601SOL    HW128439   3.391   2.959   8.880 -0.7407 -0.9306 -1.9159
 5601SOL    HW228440   3.440   2.934   8.740  0.6085 -1.7129  1.1655
 5602SOL     OW28441   3.752   4.078   5.658  0.3038 -0.2299  0.2186
 5602SOL    HW128442   3.836   4.059   5.615  0.0431 -0.2838 -0.2667
 5602SOL    HW228443   3.710   4.135   5.594  0.1611  0.4326  0.9125
 5603SOL     OW28444   3.739   4.219  16.044  0.0417  0.3474  0.7829
 5603SOL    HW128445   3.707   4.228  15.954 -1.6073  2.6656  1.6111
 5603SOL    HW228446   3.834   4.218  16.034 -0.0306 -0.7308  0.2059
 5604SOL     OW28447   1.305   1.360   1.786 -0.1479  0.3307  0.4077
 5604SOL    HW128448   1.240   1.368   1.716  0.5918 -1.8452 -0.5248
 5604SOL    HW228449   1.341   1.277   1.753  0.1723  0.5340  0.2449
 5605SOL     OW28450   0.895   3.694   4.352 -0.3641 -0.2554 -0.3664
 5605SOL    HW128451   0.887   3.728   4.441  1.0365 -3.7047  1.0381
 5605SOL    HW228452   0.820   3.735   4.309  0.9345  2.0064 -0.4823
 5606SOL     OW28453   1.152   1.608   6.759  0.1403 -0.3275  0.4399
 5606SOL    HW128454   1.181   1.562   6.681  0.5171  0.1932  0.2779
 5606SOL    HW228455   1.231   1.638   6.805 -0.6246 -0.0042  1.5636
 5607SOL     OW28456   2.242   4.147   1.665  0.6644 -0.3794 -0.2865
 5607SOL    HW128457   2.301   4.115   1.597 -2.0267 -1.3507 -2.1845
 5607SOL    HW228458   2.174   4.203   1.627  0.4003  0.0279  0.7787
 5608SOL     OW28459   1.336   0.907  16.894 -0.0960 -0.4706 -0.5353
 5608SOL    HW128460   1.353   1.001  16.899 -1.4759 -0.2588  0.1185
 5608SOL    HW228461   1.428   0.879  16.888 -0.5834 -1.9390 -1.1476
 5609SOL     OW28462   0.323   3.392   6.523 -0.0101  0.1063 -0.0354
 5609SOL    HW128463   0.323   3.300   6.496 -1.4753 -0.1852  0.9783
 5609SOL    HW228464   0.255   3.381   6.589  0.4653 -0.3245  0.3797
 5610SOL     OW28465   0.245   3.744   8.224  0.2766 -0.3012 -0.8256
 5610SOL    HW128466   0.290   3.687   8.286 -0.6521 -0.0157  0.0999
 5610SOL    HW228467   0.174   3.779   8.278  0.3209 -1.1067 -0.2507
 5611SOL     OW28468   1.124   1.277   7.952  0.1281  0.0152 -0.0768
 5611SOL    HW128469   1.129   1.341   8.023 -0.9391 -0.8220  0.7442
 5611SOL    HW228470   1.079   1.212   8.005  2.9385 -1.1298  0.9116
 5612SOL     OW28471   0.281   2.998  13.317 -0.0361  0.4450  0.2768
 5612SOL    HW128472   0.320   2.914  13.292 -0.7550 -0.0600  0.8858
 5612SOL    HW228473   0.351   3.060  13.298 -0.0165  0.2475 -0.3199
 5613SOL     OW28474   1.981   3.789  17.431  0.2881 -0.6777  0.1799
 5613SOL    HW128475   1.979   3.863  17.370  1.7678 -0.8614 -0.0757
 5613SOL    HW228476   1.907   3.747  17.387  1.8900 -1.0594 -2.1322
 5614SOL     OW28477   2.689   3.513   2.397  0.2469  0.2035 -0.1140
 5614SOL    HW128478   2.779   3.526   2.369  0.1725 -0.8325 -0.7995
 5614SOL    HW228479   2.652   3.473   2.318  0.9518 -1.8361  0.5898
 5615SOL     OW28480   2.137   0.846   8.730 -0.2111  0.2433 -0.0832
 5615SOL    HW128481   2.082   0.825   8.805  0.2340  1.0515  0.4670
 5615SOL    HW228482   2.224   0.840   8.769 -1.0761 -1.3096  1.5890
 5616SOL     OW28483   2.955   3.588  11.846 -0.0178  0.1453  0.0497
 5616SOL    HW128484   2.918   3.673  11.871 -1.1277 -0.1734 -0.5111
 5616SOL    HW228485   3.020   3.614  11.781 -1.4014 -0.6609 -1.6554
 5617SOL     OW28486   0.781   1.557  10.883  0.1661  0.0192  0.3023
 5617SOL    HW128487   0.869   1.571  10.850  0.3350 -0.4130  0.5709
 5617SOL    HW228488   0.745   1.645  10.881  0.0110 -0.0731 -1.2238
 5618SOL     OW28489   2.480   4.690  14.443 -0.8260 -0.2153 -0.0666
 5618SOL    HW128490   2.392   4.653  14.431 -0.2796 -1.6155  0.3123
 5618SOL    HW228491   2.526   4.624  14.391 -2.3037 -1.0451 -0.3462
 5619SOL     OW28492   4.530   3.527   5.023 -0.4526  0.3610 -0.1629
 5619SOL    HW128493   4.596   3.581   5.067 -1.6666  1.0239  0.8582
 5619SOL    HW228494   4.457   3.588   5.014 -0.2984  0.4478 -0.8252
 5620SOL     OW28495   3.258   0.711   6.839  0.0047 -0.8839 -0.1932
 5620SOL    HW128496   3.168   0.697   6.868 -0.2651  2.5520  0.5940
 5620SOL    HW228497   3.309   0.687   6.916  2.2837  0.7961 -1.1761
 5621SOL     OW28498   0.104   0.929   8.125 -0.3701 -0.0848 -0.5863
 5621SOL    HW128499   0.198   0.916   8.134 -0.2202  0.2475 -1.5975
 5621SOL    HW228500   0.112   1.005   8.068  2.4805  0.6041  0.7472
 5622SOL     OW28501   0.493   3.223   6.986  0.1225 -0.1175 -0.8646
 5622SOL    HW128502   0.533   3.260   7.065 -2.6349 -1.4056  1.1577
 5622SOL    HW228503   0.534   3.137   6.982 -0.9702 -0.5730 -2.0741
 5623SOL     OW28504   2.226   0.115   7.238  0.5454  0.4002 -0.3642
 5623SOL    HW128505   2.140   0.153   7.252  0.8145  1.8509 -2.6347
 5623SOL    HW228506   2.278   0.159   7.306 -1.4713  0.5917  1.0399
 5624SOL     OW28507   2.804   2.591   4.996  0.1049  0.0494  0.1913
 5624SOL    HW128508   2.886   2.596   5.046  0.5413 -2.6329 -0.2169
 5624SOL    HW228509   2.745   2.546   5.057  1.0354 -0.4796  0.6998
 5625SOL     OW28510   3.604   1.836   7.969 -0.6929  0.1536 -0.1484
 5625SOL    HW128511   3.578   1.744   7.974 -0.9036  0.2950  1.4156
 5625SOL    HW228512   3.669   1.836   8.039 -1.1380 -0.9695  0.2632
 5626SOL     OW28513   2.919   4.497   0.242 -0.5632 -0.1820  0.5321
 5626SOL    HW128514   2.826   4.499   0.219 -0.6544  2.8609  1.1441
 5626SOL    HW228515   2.916   4.567   0.307 -0.4675  0.1533  0.1762
 5627SOL     OW28516   1.917   4.146   7.710  0.0065 -0.0916  0.0030
 5627SOL    HW128517   1.945   4.196   7.787  1.1016 -0.7487  0.0286
 5627SOL    HW228518   1.992   4.157   7.651  0.4133 -1.1152  0.3369
 5628SOL     OW28519   3.539   4.110   3.762 -0.7176  0.1989 -0.2580
 5628SOL    HW128520   3.458   4.160   3.763 -0.7131  0.1515  3.4366
 5628SOL    HW228521   3.593   4.153   3.695  0.8135  0.3933  1.1028
 5629SOL     OW28522   3.002   1.778   7.833  1.0558 -0.0253 -0.6829
 5629SOL    HW128523   3.046   1.861   7.815  1.4173 -0.1176 -0.2345
 5629SOL    HW228524   2.974   1.752   7.746 -1.7025 -1.1359  0.5552
 5630SOL     OW28525   3.061   0.471  16.903 -0.8608 -0.6336 -0.0195
 5630SOL    HW128526   3.039   0.472  16.810 -1.7110 -1.2136  0.1796
 5630SOL    HW228527   3.141   0.524  16.899 -0.0201 -1.9109 -0.4102
 5631SOL     OW28528   4.669   1.825   4.568  0.8210  0.7854 -0.1464
 5631SOL    HW128529   4.668   1.763   4.641  0.9782  0.1697 -0.6662
 5631SOL    HW228530   0.012   1.879   4.578  0.8941  0.9344 -1.5154
 5632SOL     OW28531   4.272   4.484   2.263  0.2792  0.1134  0.6145
 5632SOL    HW128532   4.249   4.563   2.213 -1.8135 -0.4898  0.6174
 5632SOL    HW228533   4.229   4.425   2.201  1.7230 -1.1035  0.7789
 5633SOL     OW28534   3.501   0.486   6.073 -0.3170  0.3051  0.2674
 5633SOL    HW128535   3.554   0.488   6.152  2.3124 -2.6256 -1.4440
 5633SOL    HW228536   3.439   0.416   6.094  0.8036  0.0216  2.6712
 5634SOL     OW28537   1.172   3.601   8.741  0.3566 -0.0711 -0.0584
 5634SOL    HW128538   1.251   3.644   8.773  0.5962  0.7854 -1.7634
 5634SOL    HW228539   1.103   3.646   8.788  1.1596 -0.3189  1.3504
 5635SOL     OW28540   2.570   4.398   6.558 -0.0411  0.6262 -0.3198
 5635SOL    HW128541   2.579   4.395   6.463  0.5381 -1.9820 -0.1871
 5635SOL    HW228542   2.630   4.327   6.580  0.3792  1.7965  2.4107
 5636SOL     OW28543   1.125   0.173   2.447  0.0888 -0.3403 -0.9379
 5636SOL    HW128544   1.168   0.096   2.485  1.2642  0.9912  0.3995
 5636SOL    HW228545   1.034   0.143   2.449  0.0095 -0.0841 -0.7385
 5637SOL     OW28546   4.048   0.652  17.521  0.1243  0.1723 -0.1632
 5637SOL    HW128547   3.983   0.706  17.565 -1.2934 -0.6710 -1.2462
 5637SOL    HW228548   4.046   0.682  17.430 -1.7917 -1.1101 -0.5259
 5638SOL     OW28549   3.741   3.243   6.375  0.3572  0.1534 -0.2142
 5638SOL    HW128550   3.729   3.169   6.435 -0.9193  0.2479 -0.3495
 5638SOL    HW228551   3.777   3.192   6.302  0.6670  0.3954 -0.2305
 5639SOL     OW28552   1.770   4.078  12.414  0.3577  0.1032  0.3608
 5639SOL    HW128553   1.806   3.991  12.432 -3.1519 -1.0463  1.7681
 5639SOL    HW228554   1.833   4.141  12.449  0.6925  0.2087 -0.4389
 5640SOL     OW28555   2.368   4.303   3.815 -0.1042 -0.0125  0.3889
 5640SOL    HW128556   2.322   4.261   3.888  1.3274 -0.2892  1.1344
 5640SOL    HW228557   2.418   4.373   3.858  2.3440 -0.9496 -0.9185
 5641SOL     OW28558   3.805   2.903   7.461  0.7056 -0.1485 -0.2912
 5641SOL    HW128559   3.852   2.821   7.478 -1.5524 -1.3810 -0.0639
 5641SOL    HW228560   3.748   2.913   7.537  1.7592 -4.8813  1.0838
 5642SOL     OW28561   1.007   3.592   3.676 -0.1002 -0.2870  0.7345
 5642SOL    HW128562   1.051   3.507   3.679 -1.5664 -1.1124 -1.3050
 5642SOL    HW228563   0.945   3.589   3.603 -1.1550  2.3971  1.5177
 5643SOL     OW28564   3.561   0.621  10.326 -0.2476  0.2080  0.3491
 5643SOL    HW128565   3.482   0.567  10.322  0.0074 -0.0939 -0.5281
 5643SOL    HW228566   3.551   0.651  10.417  0.2476  3.1015 -0.5656
 5644SOL     OW28567   2.758   3.752   4.263 -0.0555  0.1247 -0.4995
 5644SOL    HW128568   2.805   3.793   4.336  0.7308 -0.7263 -0.5196
 5644SOL    HW228569   2.822   3.706   4.209  0.8492 -0.1481  0.8054
 5645SOL     OW28570   3.325   3.204  16.717  0.5574  0.0111 -0.0005
 5645SOL    HW128571   3.277   3.228  16.638 -1.5863 -0.1447  1.2460
 5645SOL    HW228572   3.265   3.134  16.744  0.3158  0.0622 -0.4106
 5646SOL     OW28573   2.078   4.230   6.021  0.4159 -0.0363  0.3479
 5646SOL    HW128574   2.032   4.313   6.032  0.0692 -0.3450  1.2297
 5646SOL    HW228575   2.138   4.257   5.951 -1.6853 -1.2662 -1.9534
 5647SOL     OW28576   0.692   3.987   6.493  0.1275 -0.5039  0.5297
 5647SOL    HW128577   0.598   4.001   6.503  0.1327 -0.5534  0.6474
 5647SOL    HW228578   0.726   4.076   6.501  0.0447 -0.3614 -0.7089
 5648SOL     OW28579   2.077   4.383  16.999 -0.6212 -0.3125 -0.1277
 5648SOL    HW128580   1.983   4.373  17.016 -0.8244 -0.0941 -1.1240
 5648SOL    HW228581   2.104   4.291  17.001 -0.7035 -0.3414 -0.2717
 5649SOL     OW28582   1.794   4.247   2.875 -0.5327  0.0020  0.6437
 5649SOL    HW128583   1.768   4.171   2.927 -0.8618  3.0974  5.0141
 5649SOL    HW228584   1.887   4.254   2.898 -0.1069  0.9361 -1.3356
 5650SOL     OW28585   3.649   0.272  14.634  0.4561  0.0634 -0.1661
 5650SOL    HW128586   3.724   0.254  14.691  0.0941  0.9576  0.5937
 5650SOL    HW228587   3.617   0.354  14.673  0.1495  0.4321 -1.2112
 5651SOL     OW28588   0.770   1.981   1.514  0.1019 -0.5076 -0.6765
 5651SOL    HW128589   0.850   1.937   1.545  0.3674  0.4044 -0.0612
 5651SOL    HW228590   0.813   2.024   1.440  2.4343 -0.1641  0.8755
 5652SOL     OW28591   0.275   3.391   4.666 -0.3064  0.1216  0.0731
 5652SOL    HW128592   0.265   3.415   4.574  0.7136  6.6123  1.7011
 5652SOL    HW228593   0.364   3.425   4.674 -0.1771 -0.5408  1.4870
 5653SOL     OW28594   2.709   3.784  10.185  0.3131  0.4238  0.0540
 5653SOL    HW128595   2.798   3.783  10.149  0.5678  1.2347  0.6490
 5653SOL    HW228596   2.715   3.707  10.241  0.8044  0.7087  0.4014
 5654SOL     OW28597   4.057   2.669   3.982  0.3623 -0.0384  0.0440
 5654SOL    HW128598   4.152   2.673   3.984  0.3694 -0.9838  1.4253
 5654SOL    HW228599   4.033   2.602   4.046 -0.0653 -0.4715 -0.5595
 5655SOL     OW28600   0.356   2.854   4.790 -0.2951  0.2777 -0.3064
 5655SOL    HW128601   0.268   2.882   4.816 -0.8930 -0.2550 -1.7794
 5655SOL    HW228602   0.359   2.906   4.711  1.0907 -0.6155 -0.8367
 5656SOL     OW28603   3.542   4.650   5.814  0.0143  0.1537  0.2496
 5656SOL    HW128604   3.547   4.614   5.726 -1.4187  0.5238  0.0063
 5656SOL    HW228605   3.459   4.698   5.809  0.0998  0.2819  0.0880
 5657SOL     OW28606   3.340   4.251   4.033  0.1075 -0.0934  0.0641
 5657SOL    HW128607   3.364   4.322   4.092 -2.7730  1.3020 -0.4416
 5657SOL    HW228608   3.355   4.166   4.074  0.4172 -0.7951 -1.4841
 5658SOL     OW28609   3.358   2.440   8.956 -0.4811 -0.8002 -0.5709
 5658SOL    HW128610   3.390   2.511   9.011 -1.4242 -1.2004  0.5289
 5658SOL    HW228611   3.333   2.491   8.879 -1.7610  0.2784  0.5555
 5659SOL     OW28612   3.208   1.600   3.465 -0.4814 -0.1357 -1.1189
 5659SOL    HW128613   3.265   1.570   3.395 -0.3289 -0.2886 -0.9290
 5659SOL    HW228614   3.118   1.582   3.437 -1.6513  0.9270  1.9703
 5660SOL     OW28615   0.773   1.974   8.510 -0.1286 -0.4296  0.4017
 5660SOL    HW128616   0.770   2.066   8.534 -1.8191 -0.1259 -0.9887
 5660SOL    HW228617   0.733   1.938   8.590 -0.5545  0.3114  0.5192
 5661SOL     OW28618   2.832   3.610   2.059 -0.5889  0.2134 -0.3371
 5661SOL    HW128619   2.854   3.673   1.990 -2.1198  0.7066 -0.3710
 5661SOL    HW228620   2.890   3.543   2.024 -2.1294 -1.7778  0.9843
 5662SOL     OW28621   0.961   2.648  17.172  0.0342  0.0630  0.0880
 5662SOL    HW128622   1.003   2.580  17.119 -1.0593 -0.4687 -0.1036
 5662SOL    HW228623   0.997   2.730  17.139 -1.7150  0.8674  0.1959
 5663SOL     OW28624   0.292   0.294   8.677 -0.5573 -0.5623  0.4768
 5663SOL    HW128625   0.275   0.201   8.689 -1.9472 -0.6794 -2.4555
 5663SOL    HW228626   0.373   0.298   8.627  0.1038 -1.0149  1.4971
 5664SOL     OW28627   0.479   2.227   5.916 -0.0886  0.0311  0.0821
 5664SOL    HW128628   0.479   2.168   5.841  3.1531  2.3571 -1.7068
 5664SOL    HW228629   0.554   2.187   5.959  0.2782  0.1904 -0.4124
 5665SOL     OW28630   2.158   1.276   1.333  0.1564 -0.0997  0.1159
 5665SOL    HW128631   2.088   1.330   1.297  0.0076  0.4259  1.2112
 5665SOL    HW228632   2.121   1.264   1.421  0.0601  0.3178  0.1287
 5666SOL     OW28633   4.196   1.722   3.018 -0.5390 -0.2355 -0.7176
 5666SOL    HW128634   4.184   1.640   3.066 -1.3728 -0.0668 -0.6519
 5666SOL    HW228635   4.292   1.730   3.012 -0.7262  3.6165  1.0386
 5667SOL     OW28636   1.041   0.566   4.292 -0.6400  0.1273  0.0860
 5667SOL    HW128637   1.126   0.525   4.276 -0.2445  0.5436  1.1546
 5667SOL    HW228638   1.001   0.494   4.341 -0.6646 -0.9891 -1.5477
 5668SOL     OW28639   1.427   3.050  10.490 -0.6690 -0.3334 -0.4081
 5668SOL    HW128640   1.448   3.136  10.527  0.0256 -1.3859  1.6417
 5668SOL    HW228641   1.332   3.050  10.498 -0.5815 -1.5412  0.5972
 5669SOL     OW28642   3.300   0.383   4.985 -0.0282  0.2711 -0.2193
 5669SOL    HW128643   3.365   0.365   4.916 -2.2908  1.3274 -2.6098
 5669SOL    HW228644   3.352   0.360   5.062  0.4249 -1.9364 -1.1716
 5670SOL     OW28645   1.893   2.462  12.063 -0.0582  0.6323  0.2126
 5670SOL    HW128646   1.965   2.410  12.029 -1.4380 -0.8407 -0.4784
 5670SOL    HW228647   1.870   2.508  11.981 -1.3577  0.0315  0.2318
 5671SOL     OW28648   4.025   0.177   9.674 -0.1382 -0.1199  0.5813
 5671SOL    HW128649   4.117   0.194   9.693  0.1001  0.3450 -0.9295
 5671SOL    HW228650   3.986   0.265   9.676 -1.4281 -0.5996 -2.3896
 5672SOL     OW28651   1.929   0.817  17.665  0.3017  0.5974  0.4833
 5672SOL    HW128652   1.916   0.731  17.707 -2.6608  0.8677  0.1144
 5672SOL    HW228653   1.920   0.783  17.576 -0.3313 -2.1465  1.5933
 5673SOL     OW28654   4.355   1.782   6.353 -0.3569 -0.1000 -0.3722
 5673SOL    HW128655   4.417   1.845   6.389 -2.4522  2.1490 -0.6518
 5673SOL    HW228656   4.382   1.703   6.399  0.8871  0.2874 -0.4405
 5674SOL     OW28657   1.533   4.553   5.706  0.4858 -0.1673  0.4880
 5674SOL    HW128658   1.452   4.503   5.689  0.9607 -0.7788  0.0250
 5674SOL    HW228659   1.561   4.518   5.791 -2.2688 -0.8464  1.1326
 5675SOL     OW28660   1.418   3.539   1.955 -0.7524 -0.2618  0.0467
 5675SOL    HW128661   1.484   3.525   1.887 -0.5793  0.5711  0.0393
 5675SOL    HW228662   1.434   3.626   1.992 -0.2899 -0.7403  0.9561
 5676SOL     OW28663   0.095   4.600   9.226 -0.0199  0.0150 -0.1036
 5676SOL    HW128664   0.048   4.667   9.275 -0.3582  0.9355 -1.6811
 5676SOL    HW228665   0.077   4.520   9.277 -0.4908  1.5755  2.1639
 5677SOL     OW28666   1.482   4.735   9.032  0.3565  0.5286  0.3387
 5677SOL    HW128667   1.490   0.081   9.082 -2.4533 -0.2713  2.1310
 5677SOL    HW228668   1.562   4.692   9.063  0.6435 -0.6855 -2.1232
 5678SOL     OW28669   1.220   1.274   9.424 -0.4850  0.4172 -0.1646
 5678SOL    HW128670   1.226   1.222   9.504  3.4270  1.1951  0.0490
 5678SOL    HW228671   1.314   1.282   9.408 -0.4489  1.7150  0.7554
 5679SOL     OW28672   0.799   0.746  11.260  0.5706 -0.4480 -1.0785
 5679SOL    HW128673   0.754   0.662  11.259  0.6090 -0.4685 -1.0923
 5679SOL    HW228674   0.882   0.724  11.219  0.3332 -1.0080 -1.2510
 5680SOL     OW28675   0.611   0.335  12.958 -0.6740  0.5543 -0.2506
 5680SOL    HW128676   0.600   0.259  12.901 -1.4831  0.7230 -0.3066
 5680SOL    HW228677   0.664   0.401  12.913 -2.6444  1.1969 -1.5826
 5681SOL     OW28678   1.740   1.214   4.078  0.4701 -0.5841 -0.4577
 5681SOL    HW128679   1.729   1.206   4.172 -1.4712 -2.0971 -0.8162
 5681SOL    HW228680   1.658   1.261   4.062  0.0154 -1.5577 -0.9817
 5682SOL     OW28681   1.387   4.446  14.160 -0.3784  0.1031  0.0709
 5682SOL    HW128682   1.462   4.386  14.169  1.7010  2.5956 -0.6832
 5682SOL    HW228683   1.372   4.477  14.249 -0.8726  1.5374 -0.5131
 5683SOL     OW28684   2.101   4.329   7.326  0.1059  0.0420  0.2908
 5683SOL    HW128685   2.099   4.269   7.252 -1.3227  0.8958 -0.3765
 5683SOL    HW228686   2.008   4.341   7.347  0.4191  1.7548  0.7243
 5684SOL     OW28687   2.230   1.842   7.198  0.7517 -0.0959  0.0996
 5684SOL    HW128688   2.197   1.877   7.115 -3.1041 -0.0539  1.6717
 5684SOL    HW228689   2.183   1.759   7.198  3.1029 -1.4154  0.1881
 5685SOL     OW28690   1.216   3.407   3.688 -0.0856 -0.1858  0.0974
 5685SOL    HW128691   1.257   3.444   3.609 -1.1072  0.8631  0.0607
 5685SOL    HW228692   1.264   3.452   3.758  0.2449  1.1358 -0.9773
 5686SOL     OW28693   2.729   2.329   7.259 -0.1275 -0.0754  0.5462
 5686SOL    HW128694   2.795   2.383   7.216 -1.2783 -0.9954 -2.4321
 5686SOL    HW228695   2.659   2.394   7.256  1.7145  1.9869  3.1581
 5687SOL     OW28696   3.233   4.448  12.671 -0.1121 -0.5522  0.1694
 5687SOL    HW128697   3.249   4.369  12.723 -1.1290 -1.6531 -1.1528
 5687SOL    HW228698   3.265   4.429  12.583  1.4497 -0.4312  0.7208
 5688SOL     OW28699   3.489   0.832  12.543  0.0601 -0.1347  0.9327
 5688SOL    HW128700   3.423   0.842  12.612  0.8496 -0.0379  1.6741
 5688SOL    HW228701   3.427   0.851  12.473 -0.2675  0.8497  1.4967
 5689SOL     OW28702   1.546   0.137   1.970  0.5310  0.9371 -0.3092
 5689SOL    HW128703   1.515   0.227   1.976  2.7457  1.4690  3.1055
 5689SOL    HW228704   1.465   0.092   1.945 -0.0951  1.7103  0.3287
 5690SOL     OW28705   2.162   2.801   4.869  0.3237  0.3482 -0.0229
 5690SOL    HW128706   2.138   2.722   4.821 -2.5945  0.7552  0.7759
 5690SOL    HW228707   2.072   2.828   4.888  0.4926  0.0349  1.2048
 5691SOL     OW28708   1.567   4.385   8.060  0.4154 -0.1502 -0.0007
 5691SOL    HW128709   1.619   4.309   8.087 -1.0238 -1.7627 -1.8146
 5691SOL    HW228710   1.632   4.453   8.081  2.2174 -1.7419 -0.4594
 5692SOL     OW28711   1.225   0.556   4.535 -0.0197  0.3027  0.1307
 5692SOL    HW128712   1.146   0.573   4.585  0.7161  2.6521  0.4937
 5692SOL    HW228713   1.293   0.535   4.598 -1.9440 -1.2139  1.6911
 5693SOL     OW28714   3.359   1.591  11.219  0.1048 -0.1279  0.6601
 5693SOL    HW128715   3.401   1.596  11.305 -1.2200 -0.9221  1.3491
 5693SOL    HW228716   3.266   1.599  11.239 -0.6457 -1.4640 -2.4113
 5694SOL     OW28717   4.016   2.879  15.370 -0.4504  0.0964  0.2746
 5694SOL    HW128718   4.010   2.846  15.280 -1.2025 -0.3926  0.5063
 5694SOL    HW228719   4.110   2.893  15.386  0.0207 -2.7674 -0.1031
 5695SOL     OW28720   1.651   2.677   7.444 -0.1218 -0.2922 -0.2330
 5695SOL    HW128721   1.667   2.587   7.415  2.6148  0.3881 -0.8342
 5695SOL    HW228722   1.736   2.717   7.427  0.2871 -1.5708 -1.1847
 5696SOL     OW28723   1.217   0.354  12.272 -0.9151 -0.0424 -0.0042
 5696SOL    HW128724   1.236   0.345  12.365  0.0022  1.1016 -0.0882
 5696SOL    HW228725   1.209   0.449  12.259  1.9970 -0.2651 -3.4389
 5697SOL     OW28726   2.458   0.846  15.249  0.1589 -0.1989 -0.2911
 5697SOL    HW128727   2.396   0.916  15.270  1.1124  0.8827 -1.0514
 5697SOL    HW228728   2.523   0.906  15.213  2.5829 -1.9074  1.2713
 5698SOL     OW28729   2.957   1.082  14.871  0.7951 -0.1671  0.1998
 5698SOL    HW128730   2.972   1.050  14.782 -6.0385 -1.9525 -0.3072
 5698SOL    HW228731   2.863   1.096  14.872  0.4814 -2.3988  1.2331
 5699SOL     OW28732   1.358   4.109   4.266 -0.1695  0.1490 -0.4574
 5699SOL    HW128733   1.386   4.072   4.182 -2.1961 -1.0664 -0.5914
 5699SOL    HW228734   1.431   4.067   4.310  0.3391 -0.3503 -1.7723
 5700SOL     OW28735   0.160   0.679   9.816  0.4283  0.2503 -0.2397
 5700SOL    HW128736   0.251   0.705   9.832  0.6148  0.4982 -1.7169
 5700SOL    HW228737   0.119   0.764   9.829 -1.3943 -0.4106 -1.7266
 5701SOL     OW28738   1.500   0.124   3.669 -0.0493 -0.4367  0.2029
 5701SOL    HW128739   1.431   0.140   3.605  0.2156 -0.9835 -0.2151
 5701SOL    HW228740   1.448   0.080   3.737 -3.5058  2.5803 -0.4609
 5702SOL     OW28741   4.684   4.099   7.366  0.4667  0.0084  0.4491
 5702SOL    HW128742   4.657   4.007   7.355  0.0204 -0.0663  2.1658
 5702SOL    HW228743   0.044   4.091   7.362  0.3851 -1.1635  0.7127
 5703SOL     OW28744   1.517   3.715  10.885  0.1148  0.1929 -0.0201
 5703SOL    HW128745   1.544   3.800  10.919 -0.0722  0.3636 -0.2981
 5703SOL    HW228746   1.596   3.675  10.850  0.8638  0.3185  1.5318
 5704SOL     OW28747   4.583   2.013   1.741  0.0548 -0.1657  0.4821
 5704SOL    HW128748   4.528   1.935   1.739 -1.0901  0.6278  1.1638
 5704SOL    HW228749   4.672   1.978   1.740  0.6590  1.2968  3.0415
 5705SOL     OW28750   4.694   4.427  11.072  0.7254 -0.5013 -0.3410
 5705SOL    HW128751   4.668   4.428  10.980 -0.3478 -2.5308 -0.0447
 5705SOL    HW228752   0.036   4.483  11.074 -1.4851  2.4426  2.2679
 5706SOL     OW28753   4.539   0.926   3.991 -0.3096 -0.2139  0.3679
 5706SOL    HW128754   4.459   0.952   4.036 -1.5997 -1.0038 -1.4304
 5706SOL    HW228755   4.502   0.926   3.902 -0.9094  2.3135  0.6109
 5707SOL     OW28756   0.876   2.630   5.969  1.0734  0.0092  0.1655
 5707SOL    HW128757   0.797   2.589   5.931 -0.1832  3.1141 -0.6073
 5707SOL    HW228758   0.886   2.699   5.903 -0.3972 -0.8027 -0.9211
 5708SOL     OW28759   3.844   4.475   5.561 -0.2666  0.5341  0.4653
 5708SOL    HW128760   3.885   4.391   5.578  1.8304  1.2981 -0.7951
 5708SOL    HW228761   3.750   4.458   5.549 -0.3609  1.4163 -0.0374
 5709SOL     OW28762   2.343   3.922   7.549  0.7287  0.6521 -0.1045
 5709SOL    HW128763   2.376   3.942   7.461  1.9656  2.6640  0.7924
 5709SOL    HW228764   2.313   3.834   7.529  1.1393  0.5640 -0.3422
 5710SOL     OW28765   3.434   3.454  16.799  0.0840 -0.2567  0.1707
 5710SOL    HW128766   3.459   3.441  16.891 -0.4247  1.9765  0.6420
 5710SOL    HW228767   3.370   3.385  16.784  0.2386 -0.3764  0.0617
 5711SOL     OW28768   3.214   3.220   9.703 -0.0189  0.1607  0.3388
 5711SOL    HW128769   3.166   3.154   9.654 -1.8720  1.6665  0.1112
 5711SOL    HW228770   3.138   3.269   9.735 -0.2670 -1.2186  1.8904
 5712SOL     OW28771   2.591   1.873  12.925  0.8663 -0.0891 -0.1116
 5712SOL    HW128772   2.627   1.962  12.929  1.9275 -0.5793  1.0821
 5712SOL    HW228773   2.566   1.868  13.017  2.0637 -0.7560  0.1789
 5713SOL     OW28774   3.227   4.094   9.548  0.4638 -0.5386  0.4523
 5713SOL    HW128775   3.174   4.030   9.594 -0.4142  0.7370  1.2244
 5713SOL    HW228776   3.175   4.174   9.542 -0.5342 -1.2008  0.3962
 5714SOL     OW28777   2.478   1.912   0.079  0.3005 -0.3945 -0.2407
 5714SOL    HW128778   2.392   1.953   0.072 -0.0441 -1.4136 -2.1872
 5714SOL    HW228779   2.527   1.983   0.039 -0.5081  0.1663 -0.2277
 5715SOL     OW28780   4.338   0.067   3.664 -0.2456  0.5322 -0.3812
 5715SOL    HW128781   4.385   4.725   3.695 -2.1931  0.2413  1.8394
 5715SOL    HW228782   4.370   0.136   3.721  0.2888  0.0683 -0.1182
 5716SOL     OW28783   3.189   3.415   2.719 -0.2385  0.2052 -0.1633
 5716SOL    HW128784   3.280   3.432   2.744 -0.0972  0.5097 -0.8819
 5716SOL    HW228785   3.183   3.322   2.740 -1.0501  0.3518  0.2420
 5717SOL     OW28786   4.590   2.254   7.467  0.4051 -0.2059  0.0463
 5717SOL    HW128787   4.518   2.312   7.441 -1.4232 -2.4082  0.2491
 5717SOL    HW228788   4.619   2.296   7.548 -0.2455  0.7988 -0.2298
 5718SOL     OW28789   3.892   2.414   3.990  0.3086  0.6934  0.3943
 5718SOL    HW128790   3.819   2.375   3.942  2.4086 -2.3988 -0.2618
 5718SOL    HW228791   3.972   2.378   3.953  0.0878  0.6954 -0.0952
 5719SOL     OW28792   1.541   1.907   0.560  1.5286 -0.0627 -0.1871
 5719SOL    HW128793   1.606   1.862   0.507  3.2626 -1.0666  2.8117
 5719SOL    HW228794   1.458   1.859   0.555  1.4479 -0.1062  1.5714
 5720SOL     OW28795   2.737   4.028   7.459 -0.3514  0.0556  0.3979
 5720SOL    HW128796   2.815   4.044   7.406  0.9463 -3.2344  1.2986
 5720SOL    HW228797   2.685   3.970   7.402  0.5201 -1.1002  0.7670
 5721SOL     OW28798   0.383   2.452  14.315  0.9774  0.2922 -0.5139
 5721SOL    HW128799   0.307   2.444  14.257  1.3006 -0.1868 -0.8639
 5721SOL    HW228800   0.372   2.544  14.339  0.3336  0.0029  0.3088
 5722SOL     OW28801   0.612   4.710   9.657  0.6006  0.4330 -0.1542
 5722SOL    HW128802   0.596   4.616   9.658  1.0334  0.3819  4.0972
 5722SOL    HW228803   0.616   4.709   9.562  0.8480  0.5384 -0.1453
 5723SOL     OW28804   2.147   3.786   8.842 -0.6832  0.0384  0.2581
 5723SOL    HW128805   2.210   3.774   8.771  0.4436 -0.9987  1.4299
 5723SOL    HW228806   2.076   3.757   8.785 -1.1039  0.5328  0.5354
 5724SOL     OW28807   3.774   3.291   5.021 -0.3738  0.2632 -0.2152
 5724SOL    HW128808   3.789   3.210   4.972 -0.9983 -1.7608  2.9258
 5724SOL    HW228809   3.678   3.293   5.018 -0.4075 -0.0004  0.5777
 5725SOL     OW28810   3.705   4.480   0.055 -0.2915  0.9487  0.3886
 5725SOL    HW128811   3.618   4.462   0.020  0.9917 -0.7374 -1.9395
 5725SOL    HW228812   3.722   4.567   0.020  0.9981 -0.5162 -2.6183
 5726SOL     OW28813   1.356   4.059   6.826  0.0649  0.1529 -0.0476
 5726SOL    HW128814   1.309   4.091   6.748 -1.4417  1.8684  1.5517
 5726SOL    HW228815   1.316   4.109   6.897 -1.0607  1.4094 -1.5332
 5727SOL     OW28816   2.359   2.368   1.975  0.1395 -0.6014  0.4526
 5727SOL    HW128817   2.343   2.377   1.881  0.0833  0.6453  0.5845
 5727SOL    HW228818   2.453   2.379   1.985  0.0640  0.6008 -0.2270
 5728SOL     OW28819   0.780   3.747   1.663 -0.0732 -0.1361 -0.2343
 5728SOL    HW128820   0.697   3.699   1.670  0.1055 -0.7728 -2.4555
 5728SOL    HW228821   0.845   3.689   1.702  2.1972  1.4713 -1.6781
 5729SOL     OW28822   2.862   4.098  10.839 -0.2455  0.5981 -0.2469
 5729SOL    HW128823   2.831   4.132  10.923 -0.5423  0.7018 -0.3993
 5729SOL    HW228824   2.950   4.137  10.837  0.6586 -1.3923  1.0752
 5730SOL     OW28825   2.774   1.106  17.691  0.2095  0.6340 -0.0983
 5730SOL    HW128826   2.726   1.052   0.013 -2.4004 -0.3110 -2.9308
 5730SOL    HW228827   2.700   1.147  17.646 -0.2045 -1.4918 -1.3266
 5731SOL     OW28828   2.664   2.787   4.461 -0.6110  0.5278 -0.4402
 5731SOL    HW128829   2.717   2.780   4.382  1.8580  1.9033  1.0717
 5731SOL    HW228830   2.733   2.820   4.520 -0.5720  1.4851 -1.0127
 5732SOL     OW28831   1.310   1.190   4.758  0.5641 -0.5778  0.2753
 5732SOL    HW128832   1.362   1.266   4.781 -0.6439  0.8110 -1.5575
 5732SOL    HW228833   1.340   1.135   4.830 -0.6655  2.6779  3.2360
 5733SOL     OW28834   0.483   3.879   1.240 -0.1502 -0.0881 -0.1461
 5733SOL    HW128835   0.402   3.830   1.256 -0.6893  0.4294 -1.3281
 5733SOL    HW228836   0.526   3.805   1.197  0.4574 -0.9772  2.0072
 5734SOL     OW28837   4.295   1.484   1.655  0.2241 -0.0243 -0.0617
 5734SOL    HW128838   4.349   1.556   1.625  1.0129 -0.1304  1.1330
 5734SOL    HW228839   4.318   1.456   1.743 -0.0030 -0.7443 -0.2286
 5735SOL     OW28840   1.627   4.680   2.713 -0.7124  0.2590 -0.0169
 5735SOL    HW128841   1.628   0.033   2.678  2.7840  0.6587  1.0930
 5735SOL    HW228842   1.566   4.629   2.660 -0.5148 -0.4253  0.4091
 5736SOL     OW28843   0.008   4.455   5.118  0.3018 -0.7907 -0.2871
 5736SOL    HW128844   4.677   4.387   5.106 -1.3270  0.7540  0.0124
 5736SOL    HW228845   0.071   4.412   5.176 -1.2214 -1.4781  0.8374
 5737SOL     OW28846   3.331   1.189   1.715  0.0244  0.1670 -0.6855
 5737SOL    HW128847   3.392   1.115   1.716  0.9227  0.9391  2.2706
 5737SOL    HW228848   3.277   1.181   1.793  0.6774  2.4523  0.0056
 5738SOL     OW28849   0.848   4.069   5.246  0.0097  0.0229  0.2344
 5738SOL    HW128850   0.833   4.001   5.312  0.6553  0.4643  0.8307
 5738SOL    HW228851   0.774   4.121   5.278  0.6563  1.4625 -0.6029
 5739SOL     OW28852   1.123   0.274   3.765  0.1059  0.4994 -0.1369
 5739SOL    HW128853   1.098   0.191   3.806 -1.1486  1.8656  1.8655
 5739SOL    HW228854   1.100   0.245   3.677  0.8998 -0.8507  0.0923
 5740SOL     OW28855   4.624   3.338  14.786 -0.5520 -0.3506  0.6126
 5740SOL    HW128856   4.711   3.354  14.824 -0.0511  0.8114 -1.0069
 5740SOL    HW228857   4.609   3.258  14.838 -0.8599 -0.7097 -0.0309
 5741SOL     OW28858   1.896   1.254   6.609  0.1134 -0.3447  0.2698
 5741SOL    HW128859   1.929   1.338   6.641 -3.2351  0.8339  0.7077
 5741SOL    HW228860   1.972   1.199   6.622 -0.9712 -1.8572  0.1526
 5742SOL     OW28861   4.420   3.650  10.993  0.2179  0.0425 -0.0753
 5742SOL    HW128862   4.454   3.667  10.905  0.8592  1.6406  0.4837
 5742SOL    HW228863   4.417   3.738  11.030  0.1747 -0.1353  0.3524
 5743SOL     OW28864   1.912   0.667   8.875 -0.2507 -0.1089 -0.1854
 5743SOL    HW128865   1.943   0.582   8.843  1.7672  1.1741 -1.5887
 5743SOL    HW228866   1.984   0.695   8.931  1.0122  1.1317 -2.4255
 5744SOL     OW28867   1.288   2.842  17.217  0.4778  0.5272  0.4464
 5744SOL    HW128868   1.250   2.858  17.304 -0.1146 -0.1828  0.3182
 5744SOL    HW228869   1.216   2.877  17.165 -0.5324 -0.9570  0.8416
 5745SOL     OW28870   1.787   3.900  12.725  0.1611  0.4640 -0.2738
 5745SOL    HW128871   1.835   3.877  12.805 -0.1163  0.5310 -0.0864
 5745SOL    HW228872   1.830   3.856  12.652  0.9441  0.0101  0.4573
 5746SOL     OW28873   4.537   4.508   2.327  0.0483  0.3177  0.5520
 5746SOL    HW128874   4.533   4.565   2.403  0.8719  0.9857  0.0972
 5746SOL    HW228875   4.443   4.494   2.311  0.6389  1.6391 -4.1671
 5747SOL     OW28876   2.329   2.310   3.675  0.0566 -0.2294 -0.2979
 5747SOL    HW128877   2.339   2.299   3.581  1.4573 -2.8942  0.1542
 5747SOL    HW228878   2.420   2.322   3.704 -0.6952  0.4242  1.7957
 5748SOL     OW28879   2.342   0.945   6.174 -1.0279  0.1713  0.0991
 5748SOL    HW128880   2.285   0.925   6.100 -1.0691 -0.0254  0.1849
 5748SOL    HW228881   2.318   0.875   6.234  0.3494 -0.3143  0.0852
 5749SOL     OW28882   1.695   0.421  10.803  0.4848  0.3423  0.6912
 5749SOL    HW128883   1.685   0.394  10.711  3.7523  0.5269  0.2659
 5749SOL    HW228884   1.762   0.367  10.845  0.8706  0.6441  0.4666
 5750SOL     OW28885   3.210   1.046  14.960 -0.5477 -0.1515 -0.3344
 5750SOL    HW128886   3.128   1.089  14.936 -0.3655 -0.2002 -1.0378
 5750SOL    HW228887   3.179   0.997  15.037 -1.8114  2.9092  1.0811
 5751SOL     OW28888   0.881   1.675  13.295  0.5851 -0.3325  0.7633
 5751SOL    HW128889   0.790   1.686  13.267  0.6196 -0.9364  0.4267
 5751SOL    HW228890   0.904   1.607  13.232  0.8218 -0.1882  0.6953
 5752SOL     OW28891   3.920   3.922   9.887 -0.1235 -0.2189 -0.6505
 5752SOL    HW128892   3.984   3.993   9.885 -0.3506  0.0319  1.0467
 5752SOL    HW228893   3.943   3.880   9.804 -0.1299  0.4546 -0.9974
 5753SOL     OW28894   3.603   3.967   4.147  0.0107  0.1449  0.6493
 5753SOL    HW128895   3.543   3.904   4.107  1.3510 -1.4269  1.1010
 5753SOL    HW228896   3.642   3.914   4.217  1.4204  0.9463  0.4531
 5754SOL     OW28897   2.544   0.962   2.376  0.2946 -0.0586 -0.2249
 5754SOL    HW128898   2.633   0.974   2.343  0.3837  0.1866  0.1093
 5754SOL    HW228899   2.553   1.015   2.454 -0.6039  0.2454 -0.3283
 5755SOL     OW28900   2.747   4.500  14.501 -0.0956 -0.3092  0.1644
 5755SOL    HW128901   2.757   4.594  14.487  0.7221 -0.2165  1.3818
 5755SOL    HW228902   2.728   4.478  14.410 -0.5347 -0.0412  0.1885
 5756SOL     OW28903   4.134   0.735   5.453 -0.0725  0.1704 -0.2881
 5756SOL    HW128904   4.228   0.724   5.440 -0.2414 -1.3491 -0.3217
 5756SOL    HW228905   4.134   0.813   5.508 -0.8801 -0.0746  0.0758
 5757SOL     OW28906   1.944   2.930  15.399  0.4209 -0.3703  0.2349
 5757SOL    HW128907   2.039   2.939  15.404  0.1723  2.3181  0.0376
 5757SOL    HW228908   1.913   3.018  15.422 -0.1789  0.0894 -2.2965
 5758SOL     OW28909   0.355   0.296   7.836 -0.1979  0.7505  0.0691
 5758SOL    HW128910   0.275   0.296   7.784  0.3741  2.0326 -0.7950
 5758SOL    HW228911   0.385   0.384   7.812  0.2356  0.5656 -0.0558
 5759SOL     OW28912   2.459   1.688   9.318  0.7538  0.4379  0.3292
 5759SOL    HW128913   2.394   1.617   9.316 -0.3230  1.4069  1.0419
 5759SOL    HW228914   2.411   1.770   9.306  0.4121  0.0799 -0.7481
 5760SOL     OW28915   3.779   2.323   4.449 -0.4551  0.1567 -0.1637
 5760SOL    HW128916   3.867   2.305   4.480 -0.6710 -0.9630 -0.2160
 5760SOL    HW228917   3.795   2.349   4.358  0.4469  2.9725  0.7821
 5761SOL     OW28918   2.331   3.518   7.902  0.1750  0.0034  0.3820
 5761SOL    HW128919   2.244   3.480   7.893 -0.5224  1.1040  2.4638
 5761SOL    HW228920   2.345   3.487   7.992  1.2528  0.3266  0.3268
 5762SOL     OW28921   1.978   3.169   8.965 -0.0617  0.6283 -0.0357
 5762SOL    HW128922   1.962   3.075   8.970 -3.3634  1.1838  0.2681
 5762SOL    HW228923   1.888   3.193   8.941 -0.6299 -0.5767  0.9294
 5763SOL     OW28924   2.863   0.314   8.507  0.4118 -0.1068 -1.0545
 5763SOL    HW128925   2.909   0.233   8.487 -1.2598 -0.6303 -2.7750
 5763SOL    HW228926   2.780   0.287   8.547 -0.3065  2.6624 -0.7059
 5764SOL     OW28927   0.496   0.288  13.690 -0.0824 -0.0465  0.4074
 5764SOL    HW128928   0.464   0.326  13.608 -0.4700 -1.2082  0.0213
 5764SOL    HW228929   0.576   0.240  13.672 -0.3942 -1.5021  2.9529
 5765SOL     OW28930   1.663   3.386   8.614  0.6743  0.0730 -0.1871
 5765SOL    HW128931   1.595   3.333   8.656  0.8431  1.2984  1.6656
 5765SOL    HW228932   1.743   3.334   8.619  1.9354  2.0897  0.6156
 5766SOL     OW28933   3.194   2.338   4.477 -0.4367  0.2002 -0.4664
 5766SOL    HW128934   3.199   2.293   4.393 -2.7582 -0.1591 -0.4048
 5766SOL    HW228935   3.288   2.345   4.493 -0.3423 -1.2152 -0.3861
 5767SOL     OW28936   0.297   1.931  10.304 -0.0242 -0.1323 -0.1730
 5767SOL    HW128937   0.246   1.884  10.238 -3.2510 -1.3370  3.1641
 5767SOL    HW228938   0.258   2.017  10.289 -0.8753 -0.5314 -0.2348
 5768SOL     OW28939   0.964   1.506   9.542  0.1656 -0.3437 -0.4774
 5768SOL    HW128940   1.031   1.561   9.502  0.4435 -0.1505  0.2539
 5768SOL    HW228941   0.881   1.553   9.533  0.1554 -0.0675  0.9519
 5769SOL     OW28942   2.834   0.515   9.770  0.2448  0.5421 -0.6151
 5769SOL    HW128943   2.878   0.430   9.774  1.8338  1.3625 -0.2720
 5769SOL    HW228944   2.767   0.504   9.837  0.2927  0.1135 -0.6402
 5770SOL     OW28945   3.490   2.442   3.823  0.3615 -0.3473  0.3492
 5770SOL    HW128946   3.566   2.497   3.840 -0.3852  1.2029 -1.3268
 5770SOL    HW228947   3.533   2.361   3.797 -1.9369 -0.9954 -1.4594
 5771SOL     OW28948   1.116   2.231  16.982 -0.3699  0.3988 -0.4335
 5771SOL    HW128949   1.109   2.290  16.907  2.7184  0.5417 -0.5934
 5771SOL    HW228950   1.188   2.271  17.031 -0.1335 -3.0891  2.0968
 5772SOL     OW28951   0.136   4.466   1.517  0.1186 -0.7857  0.4724
 5772SOL    HW128952   0.074   4.514   1.461  0.4856 -2.5668 -1.4761
 5772SOL    HW228953   0.121   4.496   1.606 -2.3349 -0.6008  0.0078
 5773SOL     OW28954   3.921   1.761  10.599  0.1144 -0.0279 -0.6255
 5773SOL    HW128955   3.931   1.762  10.503  0.9867  2.7518 -0.5014
 5773SOL    HW228956   3.828   1.784  10.604  0.0284 -0.7521  1.1306
 5774SOL     OW28957   1.811   4.351  16.993  0.1266  0.0332 -0.1746
 5774SOL    HW128958   1.762   4.269  17.002 -2.7989  1.8046 -0.2171
 5774SOL    HW228959   1.747   4.403  17.041  1.0709  1.8365 -0.8486
 5775SOL     OW28960   1.810   0.075   6.235 -0.0123 -0.0936  0.5121
 5775SOL    HW128961   1.808   0.020   6.156 -2.2123 -1.2612  1.3875
 5775SOL    HW228962   1.716   0.092   6.234  0.0837  0.4575  1.0939
 5776SOL     OW28963   1.236   0.055   4.484 -0.2887 -0.4747  0.1087
 5776SOL    HW128964   1.221   4.697   4.496 -0.3294 -0.3468  1.0403
 5776SOL    HW228965   1.312   0.050   4.426  1.3391 -1.6095  2.3353
 5777SOL     OW28966   1.420   4.071   5.676  0.1150 -0.1858  0.0510
 5777SOL    HW128967   1.414   3.997   5.616  1.4830 -1.1904  1.1774
 5777SOL    HW228968   1.333   4.061   5.715  0.1381  2.1854  0.7374
 5778SOL     OW28969   1.335   2.683   6.782  0.0404  0.6310 -0.1214
 5778SOL    HW128970   1.261   2.721   6.734  1.1216  0.6246 -1.7890
 5778SOL    HW228971   1.361   2.752   6.843 -0.7413  0.0668  0.8511
 5779SOL     OW28972   2.828   3.851   2.765  0.5015  0.2471 -0.2944
 5779SOL    HW128973   2.834   3.849   2.670 -0.9714 -0.0717 -0.3744
 5779SOL    HW228974   2.910   3.804   2.782  0.0748  0.3312  2.0322
 5780SOL     OW28975   1.355   1.374  13.333  0.2364 -0.6565 -0.0015
 5780SOL    HW128976   1.446   1.348  13.351 -0.5307 -2.0943  1.7913
 5780SOL    HW228977   1.330   1.381  13.425  1.1846 -1.6849  0.3356
 5781SOL     OW28978   0.678   0.332   7.742 -0.0515 -0.0242 -0.5335
 5781SOL    HW128979   0.693   0.396   7.673 -0.3514  0.6683  0.0417
 5781SOL    HW228980   0.730   0.255   7.718  0.0242  0.6387 -2.4516
 5782SOL     OW28981   4.370   2.809   7.535 -0.0301  0.0375 -0.5209
 5782SOL    HW128982   4.295   2.795   7.592  0.7288  1.8918  0.9460
 5782SOL    HW228983   4.417   2.888   7.564 -0.0214 -0.1897  0.0990
 5783SOL     OW28984   2.832   0.653   0.655  0.6163  0.1023  0.6700
 5783SOL    HW128985   2.813   0.563   0.627  1.8213  0.2826 -0.6707
 5783SOL    HW228986   2.750   0.699   0.636  0.8505 -0.0696 -0.7297
 5784SOL     OW28987   3.314   3.031   1.178 -0.3115  0.3152 -0.1645
 5784SOL    HW128988   3.280   3.119   1.192 -0.5395 -0.0049  1.2691
 5784SOL    HW228989   3.285   2.989   1.259 -0.8810  2.1883  0.5766
 5785SOL     OW28990   3.672   2.964   2.301  0.5607  0.1341 -0.0378
 5785SOL    HW128991   3.767   2.966   2.318  0.9083 -2.8554 -1.7155
 5785SOL    HW228992   3.664   2.876   2.265  0.7409 -0.2995  0.9690
 5786SOL     OW28993   0.219   0.873   5.809  0.1674 -0.4966  0.1274
 5786SOL    HW128994   0.308   0.901   5.788 -0.2414  1.4027  0.8788
 5786SOL    HW228995   0.192   0.928   5.883 -1.6585 -1.9243  0.5439
 5787SOL     OW28996   0.048   3.122   2.671 -0.0948  0.7656  0.5787
 5787SOL    HW128997   0.090   3.204   2.645 -0.6077  0.2155 -1.9638
 5787SOL    HW228998   0.006   3.086   2.593 -0.1135 -2.3553  2.0323
 5788SOL     OW28999   1.267   4.166   2.787 -0.2116 -0.2699  0.0306
 5788SOL    HW129000   1.334   4.229   2.762 -0.8311 -0.7733 -2.8696
 5788SOL    HW229001   1.326   4.095   2.814  1.5934  0.9784 -0.6362
 5789SOL     OW29002   0.479   0.685   6.774  0.1092 -0.1747  0.6477
 5789SOL    HW129003   0.537   0.690   6.698  1.2012 -1.2418  1.4015
 5789SOL    HW229004   0.526   0.745   6.831 -0.7520 -1.4971  2.7217
 5790SOL     OW29005   0.978   0.574  14.317 -0.1762  0.4591 -0.1776
 5790SOL    HW129006   0.956   0.511  14.248 -0.4179  1.2961 -0.8609
 5790SOL    HW229007   1.074   0.569  14.320 -0.2066  0.3879  0.5799
 5791SOL     OW29008   4.609   2.971  12.284  0.3130 -0.5584  0.7929
 5791SOL    HW129009   4.521   2.945  12.310 -0.4693  0.6999 -0.5989
 5791SOL    HW229010   4.607   3.065  12.299  2.6349 -0.6553  1.6030
 5792SOL     OW29011   2.489   2.449   8.719 -0.1508  0.1449 -0.5216
 5792SOL    HW129012   2.470   2.542   8.719  0.9167  0.3689  1.1000
 5792SOL    HW229013   2.540   2.434   8.640  0.3605 -2.8642  0.3452
 5793SOL     OW29014   1.242   0.553   7.812 -0.1194 -0.3781  0.0498
 5793SOL    HW129015   1.317   0.503   7.778  0.3382 -0.3535  1.0279
 5793SOL    HW229016   1.271   0.642   7.828 -3.0108  0.6965 -0.6874
 5794SOL     OW29017   1.694   3.195   8.920  0.0483  0.5744 -0.3509
 5794SOL    HW129018   1.623   3.172   8.980  1.5680  2.3151  2.0996
 5794SOL    HW229019   1.639   3.211   8.844 -0.4265 -1.5398 -0.4464
 5795SOL     OW29020   4.093   0.378   3.701 -0.3944 -0.0738 -0.8920
 5795SOL    HW129021   4.034   0.421   3.764  1.1642  1.4720 -0.5097
 5795SOL    HW229022   4.145   0.453   3.675 -0.1524  0.5701  1.4970
 5796SOL     OW29023   3.670   3.442   0.605  0.4358  0.4032  0.3452
 5796SOL    HW129024   3.594   3.423   0.660  0.6250  0.4676  0.6326
 5796SOL    HW229025   3.735   3.380   0.639 -1.1644 -0.2010  2.3017
 5797SOL     OW29026   0.238   4.125   7.371  0.0368 -0.1211  0.5901
 5797SOL    HW129027   0.294   4.120   7.449  0.5843 -2.3815  0.0498
 5797SOL    HW229028   0.293   4.191   7.328 -0.4890 -0.6734 -0.9166
 5798SOL     OW29029   1.885   0.024   2.805  0.1176  0.2860 -0.2739
 5798SOL    HW129030   1.801   4.718   2.787  1.4377 -3.7476  2.9072
 5798SOL    HW229031   1.898   4.725   2.894 -0.1793 -0.2788 -0.4495
 5799SOL     OW29032   1.805   1.068   4.882 -0.5229  0.0992 -0.3240
 5799SOL    HW129033   1.835   1.065   4.791 -0.7572  0.5176 -0.4128
 5799SOL    HW229034   1.756   0.986   4.884  0.1268 -0.2562  0.7233
 5800SOL     OW29035   3.135   1.554   8.459  0.2196 -0.3002 -0.2839
 5800SOL    HW129036   3.191   1.610   8.405  0.0677 -0.5406 -0.6968
 5800SOL    HW229037   3.057   1.607   8.473 -0.9732 -2.0778 -0.0973
 5801SOL     OW29038   2.446   3.974   3.857 -0.0007  0.0282 -0.1012
 5801SOL    HW129039   2.438   3.982   3.762  1.6233  0.8593 -0.1728
 5801SOL    HW229040   2.395   3.896   3.878  1.3360 -0.4158  1.5284
 5802SOL     OW29041   4.615   2.178   8.584  0.5137 -0.4473 -0.4425
 5802SOL    HW129042   4.579   2.255   8.630  0.7003  0.3602 -1.6456
 5802SOL    HW229043   4.558   2.181   8.508  1.2950 -2.0608 -1.0748
 5803SOL     OW29044   4.664   3.925   8.667 -0.0103  0.0941  0.1212
 5803SOL    HW129045   4.689   3.856   8.728 -2.6558 -0.6027  0.4166
 5803SOL    HW229046   4.732   3.991   8.682  0.1438  0.2775 -1.3133
 5804SOL     OW29047   3.329   4.400   7.246  0.0866  0.1092 -0.7548
 5804SOL    HW129048   3.302   4.462   7.178 -1.5920 -1.4092 -1.4882
 5804SOL    HW229049   3.388   4.344   7.195 -0.1603 -0.2905 -0.6013
 5805SOL     OW29050   1.935   0.609   4.317 -0.4057  0.6830  0.2650
 5805SOL    HW129051   1.920   0.665   4.394  2.5114  1.3590  0.3461
 5805SOL    HW229052   1.891   0.527   4.339 -0.1825 -0.0721 -2.1066
 5806SOL     OW29053   4.604   0.727  11.877 -0.0031  0.6591  0.1288
 5806SOL    HW129054   4.677   0.767  11.830  0.1964 -1.4599 -1.4034
 5806SOL    HW229055   4.524   0.751  11.830  0.2900  1.4491  0.0397
 5807SOL     OW29056   1.718   3.434   2.725  0.0607  0.5289 -0.0597
 5807SOL    HW129057   1.706   3.499   2.655 -0.3966 -2.2408 -2.5538
 5807SOL    HW229058   1.812   3.424   2.711  0.4862  2.6205  1.3178
 5808SOL     OW29059   1.142   3.843   5.782 -0.4710  0.1787 -0.9169
 5808SOL    HW129060   1.149   3.803   5.696 -0.1753 -0.8732 -0.4122
 5808SOL    HW229061   1.082   3.775   5.814 -2.4621  2.3056 -0.0562
 5809SOL     OW29062   0.713   4.168   6.950 -0.0964 -0.8520 -0.2617
 5809SOL    HW129063   0.716   4.211   7.035 -1.3247 -0.4335 -0.4305
 5809SOL    HW229064   0.657   4.094   6.971 -0.9342 -0.2350 -0.2904
 5810SOL     OW29065   1.208   0.933   4.466  0.2114  0.4097 -0.8495
 5810SOL    HW129066   1.136   0.874   4.485  0.7160 -0.7289 -2.5010
 5810SOL    HW229067   1.179   0.961   4.379 -0.5395 -0.0992 -0.7507
 5811SOL     OW29068   1.075   2.267   8.339  0.7169 -0.0640 -0.1456
 5811SOL    HW129069   1.138   2.337   8.324 -0.4079  0.8762 -0.5605
 5811SOL    HW229070   0.996   2.322   8.339  0.9414  0.2603 -2.8163
 5812SOL     OW29071   1.849   0.547   4.691 -0.3737 -0.7219  0.4140
 5812SOL    HW129072   1.922   0.490   4.713  1.4304  1.4598  0.0727
 5812SOL    HW229073   1.809   0.479   4.637 -1.7470 -0.2262  0.7978
 5813SOL     OW29074   4.329   1.827  13.184  0.0311 -0.1148  0.1667
 5813SOL    HW129075   4.367   1.856  13.267  1.5717 -0.4185 -0.4348
 5813SOL    HW229076   4.407   1.851  13.134  1.7255 -1.8732  1.9504
 5814SOL     OW29077   1.122   1.022   1.295 -0.2213  0.1498  0.3965
 5814SOL    HW129078   1.168   0.975   1.226  1.9180  0.1776  1.8167
 5814SOL    HW229079   1.065   1.077   1.242 -1.5741 -0.5794  1.0894
 5815SOL     OW29080   1.410   0.033  17.695  0.5774  0.1769  0.7490
 5815SOL    HW129081   1.374   0.021   0.042 -1.0955  0.1432  0.0438
 5815SOL    HW229082   1.358   4.716  17.636  0.8783  0.3746  0.3067
 5816SOL     OW29083   0.450   3.870   8.440 -0.1548  0.6377 -0.1535
 5816SOL    HW129084   0.366   3.913   8.426 -0.9894 -1.9256 -2.8558
 5816SOL    HW229085   0.461   3.867   8.536 -1.6470  2.8545  0.0905
 5817SOL     OW29086   0.388   4.280  16.452 -0.1481 -0.0097  0.4283
 5817SOL    HW129087   0.355   4.237  16.531 -0.5193  0.2480  0.4157
 5817SOL    HW229088   0.474   4.238  16.448 -1.0973 -1.9960  1.1552
 5818SOL     OW29089   3.843   1.044   0.482 -0.0453  0.0275  0.5081
 5818SOL    HW129090   3.856   0.967   0.537  0.6008 -0.3158 -0.1434
 5818SOL    HW229091   3.753   1.032   0.452 -0.0675  0.6702  0.3035
 5819SOL     OW29092   4.372   4.629  14.258 -0.1783 -0.5241 -0.2254
 5819SOL    HW129093   4.399   4.672  14.177 -4.1084 -0.7361 -1.6334
 5819SOL    HW229094   4.309   4.689  14.298  0.5444 -0.6060  1.0358
 5820SOL     OW29095   0.540   2.251   8.873 -0.2640 -0.2322  0.1268
 5820SOL    HW129096   0.630   2.274   8.896 -0.2106 -2.0520  1.7949
 5820SOL    HW229097   0.504   2.339   8.866  0.5422  0.1782  1.0725
 5821SOL     OW29098   4.040   1.830  11.449  0.3525  0.5013 -0.2988
 5821SOL    HW129099   4.055   1.764  11.517  3.0218  0.3048 -1.0424
 5821SOL    HW229100   3.986   1.891  11.498 -0.7404  1.0500 -2.1851
 5822SOL     OW29101   3.074   3.653  11.603 -0.3239 -0.1657  0.0399
 5822SOL    HW129102   3.137   3.583  11.582 -0.0422 -0.4091  1.6940
 5822SOL    HW229103   3.116   3.727  11.559 -0.5940 -0.7453 -1.2172
 5823SOL     OW29104   1.786   3.485   9.050 -0.1580  0.0427  0.5419
 5823SOL    HW129105   1.760   3.572   9.019  0.9505  0.6705  1.3738
 5823SOL    HW229106   1.758   3.429   8.977 -0.2122  1.1056 -0.2500
 5824SOL     OW29107   1.103   2.993   4.200 -0.0116  0.0991  0.9947
 5824SOL    HW129108   1.186   3.036   4.224  0.8879 -1.0052 -0.1372
 5824SOL    HW229109   1.136   2.931   4.135  1.7204  0.6270  1.3558
 5825SOL     OW29110   3.017   4.705  15.430 -0.2571  0.0163 -0.1940
 5825SOL    HW129111   3.009   4.616  15.396 -1.5479 -0.5079  1.4411
 5825SOL    HW229112   2.951   0.014  15.376 -0.9287 -0.5513  0.1483
 5826SOL     OW29113   4.456   0.584   8.521  0.0815 -0.4111 -0.0569
 5826SOL    HW129114   4.488   0.666   8.484 -0.5543  0.1343  0.6182
 5826SOL    HW229115   4.363   0.583   8.500 -0.0511  0.4304  0.5196
 5827SOL     OW29116   4.223   2.999   1.663 -0.1223 -0.4505  0.2330
 5827SOL    HW129117   4.294   2.935   1.668  0.1355 -0.0609  1.3592
 5827SOL    HW229118   4.150   2.939   1.649 -1.0961  0.4582  1.5648
 5828SOL     OW29119   0.002   3.650  15.691 -0.1783  0.0325 -0.4858
 5828SOL    HW129120   0.098   3.651  15.686 -0.0950  1.8744  1.4031
 5828SOL    HW229121   4.721   3.706  15.766  0.8112  0.3095 -0.4675
 5829SOL     OW29122   1.674   1.734   6.794 -0.0980 -0.7189 -0.6052
 5829SOL    HW129123   1.651   1.816   6.838 -1.7765 -1.7901  0.5034
 5829SOL    HW229124   1.760   1.763   6.763  0.4250 -1.9065 -0.2596
 5830SOL     OW29125   3.452   3.251   7.651 -0.1384 -0.2988  0.2434
 5830SOL    HW129126   3.370   3.229   7.607  1.3808 -1.9620 -1.6985
 5830SOL    HW229127   3.426   3.313   7.720  0.0002  0.2637 -0.2139
 5831SOL     OW29128   2.484   1.700  17.167 -0.0255 -0.3940  0.2822
 5831SOL    HW129129   2.424   1.626  17.160  0.1404 -0.2737 -2.2903
 5831SOL    HW229130   2.524   1.693  17.081 -1.1523  0.7361 -0.3358
 5832SOL     OW29131   0.903   1.683   2.052  0.2184 -0.1212 -0.2397
 5832SOL    HW129132   0.826   1.663   2.000  0.7038  2.3499 -1.8810
 5832SOL    HW229133   0.913   1.778   2.051 -0.8074 -0.0160 -0.0598
 5833SOL     OW29134   3.886   0.085   0.906  0.0851 -0.3035 -0.3691
 5833SOL    HW129135   3.908   0.155   0.968  0.3468 -0.9438  0.2611
 5833SOL    HW229136   3.906   0.115   0.817  1.1827 -1.4312 -0.5007
 5834SOL     OW29137   4.652   3.373   9.130  0.1578  0.5175  0.0586
 5834SOL    HW129138   4.601   3.301   9.166  1.8920 -1.2527 -0.9900
 5834SOL    HW229139   4.593   3.422   9.074 -1.5623 -2.9225 -1.1340
 5835SOL     OW29140   1.048   3.485   4.387 -0.1192  0.3932  0.1335
 5835SOL    HW129141   0.989   3.554   4.357 -0.3670 -0.6043 -1.6407
 5835SOL    HW229142   1.065   3.449   4.301  1.9871  3.4690 -0.7277
 5836SOL     OW29143   2.599   4.674   2.725 -0.1932 -0.2587  0.1169
 5836SOL    HW129144   2.588   4.591   2.678 -0.0606 -0.8440  1.1174
 5836SOL    HW229145   2.569   4.645   2.812  0.3285 -2.9016 -0.5617
 5837SOL     OW29146   0.708   0.796   5.717 -0.0860 -0.3650  0.2313
 5837SOL    HW129147   0.624   0.817   5.758 -0.6858 -0.5931 -0.8690
 5837SOL    HW229148   0.770   0.823   5.784 -0.3938  0.9291 -0.0017
 5838SOL     OW29149   3.690   3.676   9.124 -0.5181  0.0849  0.1978
 5838SOL    HW129150   3.716   3.761   9.157  0.3870 -0.9020  2.0241
 5838SOL    HW229151   3.773   3.640   9.091  0.4438  1.0176  1.6189
 5839SOL     OW29152   0.561   0.856  14.234  0.4842 -0.2466  0.8512
 5839SOL    HW129153   0.557   0.948  14.260  1.6912  0.5174 -1.7929
 5839SOL    HW229154   0.600   0.804  14.304  0.2515  0.6951  1.6827
 5840SOL     OW29155   4.221   2.467   4.926  0.1318  0.9932 -0.0959
 5840SOL    HW129156   4.201   2.374   4.937  1.1809  0.8765  0.7130
 5840SOL    HW229157   4.301   2.463   4.873  1.4037  1.5890  1.8045
 5841SOL     OW29158   3.695   2.740   4.987 -0.1541  0.5095 -0.2112
 5841SOL    HW129159   3.749   2.735   5.065 -0.0396 -0.9590 -0.3746
 5841SOL    HW229160   3.715   2.654   4.950 -0.6940 -1.3051  3.7479
 5842SOL     OW29161   3.988   4.726   6.257 -0.1857  0.0628  0.1210
 5842SOL    HW129162   3.947   4.685   6.332  1.0304 -2.1024 -0.3838
 5842SOL    HW229163   3.946   0.076   6.256 -0.0507  0.1308  0.4611
 5843SOL     OW29164   4.577   2.114   9.045  0.2050 -0.7821 -0.5369
 5843SOL    HW129165   4.592   2.189   9.103  0.4641 -1.5921  0.4554
 5843SOL    HW229166   4.652   2.060   9.070  0.2225  0.5162  2.2363
 5844SOL     OW29167   1.544   2.335   4.786  0.2683 -0.0199  0.4920
 5844SOL    HW129168   1.540   2.393   4.862  0.2570 -0.8723  1.1379
 5844SOL    HW229169   1.472   2.364   4.730  0.3847 -0.6069  0.0292
 5845SOL     OW29170   3.405   1.916   0.720  0.2057 -0.1264  0.2525
 5845SOL    HW129171   3.435   1.905   0.630  0.9581  1.2934  0.3220
 5845SOL    HW229172   3.472   1.980   0.746 -0.3272  1.0601 -1.2881
 5846SOL     OW29173   2.799   0.415   7.696 -0.2369  0.0489 -0.1794
 5846SOL    HW129174   2.789   0.508   7.674 -3.0869 -0.4147 -0.8629
 5846SOL    HW229175   2.848   0.378   7.623  2.1071  0.5136  1.1695
 5847SOL     OW29176   4.314   2.544   6.075  0.0722 -0.3861 -0.3879
 5847SOL    HW129177   4.244   2.609   6.083  0.0556 -0.2809 -1.2972
 5847SOL    HW229178   4.368   2.561   6.152  0.0974  0.4263 -0.5834
 5848SOL     OW29179   1.663   1.473   8.269 -0.1118 -0.1615 -0.1068
 5848SOL    HW129180   1.621   1.475   8.183  0.2699 -1.2683 -0.3284
 5848SOL    HW229181   1.710   1.556   8.271 -1.3289  0.5457 -1.2976
 5849SOL     OW29182   2.722   3.162   8.737 -0.1557  0.3612  0.3510
 5849SOL    HW129183   2.644   3.187   8.786 -1.1943 -0.9647 -0.6120
 5849SOL    HW229184   2.780   3.229   8.772  0.0809  0.1944  0.2836
 5850SOL     OW29185   3.573   4.662   8.884 -0.2596 -0.4658 -0.5916
 5850SOL    HW129186   3.645   4.619   8.929 -0.9218  0.7116  1.5986
 5850SOL    HW229187   3.592   4.636   8.794  1.2620 -2.2484  0.2571
 5851SOL     OW29188   4.326   0.549   7.929 -0.8273 -0.3812  0.1584
 5851SOL    HW129189   4.394   0.605   7.966  0.8928 -0.6032 -2.6617
 5851SOL    HW229190   4.271   0.611   7.882 -0.2520 -1.2959 -1.7299
 5852SOL     OW29191   4.441   3.824   2.772  0.2939  0.1561 -0.1715
 5852SOL    HW129192   4.519   3.843   2.824 -0.4718 -0.7517  1.3251
 5852SOL    HW229193   4.373   3.868   2.823 -0.2106  0.1243 -0.8183
 5853SOL     OW29194   2.234   1.352   7.870 -0.2901  0.2024 -0.3678
 5853SOL    HW129195   2.237   1.400   7.953 -0.4001 -0.5608  0.0793
 5853SOL    HW229196   2.273   1.268   7.896  1.4788  1.3836  0.8502
 5854SOL     OW29197   3.362   1.853   3.363 -0.3884 -0.2684 -0.6284
 5854SOL    HW129198   3.363   1.759   3.349  0.5402 -0.4737  0.7900
 5854SOL    HW229199   3.273   1.875   3.335 -1.5672 -0.9559  2.5511
 5855SOL     OW29200   3.193   4.408   8.008  0.3248 -0.1118 -0.3637
 5855SOL    HW129201   3.263   4.462   8.045 -0.3650 -0.8625  2.0296
 5855SOL    HW229202   3.192   4.441   7.918 -0.9174  0.5016 -0.1167
 5856SOL     OW29203   2.920   2.075   4.389 -0.3200  0.4163  0.3157
 5856SOL    HW129204   2.870   2.135   4.444  0.7422  0.6752  1.0022
 5856SOL    HW229205   2.986   2.062   4.458  2.6506 -0.8783 -2.7933
 5857SOL     OW29206   2.574   3.690   9.496  0.1446  0.5897  0.0679
 5857SOL    HW129207   2.553   3.607   9.455  1.5355 -0.0028  0.5488
 5857SOL    HW229208   2.491   3.703   9.541  0.1521  0.6591  0.0624
 5858SOL     OW29209   3.380   2.074   8.660  0.2587  0.0360 -0.8331
 5858SOL    HW129210   3.351   2.164   8.645 -1.8665 -0.3214  1.0428
 5858SOL    HW229211   3.378   2.074   8.756 -0.0912 -1.1927 -0.8358
 5859SOL     OW29212   0.954   2.908   1.591  0.5690 -0.0685 -0.9312
 5859SOL    HW129213   0.859   2.916   1.605  0.9215 -0.1503  1.4918
 5859SOL    HW229214   0.969   2.832   1.646 -1.0925 -0.7884 -1.4623
 5860SOL     OW29215   2.098   1.811   4.274  0.5040  0.1069 -0.5894
 5860SOL    HW129216   2.023   1.758   4.247  0.5039 -0.4123  0.4632
 5860SOL    HW229217   2.107   1.864   4.194 -3.0638  2.0329  0.2758
 5861SOL     OW29218   4.679   3.466   5.789  0.2887 -0.5779 -0.0234
 5861SOL    HW129219   4.613   3.475   5.857 -0.4020  1.4869 -0.9977
 5861SOL    HW229220   4.620   3.445   5.717 -1.3280  0.3284  1.0454
 5862SOL     OW29221   0.795   2.140   6.959 -0.4079  1.1839  0.8057
 5862SOL    HW129222   0.719   2.083   6.945  0.7728  0.0121 -0.7446
 5862SOL    HW229223   0.775   2.229   6.930  0.6155  0.9244 -0.6679
 5863SOL     OW29224   1.634   3.663   8.250 -0.0649 -0.5892 -0.0380
 5863SOL    HW129225   1.541   3.659   8.272 -0.0374  0.1202  0.1851
 5863SOL    HW229226   1.659   3.585   8.299  1.3147 -1.6464 -2.4087
 5864SOL     OW29227   0.063   0.835   0.681  0.3921  0.2114  0.1070
 5864SOL    HW129228   0.024   0.824   0.594  0.0921  4.0043 -0.2159
 5864SOL    HW229229   0.038   0.752   0.722 -1.7733  1.0177  0.4048
 5865SOL     OW29230   1.083   3.848   8.143  0.6803  0.5010 -0.3530
 5865SOL    HW129231   1.173   3.863   8.174  0.0688  2.6859  0.3423
 5865SOL    HW229232   1.106   3.765   8.100 -0.1045  0.9695 -1.6489
 5866SOL     OW29233   0.374   3.973  15.294  0.2944 -0.6937  0.0911
 5866SOL    HW129234   0.279   3.974  15.283  0.7850 -0.2675 -4.2634
 5866SOL    HW229235   0.405   3.889  15.261  0.2918 -0.8246  0.4318
 5867SOL     OW29236   2.858   0.698   7.713  0.2895 -0.5348  0.1378
 5867SOL    HW129237   2.947   0.680   7.685  1.1386 -0.1025  2.6026
 5867SOL    HW229238   2.874   0.775   7.767 -1.3369  1.2094 -1.8674
 5868SOL     OW29239   0.083   1.353   6.903  0.4552  0.6971 -0.0388
 5868SOL    HW129240   0.178   1.345   6.898  0.1749 -2.2655 -0.4614
 5868SOL    HW229241   0.079   1.345   6.998  0.7671 -0.7290 -0.1498
 5869SOL     OW29242   0.754   1.379   3.156  0.8246  0.2267  0.8171
 5869SOL    HW129243   0.809   1.458   3.153 -3.5075  3.2316  0.5447
 5869SOL    HW229244   0.696   1.406   3.228 -0.6290 -0.2965 -0.1596
 5870SOL     OW29245   1.531   0.704   9.580 -0.1147 -0.4988  0.4796
 5870SOL    HW129246   1.447   0.705   9.534 -0.3505 -1.5603  0.9123
 5870SOL    HW229247   1.559   0.613   9.570  1.2453 -0.2077  1.6547
 5871SOL     OW29248   1.536   2.781   7.673 -0.4545  0.2974 -0.0402
 5871SOL    HW129249   1.471   2.718   7.703 -0.5526 -0.2378 -1.3632
 5871SOL    HW229250   1.584   2.731   7.607 -4.3381 -1.9482 -1.2028
 5872SOL     OW29251   3.955   0.750  13.353 -0.3130 -0.4578 -0.0484
 5872SOL    HW129252   4.027   0.731  13.293 -0.0464  0.9676 -0.1772
 5872SOL    HW229253   3.879   0.722  13.301 -0.8213  2.4246 -0.8287
 5873SOL     OW29254   3.160   2.136  17.202  0.1170  0.4436  0.1191
 5873SOL    HW129255   3.149   2.138  17.297 -0.3854  0.1598  0.0708
 5873SOL    HW229256   3.088   2.194  17.175 -0.9693 -0.3787  1.2228
 5874SOL     OW29257   2.371   0.113   5.604 -0.3143 -0.5070  0.4089
 5874SOL    HW129258   2.284   0.143   5.630  0.0311  2.5313 -1.9701
 5874SOL    HW229259   2.434   0.143   5.669  0.8234  0.3284 -1.0721
 5875SOL     OW29260   4.446   4.493  12.862 -0.2378 -0.2445 -0.1546
 5875SOL    HW129261   4.483   4.446  12.937  2.7839 -0.1833 -1.6104
 5875SOL    HW229262   4.356   4.462  12.863  0.3064 -1.8365 -0.0877
 5876SOL     OW29263   2.828   2.405  16.292  0.1213 -0.4069  0.3665
 5876SOL    HW129264   2.902   2.465  16.301 -1.3030  1.0253  2.4583
 5876SOL    HW229265   2.768   2.446  16.229  0.6666  2.1666  1.5017
 5877SOL     OW29266   0.139   2.411   7.124 -0.4118  0.1984  0.1257
 5877SOL    HW129267   0.192   2.491   7.114  1.7059 -1.3229 -0.7737
 5877SOL    HW229268   0.060   2.451   7.161 -0.8721 -0.1939 -0.4383
 5878SOL     OW29269   1.019   2.449   3.099  0.3849  0.5246 -0.8950
 5878SOL    HW129270   0.926   2.434   3.087  0.6875 -0.9932 -1.2777
 5878SOL    HW229271   1.053   2.363   3.077  0.5158  0.7675 -1.6306
 5879SOL     OW29272   1.197   2.686   6.196 -0.1471  0.0947  0.2697
 5879SOL    HW129273   1.170   2.778   6.197  0.6639  0.3588 -1.7452
 5879SOL    HW229274   1.119   2.655   6.242  0.3584  0.0969  1.1230
 5880SOL     OW29275   1.305   3.734   6.816 -0.0946 -0.6720 -0.3579
 5880SOL    HW129276   1.375   3.787   6.776  1.1263 -1.6270  0.5130
 5880SOL    HW229277   1.238   3.761   6.754  0.4912 -0.5648 -0.9511
 5881SOL     OW29278   0.643   0.040   5.966  0.5699 -0.1966  0.2258
 5881SOL    HW129279   0.604   0.126   5.953  1.5596  0.1874 -0.2361
 5881SOL    HW229280   0.723   0.071   6.010  1.3832 -1.7808 -0.1210
 5882SOL     OW29281   1.615   1.231   6.689 -0.0951 -0.1244  0.1136
 5882SOL    HW129282   1.577   1.242   6.601 -0.9782 -1.4888  0.3410
 5882SOL    HW229283   1.711   1.238   6.680 -0.2293 -0.2556 -1.4870
 5883SOL     OW29284   2.024   0.462   7.535  0.1490 -0.0364 -0.3857
 5883SOL    HW129285   2.039   0.500   7.622 -0.1918 -1.0365  0.1084
 5883SOL    HW229286   1.932   0.481   7.520 -0.2642 -1.8495 -0.0674
 5884SOL     OW29287   4.679   1.645   4.162 -0.0354 -0.0830 -0.8825
 5884SOL    HW129288   4.687   1.634   4.257  1.0879  1.9521 -0.7301
 5884SOL    HW229289   4.658   1.557   4.131  0.3000 -0.2543 -0.6338
 5885SOL     OW29290   3.449   3.231  16.318 -0.4890  0.2325 -0.3011
 5885SOL    HW129291   3.464   3.304  16.378 -3.9830  0.4529  0.2884
 5885SOL    HW229292   3.511   3.169  16.357 -2.2173 -0.7705  0.8157
 5886SOL     OW29293   1.193   0.133   6.888  0.1826 -0.4032  0.1709
 5886SOL    HW129294   1.261   0.089   6.939  0.0892 -1.2443 -0.4480
 5886SOL    HW229295   1.126   0.165   6.949 -1.4162 -2.5750 -0.4605
 5887SOL     OW29296   0.004   2.940   6.729  0.3336  0.1584 -0.0270
 5887SOL    HW129297   4.721   3.032   6.710 -0.8808 -0.1599 -0.3430
 5887SOL    HW229298   0.062   2.903   6.663  0.8063 -1.4989  1.2871
 5888SOL     OW29299   1.189   4.635   8.466  0.8087 -0.3747 -0.2310
 5888SOL    HW129300   1.109   4.636   8.518  1.7445  2.8630  1.1383
 5888SOL    HW229301   1.238   4.709   8.503 -0.5719  1.6214 -2.3357
 5889SOL     OW29302   0.054   1.702   6.933 -0.2902 -0.2862  0.1614
 5889SOL    HW129303   4.730   1.748   6.993 -1.7081 -0.6950 -0.9120
 5889SOL    HW229304   0.121   1.676   6.996 -0.3278  0.4311  0.5047
 5890SOL     OW29305   0.286   3.432   1.694  0.3727 -0.8548 -0.4766
 5890SOL    HW129306   0.328   3.366   1.750  1.7896  1.7558  1.5162
 5890SOL    HW229307   0.317   3.394   1.612 -0.7463 -1.1580 -0.7513
 5891SOL     OW29308   2.145   4.656   1.401  0.9780  0.3596 -0.8653
 5891SOL    HW129309   2.193   4.606   1.335  0.3029  0.9924 -1.8382
 5891SOL    HW229310   2.071   4.684   1.347  0.2102  0.7775  0.4130
 5892SOL     OW29311   0.107   0.990   6.081 -0.2456  0.9241  0.3710
 5892SOL    HW129312   0.171   1.034   6.137  0.4300  1.5973 -0.9292
 5892SOL    HW229313   0.126   0.897   6.099 -3.1023  0.2806  0.0069
 5893SOL     OW29314   1.496   2.560  15.360  0.2399 -0.5223  0.2024
 5893SOL    HW129315   1.486   2.606  15.444  0.4676 -0.0613 -0.0232
 5893SOL    HW229316   1.586   2.582  15.335 -0.5706  0.7577 -1.5719
 5894SOL     OW29317   3.338   0.024  13.506 -0.4988 -0.2018 -0.7326
 5894SOL    HW129318   3.377   0.034  13.592  1.0229  0.2848 -1.4716
 5894SOL    HW229319   3.319   0.111  13.471 -2.4318  0.1813  1.2807
 5895SOL     OW29320   2.467   4.645   7.465  0.2131 -0.0963 -0.3753
 5895SOL    HW129321   2.379   4.607   7.458  1.5264 -2.8812 -2.2682
 5895SOL    HW229322   2.491   4.629   7.556 -2.1880 -1.1247  0.1026
 5896SOL     OW29323   0.681   3.167   0.521 -0.4400  0.2123  0.2329
 5896SOL    HW129324   0.717   3.092   0.473  0.0778  0.2051  0.6384
 5896SOL    HW229325   0.733   3.242   0.493 -0.2668 -0.7233 -2.0045
 5897SOL     OW29326   3.685   0.619   5.917 -0.0711  0.5762  0.8610
 5897SOL    HW129327   3.762   0.563   5.915 -1.8502 -1.7584 -2.3088
 5897SOL    HW229328   3.632   0.570   5.979 -1.1477  0.1289 -0.4171
 5898SOL     OW29329   2.902   3.486   7.923  0.0480  0.0299 -0.3173
 5898SOL    HW129330   2.917   3.486   7.829  1.2845 -1.0085 -0.1186
 5898SOL    HW229331   2.890   3.392   7.940 -0.9257 -0.2339 -2.4573
 5899SOL     OW29332   2.814   0.594   9.003  0.9532  0.3591 -0.5548
 5899SOL    HW129333   2.722   0.576   8.984  0.0559  1.7824  2.3755
 5899SOL    HW229334   2.805   0.620   9.095  1.8725  0.8412 -0.6002
 5900SOL     OW29335   3.142   3.571   8.078 -0.0491  0.2836 -0.7167
 5900SOL    HW129336   3.080   3.541   8.011 -0.5023 -1.3420  0.4111
 5900SOL    HW229337   3.113   3.505   8.141  1.2898  0.6420  0.2721
 5901SOL     OW29338   4.213   3.853  11.900  0.3620  0.2531  0.8571
 5901SOL    HW129339   4.247   3.775  11.944  1.9737  0.8917  0.7258
 5901SOL    HW229340   4.291   3.869  11.847  0.4818  0.6813  1.1600
 5902SOL     OW29341   3.328   4.686   6.685 -0.0342 -0.9791 -0.1316
 5902SOL    HW129342   3.354   0.037   6.654 -0.4805 -0.9930 -0.5393
 5902SOL    HW229343   3.242   4.704   6.723  1.0440  0.4603  1.6004
 5903SOL     OW29344   4.704   1.866   9.401 -0.2601 -0.5648 -0.4752
 5903SOL    HW129345   4.616   1.868   9.361 -0.4925  1.7203  0.1538
 5903SOL    HW229346   4.686   1.914   9.482  3.3259  0.9653 -0.6092
 5904SOL     OW29347   1.272   1.127   3.817 -0.3009  0.3508  0.5280
 5904SOL    HW129348   1.279   1.217   3.849 -3.6532 -0.2810  2.9870
 5904SOL    HW229349   1.321   1.122   3.735  0.5559  2.4630  0.9106
 5905SOL     OW29350   2.791   1.470   5.211  0.0871  0.0737 -0.5969
 5905SOL    HW129351   2.827   1.553   5.182 -0.6585  1.3821  2.2422
 5905SOL    HW229352   2.866   1.421   5.246 -0.3941  1.9458  3.0223
 5906SOL     OW29353   4.091   3.844  15.226 -0.3593  0.1554  0.3931
 5906SOL    HW129354   4.182   3.819  15.245  0.1571  0.9422 -1.0285
 5906SOL    HW229355   4.086   3.834  15.131  1.0250  1.3547  0.1889
 5907SOL     OW29356   2.941   4.630   9.790  0.0317  0.3339 -0.2570
 5907SOL    HW129357   2.996   4.566   9.747  0.8636 -0.7368  2.3967
 5907SOL    HW229358   2.897   4.672   9.716 -0.9399 -1.5419 -0.7642
 5908SOL     OW29359   2.338   4.694  11.467  0.4421 -0.4055 -0.1561
 5908SOL    HW129360   2.367   4.723  11.381 -0.6911  2.0302  0.2876
 5908SOL    HW229361   2.419   4.680  11.516  0.4574 -1.1931 -0.3930
 5909SOL     OW29362   1.906   4.602   6.365  0.1790 -0.5670 -0.2457
 5909SOL    HW129363   1.863   4.577   6.447  0.1523  1.7267  0.4506
 5909SOL    HW229364   1.846   4.668   6.329  1.3286  0.3316 -0.5266
 5910SOL     OW29365   1.287   3.601   5.343  0.3018  0.3186  0.3817
 5910SOL    HW129366   1.229   3.528   5.365 -0.8594  1.7184  1.9189
 5910SOL    HW229367   1.243   3.648   5.272  1.1451 -1.1841 -1.1487
 5911SOL     OW29368   3.334   3.707   2.948  0.3044  0.7961  0.2752
 5911SOL    HW129369   3.374   3.790   2.974  1.1432  0.6592 -0.6099
 5911SOL    HW229370   3.275   3.722   2.874 -2.5184 -0.0155  2.3284
 5912SOL     OW29371   1.009   0.116   4.291 -0.4819 -0.0912  0.3575
 5912SOL    HW129372   1.074   0.113   4.361 -1.2434 -1.5041  1.0071
 5912SOL    HW229373   0.997   0.210   4.279 -2.7713 -0.4365  0.0244
 5913SOL     OW29374   1.731   2.177  17.306 -0.3143  0.1888 -0.0012
 5913SOL    HW129375   1.723   2.109  17.238  0.9652  0.1751 -0.1451
 5913SOL    HW229376   1.763   2.248  17.250  2.3272  2.0309  3.8525
 5914SOL     OW29377   2.737   4.444  16.451  0.1255 -0.4821  0.0204
 5914SOL    HW129378   2.643   4.433  16.441 -0.2154  1.8386  0.5799
 5914SOL    HW229379   2.783   4.409  16.375 -0.8525  0.1192 -0.8547
 5915SOL     OW29380   2.906   0.777   3.553 -0.4892  0.0023 -0.2320
 5915SOL    HW129381   2.811   0.782   3.545 -0.5073  0.0083 -0.0010
 5915SOL    HW229382   2.926   0.859   3.598 -0.7562 -1.3362  2.3175
 5916SOL     OW29383   4.627   0.864  12.530 -0.1246  0.1877 -0.0389
 5916SOL    HW129384   4.547   0.892  12.573  0.6964  1.3151  0.7619
 5916SOL    HW229385   4.630   0.922  12.454 -0.1685 -0.6833 -0.7071
 5917SOL     OW29386   1.338   2.950  15.859 -0.3499  0.3636 -0.4815
 5917SOL    HW129387   1.384   3.025  15.821 -0.5045  1.1164  0.8171
 5917SOL    HW229388   1.273   3.005  15.903 -0.3344  0.1456 -0.1876
 5918SOL     OW29389   0.548   4.691   2.664 -0.4748 -0.9488 -0.7083
 5918SOL    HW129390   0.588   4.608   2.691  0.5198 -0.8806 -1.9704
 5918SOL    HW229391   0.461   4.664   2.636 -1.2375  1.6089 -0.8191
 5919SOL     OW29392   1.584   2.490   8.306 -0.3732  0.0803 -0.5747
 5919SOL    HW129393   1.590   2.431   8.231 -0.2570  1.0141 -1.3058
 5919SOL    HW229394   1.550   2.562   8.253  0.9524  1.1631  0.0607
 5920SOL     OW29395   2.010   2.743   4.376  0.1813 -0.0966  0.1811
 5920SOL    HW129396   2.100   2.761   4.400  0.4274 -1.8095  0.4854
 5920SOL    HW229397   2.023   2.702   4.291 -2.9805  3.4825 -2.0727
 5921SOL     OW29398   0.310   3.421   6.075  0.0514  0.5451 -0.2467
 5921SOL    HW129399   0.380   3.358   6.059  1.3614  2.0454 -0.3732
 5921SOL    HW229400   0.359   3.500   6.099  0.7102  0.5174 -1.5130
 5922SOL     OW29401   0.847   0.522   2.376  0.1947 -0.9589 -0.3506
 5922SOL    HW129402   0.845   0.484   2.288 -0.2566  2.9309 -2.0301
 5922SOL    HW229403   0.798   0.601   2.357 -1.4052 -1.1088  3.0848
 5923SOL     OW29404   4.503   3.657  13.624  0.2226 -0.4899 -0.4199
 5923SOL    HW129405   4.532   3.701  13.704 -0.1002 -3.0286  1.0596
 5923SOL    HW229406   4.443   3.726  13.594  1.7000  0.6933 -0.7007
 5924SOL     OW29407   3.037   4.538  16.669  0.2543  0.0559 -0.1971
 5924SOL    HW129408   2.960   4.500  16.711  1.0027 -1.7551 -0.4529
 5924SOL    HW229409   3.077   4.560  16.753 -0.0493 -0.0352 -0.0315
 5925SOL     OW29410   3.797   1.310  11.367  0.2056  0.4914  0.4965
 5925SOL    HW129411   3.846   1.319  11.285  1.3824  3.5792  1.5373
 5925SOL    HW229412   3.865   1.278  11.426 -0.0801  1.2561  1.2388
 5926SOL     OW29413   0.407   4.347  11.129 -0.1508  0.2643  0.4098
 5926SOL    HW129414   0.442   4.289  11.197  0.9484  0.3864 -0.0553
 5926SOL    HW229415   0.481   4.399  11.098 -0.8570  0.7920 -0.3846
 5927SOL     OW29416   2.476   2.895   4.049  0.1989 -0.1768  0.2713
 5927SOL    HW129417   2.448   2.832   4.117 -0.2549 -0.0306  0.2219
 5927SOL    HW229418   2.532   2.828   4.010  1.4035 -0.5884  2.7204
 5928SOL     OW29419   0.059   2.099   5.189  0.2715 -0.1380 -0.1766
 5928SOL    HW129420   4.723   2.045   5.223  0.4090 -0.5805 -0.5916
 5928SOL    HW229421   0.058   2.078   5.096 -0.3800  1.6433 -0.5712
 5929SOL     OW29422   1.200   3.308   8.081 -0.7093 -0.0522 -0.6766
 5929SOL    HW129423   1.269   3.342   8.139  0.0511 -0.2414 -1.4642
 5929SOL    HW229424   1.215   3.350   7.997 -0.3272  0.1801 -0.4954
 5930SOL     OW29425   0.444   3.848   6.809 -0.0449 -0.5080 -0.2105
 5930SOL    HW129426   0.391   3.847   6.889 -1.5593  0.1379 -1.2157
 5930SOL    HW229427   0.378   3.838   6.741  0.4307 -0.7288 -0.6340
 5931SOL     OW29428   3.211   3.335  14.443  0.8155  0.6238  0.2993
 5931SOL    HW129429   3.161   3.414  14.421 -0.7066 -0.6942 -0.8519
 5931SOL    HW229430   3.288   3.345  14.387 -0.6531  1.7876 -1.5402
 5932SOL     OW29431   3.089   4.171  11.828  0.1802  0.2456  0.3905
 5932SOL    HW129432   3.173   4.216  11.836  0.4030 -0.1066  0.0093
 5932SOL    HW229433   3.046   4.201  11.908  1.2565  1.4944  0.5029
 5933SOL     OW29434   2.946   1.976   2.965 -0.2598 -0.2920  0.6520
 5933SOL    HW129435   2.909   2.057   3.001 -2.5102  0.3540 -3.2054
 5933SOL    HW229436   3.035   1.980   3.002  0.1647  0.9945 -0.4855
 5934SOL     OW29437   3.538   0.271  14.974 -0.3365 -0.2448 -0.0841
 5934SOL    HW129438   3.454   0.285  15.018 -0.3409 -0.4657 -0.0221
 5934SOL    HW229439   3.517   0.198  14.916 -1.3887  0.9748 -1.2317
 5935SOL     OW29440   1.530   0.116   6.029 -0.2072 -0.1968  0.3752
 5935SOL    HW129441   1.533   0.083   6.119  0.8938 -0.1370  0.3553
 5935SOL    HW229442   1.438   0.136   6.013  0.5971  1.1273 -2.5364
 5936SOL     OW29443   2.489   3.297   3.376  0.4350  0.2067  0.0013
 5936SOL    HW129444   2.490   3.360   3.448  1.1673 -0.4816  0.5993
 5936SOL    HW229445   2.578   3.302   3.339 -0.2903  3.8610 -1.1763
 5937SOL     OW29446   1.926   3.127   7.953  0.5802 -0.1946 -0.6043
 5937SOL    HW129447   1.986   3.136   8.027 -0.6058  2.0268  0.0967
 5937SOL    HW229448   1.850   3.181   7.974 -0.2854 -0.9283 -1.8407
 5938SOL     OW29449   4.068   2.945   4.763  0.2860 -0.0458  0.9016
 5938SOL    HW129450   4.039   3.025   4.719 -2.0872 -2.4254 -1.8462
 5938SOL    HW229451   3.986   2.896   4.757 -0.6582  1.7578 -0.9502
 5939SOL     OW29452   0.907   2.188   5.395 -0.3363  0.5815  0.2375
 5939SOL    HW129453   0.975   2.131   5.433 -1.2891 -2.0171 -1.9310
 5939SOL    HW229454   0.844   2.204   5.465  0.7620 -0.7060  1.5406
 5940SOL     OW29455   2.796   0.009  14.177 -0.2375 -0.1768 -0.3731
 5940SOL    HW129456   2.750   0.092  14.168 -0.7139 -0.4048 -0.0061
 5940SOL    HW229457   2.843   0.025  14.259 -0.9130  0.8364 -0.1801
 5941SOL     OW29458   2.036   0.360   4.794  0.2435  0.1240 -0.0577
 5941SOL    HW129459   2.128   0.381   4.780  0.5984 -0.3631  1.4585
 5941SOL    HW229460   2.042   0.265   4.787 -3.0506  0.0660 -1.8615
 5942SOL     OW29461   1.564   4.286   4.581  0.0926  0.5731 -0.1714
 5942SOL    HW129462   1.649   4.330   4.584  2.0255 -3.0609 -1.2924
 5942SOL    HW229463   1.517   4.344   4.520  0.7438  2.4072  1.0623
 5943SOL     OW29464   0.138   1.171   1.366  0.1360 -0.0850 -0.1200
 5943SOL    HW129465   0.104   1.251   1.325 -4.4739 -1.3613  1.1611
 5943SOL    HW229466   0.064   1.112   1.350 -1.4114  1.6039  0.7063
 5944SOL     OW29467   3.094   0.763   8.069 -0.1173  0.5817 -0.8880
 5944SOL    HW129468   3.009   0.742   8.030  0.4059  0.5657 -2.0148
 5944SOL    HW229469   3.131   0.678   8.094 -0.2578  0.6170 -0.5645
 5945SOL     OW29470   2.718   2.044   3.929  0.1618  0.0222  0.0255
 5945SOL    HW129471   2.711   2.094   4.010  3.4265 -1.4454  1.2023
 5945SOL    HW229472   2.631   2.065   3.895  1.2484  1.2879 -1.9801
 5946SOL     OW29473   0.340   4.169   5.754  0.5852 -0.1124 -0.0540
 5946SOL    HW129474   0.359   4.192   5.845 -1.5577  2.6630 -0.3070
 5946SOL    HW229475   0.295   4.085   5.760 -0.4404  0.3930 -0.7011
 5947SOL     OW29476   1.699   2.229   9.588  0.3724 -0.2152 -0.0618
 5947SOL    HW129477   1.791   2.255   9.591  0.1216  0.9036 -2.3200
 5947SOL    HW229478   1.686   2.263   9.677 -0.9140 -0.7026 -0.0761
 5948SOL     OW29479   0.727   1.109   3.568  0.0973 -0.1769  0.5393
 5948SOL    HW129480   0.701   1.028   3.611 -0.6332 -0.7486 -0.9828
 5948SOL    HW229481   0.818   1.100   3.540  0.0577 -3.3085  1.5122
 5949SOL     OW29482   1.333   2.393   0.305 -0.1575  0.4201 -0.2023
 5949SOL    HW129483   1.393   2.409   0.232  0.2016 -0.8397 -0.1888
 5949SOL    HW229484   1.357   2.307   0.340 -0.2671 -0.1874 -1.6327
 5950SOL     OW29485   0.697   1.431  12.094  0.7690 -0.1771  0.0984
 5950SOL    HW129486   0.777   1.468  12.132  1.3500 -0.4005 -0.9102
 5950SOL    HW229487   0.636   1.447  12.166 -0.4159  0.4499 -1.0407
 5951SOL     OW29488   0.018   0.674   6.033  0.0316 -0.4525 -0.1671
 5951SOL    HW129489   0.091   0.672   5.971  1.2338 -1.1125  1.2704
 5951SOL    HW229490   0.041   0.730   6.107 -0.3922  0.7093 -0.9071
 5952SOL     OW29491   0.613   4.501  16.788  0.0718  0.6421  0.2209
 5952SOL    HW129492   0.529   4.503  16.834  0.8464  2.7164  1.5595
 5952SOL    HW229493   0.579   4.542  16.709  2.0250  0.6390 -0.6258
 5953SOL     OW29494   4.344   3.763   6.029 -0.1713 -0.4713  0.0621
 5953SOL    HW129495   4.388   3.809   5.957  1.0615  1.7797  2.2471
 5953SOL    HW229496   4.427   3.732   6.066  0.1083 -3.1993 -2.8585
 5954SOL     OW29497   1.739   3.340   3.906  0.1352 -0.4977  0.2677
 5954SOL    HW129498   1.732   3.275   3.976 -1.0507  0.4025  0.9867
 5954SOL    HW229499   1.647   3.339   3.879 -0.2262  2.5150  1.4420
 5955SOL     OW29500   3.423   3.812   4.008 -0.2495  0.0311  0.1683
 5955SOL    HW129501   3.331   3.799   3.984  0.1371 -0.2610 -1.1249
 5955SOL    HW229502   3.433   3.720   4.034 -0.7023  0.5840  2.2859
 5956SOL     OW29503   4.245   1.915  11.188  0.2669 -0.4625 -0.3988
 5956SOL    HW129504   4.173   1.978  11.194  0.5626 -0.1073 -0.5320
 5956SOL    HW229505   4.194   1.840  11.218 -0.5882  0.5295  0.6362
 5957SOL     OW29506   0.710   2.911  13.150  0.1869  0.0245  0.0506
 5957SOL    HW129507   0.635   2.922  13.091  0.5227  1.0497 -0.1807
 5957SOL    HW229508   0.775   2.970  13.114 -0.5824  0.6284 -0.3304
 5958SOL     OW29509   2.459   3.092   7.864 -0.2231  0.1085 -0.0916
 5958SOL    HW129510   2.482   3.101   7.771  0.6140 -1.3948 -0.0307
 5958SOL    HW229511   2.539   3.115   7.912  0.0328  1.2638 -1.0567
 5959SOL     OW29512   3.322   1.178  15.304  0.5594 -0.0126 -0.0914
 5959SOL    HW129513   3.339   1.214  15.216  0.2959 -1.2251 -0.6298
 5959SOL    HW229514   3.393   1.116  15.319  0.5952 -0.5093 -2.2360
 5960SOL     OW29515   1.812   1.999   2.613 -0.1535  0.2209  0.1050
 5960SOL    HW129516   1.759   1.920   2.624  0.2108  0.0376  0.5313
 5960SOL    HW229517   1.853   1.998   2.700  3.1701 -0.8668 -1.4550
 5961SOL     OW29518   4.345   0.460  11.861  0.2538  0.3183  0.1144
 5961SOL    HW129519   4.402   0.470  11.785  0.8712  2.5760  0.8824
 5961SOL    HW229520   4.267   0.422  11.819  0.0053 -0.3647  1.1965
 5962SOL     OW29521   2.032   0.978   1.859  0.3978  0.9063 -0.3578
 5962SOL    HW129522   2.127   0.977   1.860  0.3341 -0.8626  3.4658
 5962SOL    HW229523   2.021   0.884   1.872 -3.7296  1.9496  3.7993
 5963SOL     OW29524   3.627   2.856   2.749 -0.5919 -0.4852  0.0964
 5963SOL    HW129525   3.608   2.766   2.772 -2.1306 -0.0585  0.4969
 5963SOL    HW229526   3.621   2.841   2.655 -0.6942  0.3699 -0.0337
 5964SOL     OW29527   2.481   4.426  15.067  0.4562  0.0397  0.1234
 5964SOL    HW129528   2.428   4.349  15.087  0.6519  0.1329  1.0122
 5964SOL    HW229529   2.468   4.424  14.972 -0.2111 -1.4445  0.2510
 5965SOL     OW29530   1.625   3.131   4.337 -0.4964  0.0277 -0.0769
 5965SOL    HW129531   1.718   3.149   4.348 -0.9778  2.6684 -0.3966
 5965SOL    HW229532   1.611   3.092   4.423  1.9905  0.1772  0.3853
 5966SOL     OW29533   1.174   0.159   8.058 -0.3849 -0.2100 -0.0878
 5966SOL    HW129534   1.156   0.083   8.113 -1.7024  0.5633  0.5817
 5966SOL    HW229535   1.267   0.171   8.073 -0.5449  2.5363 -1.1521
 5967SOL     OW29536   1.090   0.537   2.841  0.4403  0.6362  0.5973
 5967SOL    HW129537   1.038   0.520   2.763 -0.8536  1.1337  1.3516
 5967SOL    HW229538   1.172   0.571   2.805  0.4551  1.4639  1.3959
 5968SOL     OW29539   3.460   3.538   8.313  0.1149 -0.5496  0.3784
 5968SOL    HW129540   3.514   3.602   8.360 -0.7859  0.3108  0.2294
 5968SOL    HW229541   3.384   3.595   8.302  0.3153 -0.8401 -2.5303
 5969SOL     OW29542   2.646   1.034  13.818  0.4110  0.0524  0.1691
 5969SOL    HW129543   2.617   0.995  13.901  0.3526 -0.0722  0.0898
 5969SOL    HW229544   2.739   1.051  13.837 -0.0425  1.2766  1.3224
 5970SOL     OW29545   3.793   3.160   8.629  0.3968 -0.4574 -0.2375
 5970SOL    HW129546   3.884   3.162   8.657  0.7387 -0.1826 -1.3631
 5970SOL    HW229547   3.748   3.147   8.712  0.5125  0.0420 -0.0956
 5971SOL     OW29548   4.241   1.322  14.870 -0.1981 -0.0802  0.6891
 5971SOL    HW129549   4.187   1.390  14.830  1.6790  0.2283 -1.3278
 5971SOL    HW229550   4.255   1.274  14.789 -1.9318  1.2259 -0.3708
 5972SOL     OW29551   2.003   1.198   8.111 -0.1585 -0.0828 -0.5639
 5972SOL    HW129552   2.001   1.294   8.113  0.2582 -0.0640 -1.1454
 5972SOL    HW229553   2.068   1.177   8.178 -1.4037  2.0695  1.3396
 5973SOL     OW29554   3.512   3.601   1.638  0.1042  0.2064  0.0578
 5973SOL    HW129555   3.470   3.665   1.580  1.0438  1.6487  0.9420
 5973SOL    HW229556   3.571   3.661   1.684  0.0806 -2.4089  3.4962
 5974SOL     OW29557   0.551   1.745   9.754  0.1710  0.1855 -0.1011
 5974SOL    HW129558   0.591   1.783   9.832 -1.7112 -0.6223  1.2629
 5974SOL    HW229559   0.476   1.804   9.745 -0.0732 -0.1364 -0.1779
 5975SOL     OW29560   1.535   4.428   2.286  0.4858 -0.3616 -0.0469
 5975SOL    HW129561   1.530   4.365   2.357  1.1119 -1.1921 -0.7330
 5975SOL    HW229562   1.627   4.422   2.260 -0.3740 -0.9580 -3.0203
 5976SOL     OW29563   4.696   3.383   9.572 -0.8637 -0.2460 -0.4516
 5976SOL    HW129564   4.616   3.331   9.565 -1.8679  1.5402 -1.9860
 5976SOL    HW229565   4.684   3.440   9.647 -0.1331 -2.8924  1.6775
 5977SOL     OW29566   2.413   3.165  14.937 -0.0386 -0.3283  0.1547
 5977SOL    HW129567   2.348   3.096  14.952 -0.3168  0.0097  0.4948
 5977SOL    HW229568   2.494   3.134  14.977  0.3004 -0.9416 -1.0121
 5978SOL     OW29569   2.192   2.375  16.957  0.3948  0.2315  0.4651
 5978SOL    HW129570   2.243   2.351  16.880 -0.3536 -4.5570  1.5002
 5978SOL    HW229571   2.134   2.448  16.934 -0.0501  0.1311  1.2716
 5979SOL     OW29572   4.264   1.267  13.350 -0.1250 -0.4074 -0.0755
 5979SOL    HW129573   4.189   1.325  13.337 -0.0020 -0.1944  0.1618
 5979SOL    HW229574   4.293   1.245  13.262 -0.1772 -1.9262  0.2707
 5980SOL     OW29575   3.654   3.813   5.811 -0.2248  0.2779 -0.3652
 5980SOL    HW129576   3.627   3.726   5.784  0.6291  0.1857 -0.9072
 5980SOL    HW229577   3.718   3.782   5.875 -2.9886 -0.8044  1.8660
 5981SOL     OW29578   3.050   4.011  10.045  0.5106 -0.1575  0.0669
 5981SOL    HW129579   2.983   4.075  10.068 -0.5769 -1.8628  1.6847
 5981SOL    HW229580   3.128   4.040  10.093 -0.7157  1.5350  1.0099
 5982SOL     OW29581   3.117   2.047   5.145 -0.1556 -0.5564 -0.2090
 5982SOL    HW129582   3.105   1.980   5.212  1.1422 -0.8200 -0.2508
 5982SOL    HW229583   3.127   2.005   5.060 -0.2087  1.9550 -1.4747
 5983SOL     OW29584   2.911   1.036   4.573 -0.2924  0.3428 -0.6863
 5983SOL    HW129585   2.959   0.975   4.629  1.0701  0.1032 -2.1133
 5983SOL    HW229586   2.857   1.073   4.643 -1.0397  0.2420 -1.2098
 5984SOL     OW29587   1.218   1.667   7.438 -0.5602  0.3627 -0.1165
 5984SOL    HW129588   1.241   1.737   7.499 -1.6289  0.1758  0.5096
 5984SOL    HW229589   1.305   1.646   7.404  0.0341  0.2817  1.4728
 5985SOL     OW29590   0.356   0.820   7.435  0.3039 -0.3126  0.1338
 5985SOL    HW129591   0.293   0.751   7.456 -0.0885  0.2235  0.7220
 5985SOL    HW229592   0.385   0.788   7.350  1.6389  2.4752 -0.4453
 5986SOL     OW29593   1.467   0.344  10.184  0.5674 -0.1946 -0.1689
 5986SOL    HW129594   1.450   0.434  10.210 -0.5122 -0.7438  1.0517
 5986SOL    HW229595   1.508   0.314  10.265 -1.3132 -1.2008  0.4145
 5987SOL     OW29596   4.350   2.236  10.270 -0.0320  0.4987 -0.5675
 5987SOL    HW129597   4.302   2.263  10.192  0.7080 -0.6944 -1.4370
 5987SOL    HW229598   4.317   2.294  10.338 -1.7653 -0.7209 -0.3626
 5988SOL     OW29599   2.040   4.307   2.129  0.0265  0.0108  0.0643
 5988SOL    HW129600   2.049   4.312   2.034  0.7171  0.7870  0.1705
 5988SOL    HW229601   2.130   4.285   2.152  0.3419  0.9971 -0.2475
 5989SOL     OW29602   2.739   2.828   3.427 -0.7125 -0.2609  0.5932
 5989SOL    HW129603   2.713   2.907   3.476  0.7716  0.0927  0.8095
 5989SOL    HW229604   2.817   2.803   3.476  0.8382  1.0220 -1.2422
 5990SOL     OW29605   1.211   4.376   3.327 -0.2097  0.7801  0.0667
 5990SOL    HW129606   1.247   4.392   3.240  0.1898 -0.6752 -0.0364
 5990SOL    HW229607   1.179   4.286   3.319  0.9380  0.5212 -1.6476
 5991SOL     OW29608   3.929   2.817   3.798  0.4939 -0.4689 -0.2687
 5991SOL    HW129609   3.930   2.751   3.728 -1.0196 -0.1907 -0.5501
 5991SOL    HW229610   3.944   2.754   3.867  0.1473 -1.0046 -0.6844
 5992SOL     OW29611   1.244   0.969  17.696 -0.5183  0.4818  0.1241
 5992SOL    HW129612   1.327   1.005  17.665  0.1442  1.0641  2.5587
 5992SOL    HW229613   1.274   0.946   0.045  1.0969  3.0451  0.2510
 5993SOL     OW29614   3.587   2.241   5.259 -0.1864  0.5532 -0.9618
 5993SOL    HW129615   3.522   2.205   5.200 -2.3216  0.3798  1.4684
 5993SOL    HW229616   3.552   2.330   5.272  4.0910  2.2783 -1.3372
 5994SOL     OW29617   3.974   3.675  15.387  0.4284  0.0671  0.1245
 5994SOL    HW129618   3.954   3.733  15.461  0.5467  1.7497 -1.1868
 5994SOL    HW229619   4.013   3.745  15.335 -0.5527  1.1345  0.8239
 5995SOL     OW29620   3.489   3.372   3.460 -0.0986  0.4813  0.1337
 5995SOL    HW129621   3.575   3.414   3.453  0.1743 -0.3506 -1.4575
 5995SOL    HW229622   3.516   3.280   3.462  0.1931  0.5107 -2.2144
 5996SOL     OW29623   3.397   2.510  16.332 -0.5142 -0.5445 -0.2583
 5996SOL    HW129624   3.414   2.496  16.425  1.5502  2.4597 -0.1781
 5996SOL    HW229625   3.365   2.600  16.332  1.2919  0.0800  0.9395
 5997SOL     OW29626   0.148   0.168   4.304  0.0833  0.1378  0.7245
 5997SOL    HW129627   0.081   0.183   4.371  0.8564 -2.4477  2.1026
 5997SOL    HW229628   0.136   0.074   4.291 -1.2901  0.4697 -0.3663
 5998SOL     OW29629   3.328   3.923   5.102  0.3929  0.6305  1.1707
 5998SOL    HW129630   3.397   3.870   5.062 -1.0103 -1.9392  2.2036
 5998SOL    HW229631   3.254   3.864   5.090  0.7769  0.2446  0.6987
 5999SOL     OW29632   1.212   1.728  10.317  0.0026  0.3647  0.0038
 5999SOL    HW129633   1.158   1.806  10.332  0.2711  0.9449 -1.9489
 5999SOL    HW229634   1.148   1.663  10.345  1.0079  0.3136  2.1211
 6000SOL     OW29635   0.450   1.326  16.107 -0.1584 -0.1298 -0.0482
 6000SOL    HW129636   0.389   1.353  16.176 -1.1417  1.3006 -1.4807
 6000SOL    HW229637   0.426   1.234  16.097 -3.0042  0.8248 -2.1884
 6001SOL     OW29638   0.010   4.072   4.192  0.0429  0.2238  0.5970
 6001SOL    HW129639   4.673   4.019   4.225 -1.6025  2.3139  0.3324
 6001SOL    HW229640   0.050   4.109   4.271  0.1693 -0.2465  0.7561
 6002SOL     OW29641   2.543   0.218  17.556  0.1006 -0.7603  0.1231
 6002SOL    HW129642   2.512   0.165  17.482  1.0776 -2.2052  0.7738
 6002SOL    HW229643   2.557   0.301  17.510  0.6988  0.6579  2.8529
 6003SOL     OW29644   1.151   1.601   9.384 -0.5987  0.3738 -0.5605
 6003SOL    HW129645   1.213   1.673   9.374  1.6376 -1.1094  2.6301
 6003SOL    HW229646   1.217   1.532   9.381  0.0259  0.9260  0.3211
 6004SOL     OW29647   4.605   0.567  15.976 -0.3788  0.6288  0.5108
 6004SOL    HW129648   4.611   0.474  15.997  1.3527  1.1699  2.4632
 6004SOL    HW229649   4.694   0.600  15.991 -0.3177  0.1682  1.1536
 6005SOL     OW29650   2.858   4.583  16.205  0.4033  0.3200 -0.1560
 6005SOL    HW129651   2.856   4.668  16.250  0.6620 -0.3136  1.0564
 6005SOL    HW229652   2.772   4.578  16.164 -0.6935  1.7622  1.9538
 6006SOL     OW29653   3.196   0.681   2.146  0.0661 -0.8854  0.2244
 6006SOL    HW129654   3.122   0.735   2.117  1.1298  0.4894  0.0810
 6006SOL    HW229655   3.228   0.653   2.061  0.4795 -0.0601  0.1046
 6007SOL     OW29656   3.101   2.285  14.750 -0.5573  0.2584 -0.3278
 6007SOL    HW129657   3.147   2.279  14.667  1.3257  0.6864  0.6896
 6007SOL    HW229658   3.095   2.198  14.791 -0.0537  0.8751  1.0630
 6008SOL     OW29659   0.869   1.751  12.108 -0.1311  0.0003  0.1155
 6008SOL    HW129660   0.776   1.765  12.093  0.4768  3.0933 -0.8869
 6008SOL    HW229661   0.875   1.670  12.158  0.1867 -0.0887 -0.0625
 6009SOL     OW29662   0.428   2.903   8.161 -0.4510 -0.1188 -0.8044
 6009SOL    HW129663   0.336   2.907   8.185  0.1510  2.3137  1.0525
 6009SOL    HW229664   0.427   2.967   8.089 -2.0496  0.0696 -0.6103
 6010SOL     OW29665   3.005   1.798   6.891  0.1610  0.2110 -0.2942
 6010SOL    HW129666   2.944   1.872   6.903 -0.6671 -0.2905 -1.4808
 6010SOL    HW229667   2.959   1.738   6.949  1.0829 -0.2471 -0.0443
 6011SOL     OW29668   3.184   0.054   2.166 -0.3923  0.1735  0.1862
 6011SOL    HW129669   3.171   4.721   2.232 -2.5784 -0.2060 -0.6433
 6011SOL    HW229670   3.272   0.083   2.192  0.0597 -1.3718  0.4200
 6012SOL     OW29671   2.151   3.315  15.595 -0.2558  0.0833 -0.2985
 6012SOL    HW129672   2.101   3.357  15.526 -0.7079  0.0957  0.0386
 6012SOL    HW229673   2.242   3.335  15.570 -0.1768  0.3779  0.2255
 6013SOL     OW29674   0.688   4.132   4.097 -0.0000  0.9168 -0.2411
 6013SOL    HW129675   0.644   4.195   4.155 -1.8243 -0.9499  0.3996
 6013SOL    HW229676   0.756   4.190   4.064 -0.7630  3.5417  2.8254
 6014SOL     OW29677   1.959   1.360   3.570  0.0367 -0.3834 -0.5154
 6014SOL    HW129678   1.966   1.368   3.665 -0.6402  2.0714 -0.6659
 6014SOL    HW229679   1.881   1.306   3.568  0.1443 -0.6165  1.1074
 6015SOL     OW29680   1.171   3.428   7.744 -0.1788  0.0302  0.2827
 6015SOL    HW129681   1.153   3.512   7.701 -1.2250 -0.5874 -0.4670
 6015SOL    HW229682   1.138   3.359   7.687  2.2537 -2.3639  1.8285
 6016SOL     OW29683   1.005   0.341   8.161  0.0718 -0.2836 -0.4421
 6016SOL    HW129684   1.062   0.279   8.117  1.3823 -0.6893  1.8338
 6016SOL    HW229685   1.051   0.424   8.146 -0.5460  0.1607  0.0720
 6017SOL     OW29686   3.191   1.593   7.402 -0.0586 -0.4221  0.1102
 6017SOL    HW129687   3.178   1.657   7.331  0.1037 -1.1182 -0.5484
 6017SOL    HW229688   3.286   1.594   7.413  0.0193 -2.2002 -0.4420
 6018SOL     OW29689   4.724   1.618  10.226 -0.5339  0.0346 -0.1964
 6018SOL    HW129690   4.690   1.668  10.300 -2.2085 -0.2149 -0.7980
 6018SOL    HW229691   4.641   1.602  10.182 -0.7185  2.4066 -0.7349
 6019SOL     OW29692   1.129   2.847  17.447 -0.0710 -0.0928  0.7133
 6019SOL    HW129693   1.086   2.772  17.489  1.0584 -0.3365  1.4430
 6019SOL    HW229694   1.088   2.922  17.490 -2.7972 -0.1316 -1.7879
 6020SOL     OW29695   0.295   4.141   9.705  0.2080 -0.0976  0.6031
 6020SOL    HW129696   0.288   4.071   9.640 -0.4577  0.4583  0.0749
 6020SOL    HW229697   0.213   4.129   9.753 -0.9964  0.2265 -1.3666
 6021SOL     OW29698   0.760   0.134   8.644  0.5080 -0.4430  0.1593
 6021SOL    HW129699   0.753   0.181   8.727 -0.0158 -2.0942  1.0498
 6021SOL    HW229700   0.695   0.064   8.647 -1.7499  1.5308 -1.8652
 6022SOL     OW29701   4.203   0.481   5.010  0.7828  0.2967  0.3364
 6022SOL    HW129702   4.236   0.452   4.925  0.2176  0.2319  0.1360
 6022SOL    HW229703   4.285   0.481   5.059  0.3217 -1.2986  1.1105
 6023SOL     OW29704   3.078   3.537   4.631  0.1272  0.2029  0.7678
 6023SOL    HW129705   3.106   3.622   4.598 -1.2838  0.2698 -0.2476
 6023SOL    HW229706   3.105   3.544   4.723  0.7093  3.6082  0.3119
 6024SOL     OW29707   2.880   0.519   8.291  0.3191  0.3177  0.0559
 6024SOL    HW129708   2.888   0.602   8.339  0.5083  0.1632  0.2908
 6024SOL    HW229709   2.846   0.457   8.355 -3.2441  0.8721 -1.3000
 6025SOL     OW29710   4.678   3.423   6.080 -0.5266  0.3590  0.4453
 6025SOL    HW129711   4.609   3.358   6.093  0.4079 -0.4650  1.3299
 6025SOL    HW229712   4.734   3.403   6.155 -1.5967 -1.8906  0.6541
 6026SOL     OW29713   2.513   2.940   1.871  0.2523  0.5779  0.2053
 6026SOL    HW129714   2.503   2.846   1.890  0.6937  0.4748 -0.0728
 6026SOL    HW229715   2.532   2.968   1.961 -0.6750 -1.5887  1.0823
 6027SOL     OW29716   4.600   2.285   5.384 -0.5399 -0.2163 -0.6293
 6027SOL    HW129717   4.662   2.356   5.371  1.1146 -1.7535 -1.2305
 6027SOL    HW229718   4.565   2.284   5.295 -3.4193  1.9129  0.5089
 6028SOL     OW29719   0.160   1.366   6.020  0.6724 -0.4517  0.4611
 6028SOL    HW129720   0.077   1.354   6.067  0.5958 -0.7476  0.2521
 6028SOL    HW229721   0.153   1.455   5.987  1.5977 -0.0724  1.2688
 6029SOL     OW29722   1.655   3.067   5.989  0.2222  0.2054  0.1592
 6029SOL    HW129723   1.716   2.994   5.983 -1.4989 -1.3649  1.7378
 6029SOL    HW229724   1.655   3.098   5.899  0.6036  2.8121  1.0331
 6030SOL     OW29725   0.782   0.805   2.856  0.1677  0.3157 -0.4984
 6030SOL    HW129726   0.744   0.891   2.836  1.3104 -0.1570 -4.7259
 6030SOL    HW229727   0.835   0.795   2.777  0.4962 -1.0267 -0.1006
 6031SOL     OW29728   1.466   1.537   4.603 -0.1513  0.0762 -0.4798
 6031SOL    HW129729   1.476   1.456   4.653  0.8979 -0.1189 -1.0097
 6031SOL    HW229730   1.472   1.598   4.676  1.1437 -0.8198  0.1581
 6032SOL     OW29731   1.579   0.913   5.115  0.0079 -0.2273 -0.2733
 6032SOL    HW129732   1.652   0.935   5.172 -1.1992 -0.7170  1.4856
 6032SOL    HW229733   1.613   0.906   5.026  0.6224  0.3123 -0.0782
 6033SOL     OW29734   1.189   1.860   5.782 -0.1439 -0.9198  0.4113
 6033SOL    HW129735   1.145   1.935   5.743 -1.0658 -0.0689  3.0804
 6033SOL    HW229736   1.117   1.798   5.795 -0.1157 -1.3694 -1.5353
 6034SOL     OW29737   2.813   0.942   2.026  0.1479  0.1953  0.4040
 6034SOL    HW129738   2.785   1.021   1.980  0.5563 -0.9195 -1.7512
 6034SOL    HW229739   2.774   0.873   1.972 -2.0185 -0.1015  2.3529
 6035SOL     OW29740   1.539   0.008   7.902 -0.6892  0.3050  0.1869
 6035SOL    HW129741   1.595   0.008   7.980  1.9455 -1.4257 -1.6992
 6035SOL    HW229742   1.558   4.659   7.862 -1.9257  0.1740 -0.1201
 6036SOL     OW29743   1.295   1.508   3.674  0.1562 -0.1761  0.1877
 6036SOL    HW129744   1.375   1.459   3.690 -0.9056 -2.1829 -0.7463
 6036SOL    HW229745   1.245   1.447   3.620 -1.3852  2.6984 -1.6672
 6037SOL     OW29746   4.038   2.812   1.616  0.2192 -0.5041 -0.3316
 6037SOL    HW129747   4.062   2.720   1.628  0.0149 -0.8779 -2.9725
 6037SOL    HW229748   3.953   2.793   1.576 -0.4755 -0.8879  1.3177
 6038SOL     OW29749   0.291   3.187  10.258 -0.9759 -0.0204 -0.5643
 6038SOL    HW129750   0.204   3.169  10.294  0.2589 -1.0353  1.8910
 6038SOL    HW229751   0.344   3.111  10.284 -1.1254  0.4656  1.1814
 6039SOL     OW29752   1.318   0.597   9.896 -0.0955  0.2683  0.3951
 6039SOL    HW129753   1.368   0.669   9.859  0.9692  0.1655  1.6508
 6039SOL    HW229754   1.257   0.637   9.958  0.3466  0.7104  0.5438
 6040SOL     OW29755   3.862   0.567  14.783 -0.4133 -0.3196  0.0439
 6040SOL    HW129756   3.954   0.585  14.806 -0.3356 -2.2047  1.2752
 6040SOL    HW229757   3.868   0.476  14.754 -2.8061 -0.3348 -0.3286
 6041SOL     OW29758   3.377   0.176   9.996 -0.0363 -0.1156 -0.3065
 6041SOL    HW129759   3.352   0.263   9.965 -1.2027 -1.2786 -2.6765
 6041SOL    HW229760   3.322   0.178  10.074 -0.2139  3.3943 -0.5125
 6042SOL     OW29761   4.674   3.510  13.497  0.6795  0.1473 -0.0200
 6042SOL    HW129762   4.600   3.539  13.551  0.2635 -2.0552  0.6106
 6042SOL    HW229763   4.712   3.597  13.507  1.0662  0.1364 -1.4979
 6043SOL     OW29764   0.987   3.961   3.047  0.3132  0.1980  0.3919
 6043SOL    HW129765   0.996   3.877   3.002  0.1726  1.3319 -1.7799
 6043SOL    HW229766   0.932   3.938   3.121  1.1207 -1.4794  0.4616
 6044SOL     OW29767   0.869   4.347   4.844  1.0457 -0.5585  0.1758
 6044SOL    HW129768   0.842   4.286   4.775 -1.3214  0.6501  0.0295
 6044SOL    HW229769   0.795   4.406   4.862  1.3176 -1.1261  3.0581
 6045SOL     OW29770   2.130   4.119   7.573  0.5505  0.6944 -0.5119
 6045SOL    HW129771   2.187   4.186   7.535  1.3675  1.1306  1.4693
 6045SOL    HW229772   2.182   4.039   7.571  1.7954  1.4644  1.2007
 6046SOL     OW29773   4.674   1.418   0.073  0.3241 -0.1073 -0.3709
 6046SOL    HW129774   4.720   1.359   0.133 -1.8794 -0.6807  0.7747
 6046SOL    HW229775   4.666   1.488   0.139 -1.1176 -2.4096  1.8821
 6047SOL     OW29776   2.234   4.165   8.047  0.0220 -0.2961 -0.4190
 6047SOL    HW129777   2.188   4.101   8.102  0.0164 -0.5068 -0.6710
 6047SOL    HW229778   2.285   4.212   8.113  0.2983  1.1724 -1.7006
 6048SOL     OW29779   4.578   3.658   6.081  0.0681  0.0393  0.3005
 6048SOL    HW129780   4.664   3.692   6.056  1.5702 -3.3698  0.8497
 6048SOL    HW229781   4.589   3.564   6.065 -3.4523  0.0285 -2.0814
 6049SOL     OW29782   4.025   3.594   2.861  0.3397  0.4000 -0.3980
 6049SOL    HW129783   3.988   3.506   2.868 -1.3600  1.2363  1.1375
 6049SOL    HW229784   4.112   3.577   2.825  0.3107 -1.7439  0.5738
 6050SOL     OW29785   1.555   1.632   1.398  0.3172 -0.0680 -0.4280
 6050SOL    HW129786   1.565   1.683   1.318 -0.9672 -0.3192 -0.7442
 6050SOL    HW229787   1.593   1.547   1.376  1.0095  0.4223 -1.1129
 6051SOL     OW29788   1.496   2.636  12.961  0.7174 -0.1956  0.1642
 6051SOL    HW129789   1.420   2.596  13.005  0.0922  3.0423  1.9966
 6051SOL    HW229790   1.498   2.727  12.989  0.3515  0.3754 -1.6598
 6052SOL     OW29791   2.244   2.124   3.216 -0.3627 -0.0539 -0.2185
 6052SOL    HW129792   2.279   2.162   3.136 -1.6130 -0.9881 -1.2236
 6052SOL    HW229793   2.170   2.182   3.235 -2.3272 -2.0268 -1.8705
 6053SOL     OW29794   2.662   4.449   4.611 -0.2119  0.2781  0.4884
 6053SOL    HW129795   2.637   4.519   4.550 -0.5210  1.8286  2.3721
 6053SOL    HW229796   2.582   4.398   4.604  0.4775 -0.4551 -2.2102
 6054SOL     OW29797   0.104   4.190   1.494  0.1217  0.5659  0.1907
 6054SOL    HW129798   0.155   4.149   1.565  1.5919  0.0801 -1.1362
 6054SOL    HW229799   0.128   4.282   1.500 -1.4316  1.0075 -0.3824
 6055SOL     OW29800   1.704   4.131   7.253  0.4961  0.4495  0.0708
 6055SOL    HW129801   1.711   4.221   7.286 -1.5230  0.4828  0.4072
 6055SOL    HW229802   1.786   4.093   7.283 -1.4285 -3.7625 -0.0036
 6056SOL     OW29803   1.442   4.427   3.834 -0.0493  0.1103 -0.0522
 6056SOL    HW129804   1.528   4.394   3.809  0.5294  1.4193  0.2189
 6056SOL    HW229805   1.390   4.347   3.837 -1.4850  1.0066 -0.6552
 6057SOL     OW29806   0.245   0.388   7.523  0.1885  0.1231 -0.1969
 6057SOL    HW129807   0.202   0.334   7.590  0.1537  1.1446  0.6063
 6057SOL    HW229808   0.313   0.429   7.576 -1.0045 -0.6084  1.9115
 6058SOL     OW29809   0.110   3.872   6.062  0.4274 -0.3506 -0.8758
 6058SOL    HW129810   0.198   3.903   6.085 -0.3459  0.8131  0.5351
 6058SOL    HW229811   0.132   3.779   6.053  0.6756 -0.5676  1.8443
 6059SOL     OW29812   0.170   0.146  13.495  0.3127 -0.2267  0.2017
 6059SOL    HW129813   0.248   0.197  13.472 -0.3771  0.9511  0.4896
 6059SOL    HW229814   0.116   0.157  13.417  0.2634 -0.7659  0.1623
 6060SOL     OW29815   2.069   0.700   8.502 -0.1964  0.6147  0.5248
 6060SOL    HW129816   2.094   0.712   8.594  1.3934  1.4044 -0.0033
 6060SOL    HW229817   2.138   0.760   8.473 -1.1692  0.5899 -1.8564
 6061SOL     OW29818   3.849   0.247   6.203 -0.2615  0.7002 -0.1725
 6061SOL    HW129819   3.849   0.276   6.112  0.7413 -0.3492 -0.5011
 6061SOL    HW229820   3.820   0.330   6.242  2.0607  0.5529  1.8613
 6062SOL     OW29821   4.717   0.932   7.436  0.5101 -0.2143 -0.1320
 6062SOL    HW129822   4.641   0.896   7.482  0.8411 -1.4125 -0.5485
 6062SOL    HW229823   0.025   0.856   7.398  0.9772 -0.1118  0.1925
 6063SOL     OW29824   3.477   3.256   9.647  0.1823 -0.0681  0.5812
 6063SOL    HW129825   3.401   3.239   9.702  0.5791  0.9113  1.4551
 6063SOL    HW229826   3.499   3.338   9.693  1.3015 -1.1180  1.9206
 6064SOL     OW29827   1.486   1.526   1.924 -0.2079 -0.8235  0.6703
 6064SOL    HW129828   1.501   1.466   1.997  0.0238  0.3990  1.6273
 6064SOL    HW229829   1.432   1.466   1.873 -0.5341  0.1385 -0.1038
 6065SOL     OW29830   0.406   1.188   5.416  0.4325 -0.7641  0.2373
 6065SOL    HW129831   0.329   1.154   5.370 -0.4098  3.4292 -1.4193
 6065SOL    HW229832   0.406   1.279   5.385  1.9108  0.2400  3.2042
 6066SOL     OW29833   0.890   3.720   7.761 -0.1134  0.1925 -0.3865
 6066SOL    HW129834   0.976   3.738   7.723  0.3669 -0.4870  0.3984
 6066SOL    HW229835   0.825   3.731   7.691 -0.6698 -0.9576 -0.0699
 6067SOL     OW29836   1.378   1.833  10.141  0.3938 -0.4030  0.2385
 6067SOL    HW129837   1.465   1.830  10.182  1.2569  0.8390 -1.5463
 6067SOL    HW229838   1.315   1.800  10.205 -0.7749  0.8222 -0.2697
 6068SOL     OW29839   0.277   3.753   1.657  0.1157  0.5038  0.0229
 6068SOL    HW129840   0.206   3.778   1.597 -0.8462  0.9795  1.3503
 6068SOL    HW229841   0.263   3.660   1.674 -1.7635  1.3217  2.9282
 6069SOL     OW29842   0.136   0.917   7.092  0.0112  0.2346  0.0699
 6069SOL    HW129843   0.098   0.831   7.106 -3.4569  1.3701 -2.4718
 6069SOL    HW229844   0.158   0.910   6.999 -1.7624  0.3155 -0.3489
 6070SOL     OW29845   3.417   4.085   7.349 -0.2898 -0.0373 -0.2351
 6070SOL    HW129846   3.444   3.994   7.361 -0.1192  0.0832  0.2731
 6070SOL    HW229847   3.459   4.111   7.267  0.1836  1.9430  0.6508
 6071SOL     OW29848   1.068   4.242   3.001  0.0704  0.4629  0.0133
 6071SOL    HW129849   1.158   4.223   2.976  0.2926 -0.5149  1.6013
 6071SOL    HW229850   1.025   4.157   3.010 -1.4310  1.2978  0.8023
 6072SOL     OW29851   1.849   4.002   3.320  0.0597 -0.0751 -0.1562
 6072SOL    HW129852   1.825   3.972   3.408 -1.9156  0.6999 -0.4488
 6072SOL    HW229853   1.813   4.089   3.309 -0.4918 -0.1627  0.9061
 6073SOL     OW29854   2.553   1.490   5.036  0.1733  0.9428  0.3488
 6073SOL    HW129855   2.624   1.497   5.100  1.4237  2.1648 -1.1920
 6073SOL    HW229856   2.598   1.541   4.969  0.7750  0.1252  0.1281
 6074SOL     OW29857   4.383   4.557   6.797 -0.2953  0.5771 -0.0421
 6074SOL    HW129858   4.477   4.537   6.793 -0.4683  0.0220 -1.3082
 6074SOL    HW229859   4.385   4.611   6.875 -0.8451  0.1597  0.2648
 6075SOL     OW29860   4.664   4.187   5.159  0.6213 -0.2777 -0.2895
 6075SOL    HW129861   4.600   4.119   5.140  0.3705  0.1456 -0.9679
 6075SOL    HW229862   0.007   4.140   5.130  1.2969  0.4664  0.3508
 6076SOL     OW29863   1.008   4.474  14.513  0.0373 -0.4325  0.2565
 6076SOL    HW129864   0.940   4.527  14.470 -0.9246 -1.4109  0.5679
 6076SOL    HW229865   1.011   4.404  14.448 -0.5916 -0.6179  0.4244
 6077SOL     OW29866   2.236   3.058   8.950 -0.1305 -0.2555 -0.2443
 6077SOL    HW129867   2.263   3.062   8.858  0.2185  1.6177 -0.0689
 6077SOL    HW229868   2.145   3.086   8.950  0.1607  0.7067  0.6921
 6078SOL     OW29869   2.955   1.967   6.577  0.2273 -0.2623 -0.0595
 6078SOL    HW129870   3.035   2.015   6.597 -0.6180  2.0440 -2.3042
 6078SOL    HW229871   2.983   1.916   6.501 -0.3861  2.8989 -2.4095
 6079SOL     OW29872   1.120   0.226   8.669  0.0257  0.3767  0.3161
 6079SOL    HW129873   1.082   0.302   8.626 -1.9209 -1.1505 -0.6468
 6079SOL    HW229874   1.055   0.203   8.736  1.2474 -1.0597  1.0260
 6080SOL     OW29875   4.329   4.265   5.057  0.3909  0.0634  0.0169
 6080SOL    HW129876   4.368   4.296   5.139 -1.6481 -1.3917  1.5409
 6080SOL    HW229877   4.239   4.250   5.085  0.4131  0.9749  0.5773
 6081SOL     OW29878   0.923   3.292   7.875  0.7101  0.0425 -0.2437
 6081SOL    HW129879   0.895   3.325   7.790  1.4156 -2.8980 -1.5910
 6081SOL    HW229880   0.976   3.365   7.907  0.1786 -0.4760  1.8237
 6082SOL     OW29881   4.490   0.765   2.063  0.3567 -0.0120  0.0219
 6082SOL    HW129882   4.514   0.675   2.042  0.7564  0.2930 -0.8167
 6082SOL    HW229883   4.450   0.753   2.149  0.4589 -1.1748 -0.0871
 6083SOL     OW29884   3.408   3.690  17.400 -0.1886 -0.1409  0.6494
 6083SOL    HW129885   3.494   3.666  17.436 -0.3699  1.5121  2.2329
 6083SOL    HW229886   3.366   3.718  17.482  3.8989  2.0472  2.0304
 6084SOL     OW29887   3.302   1.087   4.403  0.1713 -0.3253 -0.2393
 6084SOL    HW129888   3.371   1.151   4.387 -2.1764  2.2780  0.1536
 6084SOL    HW229889   3.241   1.139   4.454 -0.2670  0.9545 -2.0557
 6085SOL     OW29890   0.089   0.549   2.627 -0.1027  0.1014  0.1803
 6085SOL    HW129891   0.161   0.517   2.681 -0.4917  1.0867  1.2639
 6085SOL    HW229892   0.051   0.468   2.592 -0.4097  1.0766 -1.7432
 6086SOL     OW29893   1.058   1.874   5.265 -0.1709 -0.1406 -0.0155
 6086SOL    HW129894   1.015   1.822   5.333  0.7204 -0.5704  0.2135
 6086SOL    HW229895   1.019   1.846   5.183 -3.2370 -0.9026  1.6801
 6087SOL     OW29896   3.928   4.201  15.699  0.4218 -0.1729 -0.1889
 6087SOL    HW129897   3.862   4.203  15.630  0.1300 -1.0041  0.0672
 6087SOL    HW229898   4.007   4.205  15.645 -0.0017  1.2605 -0.7045
 6088SOL     OW29899   1.094   1.902  13.526 -1.1425 -0.3424 -0.5828
 6088SOL    HW129900   1.123   1.993  13.526 -0.1177 -0.6680 -0.5216
 6088SOL    HW229901   1.099   1.894  13.430 -2.1503 -2.1781 -0.4848
 6089SOL     OW29902   1.460   1.283   8.440 -0.5649 -0.5598 -0.3209
 6089SOL    HW129903   1.459   1.248   8.351 -2.0773  0.3382 -0.6546
 6089SOL    HW229904   1.552   1.309   8.446 -0.5255 -0.9236  0.5724
 6090SOL     OW29905   2.009   2.931   3.248  0.2634 -0.3502 -0.3979
 6090SOL    HW129906   2.047   2.875   3.181  1.1744 -0.2512  0.0398
 6090SOL    HW229907   1.914   2.936   3.232  0.2312  1.9253  0.4970
 6091SOL     OW29908   1.455   0.949   3.405  0.0635 -0.2366  0.0737
 6091SOL    HW129909   1.484   0.909   3.487 -1.2994 -3.0819 -0.8370
 6091SOL    HW229910   1.527   0.919   3.350  2.2288  0.2679  2.5971
 6092SOL     OW29911   1.211   4.176   9.246  0.3895 -0.6365 -0.1471
 6092SOL    HW129912   1.276   4.246   9.243  0.8784 -1.0921 -0.1593
 6092SOL    HW229913   1.177   4.175   9.157 -0.9389 -2.1033  0.3638
 6093SOL     OW29914   0.026   3.814   2.389 -0.2893 -0.1696  0.6185
 6093SOL    HW129915   0.063   3.868   2.319  2.9853 -3.2317  0.0153
 6093SOL    HW229916   4.694   3.770   2.338  0.7818  0.6344 -1.4895
 6094SOL     OW29917   2.663   4.272   4.923 -0.2391 -0.1003  0.1569
 6094SOL    HW129918   2.681   4.264   5.017  3.1992 -0.3716 -0.5201
 6094SOL    HW229919   2.735   4.222   4.885 -1.1990  0.3379 -2.2015
 6095SOL     OW29920   0.742   2.551   7.361  0.0331  0.4374  0.2324
 6095SOL    HW129921   0.681   2.477   7.356 -0.8584  1.3063 -1.6690
 6095SOL    HW229922   0.705   2.613   7.425 -1.4860 -1.3303  1.0688
 6096SOL     OW29923   0.249   2.294   5.042  0.6946 -0.5344 -0.0786
 6096SOL    HW129924   0.291   2.226   4.989 -0.4540 -0.3167 -1.2806
 6096SOL    HW229925   0.230   2.234   5.114 -1.4602  0.2386 -0.0065
 6097SOL     OW29926   4.672   0.052   5.745  0.0400  0.4641 -0.5735
 6097SOL    HW129927   0.014   0.100   5.775 -1.1206  2.0728 -0.1545
 6097SOL    HW229928   4.600   0.103   5.782 -0.6287 -0.7298 -0.2526
 6098SOL     OW29929   2.813   2.259  15.904  0.0687 -0.2773 -0.2165
 6098SOL    HW129930   2.728   2.255  15.861 -0.0445  2.5515 -0.2881
 6098SOL    HW229931   2.862   2.204  15.844 -1.9485  0.4595 -2.5349
 6099SOL     OW29932   1.469   3.905   7.589 -0.7020  0.2544 -0.2835
 6099SOL    HW129933   1.410   3.969   7.627 -0.1452 -0.5951  1.9901
 6099SOL    HW229934   1.431   3.894   7.502  1.9425 -0.4846 -1.3565
 6100SOL     OW29935   4.258   2.498   4.140  0.2681 -0.0000  0.4611
 6100SOL    HW129936   4.324   2.469   4.078 -0.6138 -0.6321 -0.1840
 6100SOL    HW229937   4.198   2.424   4.131  1.4659 -0.7885 -0.9711
 6101SOL     OW29938   0.504   0.431   3.812  0.0113 -0.0229 -0.5079
 6101SOL    HW129939   0.427   0.436   3.755  0.3000  1.2332 -0.7747
 6101SOL    HW229940   0.506   0.335   3.813 -1.8060 -0.0647 -0.6585
 6102SOL     OW29941   0.067   3.790   4.520 -0.6067 -0.2211  0.4564
 6102SOL    HW129942   0.145   3.811   4.468 -1.6143  0.1708 -0.9078
 6102SOL    HW229943   0.023   3.714   4.480 -0.0486  0.6892 -1.8813
 6103SOL     OW29944   1.504   4.472   4.384  0.6960 -0.3143 -0.0670
 6103SOL    HW129945   1.497   4.436   4.296 -1.1637 -0.0668 -0.0213
 6103SOL    HW229946   1.410   4.469   4.403  0.7876  0.2825  0.4606
 6104SOL     OW29947   3.090   4.408   8.951  0.0486 -0.0506 -0.5501
 6104SOL    HW129948   3.059   4.317   8.958  0.3937  0.1488  3.1131
 6104SOL    HW229949   3.019   4.447   9.001  0.5029 -0.1374  0.1501
 6105SOL     OW29950   4.371   2.137   2.404  0.2062 -0.2655 -0.0594
 6105SOL    HW129951   4.340   2.173   2.487 -0.8147 -2.7869  0.6511
 6105SOL    HW229952   4.296   2.165   2.351 -0.9387  2.8453  3.1448
 6106SOL     OW29953   1.652   1.292   3.202  0.4560  0.4713  0.7358
 6106SOL    HW129954   1.659   1.352   3.127  1.1073 -1.3353 -0.6646
 6106SOL    HW229955   1.673   1.207   3.163  0.5720 -0.0417  1.9416
 6107SOL     OW29956   0.189   0.449   3.175  0.3552  0.3921 -0.1748
 6107SOL    HW129957   0.263   0.390   3.187 -1.5653 -1.9493  0.1338
 6107SOL    HW229958   0.158   0.463   3.265  1.0018  0.3148  0.0584
 6108SOL     OW29959   2.749   2.364  13.966  0.1948  0.0816 -0.3956
 6108SOL    HW129960   2.738   2.409  13.883  0.3608 -0.0090 -0.4670
 6108SOL    HW229961   2.682   2.417  14.010 -0.9591 -1.5967 -0.1207
 6109SOL     OW29962   4.309   2.544   5.601  0.6059 -0.2550  0.0658
 6109SOL    HW129963   4.217   2.568   5.612  1.5935  3.1069  1.0485
 6109SOL    HW229964   4.334   2.567   5.511  1.3981 -2.6641 -0.3346
 6110SOL     OW29965   3.672   3.139   8.876  0.1581 -0.4249 -0.4915
 6110SOL    HW129966   3.594   3.092   8.847 -0.1953  0.1636 -0.4984
 6110SOL    HW229967   3.651   3.155   8.968 -0.8641 -0.9110 -0.6438
 6111SOL     OW29968   2.032   2.401  11.352  0.1469 -0.3389 -0.1040
 6111SOL    HW129969   2.098   2.470  11.340  1.6969 -2.1580 -2.2385
 6111SOL    HW229970   1.999   2.427  11.438  1.1226 -1.4382  0.6016
 6112SOL     OW29971   0.796   4.641   6.797 -0.3751  0.4914 -0.5675
 6112SOL    HW129972   0.770   4.718   6.848  0.3336 -0.5163  1.3364
 6112SOL    HW229973   0.891   4.652   6.790 -0.3363  0.9693  0.6612
 6113SOL     OW29974   0.063   1.409   3.879 -0.4109 -0.2261  0.5958
 6113SOL    HW129975   0.155   1.397   3.855 -0.5904 -1.4574  0.5187
 6113SOL    HW229976   0.053   1.345   3.950  0.7685 -0.9541  0.1013
 6114SOL     OW29977   4.281   1.872   6.040  0.2672 -0.4507  0.2667
 6114SOL    HW129978   4.258   1.858   6.132 -0.7986  0.9023  0.2180
 6114SOL    HW229979   4.255   1.787   6.006  1.8777 -0.7449 -0.1967
 6115SOL     OW29980   3.332   0.741   7.095  0.3737  0.3775 -0.1600
 6115SOL    HW129981   3.372   0.827   7.114 -0.1298  0.4606  0.5175
 6115SOL    HW229982   3.250   0.744   7.144  0.1500 -1.7275 -0.4299
 6116SOL     OW29983   2.332   4.698   6.502  0.4148  0.2192  0.3616
 6116SOL    HW129984   2.308   4.656   6.585  0.0723 -0.3937 -0.0540
 6116SOL    HW229985   2.425   4.720   6.508  0.1205  2.4134 -3.1132
 6117SOL     OW29986   4.314   4.372  11.727  0.4351 -0.3959  0.2769
 6117SOL    HW129987   4.236   4.365  11.673  1.5385  0.5561 -1.4496
 6117SOL    HW229988   4.389   4.358  11.669 -0.0047  0.3663 -0.4705
 6118SOL     OW29989   0.784   0.461   1.849 -0.1185 -0.4118  0.3912
 6118SOL    HW129990   0.765   0.554   1.859  1.2839 -0.0984  0.0878
 6118SOL    HW229991   0.735   0.449   1.768  0.3685 -0.0297  0.0406
 6119SOL     OW29992   3.353   3.609   7.636 -0.2110  0.1603  0.0468
 6119SOL    HW129993   3.356   3.594   7.541 -1.7825 -0.5567  0.1127
 6119SOL    HW229994   3.411   3.683   7.655 -1.6173  1.1004  0.6994
 6120SOL     OW29995   3.523   4.271   9.343  0.4633  0.3780 -0.2573
 6120SOL    HW129996   3.455   4.204   9.351  1.3352 -0.8585 -3.4149
 6120SOL    HW229997   3.504   4.321   9.423  0.5462  0.6016 -0.3766
 6121SOL     OW29998   1.673   4.268   1.613  0.0121 -0.1931  0.5656
 6121SOL    HW129999   1.585   4.301   1.632  0.0540 -0.3211  0.9880
 6121SOL    HW230000   1.721   4.351   1.611  3.0460 -1.9372  0.2863
 6122SOL     OW30001   2.235   0.222   8.414  0.5255 -0.0331 -0.3420
 6122SOL    HW130002   2.305   0.277   8.379  0.1800  1.1982  0.9128
 6122SOL    HW230003   2.168   0.239   8.348  0.2055 -0.7116 -0.1931
 6123SOL     OW30004   3.789   0.438   1.604 -0.0531 -0.3323  0.0338
 6123SOL    HW130005   3.753   0.491   1.675  1.5657  0.4717  0.2519
 6123SOL    HW230006   3.780   0.350   1.641 -3.7399 -0.0941 -0.2326
 6124SOL     OW30007   4.689   3.094  11.775 -0.2922  0.2144  0.0309
 6124SOL    HW130008   4.641   3.036  11.834  0.4384 -0.0262  0.3777
 6124SOL    HW230009   4.716   3.166  11.833 -1.6341  0.8022 -0.0654
 6125SOL     OW30010   0.967   3.582   1.768  0.1207  0.2238  0.9273
 6125SOL    HW130011   0.939   3.577   1.859  1.8667  1.6113  1.5466
 6125SOL    HW230012   1.061   3.597   1.784  1.0364 -1.1844 -3.2407
 6126SOL     OW30013   2.553   0.064   2.025  0.5546 -0.0616  0.3099
 6126SOL    HW130014   2.547   0.079   2.119  1.5570  0.2077  0.3263
 6126SOL    HW230015   2.628   0.120   2.005  0.8975 -0.2961  0.9546
 6127SOL     OW30016   3.654   2.448   5.014  0.8358 -0.5250  0.3713
 6127SOL    HW130017   3.584   2.394   4.976 -0.2467 -0.0070  1.5845
 6127SOL    HW230018   3.622   2.459   5.104 -0.5774 -0.6727 -0.1045
 6128SOL     OW30019   1.895   2.225   4.315 -0.1985 -0.0544 -0.6402
 6128SOL    HW130020   1.860   2.136   4.309 -3.9156  1.1289  2.7880
 6128SOL    HW230021   1.869   2.253   4.228  0.5597 -0.8820 -1.1323
 6129SOL     OW30022   2.911   0.109   2.044  0.2136 -0.0194  0.6639
 6129SOL    HW130023   2.907   0.068   2.130 -0.4484 -3.7128 -1.1152
 6129SOL    HW230024   2.972   0.052   1.998 -0.5515  0.1908 -0.6307
 6130SOL     OW30025   0.021   3.866  16.725  0.7858 -0.4719  0.4034
 6130SOL    HW130026   0.008   3.922  16.802 -2.3601 -1.5625  0.6711
 6130SOL    HW230027   4.666   3.871  16.695  1.4448  0.5501 -1.3815
 6131SOL     OW30028   3.974   0.903   4.065  0.1899  0.7452 -0.6891
 6131SOL    HW130029   3.879   0.899   4.073  0.2334 -4.4023 -2.9831
 6131SOL    HW230030   3.980   0.991   4.103  0.5764  0.3802  0.0799
 6132SOL     OW30031   0.528   1.399  15.870  0.2168 -0.1528 -0.5159
 6132SOL    HW130032   0.476   1.476  15.848  0.4780  0.1200 -0.1826
 6132SOL    HW230033   0.483   1.374  15.951 -1.1455  1.8527 -0.6546
 6133SOL     OW30034   3.265   4.273   4.473 -0.0248  0.0805 -0.5144
 6133SOL    HW130035   3.349   4.256   4.430  1.2360  1.4464  1.3740
 6133SOL    HW230036   3.292   4.263   4.565  1.9294  1.4551 -0.9202
 6134SOL     OW30037   4.250   2.888   6.811  0.0675 -0.4763 -0.3584
 6134SOL    HW130038   4.285   2.909   6.898  0.9334 -0.5598 -0.6798
 6134SOL    HW230039   4.172   2.839   6.835 -1.8065  2.5218 -0.3217
 6135SOL     OW30040   1.142   0.652   2.218 -0.4271 -0.7885 -0.4679
 6135SOL    HW130041   1.148   0.557   2.219 -2.2978 -0.9091 -1.0804
 6135SOL    HW230042   1.049   0.662   2.197 -1.2918  0.7502  4.0048
 6136SOL     OW30043   4.125   1.617   7.425  0.1212 -0.4063 -0.3459
 6136SOL    HW130044   4.189   1.597   7.493 -1.2816  0.2839  1.1687
 6136SOL    HW230045   4.123   1.713   7.421 -0.0083 -0.4425 -1.0683
 6137SOL     OW30046   3.581   3.670   3.221 -0.0599 -0.4492 -0.0125
 6137SOL    HW130047   3.518   3.657   3.292  1.5391 -0.6083  1.3631
 6137SOL    HW230048   3.662   3.690   3.268 -1.6311 -0.4546  2.6865
 6138SOL     OW30049   4.183   0.803   3.930  0.5079  0.3889  0.6947
 6138SOL    HW130050   4.220   0.836   4.011  1.0087  1.0437  0.2034
 6138SOL    HW230051   4.106   0.860   3.937 -0.1068 -0.1256 -1.8630
 6139SOL     OW30052   4.531   1.638   1.858  0.4572  0.0938 -0.4710
 6139SOL    HW130053   4.524   1.661   1.951  1.8669  2.7070 -0.9965
 6139SOL    HW230054   4.574   1.554   1.873  1.0885  0.6902  1.1098
 6140SOL     OW30055   2.033   0.825   7.640 -0.4372 -0.4947 -0.0487
 6140SOL    HW130056   2.069   0.893   7.696  0.3178 -1.4610  0.6367
 6140SOL    HW230057   2.092   0.838   7.566  0.8316 -0.2987  1.0042
 6141SOL     OW30058   0.421   4.392   7.876  0.1416  0.0276 -0.2690
 6141SOL    HW130059   0.389   4.420   7.962 -1.9980  0.1052 -1.0930
 6141SOL    HW230060   0.332   4.369   7.849 -0.3772  1.7066  0.0031
 6142SOL     OW30061   2.545   3.412   2.613 -0.3852 -0.2214  0.5355
 6142SOL    HW130062   2.586   3.413   2.527  3.1853  1.0054  2.2639
 6142SOL    HW230063   2.626   3.387   2.657  0.1541 -0.1392 -0.4099
 6143SOL     OW30064   0.900   3.068   5.656 -0.7086  0.0712  0.2070
 6143SOL    HW130065   0.949   3.135   5.609  0.9464 -1.7392 -0.6188
 6143SOL    HW230066   0.832   3.129   5.685 -0.8432 -0.0843  0.2165
 6144SOL     OW30067   1.504   0.361  14.069 -0.1812  0.3926 -0.0823
 6144SOL    HW130068   1.503   0.275  14.111  0.6745 -0.4500 -1.7817
 6144SOL    HW230069   1.411   0.382  14.072 -0.1804  0.4230 -0.3023
 6145SOL     OW30070   1.378   4.045  13.077  0.0190 -0.3769  0.5346
 6145SOL    HW130071   1.331   4.032  12.994 -2.1900  0.0341  1.7243
 6145SOL    HW230072   1.432   3.966  13.083 -1.0408 -1.0837  0.8153
 6146SOL     OW30073   3.341   3.668  10.208 -1.1345 -0.0985  0.1278
 6146SOL    HW130074   3.333   3.762  10.228  0.3239  0.1543 -0.4761
 6146SOL    HW230075   3.355   3.647  10.300 -1.4989  1.2702  0.5038
 6147SOL     OW30076   2.080   1.114   1.055 -0.0947  0.5293 -0.0166
 6147SOL    HW130077   2.144   1.095   1.123 -0.7099 -2.1132 -0.1713
 6147SOL    HW230078   2.000   1.086   1.099 -1.4455  1.2737 -1.9708
 6148SOL     OW30079   3.386   3.890   7.137 -0.1446 -0.1953 -0.0195
 6148SOL    HW130080   3.310   3.948   7.135  0.6312  0.8445  1.1202
 6148SOL    HW230081   3.437   3.924   7.064  0.9278 -3.5176 -0.8102
 6149SOL     OW30082   0.659   2.595   8.635 -0.1658 -0.5678  0.1262
 6149SOL    HW130083   0.664   2.511   8.589  1.3302 -0.5616  0.2701
 6149SOL    HW230084   0.684   2.659   8.570 -0.1514 -0.0813  0.6109
 6150SOL     OW30085   4.117   1.197   4.829 -0.5634 -0.7752  0.3403
 6150SOL    HW130086   4.154   1.116   4.865  0.7765 -0.7400 -0.9741
 6150SOL    HW230087   4.061   1.227   4.901 -0.4256 -1.8022  0.8773
 6151SOL     OW30088   1.389   4.260  12.874  0.1871 -0.2925 -0.0760
 6151SOL    HW130089   1.404   4.315  12.797  2.0559 -1.0651 -0.2852
 6151SOL    HW230090   1.452   4.189  12.867  2.0844  1.6622 -2.9792
 6152SOL     OW30091   2.209   2.244   5.271  0.4656 -0.5403  0.3774
 6152SOL    HW130092   2.142   2.289   5.219 -1.0228 -1.7639  1.2468
 6152SOL    HW230093   2.157   2.220   5.347  3.0600 -1.8324  1.7527
 6153SOL     OW30094   2.448   3.161   3.053  0.0099  0.0604  0.0433
 6153SOL    HW130095   2.443   3.124   3.141  1.1753 -2.4741 -0.9740
 6153SOL    HW230096   2.354   3.166   3.033  0.3209 -2.2992 -1.9509
 6154SOL     OW30097   3.183   0.252  10.228  0.0513 -0.0401  0.1712
 6154SOL    HW130098   3.248   0.301  10.279  0.1395 -0.4516  0.4549
 6154SOL    HW230099   3.113   0.315  10.218  0.1264 -0.1009 -0.7351
 6155SOL     OW30100   3.197   4.419  15.389  0.0954  0.1063  0.0813
 6155SOL    HW130101   3.111   4.408  15.348 -0.6040 -0.5063  1.6981
 6155SOL    HW230102   3.253   4.352  15.349 -3.2518 -1.3447 -2.2092
 6156SOL     OW30103   3.856   0.161   8.233 -0.0581  0.0132 -0.0126
 6156SOL    HW130104   3.894   0.248   8.243 -3.4563  1.4402  0.4685
 6156SOL    HW230105   3.908   0.114   8.298  1.2223 -0.6455 -1.4932
 6157SOL     OW30106   1.846   4.299   6.404  0.1778  0.3709 -0.0684
 6157SOL    HW130107   1.786   4.271   6.335 -0.2624 -1.1480  0.9389
 6157SOL    HW230108   1.826   4.391   6.422  1.4753  0.2946  1.7768
 6158SOL     OW30109   1.724   1.904   2.978  0.1537 -0.3588 -0.4869
 6158SOL    HW130110   1.785   1.887   2.905  1.5160  0.0963  0.5456
 6158SOL    HW230111   1.711   1.813   3.005 -0.8107 -0.2614 -0.6306
 6159SOL     OW30112   2.859   0.363   1.012 -0.3459  0.4603  0.9439
 6159SOL    HW130113   2.870   0.270   0.992 -0.6003  0.8109 -0.9020
 6159SOL    HW230114   2.796   0.363   1.084 -0.1266  0.4704  1.1334
 6160SOL     OW30115   0.893   0.702   0.459  0.0018  0.0808  0.6125
 6160SOL    HW130116   0.869   0.646   0.532 -0.7109  1.1007  1.1522
 6160SOL    HW230117   0.981   0.726   0.487  1.7790 -1.1725 -3.8176
 6161SOL     OW30118   4.526   2.960   9.771 -0.1824  0.0771  0.2118
 6161SOL    HW130119   4.483   3.001   9.846  0.4899  1.3430 -0.0870
 6161SOL    HW230120   4.481   2.989   9.692 -0.7552 -1.8346 -0.1555
 6162SOL     OW30121   4.359   2.691   0.107 -0.0336  0.2984  0.2168
 6162SOL    HW130122   4.409   2.653   0.035 -1.9887 -1.7776 -0.0765
 6162SOL    HW230123   4.366   2.786   0.100 -1.4478  0.2221 -2.1971
 6163SOL     OW30124   3.058   4.702   4.605 -0.6202  0.4091  0.2097
 6163SOL    HW130125   3.039   4.679   4.696  0.3144  0.4421  0.4176
 6163SOL    HW230126   3.064   4.614   4.568  2.9241  0.5145  0.4774
 6164SOL     OW30127   0.580   1.837   2.245 -0.2604  0.1332  0.3057
 6164SOL    HW130128   0.639   1.910   2.265  1.2915 -1.1113  0.2722
 6164SOL    HW230129   0.601   1.811   2.155  0.1560  2.0874 -0.1542
 6165SOL     OW30130   3.559   2.956  15.432  0.3246  0.0686  0.3395
 6165SOL    HW130131   3.557   2.893  15.505  2.2242  0.3616  0.6473
 6165SOL    HW230132   3.643   3.000  15.438  0.0785  0.9176 -2.4323
 6166SOL     OW30133   2.152   3.600  11.567 -0.5599 -0.0212  0.3191
 6166SOL    HW130134   2.239   3.630  11.542  0.2119 -0.6562  2.1702
 6166SOL    HW230135   2.100   3.629  11.493  0.0696  0.2116 -0.0386
 6167SOL     OW30136   1.521   4.459   3.379 -0.0066  0.5936 -0.4519
 6167SOL    HW130137   1.550   4.462   3.287 -1.3363 -3.3637 -1.0145
 6167SOL    HW230138   1.426   4.460   3.369 -0.0141  0.7075 -0.3646
 6168SOL     OW30139   4.397   1.457   6.663  0.0544 -0.3269  0.4494
 6168SOL    HW130140   4.352   1.397   6.724 -1.3272 -1.0181 -1.2543
 6168SOL    HW230141   4.329   1.524   6.661  0.1354 -0.1883  2.0999
 6169SOL     OW30142   0.467   1.333   5.079  0.6688 -0.0877  0.1765
 6169SOL    HW130143   0.510   1.329   4.994  0.7037 -0.9564  0.2372
 6169SOL    HW230144   0.522   1.395   5.127 -2.2207  2.3972  0.2945
 6170SOL     OW30145   4.265   4.046   8.419 -0.2037 -0.2296  0.6657
 6170SOL    HW130146   4.259   4.141   8.414  4.5018 -0.1653 -2.9137
 6170SOL    HW230147   4.354   4.032   8.389 -1.4083 -1.8933 -2.0765
 6171SOL     OW30148   4.266   4.213   7.316 -0.6314  0.1680  0.7444
 6171SOL    HW130149   4.309   4.128   7.312 -1.0847  0.0793 -1.8640
 6171SOL    HW230150   4.204   4.207   7.243  1.2126  1.2298 -0.8955
 6172SOL     OW30151   3.322   1.611   5.660  0.4741  0.2480 -0.3881
 6172SOL    HW130152   3.396   1.588   5.717  1.9869  2.9041 -1.2655
 6172SOL    HW230153   3.331   1.706   5.660  2.4989  0.0575 -0.7001
 6173SOL     OW30154   2.935   3.115   3.486 -0.3950 -0.4020 -0.2000
 6173SOL    HW130155   2.948   3.193   3.540 -0.1018  0.5347 -1.6254
 6173SOL    HW230156   2.845   3.093   3.510 -1.1437 -0.0839 -2.7161
 6174SOL     OW30157   2.249   2.836   0.862  0.1140  0.3038  0.7395
 6174SOL    HW130158   2.182   2.887   0.817  1.8570  2.0965  0.2053
 6174SOL    HW230159   2.261   2.900   0.932  1.2000 -0.9326  1.6785
 6175SOL     OW30160   0.833   0.993   4.575  0.2223 -0.5503  0.1810
 6175SOL    HW130161   0.860   0.939   4.501 -0.9203 -0.7532 -0.0943
 6175SOL    HW230162   0.906   1.054   4.576  0.2770 -0.5978 -1.2393
 6176SOL     OW30163   0.699   3.478   6.955  0.2096  0.5945 -0.1320
 6176SOL    HW130164   0.692   3.419   7.030 -0.9927 -0.0209 -0.7228
 6176SOL    HW230165   0.624   3.453   6.900  0.7810 -1.1582 -0.1094
 6177SOL     OW30166   1.479   4.150   3.316 -0.4943  0.3157  0.5591
 6177SOL    HW130167   1.520   4.124   3.398  0.5242  0.6203  0.1553
 6177SOL    HW230168   1.393   4.171   3.351 -1.7675 -1.4234 -1.5356
 6178SOL     OW30169   2.992   0.735   0.882 -0.3143  0.1310 -0.4078
 6178SOL    HW130170   2.945   0.668   0.831 -1.7688 -0.8651  2.2379
 6178SOL    HW230171   2.937   0.733   0.960 -0.2023  3.2792 -0.2663
 6179SOL     OW30172   1.101   3.548  15.611 -0.1348 -0.5869 -0.0238
 6179SOL    HW130173   1.097   3.631  15.562  2.0064 -0.1811  0.4805
 6179SOL    HW230174   1.161   3.498  15.555  0.0999  0.3960 -0.6497
 6180SOL     OW30175   0.945   1.594   1.534 -0.0524 -1.2224 -0.1146
 6180SOL    HW130176   1.024   1.638   1.502 -0.5621 -1.0479 -1.1519
 6180SOL    HW230177   0.945   1.635   1.620 -2.9050 -2.6584  0.5468
 6181SOL     OW30178   3.633   2.306   8.431  0.2415  0.6743  0.0381
 6181SOL    HW130179   3.570   2.264   8.371 -0.5198  1.9850 -0.0753
 6181SOL    HW230180   3.709   2.263   8.391  0.7051  0.4709  1.1598
 6182SOL     OW30181   1.799   4.231   8.066 -0.2147 -0.2293  0.2132
 6182SOL    HW130182   1.845   4.238   8.150 -1.1295 -1.5872  0.8113
 6182SOL    HW230183   1.872   4.223   8.003 -0.3040 -0.4511  0.1361
 6183SOL     OW30184   3.338   3.293  15.116  0.9565 -0.4525 -0.0234
 6183SOL    HW130185   3.379   3.263  15.035  0.0130  2.0192 -1.4211
 6183SOL    HW230186   3.373   3.382  15.127  0.4882 -0.5539  2.4280
 6184SOL     OW30187   4.098   3.808   4.117 -0.2909  0.7103 -0.8699
 6184SOL    HW130188   4.186   3.845   4.118 -0.2437  0.5263  1.3113
 6184SOL    HW230189   4.085   3.782   4.026 -0.8712  1.1099 -0.8981
 6185SOL     OW30190   1.636   4.228  16.355  0.2865  0.4442  0.0588
 6185SOL    HW130191   1.712   4.172  16.342 -0.1018 -0.6004  2.2715
 6185SOL    HW230192   1.658   4.317  16.328  0.7964  0.1710 -0.4203
 6186SOL     OW30193   0.575   4.190   3.144 -0.4663 -0.0649 -0.1647
 6186SOL    HW130194   0.505   4.126   3.159  0.2774 -0.7851  0.2455
 6186SOL    HW230195   0.537   4.265   3.189 -1.0309  0.6037 -1.7604
 6187SOL     OW30196   2.133   2.558  16.191  0.4211  0.4574 -0.8365
 6187SOL    HW130197   2.099   2.550  16.280  0.4258  1.8183 -0.7068
 6187SOL    HW230198   2.062   2.603  16.146 -1.5347  1.1081  2.8738
 6188SOL     OW30199   2.100   2.297   9.330  0.0218  0.4328  0.1548
 6188SOL    HW130200   2.119   2.378   9.282  0.9191  1.6142  2.5039
 6188SOL    HW230201   2.189   2.260   9.333 -1.0186 -1.9866  0.9181
 6189SOL     OW30202   4.386   0.396   4.108  0.2815 -0.4345 -0.7137
 6189SOL    HW130203   4.344   0.409   4.193  3.3378 -0.7650  0.8500
 6189SOL    HW230204   4.476   0.375   4.133 -0.3783 -0.0674  1.9975
 6190SOL     OW30205   4.735   2.575  11.684  0.8183  0.2784 -0.4851
 6190SOL    HW130206   4.690   2.530  11.756  1.0440 -3.4616 -2.6890
 6190SOL    HW230207   4.674   2.567  11.611 -0.0369  1.9495  0.0511
 6191SOL     OW30208   2.493   3.655   8.329  0.3182 -0.5417 -0.3464
 6191SOL    HW130209   2.540   3.716   8.386 -3.6837  2.4166 -0.1899
 6191SOL    HW230210   2.505   3.571   8.374  0.4000  0.4356  1.4521
 6192SOL     OW30211   0.541   3.601   1.604 -0.0661 -0.6346 -0.2090
 6192SOL    HW130212   0.602   3.573   1.536 -0.3583 -2.3431  0.2383
 6192SOL    HW230213   0.488   3.656   1.546  0.1435  1.5485  1.6680
 6193SOL     OW30214   4.508   3.898  10.445  0.1905 -0.5281 -0.4282
 6193SOL    HW130215   4.427   3.890  10.394 -1.3225  0.0215  1.8585
 6193SOL    HW230216   4.521   3.810  10.481  0.2530 -0.1492  0.4579
 6194SOL     OW30217   0.431   1.822   9.189 -0.0118  0.4862 -0.7244
 6194SOL    HW130218   0.386   1.886   9.245  2.8481  1.4836  0.4347
 6194SOL    HW230219   0.462   1.758   9.253 -0.9945  0.0116 -0.7285
 6195SOL     OW30220   3.954   0.735   4.774  0.7246 -0.0509 -0.7482
 6195SOL    HW130221   3.859   0.739   4.783  0.7072  1.6964 -1.6395
 6195SOL    HW230222   3.960   0.738   4.679 -2.3060  0.8434 -0.9125
 6196SOL     OW30223   2.506   4.196   0.625 -0.3436  0.4781  0.2858
 6196SOL    HW130224   2.583   4.163   0.579 -0.1356 -1.5175  2.0337
 6196SOL    HW230225   2.478   4.110   0.657 -0.7453  0.2793 -0.6075
 6197SOL     OW30226   1.477   0.604   8.134  0.2074 -0.1837  0.3248
 6197SOL    HW130227   1.441   0.645   8.213 -0.6963  0.1441 -0.2573
 6197SOL    HW230228   1.453   0.664   8.062  1.5546  0.6156  0.5326
 6198SOL     OW30229   0.340   0.827   4.893 -0.1015  0.7877  0.1076
 6198SOL    HW130230   0.338   0.806   4.800  1.5966 -1.3660  0.5687
 6198SOL    HW230231   0.257   0.782   4.909 -0.6915  1.3794 -1.2736
 6199SOL     OW30232   1.290   4.011   8.914 -0.1289 -0.9741  0.2711
 6199SOL    HW130233   1.203   3.989   8.880 -0.0917 -1.3606  0.4188
 6199SOL    HW230234   1.322   4.082   8.858 -0.4515 -0.9021  0.1776
 6200SOL     OW30235   3.244   1.719  13.553 -0.2780  1.0271  0.0506
 6200SOL    HW130236   3.292   1.742  13.474 -1.7699  0.7386 -0.9339
 6200SOL    HW230237   3.300   1.770  13.611  0.9447  0.3450 -0.5385
 6201SOL     OW30238   0.401   0.489   2.293  0.1759 -0.2192  0.3341
 6201SOL    HW130239   0.427   0.579   2.274 -0.0391 -0.6343 -1.9551
 6201SOL    HW230240   0.463   0.447   2.232 -1.3255  1.0126 -2.0424
 6202SOL     OW30241   2.728   1.873   5.306  0.1850  0.1959 -0.1981
 6202SOL    HW130242   2.791   1.872   5.234  0.8426  0.5479  0.3708
 6202SOL    HW230243   2.746   1.787   5.343 -3.3508 -0.6335 -0.3439
 6203SOL     OW30244   1.352   3.522  10.370 -0.1569 -0.1587 -0.2885
 6203SOL    HW130245   1.263   3.517  10.337 -0.0481 -1.1238 -0.4222
 6203SOL    HW230246   1.329   3.540  10.462 -0.1214  0.3717 -0.3832
 6204SOL     OW30247   3.451   4.387   7.723  0.9089 -0.0329  0.4738
 6204SOL    HW130248   3.369   4.423   7.756 -0.0665 -0.6131 -1.3318
 6204SOL    HW230249   3.423   4.356   7.637 -0.0074 -0.4682  0.9258
 6205SOL     OW30250   4.462   2.458   5.813 -0.3352 -0.2726 -0.0286
 6205SOL    HW130251   4.428   2.442   5.901  2.3816 -3.1581  0.4884
 6205SOL    HW230252   4.381   2.444   5.764 -1.2841  0.4363  1.3345
 6206SOL     OW30253   2.201   3.715  16.578 -0.1912  0.2818 -0.3772
 6206SOL    HW130254   2.289   3.752  16.580 -0.5378  1.0381  2.2991
 6206SOL    HW230255   2.218   3.631  16.536 -0.5575  0.1551 -0.2750
 6207SOL     OW30256   0.520   1.099   8.536  0.3424 -0.2914  0.1242
 6207SOL    HW130257   0.571   1.172   8.501 -1.4897  1.3141  0.7554
 6207SOL    HW230258   0.434   1.111   8.496  0.1563 -0.0320  0.5982
 6208SOL     OW30259   2.396   4.033   7.801 -0.2210  0.0704 -0.1139
 6208SOL    HW130260   2.336   4.008   7.871  0.0380  0.3463  0.2073
 6208SOL    HW230261   2.359   3.993   7.722  0.2459  3.1355 -1.9109
 6209SOL     OW30262   4.441   2.256  13.388 -0.0082 -0.1549  0.6887
 6209SOL    HW130263   4.536   2.254  13.398  0.3063  0.2833 -2.2174
 6209SOL    HW230264   4.421   2.307  13.467 -1.2019  2.9283 -1.6081
 6210SOL     OW30265   1.530   1.853   6.592 -0.4097 -0.2166  0.3819
 6210SOL    HW130266   1.602   1.913   6.571 -0.8685 -0.0023 -0.5915
 6210SOL    HW230267   1.579   1.789   6.644 -0.4736  0.6684  1.5291
 6211SOL     OW30268   0.895   3.788   6.004 -0.1632  0.5168  0.2060
 6211SOL    HW130269   0.966   3.836   6.047 -1.2159 -0.5916  3.1711
 6211SOL    HW230270   0.836   3.772   6.078  1.8931 -0.3939  1.6774
 6212SOL     OW30271   2.355   1.718   1.830 -0.3413 -0.1203 -0.5000
 6212SOL    HW130272   2.394   1.782   1.890 -1.0049  1.8887 -2.1831
 6212SOL    HW230273   2.420   1.649   1.822 -0.1216  0.2487 -1.9388
 6213SOL     OW30274   2.925   0.905   6.741 -0.5509 -0.4723 -0.2441
 6213SOL    HW130275   2.978   0.886   6.819  1.6732  0.5881 -1.4916
 6213SOL    HW230276   2.858   0.837   6.732 -0.9310  0.1224 -1.8420
 6214SOL     OW30277   0.204   2.785   7.668 -0.3515  0.2687  0.5556
 6214SOL    HW130278   0.152   2.741   7.735 -0.7242 -0.6189 -0.3142
 6214SOL    HW230279   0.283   2.732   7.672  0.7218  1.6593 -2.1633
 6215SOL     OW30280   3.662   0.446   8.473  0.5969  0.5063  0.2457
 6215SOL    HW130281   3.653   0.500   8.552  0.3558  0.7376  0.0580
 6215SOL    HW230282   3.589   0.383   8.478  1.5736 -0.9025 -3.3299
 6216SOL     OW30283   0.182   2.184   6.957 -0.8287 -0.1690 -0.4549
 6216SOL    HW130284   0.151   2.227   6.877 -2.6602 -1.4613 -0.4370
 6216SOL    HW230285   0.166   2.259   7.015 -1.5021 -3.9230  4.2047
 6217SOL     OW30286   4.212   4.626   6.465  0.1568 -0.5471 -0.2824
 6217SOL    HW130287   4.262   4.705   6.485  0.2705 -1.1075  1.6825
 6217SOL    HW230288   4.256   4.592   6.388  1.1153  0.1564 -0.0435
 6218SOL     OW30289   1.094   1.097   8.428  0.0118 -0.4706 -0.0765
 6218SOL    HW130290   1.167   1.117   8.488 -2.7118  1.0799  2.7163
 6218SOL    HW230291   1.029   1.053   8.483 -1.8177  1.4471 -0.7208
 6219SOL     OW30292   0.862   2.208   0.867 -0.2604 -0.3421 -0.5514
 6219SOL    HW130293   0.835   2.232   0.778 -0.6800 -1.9929 -0.8648
 6219SOL    HW230294   0.777   2.171   0.889 -1.3478  1.5358 -1.5077
 6220SOL     OW30295   3.535   1.320   6.217  0.1235  0.2870  0.7211
 6220SOL    HW130296   3.563   1.392   6.274  2.2242 -0.4669  0.6285
 6220SOL    HW230297   3.613   1.295   6.169 -2.4298 -2.0583 -2.1740
 6221SOL     OW30298   2.858   1.813  11.769 -0.4865 -0.5215  0.0660
 6221SOL    HW130299   2.815   1.790  11.687 -0.2328 -0.8710  0.0326
 6221SOL    HW230300   2.942   1.769  11.767 -0.6181 -0.8549  1.9218
 6222SOL     OW30301   3.840   4.459   8.366 -0.1606 -0.4033  0.4973
 6222SOL    HW130302   3.884   4.543   8.378  0.8332 -0.7931 -0.4571
 6222SOL    HW230303   3.754   4.493   8.340  1.0367  1.3095 -1.2510
 6223SOL     OW30304   0.464   0.886   3.548  0.1279  0.0706 -0.0577
 6223SOL    HW130305   0.532   0.858   3.611  0.9429 -0.3481 -1.1223
 6223SOL    HW230306   0.388   0.833   3.571  0.0976 -0.2225 -0.8315
 6224SOL     OW30307   3.135   1.131   9.894 -0.0886 -0.4523  0.4907
 6224SOL    HW130308   3.196   1.194   9.856 -0.3039  0.3465  1.4849
 6224SOL    HW230309   3.135   1.062   9.827 -0.0192 -1.3361  1.4069
 6225SOL     OW30310   2.114   0.066  14.435 -0.0288  0.3500  0.0676
 6225SOL    HW130311   2.180   0.020  14.382 -0.5170  1.0763 -1.1771
 6225SOL    HW230312   2.042   0.064  14.372 -0.9889 -0.7764  1.2091
 6226SOL     OW30313   3.258   2.280  11.764 -0.0835 -0.2911  0.0375
 6226SOL    HW130314   3.180   2.293  11.818 -0.4671  2.6622 -1.2569
 6226SOL    HW230315   3.229   2.227  11.689 -0.2870  0.2838 -0.2918
 6227SOL     OW30316   4.051   2.566  13.748  0.2129  0.3140  0.6822
 6227SOL    HW130317   4.117   2.631  13.725  1.0949 -0.5462  0.7627
 6227SOL    HW230318   3.998   2.619  13.807 -2.6031 -0.8724 -0.7723
 6228SOL     OW30319   2.271   0.761   6.372 -0.2288  0.4572 -0.0920
 6228SOL    HW130320   2.304   0.671   6.371  1.4545  1.0537  0.8666
 6228SOL    HW230321   2.294   0.777   6.463  2.2154  0.6522 -0.7360
 6229SOL     OW30322   1.911   1.356   5.956  0.4759 -0.1317 -0.2529
 6229SOL    HW130323   1.842   1.315   6.007  1.3819  0.6152  1.5827
 6229SOL    HW230324   1.930   1.293   5.887 -0.8033 -0.9257  0.1356
 6230SOL     OW30325   3.468   3.796  16.137 -0.3530 -0.1253  0.0477
 6230SOL    HW130326   3.543   3.850  16.116 -0.5078  1.0242  2.4967
 6230SOL    HW230327   3.407   3.826  16.070 -0.7033 -2.2205 -0.5702
 6231SOL     OW30328   2.043   2.597  16.953 -0.2697  0.3560  1.2031
 6231SOL    HW130329   1.950   2.602  16.973 -0.9467 -1.4031 -1.4716
 6231SOL    HW230330   2.055   2.676  16.900  0.3477 -0.3397  0.3005
 6232SOL     OW30331   0.203   2.031   7.541 -0.2571 -0.0794 -0.2173
 6232SOL    HW130332   0.204   1.998   7.631  3.2388 -1.8159 -0.8926
 6232SOL    HW230333   0.280   2.089   7.540 -1.3169  1.3271 -0.4753
 6233SOL     OW30334   2.734   2.355   7.653  0.4961 -0.3456  0.3087
 6233SOL    HW130335   2.762   2.351   7.561 -1.5763 -3.1943 -0.2013
 6233SOL    HW230336   2.739   2.450   7.664 -2.2137 -0.4252  2.0501
 6234SOL     OW30337   1.406   0.217   7.469  0.1192 -0.2821 -0.0037
 6234SOL    HW130338   1.441   0.150   7.528 -0.2443 -1.3028 -0.9332
 6234SOL    HW230339   1.364   0.158   7.406  0.4082 -0.9204  0.4101
 6235SOL     OW30340   4.414   3.902  14.465 -0.1535  0.2399  0.2934
 6235SOL    HW130341   4.432   3.874  14.375 -2.2012 -1.8072  0.5125
 6235SOL    HW230342   4.392   3.816  14.500 -0.7758 -1.1937 -3.6639
 6236SOL     OW30343   2.104   1.835   7.719  0.4310 -0.0446 -0.5124
 6236SOL    HW130344   2.169   1.844   7.649 -0.9710 -2.1174 -2.0876
 6236SOL    HW230345   2.053   1.915   7.704 -0.4870 -1.3706 -4.5489
 6237SOL     OW30346   0.369   3.603   6.366  0.2909  0.0578  0.6281
 6237SOL    HW130347   0.315   3.676   6.396  0.2312  0.6787 -0.9922
 6237SOL    HW230348   0.338   3.530   6.419 -0.4518 -0.8356 -1.0270
 6238SOL     OW30349   2.159   2.523  17.492  0.4041  0.0320  0.0641
 6238SOL    HW130350   2.110   2.468  17.553 -0.5252 -0.8877 -1.4923
 6238SOL    HW230351   2.190   2.458  17.428  1.1008  0.7285 -0.2973
 6239SOL     OW30352   1.325   0.928   8.300 -0.2666 -0.1463  0.1073
 6239SOL    HW130353   1.279   0.853   8.337 -0.7805  1.0736  1.9410
 6239SOL    HW230354   1.257   0.994   8.286  0.4760  0.7469  0.7311
 6240SOL     OW30355   1.499   3.458   5.279  0.3748 -0.3690 -0.2385
 6240SOL    HW130356   1.513   3.475   5.186  1.7911  0.5229  0.1418
 6240SOL    HW230357   1.426   3.517   5.298  0.3028 -0.2152 -0.9750
 6241SOL     OW30358   3.390   0.091  15.594 -0.4278  0.1652  0.1651
 6241SOL    HW130359   3.368   4.733  15.596 -3.3792  0.8721  0.8028
 6241SOL    HW230360   3.450   0.091  15.520 -0.9439 -0.6083 -0.2569
 6242SOL     OW30361   1.859   1.018  10.684 -0.0173  0.2258 -0.3972
 6242SOL    HW130362   1.840   0.981  10.770  0.4652 -0.8980 -0.7776
 6242SOL    HW230363   1.952   1.038  10.699 -0.6177  2.4764  0.3082
 6243SOL     OW30364   2.551   4.169   8.715 -0.0956  0.1337  0.6137
 6243SOL    HW130365   2.564   4.144   8.806 -1.2390 -1.0107  0.4647
 6243SOL    HW230366   2.644   4.167   8.692 -0.7607 -0.0718 -2.0458
 6244SOL     OW30367   3.034   4.056   0.130  0.2147  0.0354  0.3836
 6244SOL    HW130368   3.027   4.038   0.224  2.5233  0.5490  0.6598
 6244SOL    HW230369   2.953   4.098   0.103  0.5698  0.1075 -0.5838
 6245SOL     OW30370   2.193   4.637   8.418 -0.0932 -0.1595  0.3559
 6245SOL    HW130371   2.240   4.635   8.502  0.0650  2.8440  0.3474
 6245SOL    HW230372   2.202   4.728   8.389 -3.3553 -0.1321 -0.4801
 6246SOL     OW30373   1.739   4.608  14.863  0.1255 -0.0776 -0.0524
 6246SOL    HW130374   1.778   4.691  14.891  0.6830  0.0418 -1.1762
 6246SOL    HW230375   1.802   4.577  14.797  2.4179  2.9325  0.6847
 6247SOL     OW30376   0.868   2.709   1.741  0.1134 -0.3589 -0.4743
 6247SOL    HW130377   0.911   2.650   1.804  1.4172  0.3581 -0.6871
 6247SOL    HW230378   0.794   2.655   1.714  0.3500 -0.0941 -1.6411
 6248SOL     OW30379   0.854   2.425   8.245  0.1313 -0.4451 -0.0185
 6248SOL    HW130380   0.852   2.377   8.162  0.5300 -1.0197  0.3015
 6248SOL    HW230381   0.797   2.498   8.221  0.0676 -1.5737 -3.3255
 6249SOL     OW30382   3.470   1.959   2.968  0.3347 -0.1993 -0.3864
 6249SOL    HW130383   3.534   1.901   2.926 -0.0188 -0.5235 -0.4806
 6249SOL    HW230384   3.474   2.027   2.901 -1.5162  1.2667  0.9926
 6250SOL     OW30385   4.427   1.283  16.654  0.3114  0.7078 -0.1449
 6250SOL    HW130386   4.403   1.191  16.670  0.4440  0.8113  0.6838
 6250SOL    HW230387   4.458   1.285  16.564 -1.3674  0.5281 -0.7231
 6251SOL     OW30388   2.744   4.648   0.441  0.1339  0.4244  0.0230
 6251SOL    HW130389   2.690   4.570   0.449 -0.6898  1.1592  1.7826
 6251SOL    HW230390   2.790   4.643   0.525  0.1025  1.5882  0.1169
 6252SOL     OW30391   3.668   4.492   6.043 -0.3282  0.4690 -0.3340
 6252SOL    HW130392   3.763   4.489   6.035 -0.4548  2.7614 -2.7158
 6252SOL    HW230393   3.646   4.546   5.967 -0.2851 -0.5973 -1.1031
 6253SOL     OW30394   4.611   2.330   9.214 -0.3343  1.0498 -0.4739
 6253SOL    HW130395   4.634   2.423   9.222 -0.8504  1.3623 -2.5860
 6253SOL    HW230396   4.688   2.283   9.246 -0.1939  0.9999 -0.8867
 6254SOL     OW30397   2.737   1.554   8.536  0.5947 -0.2493 -0.0686
 6254SOL    HW130398   2.790   1.592   8.466 -1.3321 -0.0444 -1.4250
 6254SOL    HW230399   2.760   1.463   8.520 -0.1926 -0.8143  2.0464
 6255SOL     OW30400   4.079   2.486   6.809  0.1694 -0.0128 -0.4068
 6255SOL    HW130401   4.101   2.452   6.722 -1.1091 -1.6759 -0.0795
 6255SOL    HW230402   4.166   2.486   6.849 -0.1342 -0.8239  0.2637
 6256SOL     OW30403   1.773   2.965   4.721 -0.0252  0.0386  0.6285
 6256SOL    HW130404   1.851   2.930   4.677 -0.8677 -2.0170  0.7637
 6256SOL    HW230405   1.786   3.059   4.704  0.0511 -0.6599 -3.2024
 6257SOL     OW30406   2.410   3.213   9.375  0.2886 -0.0139 -0.7465
 6257SOL    HW130407   2.323   3.181   9.397  0.3193 -0.5359 -1.3924
 6257SOL    HW230408   2.442   3.156   9.305 -0.6695  0.2675 -1.4102
 6258SOL     OW30409   3.911   4.654  10.239  0.0145 -0.2983  0.3671
 6258SOL    HW130410   3.831   4.601  10.235  0.2797 -0.6925  0.2458
 6258SOL    HW230411   3.926   4.671  10.146 -0.3141  0.6709  0.4921
 6259SOL     OW30412   2.249   0.550   5.358  0.1481  0.0429 -0.3702
 6259SOL    HW130413   2.198   0.480   5.317 -2.3140  0.1672  2.4728
 6259SOL    HW230414   2.230   0.610   5.286 -2.3651  1.7406  1.6887
 6260SOL     OW30415   2.243   1.858   3.114  0.3123 -0.3855 -0.1577
 6260SOL    HW130416   2.259   1.933   3.172 -1.7395  0.2649 -0.4554
 6260SOL    HW230417   2.332   1.847   3.080 -0.4623  1.4150 -2.6994
 6261SOL     OW30418   0.871   0.328   4.998 -0.3424  0.1465 -0.6261
 6261SOL    HW130419   0.965   0.331   5.017  0.0530 -0.2872 -2.5388
 6261SOL    HW230420   0.842   0.412   5.034  1.5983  1.0381 -1.1924
 6262SOL     OW30421   1.644   0.331  16.041  0.1822  0.5567 -0.1200
 6262SOL    HW130422   1.628   0.306  15.950 -0.3801 -2.2487  0.7457
 6262SOL    HW230423   1.682   0.417  16.027  0.6083  0.3297 -0.3349
 6263SOL     OW30424   1.470   1.043  10.010 -0.0194  0.3227  0.0131
 6263SOL    HW130425   1.449   0.969   9.953 -0.2444  0.8407 -0.5784
 6263SOL    HW230426   1.557   1.065   9.975  0.2930 -2.4833 -0.9805
 6264SOL     OW30427   1.413   4.383   7.821 -0.0631 -0.1369 -0.1203
 6264SOL    HW130428   1.476   4.374   7.892  2.1037 -1.5739 -2.2189
 6264SOL    HW230429   1.346   4.430   7.870  1.9826  3.3001 -0.6153
 6265SOL     OW30430   3.258   2.343   4.770  0.2283  0.2869  0.3570
 6265SOL    HW130431   3.271   2.351   4.864 -2.0808 -1.9139  0.8971
 6265SOL    HW230432   3.303   2.423   4.744 -0.2562  0.0253 -1.2908
 6266SOL     OW30433   3.199   1.414   6.359 -0.0761  0.4251  0.1917
 6266SOL    HW130434   3.143   1.490   6.373 -0.9701 -0.6699  2.4551
 6266SOL    HW230435   3.139   1.355   6.315 -0.4718 -0.8088  2.4118
 6267SOL     OW30436   0.689   0.970   8.721 -0.1560  0.3865  0.1073
 6267SOL    HW130437   0.660   0.879   8.732  0.7822  0.0602 -0.1110
 6267SOL    HW230438   0.629   1.013   8.661  0.1443  1.2422  0.4187
 6268SOL     OW30439   2.361   3.121   5.937 -0.3666  0.3362  0.3590
 6268SOL    HW130440   2.408   3.057   5.990 -2.6250 -0.4902  1.3692
 6268SOL    HW230441   2.299   3.058   5.899  1.6207 -0.1728 -2.0079
 6269SOL     OW30442   3.220   3.497  17.558 -0.0265  0.1456  0.0866
 6269SOL    HW130443   3.314   3.482  17.558  0.5680  3.7240 -2.8025
 6269SOL    HW230444   3.206   3.575  17.612 -1.4144  1.1755 -1.7524
 6270SOL     OW30445   0.613   3.201   6.715 -0.1702 -0.0120  0.2515
 6270SOL    HW130446   0.585   3.275   6.661 -0.3504  0.3861  0.8913
 6270SOL    HW230447   0.547   3.193   6.783 -1.9158  0.3895 -1.3950
 6271SOL     OW30448   3.155   0.863   5.723  0.5456  0.5539  0.1834
 6271SOL    HW130449   3.150   0.768   5.717 -0.7543  0.6072  0.4800
 6271SOL    HW230450   3.115   0.898   5.643  1.3222  1.4871  0.2073
 6272SOL     OW30451   0.971   3.036   6.288 -0.6678 -0.3057 -0.4635
 6272SOL    HW130452   0.977   2.962   6.348  1.9213 -0.6346 -1.1007
 6272SOL    HW230453   0.898   3.080   6.331  0.1949 -0.1266  0.8167
 6273SOL     OW30454   1.533   4.604   7.069  0.3496  0.1526 -0.4541
 6273SOL    HW130455   1.564   4.694   7.076  1.1334 -0.2296  1.0883
 6273SOL    HW230456   1.441   4.624   7.053 -0.3343 -2.3255  0.3636
 6274SOL     OW30457   1.634   3.483   7.591  0.6250 -0.7193 -0.5324
 6274SOL    HW130458   1.573   3.496   7.519 -1.8178 -0.4861  1.6039
 6274SOL    HW230459   1.665   3.573   7.599 -1.1414 -0.3152  1.7580
 6275SOL     OW30460   4.318   1.007   6.063  0.9216  0.8210 -0.2554
 6275SOL    HW130461   4.279   0.920   6.070 -0.4630  1.6180  1.9079
 6275SOL    HW230462   4.373   0.999   6.140  0.7867  0.2921 -0.2118
 6276SOL     OW30463   2.923   3.573  13.451 -0.7896  0.5564 -0.1056
 6276SOL    HW130464   3.001   3.627  13.463  0.2696 -0.9943 -0.0500
 6276SOL    HW230465   2.846   3.629  13.462 -0.0126  1.4682  0.7300
 6277SOL     OW30466   1.709   3.057  17.643 -0.5570  0.0653 -0.2055
 6277SOL    HW130467   1.670   3.131  17.689 -0.4074 -0.5108  0.8516
 6277SOL    HW230468   1.713   3.109  17.562 -1.3392 -1.3718 -1.1672
 6278SOL     OW30469   4.147   3.755  14.281 -0.3824 -0.7580 -0.2231
 6278SOL    HW130470   4.067   3.736  14.232 -0.0292  0.3018 -1.2240
 6278SOL    HW230471   4.198   3.765  14.200 -1.3450  0.0366 -0.7321
 6279SOL     OW30472   1.777   1.147  10.266  0.1402  0.5269  0.0635
 6279SOL    HW130473   1.718   1.221  10.279 -0.1762  0.0540  1.3040
 6279SOL    HW230474   1.840   1.154  10.337  0.8593  2.9459 -0.8331
 6280SOL     OW30475   4.708   3.185   7.440  0.0461 -0.3251  0.4450
 6280SOL    HW130476   4.720   3.144   7.354 -1.1483  0.0432  0.1009
 6280SOL    HW230477   0.024   3.265   7.428 -1.3625  0.2629 -1.7210
 6281SOL     OW30478   3.077   3.947  15.417 -0.4709  0.2623  0.2425
 6281SOL    HW130479   3.068   3.898  15.499  0.9508  0.1228  0.3102
 6281SOL    HW230480   2.991   3.988  15.408 -1.1163 -1.0359  0.5375
 6282SOL     OW30481   1.834   0.117  14.936  0.0774  0.5086  0.3724
 6282SOL    HW130482   1.882   0.137  14.855  2.3481 -0.8215  1.3956
 6282SOL    HW230483   1.821   0.204  14.975  1.7055  0.6785  0.5473
 6283SOL     OW30484   0.957   2.988   5.225 -0.5460  0.3058 -0.0844
 6283SOL    HW130485   1.052   2.992   5.212 -0.7523 -0.4090 -1.9548
 6283SOL    HW230486   0.939   3.079   5.201  0.5028  0.6797  0.5512
 6284SOL     OW30487   4.035   1.430   6.475 -0.1952 -0.4478 -0.2682
 6284SOL    HW130488   4.016   1.509   6.423 -1.0292 -0.2266  0.3682
 6284SOL    HW230489   4.071   1.466   6.556 -0.1298  1.2013 -1.0168
 6285SOL     OW30490   1.449   2.116   4.239  0.1268  0.2829 -0.3080
 6285SOL    HW130491   1.402   2.195   4.265 -0.3322 -0.4216  1.0092
 6285SOL    HW230492   1.488   2.139   4.155 -1.1841  0.1919 -0.9371
 6286SOL     OW30493   1.913   3.571   6.756 -0.3285  0.0452  0.2750
 6286SOL    HW130494   1.967   3.608   6.685 -0.9756  1.2764  0.4111
 6286SOL    HW230495   1.976   3.509   6.792  1.8281  1.2571 -1.3504
 6287SOL     OW30496   2.158   4.028  11.689 -0.2358  0.1294  0.1306
 6287SOL    HW130497   2.088   3.976  11.649 -1.0712  0.4711  1.1516
 6287SOL    HW230498   2.219   3.961  11.720 -0.0610 -1.2116 -3.0727
 6288SOL     OW30499   1.834   4.491   1.594  0.6047 -0.1089 -0.2002
 6288SOL    HW130500   1.875   4.509   1.678 -0.0869 -0.7153  0.2671
 6288SOL    HW230501   1.807   4.579   1.568  0.3349 -0.9443 -2.7530
 6289SOL     OW30502   4.079   2.233   3.399  0.4134 -0.7321  0.0127
 6289SOL    HW130503   4.162   2.229   3.351 -0.0891  1.6015 -1.0528
 6289SOL    HW230504   4.015   2.249   3.330  1.1225 -1.5636 -0.8307
 6290SOL     OW30505   1.339   4.455   3.077 -0.2541  0.2130 -0.2166
 6290SOL    HW130506   1.421   4.423   3.039 -0.1220 -1.3783  1.3896
 6290SOL    HW230507   1.339   4.544   3.043  1.1588  0.0777 -0.5851
 6291SOL     OW30508   2.549   3.480   1.363 -0.3072 -0.0757 -0.2535
 6291SOL    HW130509   2.486   3.437   1.305  0.8120  0.0620 -1.5899
 6291SOL    HW230510   2.512   3.451   1.446 -1.6945  1.2625 -0.4011
 6292SOL     OW30511   0.553   0.863   2.342 -0.0064  0.5852  0.5916
 6292SOL    HW130512   0.529   0.840   2.252  1.3263 -2.9417  1.1404
 6292SOL    HW230513   0.469   0.890   2.379 -0.7110  1.1818 -1.4336
 6293SOL     OW30514   3.427   2.068   8.004 -0.1011  0.5245 -0.3537
 6293SOL    HW130515   3.487   1.996   7.987 -1.4694 -0.8929  0.7814
 6293SOL    HW230516   3.490   2.134   8.034 -1.0000  2.0631 -1.8993
 6294SOL     OW30517   0.644   0.063   9.220  0.0683 -0.3505  0.6076
 6294SOL    HW130518   0.549   0.054   9.223  0.0570 -0.9918 -1.7807
 6294SOL    HW230519   0.658   4.713   9.179  0.7675 -0.9014  2.0117
 6295SOL     OW30520   0.941   2.079   2.879  0.4035  0.7094  0.0484
 6295SOL    HW130521   0.862   2.133   2.873 -0.2203 -0.2131 -0.1461
 6295SOL    HW230522   0.920   2.002   2.825  3.6819  1.5661 -2.4073
 6296SOL     OW30523   2.787   4.684   4.271  0.5207 -0.3418 -0.3729
 6296SOL    HW130524   2.877   4.665   4.296 -0.6700 -0.3937  3.8368
 6296SOL    HW230525   2.784   0.044   4.264 -1.4135 -0.6484 -3.7206
 6297SOL     OW30526   0.317   3.302   3.174 -0.4897 -0.0756 -0.3627
 6297SOL    HW130527   0.323   3.315   3.080  0.0728  1.0699 -0.1635
 6297SOL    HW230528   0.358   3.217   3.189 -1.7178 -0.6115 -0.0948
 6298SOL     OW30529   0.005   1.552   7.897 -0.1295 -0.1805 -0.5013
 6298SOL    HW130530   0.012   1.483   7.832 -0.4965  1.0025 -1.7799
 6298SOL    HW230531   0.093   1.573   7.926 -1.0720  4.7456 -1.1656
 6299SOL     OW30532   0.842   3.679  10.998  0.4492  0.6354 -0.2384
 6299SOL    HW130533   0.870   3.742  10.932 -0.5015  1.5722  0.2534
 6299SOL    HW230534   0.890   3.710  11.075  1.0486  0.4112 -0.5244
 6300SOL     OW30535   2.349   2.976  11.342 -0.1677 -0.4189 -0.2057
 6300SOL    HW130536   2.299   3.054  11.320 -0.4797 -0.9488 -1.3697
 6300SOL    HW230537   2.297   2.938  11.413  0.5237  0.6846  0.8901
 6301SOL     OW30538   3.640   1.772   5.689 -0.2253  0.1252 -0.1407
 6301SOL    HW130539   3.664   1.712   5.618 -3.2305  0.1204 -1.1486
 6301SOL    HW230540   3.719   1.766   5.743 -1.4243  2.3060  1.8694
 6302SOL     OW30541   2.901   2.285  16.531 -0.0495 -0.8887 -0.1811
 6302SOL    HW130542   2.865   2.208  16.575  1.4077 -2.0366 -0.9973
 6302SOL    HW230543   2.837   2.309  16.464  0.8538  0.4292 -0.5650
 6303SOL     OW30544   3.346   2.476  14.250  0.1829  0.1280 -0.0336
 6303SOL    HW130545   3.281   2.429  14.304  1.0477 -1.1709 -0.1346
 6303SOL    HW230546   3.348   2.423  14.171 -0.3756  0.1442 -0.0580
 6304SOL     OW30547   0.972   2.908  12.481 -0.0084 -0.3256  0.0603
 6304SOL    HW130548   1.063   2.913  12.510 -0.1947  0.3726  0.5311
 6304SOL    HW230549   0.968   2.975  12.413  0.8583  0.8582  1.1565
 6305SOL     OW30550   3.057   0.511   4.539 -0.3286 -0.0686 -0.1394
 6305SOL    HW130551   3.019   0.428   4.566  0.2264 -0.7461 -1.4421
 6305SOL    HW230552   3.001   0.576   4.581 -0.2852 -1.0759  1.4840
 6306SOL     OW30553   1.102   1.871   6.466 -0.3586 -0.1981  0.6224
 6306SOL    HW130554   1.149   1.870   6.549 -0.4578 -0.6695  0.6712
 6306SOL    HW230555   1.058   1.956   6.467 -0.0105  0.0037 -0.3845
 6307SOL     OW30556   3.496   2.823   1.487  0.0741 -0.4800 -0.1029
 6307SOL    HW130557   3.457   2.909   1.502  2.3626  0.6435 -0.5293
 6307SOL    HW230558   3.425   2.785   1.436 -0.1133 -0.0693 -0.1517
 6308SOL     OW30559   4.120   3.844   5.849  0.2619 -0.9527 -0.1211
 6308SOL    HW130560   4.118   3.901   5.773 -1.4154  0.8653  1.2606
 6308SOL    HW230561   4.160   3.765   5.813  1.1058 -0.2552 -0.6997
 6309SOL     OW30562   0.081   1.039   3.780 -0.1349 -0.2752  0.2339
 6309SOL    HW130563   0.047   1.071   3.864 -0.6484  0.5518 -0.2995
 6309SOL    HW230564   0.176   1.027   3.790  0.1436  0.9975 -0.9468
 6310SOL     OW30565   2.782   3.602  10.654  0.3501  0.3501  0.3741
 6310SOL    HW130566   2.704   3.601  10.709 -0.9629  0.4668 -1.4684
 6310SOL    HW230567   2.850   3.639  10.711  0.8025 -0.1600  0.1762
 6311SOL     OW30568   2.241   3.742  11.183 -0.8494 -0.4412 -0.2063
 6311SOL    HW130569   2.289   3.816  11.221 -0.7545 -0.3608 -0.4815
 6311SOL    HW230570   2.183   3.719  11.255  1.1143 -1.5936  0.9908
 6312SOL     OW30571   3.508   0.002  14.817 -0.2445 -0.1085 -0.2808
 6312SOL    HW130572   3.445   4.706  14.882  0.4656 -0.0284  0.4379
 6312SOL    HW230573   3.469   4.708  14.734 -0.1938 -1.5060  0.1843
 6313SOL     OW30574   1.640   2.948  15.668 -0.1334  0.4615  0.6404
 6313SOL    HW130575   1.617   2.864  15.628 -1.2594  0.3126  1.6048
 6313SOL    HW230576   1.552   2.984  15.667 -0.1601  0.3475 -2.0346
 6314SOL     OW30577   4.428   3.789   2.502 -0.0798  0.4018  0.2484
 6314SOL    HW130578   4.402   3.791   2.594 -1.0769  2.5899 -0.0815
 6314SOL    HW230579   4.486   3.713   2.499  2.2922  2.2945 -1.8854
 6315SOL     OW30580   3.000   3.847   5.467  0.8918  0.2389 -0.2003
 6315SOL    HW130581   2.967   3.866   5.379 -0.0399  0.9770  0.3177
 6315SOL    HW230582   2.970   3.919   5.522  0.5289  0.4654 -0.6966
 6316SOL     OW30583   3.782   4.201   3.648  0.1833  0.1122  0.3571
 6316SOL    HW130584   3.824   4.281   3.678  1.1471 -0.9306  1.7754
 6316SOL    HW230585   3.823   4.137   3.706  0.7406  0.3036  0.1693
 6317SOL     OW30586   2.274   1.971   1.080 -1.0550  0.4906  0.1005
 6317SOL    HW130587   2.229   1.947   0.999 -1.0675 -0.5948  0.4316
 6317SOL    HW230588   2.235   2.054   1.106 -2.1084  0.1350 -0.3229
 6318SOL     OW30589   2.861   4.695   2.262  0.5240  0.1266 -0.0336
 6318SOL    HW130590   2.855   4.606   2.295 -0.4119 -1.1027 -3.4521
 6318SOL    HW230591   2.876   0.006   2.344 -0.8821 -0.8647  0.7703
 6319SOL     OW30592   3.925   3.045   9.314 -0.0159 -0.6040  0.4348
 6319SOL    HW130593   4.005   3.027   9.265  0.5887  0.7427  0.9372
 6319SOL    HW230594   3.905   3.136   9.290  1.0624 -0.7066 -0.8491
 6320SOL     OW30595   4.383   1.378  13.569  0.3702  0.5171 -0.1933
 6320SOL    HW130596   4.445   1.428  13.516 -0.6210 -1.4786 -3.2294
 6320SOL    HW230597   4.353   1.328  13.493 -1.6913 -0.1954  1.0819
 6321SOL     OW30598   4.272   4.495   7.734  0.0368  0.3556  0.0589
 6321SOL    HW130599   4.276   4.411   7.690 -0.0479 -1.0315  2.7166
 6321SOL    HW230600   4.191   4.525   7.692 -0.3901  1.9234  1.9764
 6322SOL     OW30601   3.684   3.123  15.076  1.1657 -0.4504  0.4553
 6322SOL    HW130602   3.639   3.187  15.021 -1.0249 -0.9803  1.6705
 6322SOL    HW230603   3.606   3.078  15.105  0.7127 -0.5698 -0.9602
 6323SOL     OW30604   1.273   4.541   7.968  0.9113 -0.0021  0.3682
 6323SOL    HW130605   1.345   4.539   8.032  1.1309 -1.4663  0.0618
 6323SOL    HW230606   1.204   4.584   8.018  1.1860 -0.0038  0.7531
 6324SOL     OW30607   4.080   2.965  13.610 -0.0527 -0.9204  0.4995
 6324SOL    HW130608   4.145   3.011  13.663 -1.3311  2.8031 -1.0813
 6324SOL    HW230609   4.081   3.012  13.526 -0.2457  0.3174  1.1800
 6325SOL     OW30610   4.493   0.452   3.586 -0.0080 -0.3983  0.3327
 6325SOL    HW130611   4.578   0.456   3.632 -0.6489  0.0778  1.4787
 6325SOL    HW230612   4.459   0.529   3.632 -3.1236 -1.7439  0.2333
 6326SOL     OW30613   4.175   2.524   3.169 -0.5108 -0.0349  0.0739
 6326SOL    HW130614   4.133   2.520   3.255 -1.9120 -2.0584 -0.7127
 6326SOL    HW230615   4.117   2.464   3.123 -0.4150  0.6803 -0.9733
 6327SOL     OW30616   2.287   3.802   9.763 -0.1921 -0.1132 -0.1783
 6327SOL    HW130617   2.316   3.802   9.854 -1.6644 -2.4240  0.3088
 6327SOL    HW230618   2.313   3.713   9.736  0.0164  0.1020 -0.6968
 6328SOL     OW30619   1.530   3.628  11.828  0.5706  0.0320  0.3435
 6328SOL    HW130620   1.497   3.562  11.889  0.3913  0.2560  0.4878
 6328SOL    HW230621   1.593   3.579  11.774  0.1334 -0.6089  0.4139
 6329SOL     OW30622   3.340   3.251  12.900  0.1967  0.2364  0.3132
 6329SOL    HW130623   3.288   3.294  12.832  0.7228 -2.0831 -1.5442
 6329SOL    HW230624   3.281   3.176  12.905  0.5724 -0.1628 -1.1899
 6330SOL     OW30625   1.200   4.021  13.910  0.2362  0.0652  0.0561
 6330SOL    HW130626   1.253   3.950  13.872  1.4278  0.7804  0.3691
 6330SOL    HW230627   1.268   4.088  13.913  0.7364 -0.3652 -1.8191
 6331SOL     OW30628   4.414   3.477   2.242  0.0307  0.0899 -0.2237
 6331SOL    HW130629   4.373   3.537   2.179  1.6276  1.2194 -0.2017
 6331SOL    HW230630   4.339   3.423   2.268 -0.0734  0.3563  0.0402
 6332SOL     OW30631   4.532   4.734   2.760  0.3591  0.1779 -0.4573
 6332SOL    HW130632   4.551   4.645   2.731  2.2469  0.2247  0.6730
 6332SOL    HW230633   4.577   4.729   2.844  0.5462 -1.3886 -0.6532
 6333SOL     OW30634   1.160   0.821   5.815 -0.5326  0.0985  0.4357
 6333SOL    HW130635   1.114   0.833   5.732  1.1387  0.2112 -0.4819
 6333SOL    HW230636   1.226   0.762   5.779 -1.1805 -0.8270  0.7664
 6334SOL     OW30637   3.251   1.124  10.758 -0.1235 -0.1731 -0.0007
 6334SOL    HW130638   3.339   1.134  10.793  0.4077 -0.2556 -1.3265
 6334SOL    HW230639   3.263   1.057  10.691 -0.4275  0.3178 -0.5330
 6335SOL     OW30640   0.208   3.580   7.565 -0.1383 -0.2695  0.3288
 6335SOL    HW130641   0.280   3.539   7.516 -0.1646  0.4286 -0.2844
 6335SOL    HW230642   0.143   3.604   7.499  0.8982  1.4354 -0.0668
 6336SOL     OW30643   4.345   0.451  10.020 -0.3760  0.0868 -0.2875
 6336SOL    HW130644   4.293   0.447  10.100  0.2942  1.7480  0.2349
 6336SOL    HW230645   4.273   0.483   9.966  0.1432  1.7119 -0.0332
 6337SOL     OW30646   0.739   1.216   0.633  0.1539  0.2997 -0.3983
 6337SOL    HW130647   0.796   1.207   0.556 -0.6031  1.2522 -1.0645
 6337SOL    HW230648   0.789   1.148   0.679 -0.4698 -0.6211 -1.0923
 6338SOL     OW30649   4.253   4.480   7.144 -0.0525  0.1478 -0.0286
 6338SOL    HW130650   4.290   4.413   7.201 -1.4691 -1.0420 -0.5070
 6338SOL    HW230651   4.159   4.469   7.159  0.1670  0.4374  1.5673
 6339SOL     OW30652   0.940   3.922   6.373  0.1957 -1.0118 -0.1323
 6339SOL    HW130653   0.861   3.941   6.422  1.2365  0.6966  0.8494
 6339SOL    HW230654   0.995   3.879   6.439  0.3918  0.8763  0.9131
 6340SOL     OW30655   0.509   4.574  17.253 -0.0594  0.6540 -0.1907
 6340SOL    HW130656   0.544   4.622  17.178  1.1433 -0.8988 -0.6262
 6340SOL    HW230657   0.568   4.602  17.323  0.3026  1.8275 -0.9680
 6341SOL     OW30658   0.289   0.886   2.460  0.1536  0.3929 -0.2999
 6341SOL    HW130659   0.293   0.850   2.549  2.1294  0.2004 -0.4632
 6341SOL    HW230660   0.208   0.854   2.420  0.9901  0.5378 -2.0970
 6342SOL     OW30661   0.344   3.267   5.612  0.0339 -0.1144 -0.9671
 6342SOL    HW130662   0.317   3.290   5.701  1.4272  1.4559 -0.9516
 6342SOL    HW230663   0.269   3.301   5.563 -1.4102  1.4676  2.3557
 6343SOL     OW30664   0.425   2.340   8.590  0.3973  0.0268  0.8260
 6343SOL    HW130665   0.510   2.332   8.548 -0.0480 -0.6318  0.0405
 6343SOL    HW230666   0.398   2.251   8.612 -1.8774  0.4944  0.0092
 6344SOL     OW30667   0.763   2.749   9.085 -0.1987  0.3285  0.2527
 6344SOL    HW130668   0.675   2.747   9.049  0.0410 -1.6289 -0.1926
 6344SOL    HW230669   0.800   2.731   8.999 -0.2386  0.0443  0.2963
 6345SOL     OW30670   0.894   1.288  11.259 -0.3812  0.0542  0.6005
 6345SOL    HW130671   0.862   1.272  11.347 -0.0564 -3.0113  0.1408
 6345SOL    HW230672   0.820   1.330  11.216  0.0111  0.5518  0.4081
 6346SOL     OW30673   1.054   0.197   6.589 -0.5802  0.1478 -0.0925
 6346SOL    HW130674   1.145   0.174   6.570 -0.1739  0.3404  1.5634
 6346SOL    HW230675   1.077   0.229   6.677 -2.1654  2.5190 -0.5331
 6347SOL     OW30676   3.776   4.562  15.280  0.6224  0.1230 -0.3879
 6347SOL    HW130677   3.859   4.519  15.257  0.6006  0.5700 -1.3214
 6347SOL    HW230678   3.729   4.485  15.314 -0.6610  1.3846  0.6988
 6348SOL     OW30679   0.758   1.532  15.371  0.4619 -0.2954  0.1063
 6348SOL    HW130680   0.684   1.591  15.357  0.3414  0.1808  2.8360
 6348SOL    HW230681   0.751   1.505  15.462 -1.9735  0.8745  0.2584
 6349SOL     OW30682   3.137   2.732   8.809 -0.2311  0.0495  0.9414
 6349SOL    HW130683   3.112   2.789   8.736  0.6017  1.6567  1.8978
 6349SOL    HW230684   3.215   2.690   8.772 -0.7640 -1.1248  1.1702
 6350SOL     OW30685   2.104   0.958   6.674 -0.2565 -0.2336 -0.2150
 6350SOL    HW130686   2.113   1.047   6.708 -1.6161 -0.6992  1.3667
 6350SOL    HW230687   2.064   0.917   6.750 -0.2026 -1.3630 -0.7935
 6351SOL     OW30688   0.327   1.297   8.691  0.5902 -0.2850 -0.1559
 6351SOL    HW130689   0.310   1.217   8.741 -2.3728 -0.1792 -1.0139
 6351SOL    HW230690   0.285   1.367   8.739  0.4639 -0.6975  0.3337
 6352SOL     OW30691   0.541   3.012   8.607 -0.3493  0.6950  0.9509
 6352SOL    HW130692   0.541   3.070   8.531 -0.5723  1.9672  1.9159
 6352SOL    HW230693   0.577   3.067   8.677  0.8040  1.0263  0.0817
 6353SOL     OW30694   1.430   1.684   6.371  0.1548 -0.4213  0.9198
 6353SOL    HW130695   1.470   1.739   6.438 -0.6916 -0.7072  1.6509
 6353SOL    HW230696   1.505   1.669   6.313  0.3223  0.1875  0.9772
 6354SOL     OW30697   1.057   2.333   4.535 -0.4571  0.4819 -0.1288
 6354SOL    HW130698   0.995   2.390   4.581  1.4060  1.4498  1.1862
 6354SOL    HW230699   1.009   2.251   4.542 -0.8056  0.9929  3.7782
 6355SOL     OW30700   3.434   4.700   8.453 -0.0519 -0.4463 -0.4995
 6355SOL    HW130701   3.410   4.643   8.380 -0.8539 -1.3581  0.4991
 6355SOL    HW230702   3.356   4.702   8.508  0.1432  0.1262 -0.2426
 6356SOL     OW30703   4.045   2.822   6.388  0.2802  0.1353 -0.3214
 6356SOL    HW130704   3.980   2.817   6.319 -0.1979 -1.9545  0.2812
 6356SOL    HW230705   4.023   2.745   6.441 -0.7051 -0.1956 -1.2204
 6357SOL     OW30706   4.701   0.485   2.996 -0.3837  0.2782 -0.3239
 6357SOL    HW130707   4.671   0.394   2.995  0.5476 -0.0323 -1.0897
 6357SOL    HW230708   0.051   0.480   3.039  0.1027 -0.3453 -1.3531
 6358SOL     OW30709   2.782   1.754   3.007 -0.3694 -0.4882 -0.4096
 6358SOL    HW130710   2.741   1.749   2.920 -0.0616 -1.6578 -0.4982
 6358SOL    HW230711   2.863   1.799   2.986 -0.7424  0.4950  0.2750
 6359SOL     OW30712   3.813   2.970  14.152 -0.3317 -0.4293 -0.5772
 6359SOL    HW130713   3.871   3.020  14.094 -1.3673 -0.1797 -1.4054
 6359SOL    HW230714   3.729   3.003  14.118 -0.3268 -1.4611 -1.5947
 6360SOL     OW30715   4.197   1.697   9.469  0.1542 -0.5979 -0.1597
 6360SOL    HW130716   4.212   1.630   9.403 -1.0676 -1.5211  0.4994
 6360SOL    HW230717   4.210   1.781   9.425  1.6718 -0.1717  1.1028
 6361SOL     OW30718   4.320   3.490   9.824  0.4547 -0.2535  0.7277
 6361SOL    HW130719   4.232   3.512   9.855 -0.0571  1.1786 -1.7875
 6361SOL    HW230720   4.311   3.426   9.754  1.8283 -0.7178  0.9859
 6362SOL     OW30721   0.302   0.714   8.689 -0.5414  0.4162  0.2233
 6362SOL    HW130722   0.372   0.746   8.632 -0.7206 -0.8822 -0.7250
 6362SOL    HW230723   0.253   0.655   8.632 -0.5798 -0.5476  1.2694
 6363SOL     OW30724   3.124   4.413   9.312  0.0824 -0.3911 -0.3913
 6363SOL    HW130725   3.080   4.334   9.281  0.3846 -0.6746 -0.0906
 6363SOL    HW230726   3.073   4.473   9.258  1.4404  1.4125  0.3293
 6364SOL     OW30727   4.523   2.762   2.408  0.1895 -0.3466  0.2117
 6364SOL    HW130728   4.452   2.753   2.345  0.4841 -1.4466  0.0331
 6364SOL    HW230729   4.477   2.783   2.489 -0.2071 -0.4729  0.0164
 6365SOL     OW30730   0.463   3.837   9.032 -0.0468 -0.5955 -0.6089
 6365SOL    HW130731   0.499   3.749   9.020  0.4649 -0.6850  1.5584
 6365SOL    HW230732   0.521   3.882   9.094 -2.7948  0.5058  1.1408
 6366SOL     OW30733   3.842   4.665   1.129  0.0737 -0.4272  0.2969
 6366SOL    HW130734   3.881   4.693   1.046  0.2625  0.2088  0.6048
 6366SOL    HW230735   3.759   4.714   1.129 -0.2108 -0.9101 -0.1775
 6367SOL     OW30736   1.347   0.696   2.716 -0.1660  0.4128 -0.3367
 6367SOL    HW130737   1.308   0.670   2.633  0.9113 -1.5767 -0.2092
 6367SOL    HW230738   1.423   0.638   2.722  0.8442  2.0126  2.3265
 6368SOL     OW30739   4.032   3.592   3.467  0.6283 -0.7475  0.3695
 6368SOL    HW130740   4.123   3.571   3.487  1.3031  0.9379 -0.8451
 6368SOL    HW230741   4.006   3.515   3.416 -0.0906 -0.3293  0.0996
 6369SOL     OW30742   2.831   4.602   7.926 -0.8606  0.4174  0.7010
 6369SOL    HW130743   2.749   4.577   7.883 -0.1767  0.1977 -0.4727
 6369SOL    HW230744   2.874   4.521   7.954  2.1224  1.2392 -1.5837
 6370SOL     OW30745   2.980   0.097   3.454 -0.3559 -0.2266  0.1100
 6370SOL    HW130746   3.036   0.092   3.532  1.2726  1.7807 -0.9194
 6370SOL    HW230747   2.937   0.012   3.445  0.2653 -0.5072 -0.2200
 6371SOL     OW30748   2.856   4.437  10.356 -0.0300 -0.4208 -0.7035
 6371SOL    HW130749   2.801   4.491  10.299  0.7166 -0.2364 -1.2349
 6371SOL    HW230750   2.798   4.409  10.428 -0.7188  2.8380 -0.0102
 6372SOL     OW30751   0.048   0.750  10.713  0.2895  0.3856  0.4897
 6372SOL    HW130752   4.708   0.716  10.665  0.6713  1.2992 -0.7597
 6372SOL    HW230753   0.115   0.704  10.663 -0.0544  0.2747  0.1354
 6373SOL     OW30754   2.525   0.563   5.440 -0.0622 -0.2123  0.2755
 6373SOL    HW130755   2.530   0.646   5.393 -0.8963 -1.2058 -1.5495
 6373SOL    HW230756   2.437   0.533   5.417  1.1932 -2.8090 -1.0828
 6374SOL     OW30757   2.334   4.405   2.813  0.5269  0.1446 -0.1081
 6374SOL    HW130758   2.361   4.356   2.890 -0.3636 -1.5214 -0.8552
 6374SOL    HW230759   2.354   4.342   2.744  0.7450 -0.3669  0.4238
 6375SOL     OW30760   0.065   4.291   6.339 -0.2592 -0.4361  0.5487
 6375SOL    HW130761   0.071   4.276   6.245 -0.7949 -1.0636  0.6117
 6375SOL    HW230762   4.707   4.311   6.334  0.3686  2.0891 -0.7544
 6376SOL     OW30763   3.271   4.692   7.974 -0.1124 -0.5854  0.2229
 6376SOL    HW130764   3.354   4.709   7.929 -1.1358  4.5546  0.2789
 6376SOL    HW230765   3.219   0.025   7.932  2.6105  0.8082 -0.9058
 6377SOL     OW30766   3.372   1.240   7.313  0.2596 -0.1224 -0.0666
 6377SOL    HW130767   3.419   1.298   7.372 -1.3832  0.9765  0.1549
 6377SOL    HW230768   3.281   1.255   7.338  1.0612  0.9126  2.1629
 6378SOL     OW30769   1.733   4.197   6.778  0.3610  0.1181  0.0332
 6378SOL    HW130770   1.721   4.120   6.833  1.9927 -0.9996 -1.1979
 6378SOL    HW230771   1.670   4.251   6.825  1.4711  0.0690  1.5892
 6379SOL     OW30772   0.916   4.457   8.197 -0.0028  0.2645  0.3687
 6379SOL    HW130773   0.868   4.382   8.164 -0.5994  0.1708  1.4259
 6379SOL    HW230774   0.890   4.464   8.289 -0.1934  1.0358  0.2573
 6380SOL     OW30775   1.784   1.955   1.998  0.6983 -0.3383 -0.4344
 6380SOL    HW130776   1.742   1.879   2.038  0.3478  0.8725  1.4747
 6380SOL    HW230777   1.776   1.942   1.903 -1.3624 -1.4766 -0.1308
 6381SOL     OW30778   0.623   2.164   7.825 -0.5505  0.3065  0.0474
 6381SOL    HW130779   0.662   2.110   7.756  1.4289 -0.2840  1.6222
 6381SOL    HW230780   0.618   2.098   7.894 -0.5342 -1.8799 -2.0320
 6382SOL     OW30781   1.818   3.825   6.699  0.3589 -0.2731 -0.1472
 6382SOL    HW130782   1.734   3.871   6.702  0.1469 -0.7102  0.7921
 6382SOL    HW230783   1.791   3.734   6.716 -0.3430 -0.1740 -0.7067
 6383SOL     OW30784   2.777   0.074   1.444 -0.2077 -0.4446 -0.2479
 6383SOL    HW130785   2.817   0.001   1.492 -0.9297 -0.7795 -0.1431
 6383SOL    HW230786   2.854   0.129   1.452 -0.4099 -0.0559 -0.9879
 6384SOL     OW30787   1.112   1.181   0.173 -0.0625 -0.7660  1.1180
 6384SOL    HW130788   1.071   1.263   0.200 -2.3922 -1.6581  0.3127
 6384SOL    HW230789   1.055   1.142   0.106  1.7336 -1.0456 -0.2560
 6385SOL     OW30790   4.249   3.092   8.538 -0.3045 -0.6020  0.0289
 6385SOL    HW130791   4.244   3.058   8.627 -0.3291  0.6166  0.4812
 6385SOL    HW230792   4.165   3.138   8.543 -0.1824 -0.1814 -1.6581
 6386SOL     OW30793   1.732   4.505   8.317  0.5072 -0.1360  0.3025
 6386SOL    HW130794   1.799   4.550   8.368 -2.9956  2.3914  2.7189
 6386SOL    HW230795   1.684   4.474   8.393 -0.3910 -0.8939 -0.5767
 6387SOL     OW30796   4.105   3.090   7.612  0.1579 -0.1321  0.1608
 6387SOL    HW130797   4.183   3.145   7.607 -0.5870  0.8766 -0.3452
 6387SOL    HW230798   4.042   3.125   7.549 -0.8204  0.7496  1.6191
 6388SOL     OW30799   1.955   0.066   1.271 -0.3033  0.1775 -0.2186
 6388SOL    HW130800   2.008   0.143   1.289 -1.7396  1.2603 -0.6024
 6388SOL    HW230801   1.882   0.104   1.222 -1.3084  1.7775  2.5064
 6389SOL     OW30802   1.491   2.989   7.380  0.4424  0.3971  0.6805
 6389SOL    HW130803   1.508   3.074   7.340  2.6233  0.0890  0.9679
 6389SOL    HW230804   1.578   2.964   7.410 -0.3203 -3.1937 -0.0356
 6390SOL     OW30805   2.211   3.740   5.069 -0.0063  0.4257  0.1593
 6390SOL    HW130806   2.178   3.812   5.122 -1.4726  0.9895 -1.5273
 6390SOL    HW230807   2.281   3.702   5.123 -0.8372  1.1009  1.7158
 6391SOL     OW30808   2.865   3.912   1.205  0.7869 -0.0270 -0.0530
 6391SOL    HW130809   2.950   3.941   1.237  2.4526 -0.3769 -4.1403
 6391SOL    HW230810   2.885   3.840   1.145 -1.9268  0.9907 -2.1951
 6392SOL     OW30811   0.078   1.573   5.500 -0.3403  1.1273  0.4861
 6392SOL    HW130812   0.170   1.594   5.519  0.8066 -1.6493 -2.1825
 6392SOL    HW230813   0.036   1.618   5.573 -0.2290 -1.5911  2.2283
 6393SOL     OW30814   1.892   1.371  10.619  0.8071 -0.4642 -0.3603
 6393SOL    HW130815   1.880   1.423  10.539  0.9060  2.3004  1.4196
 6393SOL    HW230816   1.900   1.283  10.583  1.8698 -0.4202 -0.2390
 6394SOL     OW30817   0.609   0.592   7.043 -0.2434  0.3126  0.3778
 6394SOL    HW130818   0.611   0.641   7.125  1.0424 -0.6493  0.9355
 6394SOL    HW230819   0.676   0.627   6.984  2.2195  0.6447  3.3354
 6395SOL     OW30820   3.145   3.812   0.824  0.1359  0.1801 -0.1739
 6395SOL    HW130821   3.185   3.881   0.876  1.2916 -1.6510  1.3423
 6395SOL    HW230822   3.099   3.764   0.892 -0.8640 -0.8447 -1.5697
 6396SOL     OW30823   0.518   1.134  14.307 -0.1524  0.3864  0.2416
 6396SOL    HW130824   0.609   1.165  14.310 -0.0275  0.0377  0.1142
 6396SOL    HW230825   0.471   1.216  14.292 -0.5546 -0.1316 -1.3854
 6397SOL     OW30826   4.141   0.004   2.432 -0.0416  0.4052  0.2905
 6397SOL    HW130827   4.192   4.659   2.444 -0.8290 -0.1941 -0.3965
 6397SOL    HW230828   4.146   0.037   2.522 -0.1910 -1.3816  0.9421
 6398SOL     OW30829   3.582   3.509   9.808 -0.2899  0.2009  0.3734
 6398SOL    HW130830   3.559   3.600   9.793  1.3574  0.2139 -2.1351
 6398SOL    HW230831   3.581   3.498   9.903 -0.5440 -0.1602  0.3285
 6399SOL     OW30832   0.538   1.600  14.256 -0.1843  0.8798 -0.5437
 6399SOL    HW130833   0.537   1.692  14.228  1.3046  0.7110 -1.1701
 6399SOL    HW230834   0.628   1.600  14.289  0.2642 -0.0177 -1.7985
 6400SOL     OW30835   2.948   4.437   3.666  0.7390  0.2074  0.3953
 6400SOL    HW130836   3.022   4.462   3.610  0.9822 -0.3029  0.4849
 6400SOL    HW230837   2.996   4.416   3.746  0.9590 -2.1256 -0.3272
 6401SOL     OW30838   3.222   0.597   6.200 -0.4637 -0.4992 -0.0963
 6401SOL    HW130839   3.208   0.685   6.235 -1.1668 -0.4655 -0.4694
 6401SOL    HW230840   3.240   0.624   6.110  0.1975  1.0730  0.5050
 6402SOL     OW30841   3.721   3.625   3.944  0.3340  0.0773  0.0645
 6402SOL    HW130842   3.675   3.698   3.902  0.1961  0.1129  0.2789
 6402SOL    HW230843   3.676   3.552   3.901  0.8889 -1.3060  1.8597
 6403SOL     OW30844   4.660   1.801  11.135  0.0239  0.4821 -0.1851
 6403SOL    HW130845   4.655   1.708  11.156  0.3549  0.4755 -0.1294
 6403SOL    HW230846   0.003   1.803  11.080 -0.4008 -2.9038 -0.8655
 6404SOL     OW30847   2.367   1.929  15.408  0.3489 -0.0771 -0.0379
 6404SOL    HW130848   2.445   1.874  15.402 -0.2563 -0.9785  0.3147
 6404SOL    HW230849   2.401   2.009  15.367  2.2920 -0.9725 -0.1558
 6405SOL     OW30850   2.085   2.245   4.498  0.3807  0.0509  1.1958
 6405SOL    HW130851   2.028   2.247   4.421  1.4865  2.4455  0.4436
 6405SOL    HW230852   2.024   2.202   4.558  0.9884 -1.1583  0.9451
 6406SOL     OW30853   1.592   3.945   8.262 -0.2705 -0.5037 -0.3035
 6406SOL    HW130854   1.591   3.850   8.261 -0.7497 -0.4982 -0.3414
 6406SOL    HW230855   1.537   3.966   8.338  0.8564 -3.1915  1.2343
 6407SOL     OW30856   4.561   3.980   8.392 -0.1222  0.0179  0.1121
 6407SOL    HW130857   4.591   3.889   8.392  1.2366  0.4571 -0.5573
 6407SOL    HW230858   4.575   4.008   8.482  0.5189  0.0044  0.0176
 6408SOL     OW30859   3.407   2.781   7.839 -0.0021  0.7755 -0.5444
 6408SOL    HW130860   3.387   2.718   7.908 -2.4896  1.5690 -0.5577
 6408SOL    HW230861   3.359   2.754   7.761  0.7675 -0.6900 -0.5125
 6409SOL     OW30862   4.336   1.794   3.909 -0.1165 -0.2869  0.2340
 6409SOL    HW130863   4.303   1.840   3.832 -2.9981 -0.0085  1.6725
 6409SOL    HW230864   4.431   1.793   3.897  0.0030  2.0062  0.8912
 6410SOL     OW30865   3.701   4.253   8.515 -0.3295 -0.1581  0.0586
 6410SOL    HW130866   3.620   4.305   8.513  0.7126  1.4722 -0.2976
 6410SOL    HW230867   3.759   4.308   8.463 -1.4351  0.8682 -0.1075
 6411SOL     OW30868   2.222   2.473   6.241  0.1388  0.2355  1.0193
 6411SOL    HW130869   2.138   2.471   6.288 -0.5295 -0.9291 -0.2035
 6411SOL    HW230870   2.212   2.560   6.203 -2.1797 -0.2282  0.5231
 6412SOL     OW30871   3.402   0.097   5.066 -0.1971 -0.5085 -0.1027
 6412SOL    HW130872   3.357   0.013   5.065  0.8066 -1.0520  0.7133
 6412SOL    HW230873   3.379   0.125   4.977 -0.3071  0.5086  0.2422
 6413SOL     OW30874   2.998   3.199   8.077  0.4448 -0.2377  0.0938
 6413SOL    HW130875   3.076   3.218   8.131 -0.4341  0.6138  1.0757
 6413SOL    HW230876   3.031   3.220   7.990 -1.9816  0.1194 -0.7150
 6414SOL     OW30877   1.856   4.402   7.425  0.5419 -0.7757 -0.1139
 6414SOL    HW130878   1.787   4.427   7.364 -0.2541 -0.1320  1.0527
 6414SOL    HW230879   1.901   4.487   7.426 -0.5251 -0.2414  2.2116
 6415SOL     OW30880   4.035   4.574   8.551  0.1325 -0.3924  0.5728
 6415SOL    HW130881   4.044   4.485   8.585  0.6279 -0.2380  0.8458
 6415SOL    HW230882   3.992   4.621   8.622  0.3542  0.6434  0.0331
 6416SOL     OW30883   3.604   0.622   0.186  0.5989  0.3986 -0.4526
 6416SOL    HW130884   3.665   0.560   0.226 -0.6643 -1.0826 -0.8472
 6416SOL    HW230885   3.674   0.660   0.133  1.7095 -2.3168 -0.9085
 6417SOL     OW30886   3.817   2.291  13.164  0.1304 -0.0905  0.0728
 6417SOL    HW130887   3.814   2.351  13.089 -1.8670 -0.7811 -0.3873
 6417SOL    HW230888   3.905   2.259  13.142 -0.2333  0.0608 -1.6381
 6418SOL     OW30889   4.637   2.869   9.329  0.0562  0.1832  0.4039
 6418SOL    HW130890   4.561   2.912   9.291 -1.5751 -2.9160  0.1355
 6418SOL    HW230891   4.605   2.825   9.408 -0.5599  0.2300  0.1797
 6419SOL     OW30892   4.120   0.006   7.396 -0.1804 -0.3543 -0.2233
 6419SOL    HW130893   4.210   4.710   7.384 -0.4973 -0.8807 -1.2519
 6419SOL    HW230894   4.080   4.712   7.314  0.2940 -0.3585 -0.4545
 6420SOL     OW30895   0.723   3.594   3.981 -0.0136 -0.1877 -0.5206
 6420SOL    HW130896   0.742   3.675   4.028 -0.4055 -0.3203 -0.1297
 6420SOL    HW230897   0.666   3.625   3.911 -1.6272 -2.5876 -0.2649
 6421SOL     OW30898   1.455   3.107   9.064  0.3169 -0.3615  0.8641
 6421SOL    HW130899   1.419   3.195   9.054  2.3259  0.3445 -0.0482
 6421SOL    HW230900   1.379   3.051   9.049 -1.0168  0.8251  3.0700
 6422SOL     OW30901   3.377   3.320   8.742  0.1019 -0.1225 -0.1974
 6422SOL    HW130902   3.319   3.261   8.790  0.7917 -0.9224 -0.3391
 6422SOL    HW230903   3.416   3.257   8.681  0.2891  1.8415 -2.1076
 6423SOL     OW30904   0.231   2.712   1.900  0.2440  0.1773 -0.0868
 6423SOL    HW130905   0.299   2.661   1.857  0.7763 -1.0744  2.2262
 6423SOL    HW230906   0.274   2.777   1.956 -1.4725  2.7873 -1.7715
 6424SOL     OW30907   2.702   3.125   4.453  0.2853 -0.3580  0.0187
 6424SOL    HW130908   2.766   3.062   4.486  1.8968  1.3498  0.1487
 6424SOL    HW230909   2.748   3.152   4.374 -0.9066 -1.0263 -0.8904
 6425SOL     OW30910   3.089   3.189   8.634 -0.0917  0.1324  0.1961
 6425SOL    HW130911   3.122   3.189   8.724  0.1924 -0.2003  0.0913
 6425SOL    HW230912   3.071   3.096   8.621 -0.6034  0.4378 -1.3372
 6426SOL     OW30913   4.675   0.908  11.653 -0.2385  0.0598  0.0298
 6426SOL    HW130914   4.629   0.979  11.608 -1.4645 -0.5667  0.3055
 6426SOL    HW230915   4.659   0.834  11.594 -0.0617  0.7157 -0.8533
 6427SOL     OW30916   3.831   2.394  15.035  0.4857  0.3623 -0.3824
 6427SOL    HW130917   3.793   2.472  14.996 -1.6397 -0.5755 -0.1686
 6427SOL    HW230918   3.753   2.346  15.061  1.9869 -0.0495  3.4842
 6428SOL     OW30919   1.380   4.700   2.970  0.4301 -0.1870  0.0614
 6428SOL    HW130920   1.389   4.732   2.880 -0.7666 -1.2046 -0.4171
 6428SOL    HW230921   1.287   4.723   2.982 -0.2344 -1.7597 -2.0238
 6429SOL     OW30922   0.310   4.064   2.605 -0.6569  0.0396  0.0434
 6429SOL    HW130923   0.361   4.022   2.536 -0.4688 -2.3575  1.6417
 6429SOL    HW230924   0.376   4.123   2.643 -1.7601  1.7668 -0.7361
 6430SOL     OW30925   1.796   3.322   6.056  0.7249 -0.1321 -0.8573
 6430SOL    HW130926   1.880   3.280   6.038  0.9441 -0.5668  1.2358
 6430SOL    HW230927   1.733   3.261   6.017  0.4792  0.2163 -1.0064
 6431SOL     OW30928   1.046   1.180   8.179  0.8735  0.3727 -0.0057
 6431SOL    HW130929   1.057   1.141   8.265  0.5278 -0.9556 -0.5667
 6431SOL    HW230930   1.040   1.268   8.217 -0.1629  1.0748 -1.7691
 6432SOL     OW30931   2.400   4.123   3.595 -0.2230 -0.1950 -0.9412
 6432SOL    HW130932   2.393   4.180   3.672  2.0872  0.3553 -1.1255
 6432SOL    HW230933   2.335   4.163   3.537 -0.9203 -0.6671 -0.4843
 6433SOL     OW30934   0.291   4.561   9.562 -0.4278 -0.2735 -0.2393
 6433SOL    HW130935   0.351   4.506   9.610  0.7091  1.2905  0.1317
 6433SOL    HW230936   0.224   4.583   9.627  0.4327  1.4785  0.0499
 6434SOL     OW30937   2.658   0.847  17.309  0.4937  0.4689  0.2066
 6434SOL    HW130938   2.613   0.926  17.281 -3.7896 -1.0892  2.7071
 6434SOL    HW230939   2.635   0.826  17.400 -1.7872 -1.9431 -0.9281
 6435SOL     OW30940   4.154   2.870   3.467  0.4888 -0.0965  0.5654
 6435SOL    HW130941   4.115   2.856   3.381 -0.6383 -0.4420  1.1297
 6435SOL    HW230942   4.163   2.778   3.490 -2.8437  0.3423  3.7527
 6436SOL     OW30943   0.588   3.737   3.182 -0.3009  0.0980  0.3864
 6436SOL    HW130944   0.599   3.740   3.087  2.7612  0.0110  0.7372
 6436SOL    HW230945   0.609   3.647   3.205 -1.7231 -0.6270 -1.1878
 6437SOL     OW30946   4.595   0.707   4.647  0.0857 -0.4100  0.0259
 6437SOL    HW130947   4.537   0.702   4.723 -0.7845 -0.3963 -0.6283
 6437SOL    HW230948   4.582   0.802   4.639 -1.6236 -0.4364  2.3527
 6438SOL     OW30949   3.967   4.125   2.848  0.6025 -0.1508  0.1654
 6438SOL    HW130950   3.973   4.031   2.867 -2.3455 -0.1208  1.2664
 6438SOL    HW230951   3.908   4.111   2.774  1.3744 -0.3118 -0.4207
 6439SOL     OW30952   0.499   0.293   5.879 -0.1833 -0.6851 -0.1426
 6439SOL    HW130953   0.427   0.249   5.925 -1.4179 -1.2051 -2.5551
 6439SOL    HW230954   0.461   0.302   5.792  0.5293 -1.3848 -0.5289
 6440SOL     OW30955   3.459   4.730   2.262 -0.4166 -0.0995  0.1337
 6440SOL    HW130956   3.465   0.045   2.344  1.8476 -0.7971  0.3950
 6440SOL    HW230957   3.512   4.652   2.274  1.4853  1.3827  1.4814
 6441SOL     OW30958   4.162   4.041  10.579 -0.2320  0.1194 -0.3213
 6441SOL    HW130959   4.200   3.954  10.566 -0.9625 -0.4723  1.5077
 6441SOL    HW230960   4.242   4.092  10.588 -0.7639  0.7358  0.9192
 6442SOL     OW30961   2.176   2.584   2.398  0.2169 -0.5497  0.2014
 6442SOL    HW130962   2.249   2.628   2.443  1.6772 -2.2705 -0.4738
 6442SOL    HW230963   2.224   2.542   2.327  0.3204  1.0806 -0.6801
 6443SOL     OW30964   2.044   4.392   2.518  0.2461  0.1571 -0.1098
 6443SOL    HW130965   2.075   4.464   2.572 -1.8491  1.2967 -0.4600
 6443SOL    HW230966   2.010   4.444   2.445 -0.2182 -1.7503 -1.2675
 6444SOL     OW30967   0.115   1.701  13.197 -0.4657 -0.1214 -0.9125
 6444SOL    HW130968   0.143   1.612  13.218 -0.4048  0.4502  1.4845
 6444SOL    HW230969   0.027   1.687  13.162 -1.6635 -4.2163  3.6181
 6445SOL     OW30970   3.305   3.808   8.753  0.1087  0.6118 -0.5153
 6445SOL    HW130971   3.392   3.770   8.738  0.4548  0.1623  2.6657
 6445SOL    HW230972   3.248   3.782   8.681 -1.1432 -1.0534  1.1023
 6446SOL     OW30973   0.924   1.360  12.555  0.5218 -0.2319 -0.2103
 6446SOL    HW130974   0.978   1.416  12.499 -2.0445  1.0333 -1.4256
 6446SOL    HW230975   0.894   1.420  12.623 -0.0061 -0.1076 -0.5553
 6447SOL     OW30976   1.011   4.573   1.512  0.3536 -0.7439  0.0920
 6447SOL    HW130977   1.038   4.511   1.445 -2.0776 -2.4768  0.7060
 6447SOL    HW230978   1.082   4.635   1.499 -1.1997  0.6995 -1.5776
 6448SOL     OW30979   1.305   3.711  13.613 -0.1539 -0.4431  0.3788
 6448SOL    HW130980   1.354   3.787  13.580 -1.4988 -0.1240 -0.8921
 6448SOL    HW230981   1.332   3.713  13.704  2.9814  0.6746 -0.6023
 6449SOL     OW30982   1.104   4.077   5.911  0.6116 -0.3712  0.3144
 6449SOL    HW130983   1.124   4.001   5.856  1.1537  0.5153 -0.7099
 6449SOL    HW230984   1.092   4.037   5.997  0.5850 -0.6072  0.2011
 6450SOL     OW30985   3.896   3.345  17.445  0.2541 -0.4233 -0.6023
 6450SOL    HW130986   3.978   3.324  17.400 -0.3074  0.8148 -2.2209
 6450SOL    HW230987   3.901   3.440  17.460 -1.8085  0.2421 -4.1161
 6451SOL     OW30988   3.738   1.294  16.959 -0.9400 -0.6477 -0.1625
 6451SOL    HW130989   3.677   1.295  17.033 -0.2464  0.4654  0.3957
 6451SOL    HW230990   3.795   1.221  16.985 -0.9274 -1.4665 -2.4758
 6452SOL     OW30991   1.339   4.357  15.702  0.2407  0.6122  0.7145
 6452SOL    HW130992   1.266   4.362  15.764  0.8903 -1.7672  1.6743
 6452SOL    HW230993   1.342   4.445  15.664 -1.1368  0.6277  0.6434
 6453SOL     OW30994   3.604   4.140   8.764 -0.1986 -0.0386 -0.2869
 6453SOL    HW130995   3.633   4.067   8.709  1.9459 -0.8388  1.8890
 6453SOL    HW230996   3.509   4.142   8.752  0.1319  1.3704 -2.6912
 6454SOL     OW30997   2.990   2.967   9.275 -0.8042  0.4301  0.1185
 6454SOL    HW130998   2.911   2.915   9.283  0.0150 -0.7486  0.5298
 6454SOL    HW230999   3.057   2.900   9.258 -1.4715  0.5763 -3.0212
 6455SOL     OW31000   3.356   3.927   5.597 -0.5715  0.2074 -0.4617
 6455SOL    HW131001   3.355   3.831   5.600  1.2612  0.0864 -2.7692
 6455SOL    HW231002   3.426   3.947   5.660 -0.2106  1.9203 -1.4127
 6456SOL     OW31003   0.092   1.898   5.473 -0.6068  0.0325  0.0506
 6456SOL    HW131004   0.038   1.871   5.398  0.6833  0.8467 -1.1668
 6456SOL    HW231005   0.046   1.975   5.506  0.3049  1.1830 -1.4001
 6457SOL     OW31006   2.370   3.774   2.481  0.0353  0.4485 -0.2302
 6457SOL    HW131007   2.302   3.824   2.527 -0.6733 -2.6159  2.0628
 6457SOL    HW231008   2.326   3.692   2.462 -0.8228  0.9957 -0.6141
 6458SOL     OW31009   0.977   3.704   7.056 -0.5300 -0.0555  0.5520
 6458SOL    HW131010   0.991   3.745   6.970 -0.5085 -1.9700 -0.3486
 6458SOL    HW231011   1.026   3.622   7.058 -2.2470 -1.1091  0.1525
 6459SOL     OW31012   0.321   1.254  14.756  0.3636  0.5833  0.4539
 6459SOL    HW131013   0.336   1.340  14.718 -0.9778  0.4008 -0.5090
 6459SOL    HW231014   0.352   1.202  14.682 -1.0601  1.1455 -0.5406
 6460SOL     OW31015   3.451   0.456   3.574  0.7000  0.1679  0.5852
 6460SOL    HW131016   3.365   0.461   3.617 -0.1358 -0.7644 -0.9475
 6460SOL    HW231017   3.511   0.400   3.623  0.1301 -2.7945 -2.0890
 6461SOL     OW31018   0.422   3.029  12.082  0.1069  0.4195  0.0073
 6461SOL    HW131019   0.333   2.997  12.100 -0.1309  1.0597 -0.0337
 6461SOL    HW231020   0.473   2.955  12.113 -1.4443  0.2508  2.1950
 6462SOL     OW31021   2.391   1.303  15.317 -0.5223  0.1064 -0.6734
 6462SOL    HW131022   2.354   1.232  15.264 -0.8728  0.7158 -1.2325
 6462SOL    HW231023   2.352   1.281  15.402  3.6012 -2.3241  0.6072
 6463SOL     OW31024   1.652   3.171   7.930  0.4377 -0.1456 -0.1451
 6463SOL    HW131025   1.608   3.122   7.860 -0.9970  2.6185 -1.1558
 6463SOL    HW231026   1.610   3.127   8.004 -1.1206 -0.1154 -1.0170
 6464SOL     OW31027   1.032   0.082   5.832  0.0124  0.5383 -0.0846
 6464SOL    HW131028   0.995   0.113   5.749  0.6553 -1.3063 -1.0704
 6464SOL    HW231029   1.077   4.735   5.814  0.8634  0.8454  0.6497
 6465SOL     OW31030   2.728   4.633   1.809 -0.3512 -0.1231 -0.2997
 6465SOL    HW131031   2.804   4.686   1.784  0.0773 -1.8228 -2.6629
 6465SOL    HW231032   2.653   4.681   1.773 -1.4991 -2.5443 -1.1229
 6466SOL     OW31033   3.082   0.867  12.865 -0.2604 -0.2608 -0.0836
 6466SOL    HW131034   2.997   0.898  12.837  0.8345 -0.0819 -3.1498
 6466SOL    HW231035   3.061   0.824  12.948 -0.3542  0.9247  0.5081
 6467SOL     OW31036   0.771   3.679   9.307 -0.3146 -0.0807 -0.3461
 6467SOL    HW131037   0.716   3.601   9.301 -0.4181 -0.0343 -0.0127
 6467SOL    HW231038   0.841   3.653   9.248  0.0135  0.8083 -0.3468
 6468SOL     OW31039   1.223   4.096   9.503  0.0736  0.0338  1.0096
 6468SOL    HW131040   1.141   4.096   9.553 -1.1339 -0.5726 -0.9421
 6468SOL    HW231041   1.192   4.096   9.412  1.5249 -1.8189  0.5327
 6469SOL     OW31042   1.442   1.818   4.697 -0.0005  0.2596 -0.2317
 6469SOL    HW131043   1.347   1.824   4.705 -0.2965 -0.5401 -3.0886
 6469SOL    HW231044   1.469   1.909   4.703  1.0863 -0.0961  0.2474
 6470SOL     OW31045   2.056   1.946   9.786  0.1835  0.3284  1.0033
 6470SOL    HW131046   2.096   1.875   9.836  0.2274 -1.1696 -1.1367
 6470SOL    HW231047   2.099   2.020   9.827  0.7184  0.2216  0.6329
 6471SOL     OW31048   1.559   2.283  16.726  0.2585  0.4804  0.2033
 6471SOL    HW131049   1.525   2.221  16.661 -0.0650  1.7535 -0.8657
 6471SOL    HW231050   1.486   2.275  16.787  0.1255 -1.4623 -0.2006
 6472SOL     OW31051   1.510   0.243  10.639 -0.2297 -0.3384  0.5219
 6472SOL    HW131052   1.464   0.323  10.613  1.1033 -0.0864 -1.0807
 6472SOL    HW231053   1.435   0.212  10.690 -0.2297 -2.5289 -0.8028
 6473SOL     OW31054   2.812   0.576  12.975  0.5723 -0.4427 -0.5104
 6473SOL    HW131055   2.867   0.648  13.006  1.8865 -1.5100 -0.4057
 6473SOL    HW231056   2.736   0.571  13.033 -0.6773 -0.7138 -2.1813
 6474SOL     OW31057   2.289   2.183   6.698 -0.1197  0.2176 -0.3402
 6474SOL    HW131058   2.377   2.222   6.700 -0.2159  0.4479 -0.6115
 6474SOL    HW231059   2.270   2.177   6.791 -0.0525  2.1373 -0.2114
 6475SOL     OW31060   3.770   1.974  13.453  0.0277 -0.5298 -0.1389
 6475SOL    HW131061   3.705   2.038  13.423  1.5940  0.9042 -0.4264
 6475SOL    HW231062   3.854   2.016  13.435 -0.5501 -0.0868 -1.7756
 6476SOL     OW31063   3.736   1.210  13.046  0.5326  0.1647 -0.4312
 6476SOL    HW131064   3.681   1.218  12.968 -0.7388  2.8841  0.7453
 6476SOL    HW231065   3.819   1.177  13.011  0.5969  0.7359 -0.8190
 6477SOL     OW31066   0.450   2.832   6.120 -0.0361  0.3849  0.2328
 6477SOL    HW131067   0.526   2.828   6.062  1.6429 -3.1814  2.6405
 6477SOL    HW231068   0.492   2.854   6.204  1.6901 -0.3735 -0.4433
 6478SOL     OW31069   3.972   2.379   8.509 -0.5754  0.1051  0.2187
 6478SOL    HW131070   4.011   2.434   8.440 -1.1597 -0.2576 -0.3944
 6478SOL    HW231071   4.039   2.381   8.578 -0.5585  0.8352  0.1804
 6479SOL     OW31072   2.632   0.896   4.741 -0.7003  0.6817  0.4188
 6479SOL    HW131073   2.541   0.924   4.730 -0.9178 -1.0692 -2.2761
 6479SOL    HW231074   2.668   0.985   4.742 -2.4713  1.3844  0.3167
 6480SOL     OW31075   2.716   4.225  14.947  0.1024 -0.7497 -0.2237
 6480SOL    HW131076   2.785   4.158  14.949  0.6652 -0.1483  0.7202
 6480SOL    HW231077   2.759   4.296  14.900 -0.8676 -0.2531 -0.3532
 6481SOL     OW31078   0.950   1.819   1.806  0.1611 -0.1264  0.7425
 6481SOL    HW131079   1.009   1.828   1.731 -1.4133 -0.0167 -0.4831
 6481SOL    HW231080   0.969   1.901   1.852 -0.1303 -0.2286  1.0452
 6482SOL     OW31081   3.131   2.072   4.592 -0.0413 -0.1185  0.0613
 6482SOL    HW131082   3.158   2.163   4.607  1.4798 -0.7304  1.0227
 6482SOL    HW231083   3.195   2.042   4.529  1.9110  3.4891  0.3324
 6483SOL     OW31084   4.135   3.306   3.943 -0.3852  0.4619  0.3545
 6483SOL    HW131085   4.062   3.340   3.994 -0.7689  0.8705 -0.4561
 6483SOL    HW231086   4.106   3.303   3.851  1.8145 -1.2562 -0.2989
 6484SOL     OW31087   2.837   4.688   9.540  0.3835  0.4659 -0.1595
 6484SOL    HW131088   2.780   4.629   9.491 -0.2831 -0.7901  2.1385
 6484SOL    HW231089   2.867   0.018   9.477 -0.4096 -0.1112 -1.1310
 6485SOL     OW31090   0.241   2.669   5.279 -0.2169 -0.0383 -0.6750
 6485SOL    HW131091   0.158   2.624   5.298  0.1788 -1.2497 -1.8824
 6485SOL    HW231092   0.251   2.642   5.188  0.4106 -1.4267 -0.1938
 6486SOL     OW31093   4.477   3.911   5.809  0.0902  0.1241  0.2812
 6486SOL    HW131094   4.532   3.836   5.785  0.5561  0.5227  0.1194
 6486SOL    HW231095   4.542   3.980   5.815 -0.6064  0.7958  0.0335
 6487SOL     OW31096   0.284   0.331   1.928 -0.3632 -0.1429 -0.4302
 6487SOL    HW131097   0.221   0.347   1.999  0.8909 -0.2632  0.7144
 6487SOL    HW231098   0.329   0.253   1.961  0.5102  0.0039 -1.2846
 6488SOL     OW31099   1.371   1.372   6.019  0.1085 -0.4287  0.4676
 6488SOL    HW131100   1.408   1.413   5.940 -1.2553 -0.6441 -0.2777
 6488SOL    HW231101   1.450   1.350   6.068  1.7916  1.0934 -1.5184
 6489SOL     OW31102   2.806   2.615   7.664 -0.1581 -0.1937  0.0039
 6489SOL    HW131103   2.805   2.708   7.688 -1.0128  0.0711 -1.0348
 6489SOL    HW231104   2.897   2.591   7.681 -0.1818 -0.2033  0.1136
 6490SOL     OW31105   3.854   2.793   5.891 -0.8037 -0.2433  0.2402
 6490SOL    HW131106   3.782   2.838   5.935  0.0528  1.7244 -0.3848
 6490SOL    HW231107   3.868   2.856   5.821  0.5717  2.1463  2.6838
 6491SOL     OW31108   4.523   2.244   4.216 -0.7379  0.2963  0.0562
 6491SOL    HW131109   4.599   2.205   4.258 -0.5553  0.5857 -0.0097
 6491SOL    HW231110   4.529   2.218   4.125  1.1868  0.7896  0.0607
 6492SOL     OW31111   1.447   3.672   2.748 -0.1410 -0.0525 -0.1983
 6492SOL    HW131112   1.530   3.686   2.793 -0.0391  2.4028 -1.1307
 6492SOL    HW231113   1.457   3.755   2.701  0.2354  0.9691  1.6807
 6493SOL     OW31114   1.452   2.303  14.703  0.2091 -0.4130  1.1304
 6493SOL    HW131115   1.384   2.315  14.769 -1.9265 -2.1096 -0.7757
 6493SOL    HW231116   1.526   2.355  14.735  0.2908 -0.9099  1.7672
 6494SOL     OW31117   4.622   2.784   9.573  0.4557 -0.1839 -0.7840
 6494SOL    HW131118   4.707   2.754   9.605  0.2564 -0.9215 -0.9520
 6494SOL    HW231119   4.593   2.834   9.650  1.4540  0.5694 -0.8972
 6495SOL     OW31120   1.994   2.708   2.682 -0.6686  0.4642 -0.1466
 6495SOL    HW131121   2.087   2.731   2.691 -0.2679 -1.2287  0.0704
 6495SOL    HW231122   1.955   2.788   2.646 -0.8004 -0.2458 -1.6230
 6496SOL     OW31123   2.863   2.657   4.262 -0.0821  0.4020  0.6710
 6496SOL    HW131124   2.828   2.612   4.185  0.0448 -1.4829  1.7038
 6496SOL    HW231125   2.893   2.587   4.321  0.0749  0.0950  0.2326
 6497SOL     OW31126   3.322   1.419   2.165 -0.5456  0.1742  0.0492
 6497SOL    HW131127   3.233   1.385   2.159 -0.5342 -0.1450  1.8159
 6497SOL    HW231128   3.350   1.401   2.075  0.1127  0.5550  0.1763
 6498SOL     OW31129   4.598   2.758  12.445  0.7167 -0.9855  0.3774
 6498SOL    HW131130   4.665   2.727  12.506 -0.2783 -1.4344  1.2331
 6498SOL    HW231131   4.637   2.834  12.401 -1.7655  0.3737  0.5267
 6499SOL     OW31132   3.357   4.562  17.556 -0.0996  0.1372 -0.2762
 6499SOL    HW131133   3.293   4.631  17.575  1.3055  0.9141  1.5656
 6499SOL    HW231134   3.423   4.611  17.506  0.0366  0.6099  0.3666
 6500SOL     OW31135   0.413   4.397   3.228 -0.1873 -0.3854 -0.4634
 6500SOL    HW131136   0.323   4.376   3.202 -0.0014 -0.8523 -0.7354
 6500SOL    HW231137   0.429   4.470   3.168  1.8631 -0.5859 -0.1609
 6501SOL     OW31138   2.525   1.570   6.180 -0.2460 -0.1374  0.3681
 6501SOL    HW131139   2.478   1.508   6.235  0.5716 -0.0092  1.2144
 6501SOL    HW231140   2.500   1.651   6.225  0.0119 -1.3554  2.6864
 6502SOL     OW31141   0.274   2.370   9.355 -0.0422 -0.0604 -0.0166
 6502SOL    HW131142   0.219   2.441   9.386 -2.0692 -2.7292  2.4512
 6502SOL    HW231143   0.297   2.326   9.437 -0.8566 -0.0240  0.2253
 6503SOL     OW31144   1.901   1.207   0.243 -0.2690 -0.0778  0.3403
 6503SOL    HW131145   1.843   1.131   0.241  0.4677 -0.6399  0.1290
 6503SOL    HW231146   1.985   1.173   0.212  0.7902  1.8086  1.1762
 6504SOL     OW31147   2.576   0.083   6.532  0.3430  0.2259  0.2479
 6504SOL    HW131148   2.665   0.055   6.553  0.4591 -0.4370 -1.1055
 6504SOL    HW231149   2.594   0.167   6.491  0.0414  1.3227  2.3519
 6505SOL     OW31150   1.103   3.820   6.568  0.1882  0.7371 -0.4417
 6505SOL    HW131151   1.117   3.729   6.543 -1.6253  0.0044  1.2640
 6505SOL    HW231152   1.077   3.806   6.659  1.1638 -0.4073 -0.3374
 6506SOL     OW31153   3.173   3.835   3.934 -0.3435  0.7121  0.0333
 6506SOL    HW131154   3.115   3.758   3.933  2.5520 -1.5026  1.4461
 6506SOL    HW231155   3.113   3.903   3.963 -0.0176  0.8622  0.3522
 6507SOL     OW31156   1.473   3.871  12.800 -0.6013 -0.0198  0.2090
 6507SOL    HW131157   1.497   3.837  12.886 -1.9368  0.7007  0.8698
 6507SOL    HW231158   1.559   3.862  12.761 -0.1851 -0.2262  1.1790
 6508SOL     OW31159   4.003   3.062   9.732  0.3597 -0.7569 -0.0489
 6508SOL    HW131160   3.975   2.981   9.690  1.0608 -0.7585 -0.5054
 6508SOL    HW231161   3.996   3.040   9.825  3.6581 -2.0745 -0.1228
 6509SOL     OW31162   2.113   3.900   9.408  0.5989  1.0259  0.1246
 6509SOL    HW131163   2.032   3.940   9.376  0.4770  0.1760 -0.5917
 6509SOL    HW231164   2.076   3.812   9.406  0.7814  0.9865 -1.4733
 6510SOL     OW31165   3.773   3.327   3.606 -0.1882 -0.1473 -0.0259
 6510SOL    HW131166   3.777   3.273   3.527  0.0046  1.3128 -1.0194
 6510SOL    HW231167   3.857   3.309   3.648  0.3583 -1.4041 -1.6557
 6511SOL     OW31168   0.644   0.472   1.614  0.3510  0.0158  0.3233
 6511SOL    HW131169   0.594   0.537   1.566 -0.2303 -0.0141  0.8774
 6511SOL    HW231170   0.580   0.404   1.637 -0.0183  0.9346  2.0186
 6512SOL     OW31171   1.820   2.286   4.739 -0.3530 -0.4129 -0.1257
 6512SOL    HW131172   1.726   2.278   4.756 -0.3327 -0.0493  0.1665
 6512SOL    HW231173   1.821   2.379   4.716  1.9697 -0.4394 -0.1294
 6513SOL     OW31174   4.386   4.175   8.890 -0.6375 -0.2072  0.4307
 6513SOL    HW131175   4.389   4.249   8.951 -2.3800 -0.9384  1.3951
 6513SOL    HW231176   4.417   4.215   8.808  1.7653 -1.6486  0.6342
 6514SOL     OW31177   4.480   3.811   7.917 -0.0321 -0.1459  0.8058
 6514SOL    HW131178   4.553   3.816   7.979 -0.9000 -1.1525  1.9265
 6514SOL    HW231179   4.427   3.866   7.974 -0.9291 -0.9778  0.7713
 6515SOL     OW31180   4.261   3.254   1.281 -0.5914 -0.0349  0.0914
 6515SOL    HW131181   4.343   3.207   1.272 -1.5986 -1.7631 -0.0164
 6515SOL    HW231182   4.217   3.225   1.360  0.6715 -3.4126 -0.4613
 6516SOL     OW31183   0.241   0.567   6.887 -0.3651 -0.3129  0.4119
 6516SOL    HW131184   0.287   0.514   6.952  0.5980 -0.6280 -0.5492
 6516SOL    HW231185   0.309   0.614   6.841 -0.8043  0.7750  0.8646
 6517SOL     OW31186   0.223   2.886   8.363 -0.1305  0.7713  0.0062
 6517SOL    HW131187   0.263   2.938   8.433  1.3132 -0.9224  0.4576
 6517SOL    HW231188   0.169   2.834   8.423  1.0605 -0.6830 -0.1788
 6518SOL     OW31189   3.423   1.036   5.697  0.0910 -0.6369  0.2981
 6518SOL    HW131190   3.426   1.117   5.748  0.5620 -0.4313 -0.0611
 6518SOL    HW231191   3.333   1.008   5.717 -0.2984 -0.5595 -1.3133
 6519SOL     OW31192   1.632   3.131  16.901  0.8109 -0.3701  0.3699
 6519SOL    HW131193   1.579   3.192  16.953  1.2602 -2.0523  2.7981
 6519SOL    HW231194   1.596   3.160  16.818 -0.7475 -0.7258  0.9199
 6520SOL     OW31195   4.097   1.174   3.141 -0.2178 -0.1387 -0.7254
 6520SOL    HW131196   4.177   1.161   3.090 -0.3642  0.0792 -1.0149
 6520SOL    HW231197   4.127   1.178   3.231  1.6590  2.2337 -1.4795
 6521SOL     OW31198   4.376   3.873   4.107 -0.0447 -0.3307 -0.3050
 6521SOL    HW131199   4.393   3.968   4.108 -2.5950  0.1722 -2.9173
 6521SOL    HW231200   4.405   3.840   4.192 -1.2011  1.2258  0.7184
 6522SOL     OW31201   4.332   1.111  14.346 -0.1132 -0.1135 -0.1295
 6522SOL    HW131202   4.350   1.179  14.282 -0.4783  1.3557  1.3407
 6522SOL    HW231203   4.417   1.068  14.348  0.5531  1.2887  1.6387
 6523SOL     OW31204   3.437   1.938   7.504 -0.0022  0.0209  0.0623
 6523SOL    HW131205   3.486   2.020   7.504  1.3996 -0.8365 -3.5872
 6523SOL    HW231206   3.469   1.893   7.426 -0.5336  2.4789 -1.5732
 6524SOL     OW31207   1.342   0.649   0.471 -0.2362 -0.2847 -0.7850
 6524SOL    HW131208   1.303   0.582   0.416 -1.9291  0.2250 -0.2156
 6524SOL    HW231209   1.285   0.724   0.455 -3.2054 -2.5163 -0.7010
 6525SOL     OW31210   1.769   4.253   3.244  0.3757  0.7167  0.1951
 6525SOL    HW131211   1.808   4.320   3.300 -0.3427  0.9921  0.3609
 6525SOL    HW231212   1.729   4.315   3.183  0.8225  0.9401  0.1239
 6526SOL     OW31213   3.621   1.357  16.715 -0.7982  0.3309  0.1180
 6526SOL    HW131214   3.664   1.324  16.794  2.2616  2.2077 -0.7672
 6526SOL    HW231215   3.537   1.314  16.731 -0.9904 -0.4859 -2.9938
 6527SOL     OW31216   1.404   4.088   7.802 -0.0564 -0.1037  0.2601
 6527SOL    HW131217   1.494   4.057   7.798 -0.6586 -1.8196  0.2917
 6527SOL    HW231218   1.411   4.184   7.797  0.0402 -0.1697 -0.8694
 6528SOL     OW31219   3.377   1.919  13.328 -0.1658 -0.2741  0.7617
 6528SOL    HW131220   3.330   1.965  13.258  2.5162 -0.3336 -1.0561
 6528SOL    HW231221   3.405   1.989  13.387  1.2100 -1.6073  1.6918
 6529SOL     OW31222   4.378   0.765  12.376 -0.7899  0.0717  0.5438
 6529SOL    HW131223   4.342   0.783  12.290 -0.0517 -0.1208  0.1982
 6529SOL    HW231224   4.315   0.803  12.438  1.2163 -1.8178  3.7808
 6530SOL     OW31225   0.635   2.507   2.233 -0.4534  0.1558 -0.1527
 6530SOL    HW131226   0.729   2.508   2.216 -0.3395 -0.9835  0.4080
 6530SOL    HW231227   0.609   2.420   2.200  0.6621 -0.3486  0.3008
 6531SOL     OW31228   2.427   2.611  10.384 -1.2459 -0.3121  0.3329
 6531SOL    HW131229   2.386   2.532  10.418 -2.0077 -0.6836 -1.4162
 6531SOL    HW231230   2.506   2.573  10.346 -3.1795 -0.4779 -3.5997
 6532SOL     OW31231   2.913   1.411  10.496  0.6658  0.3498 -0.0315
 6532SOL    HW131232   2.921   1.506  10.493 -1.6132  0.4878 -1.5608
 6532SOL    HW231233   2.971   1.378  10.565  0.2166  0.0418  0.1941
 6533SOL     OW31234   3.459   2.915   2.481 -0.3183 -0.0183 -0.3320
 6533SOL    HW131235   3.405   2.846   2.442 -0.0184  0.3173 -1.3670
 6533SOL    HW231236   3.545   2.900   2.442  0.5035 -0.0691  1.5143
 6534SOL     OW31237   0.519   3.334   3.954 -0.1518 -0.5690  0.3312
 6534SOL    HW131238   0.517   3.252   3.906 -2.5668  0.1407 -0.7876
 6534SOL    HW231239   0.586   3.319   4.021  0.1825  0.9805  0.3472
 6535SOL     OW31240   1.099   3.889   8.766  0.1967 -1.1609 -0.0543
 6535SOL    HW131241   1.031   3.903   8.699  1.6478  2.2038 -0.8388
 6535SOL    HW231242   1.048   3.827   8.819  0.9202 -1.0643  0.7416
 6536SOL     OW31243   0.485   2.264   3.097 -0.2017 -0.4449  0.3545
 6536SOL    HW131244   0.463   2.236   3.186  1.5925 -1.7230  0.4023
 6536SOL    HW231245   0.414   2.323   3.070 -0.2475 -0.5930  0.1502
 6537SOL     OW31246   0.655   1.126   3.053 -0.3030 -1.0803  0.3117
 6537SOL    HW131247   0.632   1.108   3.144  1.3946 -1.4745  0.6697
 6537SOL    HW231248   0.691   1.214   3.057 -2.2884 -0.1465 -2.0267
 6538SOL     OW31249   3.985   3.283   2.719 -0.1921 -0.1667 -0.4345
 6538SOL    HW131250   4.003   3.369   2.681 -0.6232  0.1234  0.0156
 6538SOL    HW231251   3.890   3.272   2.719 -0.1062 -0.9394 -1.0980
 6539SOL     OW31252   1.624   3.028  15.364  1.0049  0.1637 -0.4411
 6539SOL    HW131253   1.671   3.012  15.445  1.3369  0.9761 -0.4706
 6539SOL    HW231254   1.687   3.076  15.309  1.2435  0.3884  0.0318
 6540SOL     OW31255   1.042   1.854   1.509 -0.1219  0.1815  0.1591
 6540SOL    HW131256   1.125   1.875   1.551 -2.0243  0.3252  3.8642
 6540SOL    HW231257   1.062   1.900   1.427  0.3980 -2.6651 -1.2998
 6541SOL     OW31258   0.294   0.509   4.562  0.2797 -0.5990 -0.4127
 6541SOL    HW131259   0.199   0.524   4.562  0.2300 -0.6933  4.5241
 6541SOL    HW231260   0.308   0.459   4.482  0.7818 -1.6887  0.3700
 6542SOL     OW31261   0.825   2.854   3.460 -0.7284  0.3383 -0.8531
 6542SOL    HW131262   0.777   2.772   3.446  0.6802 -1.0398  2.3840
 6542SOL    HW231263   0.913   2.825   3.483  0.3836  2.3068 -2.6413
 6543SOL     OW31264   3.929   4.418   3.763  0.1465  0.6681  0.7210
 6543SOL    HW131265   3.953   4.402   3.855 -0.7672 -1.2407  0.6272
 6543SOL    HW231266   4.018   4.408   3.727 -0.1619  0.4799  0.0107
 6544SOL     OW31267   1.811   0.394  17.556  0.5498  0.7661 -0.2509
 6544SOL    HW131268   1.750   0.321  17.564 -0.7690  1.7929 -0.9042
 6544SOL    HW231269   1.848   0.394  17.644  0.1172 -0.1289 -0.0695
 6545SOL     OW31270   3.059   1.903  13.083 -0.1167  0.5516  0.0793
 6545SOL    HW131271   3.004   1.924  13.158 -1.3197 -2.4477  0.0492
 6545SOL    HW231272   3.016   1.820  13.059 -0.3373  0.2412  1.5403
 6546SOL     OW31273   0.781   2.911   6.676 -0.1886 -0.0959 -0.1954
 6546SOL    HW131274   0.688   2.926   6.659 -0.2938  1.0457  1.4804
 6546SOL    HW231275   0.796   2.964   6.754  1.4081  0.0436 -0.5947
 6547SOL     OW31276   2.847   1.676   8.030  0.3820 -0.4715 -0.0781
 6547SOL    HW131277   2.769   1.637   7.991  0.0232  0.0556  0.1285
 6547SOL    HW231278   2.891   1.704   7.949  0.2602 -1.7444 -0.5844
 6548SOL     OW31279   2.683   4.696   3.826  0.9604  0.3292 -0.2986
 6548SOL    HW131280   2.697   4.644   3.747 -0.1244 -0.4268  0.0177
 6548SOL    HW231281   2.701   4.640   3.901  0.8176  1.9879  0.9905
 6549SOL     OW31282   3.711   2.536   7.990  0.0927 -0.1566  0.5529
 6549SOL    HW131283   3.791   2.484   7.993  1.3942  1.8020  0.0561
 6549SOL    HW231284   3.709   2.547   7.895  3.8891  1.5545  0.6738
 6550SOL     OW31285   4.114   4.186   8.140 -0.0165 -0.3405 -0.4815
 6550SOL    HW131286   4.133   4.098   8.107  2.0292  1.4307 -3.9554
 6550SOL    HW231287   4.163   4.239   8.077 -0.9152  0.3647 -0.5791
 6551SOL     OW31288   3.444   0.260  10.728  0.0225  0.3019  0.2701
 6551SOL    HW131289   3.412   0.300  10.647  0.0458  0.5206  0.3689
 6551SOL    HW231290   3.393   0.181  10.745  1.4159 -1.0723 -2.0305
 6552SOL     OW31291   0.691   4.233   8.229  0.0061 -0.4805  0.3705
 6552SOL    HW131292   0.622   4.168   8.220  0.9325 -1.1569 -1.7978
 6552SOL    HW231293   0.747   4.172   8.181  0.6084  0.3798 -0.0408
 6553SOL     OW31294   2.594   1.018  14.260 -0.5874 -0.6626  0.4526
 6553SOL    HW131295   2.670   1.035  14.205 -1.4221  1.9900  0.1048
 6553SOL    HW231296   2.632   1.004  14.346 -0.8375 -0.9234  0.5199
 6554SOL     OW31297   3.195   3.650   5.531 -0.4302 -0.1062  0.1755
 6554SOL    HW131298   3.173   3.640   5.624 -0.0530 -0.0608  0.2702
 6554SOL    HW231299   3.133   3.719   5.508 -0.4810 -1.2714 -3.0851
 6555SOL     OW31300   0.929   4.479   1.051 -0.5701  0.2283 -0.4143
 6555SOL    HW131301   0.873   4.553   1.078 -2.3066 -0.8794 -0.9673
 6555SOL    HW231302   0.958   4.441   1.134 -1.1980 -2.2309 -1.3247
 6556SOL     OW31303   2.196   4.697   3.969 -0.6101 -0.3363 -0.4401
 6556SOL    HW131304   2.232   4.618   4.010  0.2072 -0.9449 -2.3304
 6556SOL    HW231305   2.176   4.662   3.882 -2.1572  1.5022 -0.8275
 6557SOL     OW31306   3.589   2.862   7.069  0.1974 -0.1414  0.0069
 6557SOL    HW131307   3.500   2.880   7.101  0.1652 -1.7548  0.8384
 6557SOL    HW231308   3.578   2.767   7.065  0.5336 -0.2628  2.1460
 6558SOL     OW31309   3.593   1.546   5.237 -0.1292  0.2777  0.2783
 6558SOL    HW131310   3.529   1.500   5.184 -0.6718  0.2574  0.9511
 6558SOL    HW231311   3.593   1.480   5.306  1.5187  1.3225  1.2842
 6559SOL     OW31312   3.464   0.633   6.638  0.1337  0.4500 -0.1198
 6559SOL    HW131313   3.486   0.706   6.694 -2.4064  0.2867  1.0833
 6559SOL    HW231314   3.376   0.619   6.673  0.1673  1.1790  0.2526
 6560SOL     OW31315   0.753   3.022   2.741 -0.3161 -0.2327 -0.6790
 6560SOL    HW131316   0.673   2.971   2.739 -0.9947  0.8005  0.0951
 6560SOL    HW231317   0.819   2.955   2.722 -2.4592 -2.3181 -0.7535
 6561SOL     OW31318   2.667   0.977   5.506  0.0526 -0.3031 -0.2652
 6561SOL    HW131319   2.675   1.063   5.465 -0.2437  0.4052  1.1659
 6561SOL    HW231320   2.692   0.923   5.431  0.3109 -0.2824 -0.1954
 6562SOL     OW31321   4.449   1.424   7.757  0.4973  0.2053  0.0392
 6562SOL    HW131322   4.534   1.400   7.794  0.6321 -0.7812 -0.8977
 6562SOL    HW231323   4.392   1.413   7.833 -1.7429  4.1676 -1.0979
 6563SOL     OW31324   1.818   2.924   8.729  0.0204 -0.3605 -0.3218
 6563SOL    HW131325   1.864   2.920   8.813 -0.6420  0.3609  0.0686
 6563SOL    HW231326   1.785   2.834   8.728 -0.9040 -0.0323  1.4480
 6564SOL     OW31327   2.092   1.082   3.296  0.2643 -0.1082 -0.3353
 6564SOL    HW131328   2.062   1.112   3.382 -2.5635 -1.6067 -0.8148
 6564SOL    HW231329   2.185   1.100   3.312  0.1108  0.3199  0.0621
 6565SOL     OW31330   1.691   0.525  10.457 -0.3581  0.5005 -0.7433
 6565SOL    HW131331   1.776   0.568  10.446  0.4060 -0.2891  1.8776
 6565SOL    HW231332   1.637   0.594  10.494 -1.3001 -0.5751 -0.0923
 6566SOL     OW31333   1.263   2.950  14.733  0.1098 -0.2057 -0.1797
 6566SOL    HW131334   1.204   2.885  14.771  3.1565 -2.5934  0.4764
 6566SOL    HW231335   1.217   2.971  14.652  1.5980 -0.5583 -1.1228
 6567SOL     OW31336   1.259   3.710   2.940 -0.3036 -0.6165 -0.4082
 6567SOL    HW131337   1.335   3.680   2.890  0.6946  1.2350 -0.0110
 6567SOL    HW231338   1.301   3.769   3.003 -1.2238  1.6275 -1.9057
 6568SOL     OW31339   1.538   1.073   1.946 -0.2808 -0.1106  0.0068
 6568SOL    HW131340   1.489   1.101   1.868 -0.2611 -2.6451 -0.8978
 6568SOL    HW231341   1.619   1.030   1.919 -1.2390 -0.8937 -1.5870
 6569SOL     OW31342   2.334   2.158   0.040 -0.3737  0.3244  0.0364
 6569SOL    HW131343   2.313   2.198  17.695 -2.2715 -2.2357 -0.7117
 6569SOL    HW231344   2.253   2.176   0.087 -1.0478 -2.1014 -0.1615
 6570SOL     OW31345   2.015   0.499  13.349  0.0945  0.2477 -0.2842
 6570SOL    HW131346   2.109   0.504  13.335 -0.0745  2.8906 -0.4171
 6570SOL    HW231347   2.011   0.485  13.443  3.7464  1.8815  0.1297
 6571SOL     OW31348   3.011   0.944   5.504  0.2119  0.4921  0.1002
 6571SOL    HW131349   2.954   0.893   5.447  3.6587 -2.9341 -0.2743
 6571SOL    HW231350   2.968   1.029   5.514  0.6706  1.2566 -4.0760
 6572SOL     OW31351   3.163   1.299   4.234  0.6802  0.0815 -0.3846
 6572SOL    HW131352   3.130   1.286   4.324  0.5620  1.8241 -0.1791
 6572SOL    HW231353   3.143   1.212   4.199  1.2460 -0.8460  1.6019
 6573SOL     OW31354   3.307   3.958   6.672 -0.3851 -0.2065 -0.3614
 6573SOL    HW131355   3.356   4.039   6.689  2.1670 -1.6559 -0.7349
 6573SOL    HW231356   3.361   3.923   6.601  0.7846 -0.1353  0.4912
 6574SOL     OW31357   1.162   4.081  14.917  0.2786 -0.5956 -0.1643
 6574SOL    HW131358   1.220   4.087  14.993 -1.2131  1.7390  0.8172
 6574SOL    HW231359   1.093   4.018  14.936 -0.4972 -0.1693 -1.5569
 6575SOL     OW31360   1.639   2.309  13.728 -0.2874 -0.3757  0.5314
 6575SOL    HW131361   1.682   2.380  13.776  1.1808 -0.9162  0.0167
 6575SOL    HW231362   1.613   2.347  13.644 -0.0940 -0.8764  0.2446
 6576SOL     OW31363   0.288   4.533   8.344  0.1150 -0.2879  0.6176
 6576SOL    HW131364   0.264   4.598   8.279  1.0637  0.4034  0.9494
 6576SOL    HW231365   0.379   4.526   8.316  0.2590  2.8879  0.3393
 6577SOL     OW31366   0.786   3.415   8.984 -0.5634  1.0995 -0.8579
 6577SOL    HW131367   0.840   3.463   9.048  0.2129  1.8412 -2.0670
 6577SOL    HW231368   0.792   3.322   9.006 -1.8642  0.8905 -1.3818
 6578SOL     OW31369   2.817   3.685   8.450  0.2738 -0.1654  0.2400
 6578SOL    HW131370   2.835   3.778   8.463  3.6861 -0.7427 -0.3510
 6578SOL    HW231371   2.861   3.669   8.367  0.3762  0.7617  0.1128
 6579SOL     OW31372   1.096   0.304   9.853  0.0137 -0.2145 -0.2179
 6579SOL    HW131373   1.184   0.293   9.889  0.0796  0.9449 -0.0352
 6579SOL    HW231374   1.054   0.287   9.937 -3.0050 -0.4772 -1.7816
 6580SOL     OW31375   3.191   0.313   3.308 -0.1276 -0.2601 -0.1130
 6580SOL    HW131376   3.107   0.270   3.290 -0.2492  0.5799 -1.5730
 6580SOL    HW231377   3.253   0.241   3.320  1.0013  0.8347  0.6664
 6581SOL     OW31378   2.259   0.180  12.746  0.4205  0.7024 -0.2502
 6581SOL    HW131379   2.187   0.140  12.696  0.3590  1.7265 -0.9876
 6581SOL    HW231380   2.209   0.228  12.812  0.0110  1.5874 -1.2047
 6582SOL     OW31381   2.075   1.774   3.815  0.0296  0.1119 -0.3034
 6582SOL    HW131382   2.017   1.850   3.826  0.9065  0.3544  2.6878
 6582SOL    HW231383   2.018   1.709   3.855 -0.4738  0.5942 -0.2355
 6583SOL     OW31384   1.057   3.684   4.093  0.3954 -0.0571 -0.1528
 6583SOL    HW131385   1.016   3.733   4.165 -0.1127 -0.4592 -0.1744
 6583SOL    HW231386   1.004   3.605   4.090  0.8948 -0.3577 -0.9523
 6584SOL     OW31387   2.912   2.983   7.902 -0.2901 -0.3950  0.3122
 6584SOL    HW131388   2.972   3.034   7.956  0.4348 -3.2399  2.1568
 6584SOL    HW231389   2.939   3.008   7.814  0.2065 -0.1982  0.5210
 6585SOL     OW31390   4.110   0.928  16.796 -0.4294 -0.1027 -0.3042
 6585SOL    HW131391   4.068   0.973  16.869 -0.4046 -1.1437  0.3507
 6585SOL    HW231392   4.043   0.876  16.753 -0.3399 -1.5277  1.2886
 6586SOL     OW31393   4.702   2.223  13.441  0.0660 -0.6817  0.4087
 6586SOL    HW131394   4.726   2.312  13.468 -1.0608 -0.0407 -0.6744
 6586SOL    HW231395   0.038   2.181  13.488  0.2676 -0.1528  0.5717
 6587SOL     OW31396   2.500   4.540   2.313  0.1291 -0.0784  0.7856
 6587SOL    HW131397   2.548   4.503   2.387 -0.1935 -0.4475  0.8115
 6587SOL    HW231398   2.471   4.459   2.271  1.5261 -0.1842  0.0424
 6588SOL     OW31399   1.131   4.146  12.503  0.0153 -0.4669  0.6558
 6588SOL    HW131400   1.175   4.063  12.489 -0.3284 -0.3259 -1.2503
 6588SOL    HW231401   1.168   4.209  12.441  1.7143 -1.2759  0.8570
 6589SOL     OW31402   3.701   1.373   4.875  0.1626 -0.3088  0.0313
 6589SOL    HW131403   3.689   1.329   4.790 -3.6595  1.2842 -0.2491
 6589SOL    HW231404   3.680   1.311   4.945 -0.9984 -0.9381 -0.8727
 6590SOL     OW31405   2.070   4.611   2.678  0.0048  0.2675 -0.0421
 6590SOL    HW131406   2.019   4.676   2.725 -0.2982 -0.2629  0.3584
 6590SOL    HW231407   2.158   4.650   2.675  1.2641 -2.5674  0.0284
 6591SOL     OW31408   3.769   1.079   7.850 -0.1958  0.2312 -0.2874
 6591SOL    HW131409   3.715   1.150   7.816 -2.1423 -1.5938 -0.9662
 6591SOL    HW231410   3.707   1.008   7.834  0.6624 -0.8745  1.2784
 6592SOL     OW31411   2.321   3.081   8.377 -0.2134  0.3101  0.5374
 6592SOL    HW131412   2.268   3.150   8.416 -0.4753  1.3894 -1.7181
 6592SOL    HW231413   2.410   3.115   8.383 -0.1098  0.5561 -2.5630
 6593SOL     OW31414   3.981   0.091  15.110  0.3209  0.0300  0.2404
 6593SOL    HW131415   4.009   0.077  15.200 -1.4258  0.1259  0.7922
 6593SOL    HW231416   3.953   0.182  15.104  1.0933  0.2560  0.1591
 6594SOL     OW31417   2.540   1.306   7.448 -0.3727  0.0673 -0.0168
 6594SOL    HW131418   2.453   1.268   7.452 -0.7451  0.6954 -1.9744
 6594SOL    HW231419   2.533   1.340   7.537  0.2605  1.7618 -0.6062
 6595SOL     OW31420   2.280   2.948  17.106  0.2483  0.2046  0.0637
 6595SOL    HW131421   2.196   2.956  17.061  1.7313  4.3604 -1.9970
 6595SOL    HW231422   2.257   2.948  17.199 -0.6586  0.9562 -0.1629
 6596SOL     OW31423   1.676   4.676   3.438 -0.3053 -0.1820 -0.0982
 6596SOL    HW131424   1.639   4.703   3.354 -1.0482 -0.8073  0.0255
 6596SOL    HW231425   1.642   4.587   3.446 -3.4462  0.9139 -1.0396
 6597SOL     OW31426   4.111   0.674  15.333 -0.8477  0.8944  0.5408
 6597SOL    HW131427   4.110   0.718  15.418 -1.9541 -0.0830  1.0479
 6597SOL    HW231428   4.024   0.701  15.303 -0.9547 -0.1950 -0.1632
 6598SOL     OW31429   3.113   0.624   7.624  0.1655  0.4928  0.5983
 6598SOL    HW131430   3.155   0.674   7.554  1.3593  0.4654  1.3022
 6598SOL    HW231431   3.187   0.601   7.680  0.5811 -1.8795 -0.8980
 6599SOL     OW31432   1.888   0.282  10.944  0.0844  0.3004 -0.3380
 6599SOL    HW131433   1.973   0.272  10.900  0.7324 -1.1808  1.2617
 6599SOL    HW231434   1.912   0.298  11.035 -2.2964 -2.6019  0.8356
 6600SOL     OW31435   0.076   2.078   7.783 -0.4262 -0.2663 -0.5936
 6600SOL    HW131436   0.079   2.076   7.879 -1.9944 -0.1687 -0.5428
 6600SOL    HW231437   4.731   2.027   7.773  0.0689 -1.4614  1.5409
 6601SOL     OW31438   2.185   1.212   6.692  0.0201  0.0448 -0.0568
 6601SOL    HW131439   2.223   1.247   6.612  1.0765 -0.6482  0.1466
 6601SOL    HW231440   2.269   1.195   6.735 -0.8361 -0.7488  1.3171
 6602SOL     OW31441   3.158   3.334   5.704  0.9606 -0.6667 -0.3007
 6602SOL    HW131442   3.069   3.312   5.676  0.3724 -1.0348  1.8338
 6602SOL    HW231443   3.142   3.374   5.789 -1.3965 -0.6231 -0.7646
 6603SOL     OW31444   3.310   0.414   3.984  0.2009 -0.3079 -0.1919
 6603SOL    HW131445   3.363   0.335   3.975 -0.6622 -0.9343  0.1974
 6603SOL    HW231446   3.235   0.375   4.030 -0.4923  0.4495 -0.6790
 6604SOL     OW31447   1.431   4.442  16.187  0.8647  0.7989 -0.0004
 6604SOL    HW131448   1.379   4.511  16.227  1.5310  1.3886 -0.1627
 6604SOL    HW231449   1.514   4.469  16.226  1.1907  0.1738 -0.2560
 6605SOL     OW31450   2.995   2.516   8.443  0.1155 -0.0206 -0.4240
 6605SOL    HW131451   2.989   2.529   8.349  0.9355 -0.2200 -0.5049
 6605SOL    HW231452   3.027   2.427   8.459 -2.0775 -0.4591  1.5289
 6606SOL     OW31453   2.242   2.602  16.681 -0.2215  0.3589 -0.0677
 6606SOL    HW131454   2.299   2.663  16.635 -0.0567  1.1765  1.2001
 6606SOL    HW231455   2.297   2.578  16.756 -1.9068 -0.3308  0.9435
 6607SOL     OW31456   1.930   1.174   7.511 -0.4613  0.1091  0.2259
 6607SOL    HW131457   1.918   1.106   7.578  1.0129 -0.8888 -0.5189
 6607SOL    HW231458   1.916   1.116   7.436  2.1232  1.0041 -0.9245
 6608SOL     OW31459   3.273   2.976   5.417 -0.5033 -0.6556  0.1056
 6608SOL    HW131460   3.317   3.015   5.493 -1.9604  1.6314 -0.2400
 6608SOL    HW231461   3.231   2.900   5.456 -2.0789  0.4025  0.4626
 6609SOL     OW31462   2.405   1.976   6.556  0.3595  0.1992 -0.0758
 6609SOL    HW131463   2.375   2.054   6.603  0.5463  0.1755  0.0801
 6609SOL    HW231464   2.481   1.948   6.606 -0.0163 -0.6141  0.0516
 6610SOL     OW31465   2.733   3.691   7.987  0.1659 -0.1342 -0.2520
 6610SOL    HW131466   2.758   3.706   8.078  0.6092 -0.0647 -0.3861
 6610SOL    HW231467   2.792   3.620   7.960 -0.4657 -1.2144  1.1798
 6611SOL     OW31468   1.286   0.291   8.929  0.2269 -0.4008 -0.3112
 6611SOL    HW131469   1.248   0.227   8.869 -1.0073 -0.4310  0.4866
 6611SOL    HW231470   1.297   0.245   9.012  4.1291 -0.2441 -0.7770
 6612SOL     OW31471   0.139   3.640   1.973 -0.0980 -0.5556  0.2864
 6612SOL    HW131472   0.089   3.574   1.924  1.5381  0.1569 -2.3581
 6612SOL    HW231473   0.061   3.690   1.999  0.2700 -1.3873  2.9730
 6613SOL     OW31474   0.580   1.039   3.311  0.0389 -0.0373  0.2180
 6613SOL    HW131475   0.538   0.956   3.333  0.1973 -0.4724 -1.1472
 6613SOL    HW231476   0.600   1.078   3.396  0.9493  0.4069 -0.2000
 6614SOL     OW31477   4.099   4.015   8.751 -0.0074  0.2543  0.0373
 6614SOL    HW131478   4.140   4.029   8.837 -1.9747 -1.7551  1.3110
 6614SOL    HW231479   4.166   3.959   8.712 -0.2904  1.7027 -2.4568
 6615SOL     OW31480   0.096   3.534  11.903 -0.0106 -0.2378  0.2708
 6615SOL    HW131481   0.022   3.545  11.844  0.4163 -0.0217 -0.2215
 6615SOL    HW231482   0.079   3.447  11.939  0.3007 -0.7975 -0.9140
 6616SOL     OW31483   1.692   2.437  15.036 -0.1729 -0.9065 -0.2429
 6616SOL    HW131484   1.617   2.385  15.006  0.1730 -1.8279  0.5014
 6616SOL    HW231485   1.711   2.492  14.961  1.4251  0.0449  0.8582
 6617SOL     OW31486   1.795   1.955   0.185  0.0912  0.4654 -0.0547
 6617SOL    HW131487   1.879   1.911   0.178  0.3591  1.5611 -3.7981
 6617SOL    HW231488   1.786   1.953   0.280  0.5039 -1.4869 -0.0662
 6618SOL     OW31489   4.124   2.027   4.998 -0.1707  0.3254  0.0541
 6618SOL    HW131490   4.176   2.035   5.078 -0.1490 -1.3412  0.2013
 6618SOL    HW231491   4.192   2.014   4.930 -1.6297  0.5033 -1.4399
 6619SOL     OW31492   0.486   2.086   6.936  0.6086  0.3596  0.2374
 6619SOL    HW131493   0.500   2.084   7.031  2.0140 -0.4324  0.0158
 6619SOL    HW231494   0.399   2.124   6.929  1.1191  1.3769 -0.6338
 6620SOL     OW31495   0.901   3.173   2.909  0.2242 -0.3041  0.0195
 6620SOL    HW131496   0.921   3.101   2.968  0.3768 -1.1376 -1.0347
 6620SOL    HW231497   0.846   3.126   2.845 -0.6114 -1.2797  1.4665
 6621SOL     OW31498   0.427   1.813   2.816  0.1334 -0.4462  0.6003
 6621SOL    HW131499   0.473   1.893   2.839 -0.2566 -0.4643  1.4537
 6621SOL    HW231500   0.337   1.842   2.803 -0.2751 -1.8476  0.2946
 6622SOL     OW31501   4.703   1.621   5.215  0.6580  0.0212  0.2453
 6622SOL    HW131502   0.022   1.621   5.294 -0.6218 -2.5880  1.1049
 6622SOL    HW231503   4.734   1.693   5.160  1.1157 -0.1083  0.3355
 6623SOL     OW31504   0.057   3.258  10.120  0.0323  0.0683 -0.1640
 6623SOL    HW131505   0.031   3.182  10.067 -1.3951 -0.1101  0.8027
 6623SOL    HW231506   0.150   3.244  10.102  0.3283  0.5652  0.9817
 6624SOL     OW31507   0.297   1.339   3.792 -0.0650 -0.4346 -0.0853
 6624SOL    HW131508   0.371   1.395   3.816 -0.2518  0.3139 -1.2739
 6624SOL    HW231509   0.329   1.251   3.773 -1.3215 -1.2699  1.6157
 6625SOL     OW31510   2.097   4.491  11.172 -0.6637  0.2961 -0.4923
 6625SOL    HW131511   2.043   4.492  11.093 -1.0009 -0.7879 -0.2761
 6625SOL    HW231512   2.042   4.460  11.245  1.5015 -0.4656  0.8042
 6626SOL     OW31513   4.632   2.006  10.140  0.9397 -0.1068 -0.5336
 6626SOL    HW131514   4.620   1.996  10.234 -0.5226 -3.2054 -1.0605
 6626SOL    HW231515   4.704   1.944  10.126  0.4390 -0.5671 -1.0812
 6627SOL     OW31516   0.108   3.400   5.480  0.0042  0.0046  0.0786
 6627SOL    HW131517   0.015   3.394   5.456 -0.2357  3.4547  0.0810
 6627SOL    HW231518   0.102   3.420   5.574 -0.3617 -0.6034  0.1819
 6628SOL     OW31519   0.941   3.030  11.862  0.6686  0.0150  0.0960
 6628SOL    HW131520   0.908   3.010  11.775  0.7702  2.2018 -0.4358
 6628SOL    HW231521   0.859   3.067  11.893  0.6688 -0.6280  0.8833
 6629SOL     OW31522   2.378   0.382   1.207  0.0196 -0.3582  0.0193
 6629SOL    HW131523   2.441   0.323   1.248 -0.6094 -0.1514  1.2724
 6629SOL    HW231524   2.375   0.460   1.262  0.1343  0.8352 -1.6614
 6630SOL     OW31525   2.813   4.570   7.474 -0.0930 -0.0096  0.9940
 6630SOL    HW131526   2.743   4.530   7.527 -3.2262 -1.1146 -3.9662
 6630SOL    HW231527   2.784   4.661   7.471  0.8806  0.2946  0.9992
 6631SOL     OW31528   3.046   0.840   1.958 -0.3877 -0.0370  0.2944
 6631SOL    HW131529   2.960   0.875   1.979  0.9411  2.8930  0.9493
 6631SOL    HW231530   3.027   0.760   1.910  0.3378 -0.1742  0.2326
 6632SOL     OW31531   3.499   3.309   5.100  0.5603  0.1264  0.0217
 6632SOL    HW131532   3.480   3.221   5.131 -1.5004 -0.5749 -3.2637
 6632SOL    HW231533   3.454   3.361   5.167  2.1260  2.6750 -0.9162
 6633SOL     OW31534   3.495   2.858   8.562 -0.0738 -0.1536 -0.2799
 6633SOL    HW131535   3.486   2.773   8.605  0.1640  1.0497  2.1562
 6633SOL    HW231536   3.426   2.864   8.496  0.3444 -3.0241 -0.9605
 6634SOL     OW31537   4.224   2.587  15.586 -0.3707 -0.3556  0.4504
 6634SOL    HW131538   4.264   2.559  15.503 -1.6659  1.8316 -0.8868
 6634SOL    HW231539   4.283   2.547  15.650 -0.4591 -0.0751  0.7051
 6635SOL     OW31540   1.336   2.372   4.259 -0.1962  0.3202  0.3412
 6635SOL    HW131541   1.350   2.396   4.167  1.6454 -1.2695  0.2250
 6635SOL    HW231542   1.316   2.457   4.298  0.7771  1.7541 -2.3037
 6636SOL     OW31543   0.962   0.735   0.804 -0.2060 -0.2061  0.3643
 6636SOL    HW131544   0.870   0.731   0.777  0.2448  1.9469 -1.4865
 6636SOL    HW231545   1.009   0.682   0.740  0.1091 -0.8888  1.1531
 6637SOL     OW31546   3.662   0.302   9.188 -0.2675 -0.4073 -0.4140
 6637SOL    HW131547   3.722   0.231   9.211 -0.5133  0.4911  3.0378
 6637SOL    HW231548   3.716   0.382   9.192 -0.6221 -0.2561  1.3469
 6638SOL     OW31549   3.588   4.496  15.614  0.2259  0.1315 -0.1222
 6638SOL    HW131550   3.500   4.527  15.590  0.1416  0.9886  1.3249
 6638SOL    HW231551   3.626   4.584  15.608  3.0603 -0.9383  2.4887
 6639SOL     OW31552   2.154   4.158   2.425 -0.2993  0.1695 -0.0888
 6639SOL    HW131553   2.121   4.244   2.452  0.2022  0.5175 -0.5855
 6639SOL    HW231554   2.205   4.184   2.349 -1.3760  0.5737 -0.6707
 6640SOL     OW31555   2.273   4.338   6.211 -0.7085 -0.2583 -0.0887
 6640SOL    HW131556   2.210   4.290   6.157  0.6904 -1.4443 -0.6819
 6640SOL    HW231557   2.209   4.385   6.264 -1.1736  0.3601 -1.1855
 6641SOL     OW31558   1.015   0.264  13.800  0.1105  0.4164  0.1631
 6641SOL    HW131559   1.035   0.276  13.708  2.0996  0.1119  0.5634
 6641SOL    HW231560   1.088   0.314  13.837  1.3166 -1.3178  0.1075
 6642SOL     OW31561   3.709   1.573   7.771 -0.4247  0.4136 -0.3071
 6642SOL    HW131562   3.746   1.570   7.682  0.8574 -2.0287  0.3130
 6642SOL    HW231563   3.625   1.618   7.770 -1.0754 -0.8183 -0.9471
 6643SOL     OW31564   1.482   3.241   3.393 -0.2471 -0.1968  0.1346
 6643SOL    HW131565   1.398   3.280   3.416  0.7347  1.3340  1.0448
 6643SOL    HW231566   1.495   3.279   3.306 -1.8539  0.7960  0.3347
 6644SOL     OW31567   0.298   3.441  10.398 -0.9916 -0.0227 -0.2832
 6644SOL    HW131568   0.234   3.473  10.334  2.0344  3.7289 -1.4070
 6644SOL    HW231569   0.301   3.351  10.365 -0.9831 -0.1769  0.1331
 6645SOL     OW31570   2.403   0.765   0.097 -0.3814 -0.1773 -0.1549
 6645SOL    HW131571   2.318   0.803   0.076 -0.0246  0.2626 -0.7913
 6645SOL    HW231572   2.398   0.682   0.049 -1.2049 -0.1999 -0.0180
 6646SOL     OW31573   0.516   1.194   5.667  0.2114 -0.0885  0.0719
 6646SOL    HW131574   0.570   1.273   5.677 -0.2294  0.4817 -2.1271
 6646SOL    HW231575   0.529   1.175   5.575 -1.4433  1.9082 -0.5732
 6647SOL     OW31576   4.577   1.933   5.292 -0.0485  0.4719  0.0469
 6647SOL    HW131577   4.515   1.970   5.355 -0.3170 -0.9925  0.6538
 6647SOL    HW231578   4.544   1.843   5.293 -0.5866  0.6643 -0.3257
 6648SOL     OW31579   3.225   3.030  16.417  0.6547  1.1188 -0.0081
 6648SOL    HW131580   3.131   3.036  16.404  0.8519  0.6960 -1.5403
 6648SOL    HW231581   3.249   3.095  16.351 -0.3915 -2.0914 -3.4586
 6649SOL     OW31582   0.979   3.478   2.891 -0.0459 -0.0808  0.0825
 6649SOL    HW131583   0.965   3.384   2.897 -2.4059  0.3070  0.5765
 6649SOL    HW231584   1.001   3.479   2.798  0.5557  0.5870  0.2355
 6650SOL     OW31585   1.320   3.853  15.923  0.5591  0.7363  0.0997
 6650SOL    HW131586   1.280   3.938  15.906  2.1374  1.3557 -0.5145
 6650SOL    HW231587   1.408   3.857  15.886  0.6960  2.2137  0.6093
 6651SOL     OW31588   2.814   0.554  10.528 -0.1793 -0.1808  0.3671
 6651SOL    HW131589   2.788   0.533  10.438 -0.4380  1.4233  0.0683
 6651SOL    HW231590   2.758   0.503  10.587  1.1911 -0.2242  1.6226
 6652SOL     OW31591   3.594   1.423  13.987  0.0668  0.2750 -0.8288
 6652SOL    HW131592   3.560   1.443  14.074  1.0594 -1.2092 -0.0914
 6652SOL    HW231593   3.677   1.385  14.017  0.4152  0.4383 -1.5743
 6653SOL     OW31594   1.887   0.043   7.614  0.4214 -0.0624  0.1331
 6653SOL    HW131595   1.826   0.107   7.651 -0.5374 -0.3639 -0.9442
 6653SOL    HW231596   1.840   4.701   7.644  0.7022 -0.6438 -0.9554
 6654SOL     OW31597   2.883   2.511   5.681 -0.7254 -0.2278  0.2563
 6654SOL    HW131598   2.862   2.580   5.618 -2.3857 -1.4997 -0.5756
 6654SOL    HW231599   2.852   2.441   5.624  0.9661 -0.3634 -0.5072
 6655SOL     OW31600   4.692   1.751  15.917 -0.6778  0.0405 -0.0889
 6655SOL    HW131601   4.679   1.743  15.822  0.3632 -0.4296 -0.1913
 6655SOL    HW231602   0.050   1.736  15.931 -0.4895  0.6657 -0.6360
 6656SOL     OW31603   3.935   2.499  11.720 -0.0935  0.8331 -0.1554
 6656SOL    HW131604   3.856   2.542  11.688  0.2792  2.0369  0.5497
 6656SOL    HW231605   3.936   2.532  11.810  0.9567  0.5221 -0.0471
 6657SOL     OW31606   3.548   0.818   9.886  0.1196 -0.1040  0.5400
 6657SOL    HW131607   3.512   0.762   9.954 -2.1307  1.3237  0.5067
 6657SOL    HW231608   3.612   0.756   9.851  2.1033  3.0344 -1.3865
 6658SOL     OW31609   2.004   1.426   4.265  0.0536  0.8818 -0.7983
 6658SOL    HW131610   2.065   1.430   4.339 -0.8365 -2.4600  0.1318
 6658SOL    HW231611   1.989   1.332   4.271 -1.7457  1.1214 -1.4658
 6659SOL     OW31612   3.936   0.907   2.047 -0.3636 -0.6691  0.3991
 6659SOL    HW131613   3.890   0.990   2.034 -0.5279 -0.7503  0.4622
 6659SOL    HW231614   4.004   0.921   2.113  1.5048  1.5193 -1.9905
 6660SOL     OW31615   4.305   0.295   5.591 -0.3264 -0.6113 -0.0986
 6660SOL    HW131616   4.213   0.320   5.587 -0.7111 -2.2513 -1.5678
 6660SOL    HW231617   4.345   0.375   5.625 -0.3030 -0.7172  0.1231
 6661SOL     OW31618   1.698   2.790  11.856  0.3031  0.5179  0.1862
 6661SOL    HW131619   1.689   2.885  11.860 -1.1621  0.3446  1.1797
 6661SOL    HW231620   1.678   2.775  11.948  1.0193  2.1121  0.5985
 6662SOL     OW31621   4.072   4.152   5.134 -0.7732  0.0832  0.3709
 6662SOL    HW131622   4.038   4.233   5.095  0.3635  0.9755  1.2574
 6662SOL    HW231623   4.018   4.093   5.081 -0.6076  1.0143 -0.8322
 6663SOL     OW31624   2.583   2.243   0.085  0.4589  0.0364  0.3138
 6663SOL    HW131625   2.508   2.184   0.083  0.3522  0.1489  1.1193
 6663SOL    HW231626   2.585   2.263  17.731 -2.4672 -1.7145 -0.1032
 6664SOL     OW31627   4.129   1.542   2.206 -0.1146  0.0709 -0.2179
 6664SOL    HW131628   4.183   1.589   2.270 -0.5176 -0.3476  0.4288
 6664SOL    HW231629   4.056   1.604   2.211 -1.3965 -1.4693 -0.0686
 6665SOL     OW31630   4.311   3.380   9.104  0.1273  0.0200  0.0238
 6665SOL    HW131631   4.387   3.415   9.058 -0.6208  1.5447 -0.0336
 6665SOL    HW231632   4.236   3.435   9.081  0.4583  1.4550  2.3051
 6666SOL     OW31633   1.193   0.901  10.287  0.6321 -0.1850  0.1325
 6666SOL    HW131634   1.173   0.826  10.231 -0.4272 -0.9592  1.5620
 6666SOL    HW231635   1.286   0.898  10.308  0.4656 -0.1890  0.8465
 6667SOL     OW31636   3.836   0.510   9.271  0.4529  0.0685  0.3700
 6667SOL    HW131637   3.845   0.604   9.254 -1.2141 -0.0392 -1.1060
 6667SOL    HW231638   3.911   0.472   9.225  0.4801  0.9692 -0.3317
 6668SOL     OW31639   2.600   3.789   9.199 -0.0013 -0.6604  0.1234
 6668SOL    HW131640   2.593   3.717   9.261  0.3084 -1.0037 -0.2480
 6668SOL    HW231641   2.516   3.791   9.153  0.2941  3.1713 -0.2667
 6669SOL     OW31642   3.759   2.075   2.887 -0.4064  0.0360 -0.0938
 6669SOL    HW131643   3.750   1.982   2.868 -0.8249 -0.0478  0.4972
 6669SOL    HW231644   3.850   2.102   2.874 -0.5379  0.7699  0.4675
 6670SOL     OW31645   0.361   2.382   8.236 -0.4809  0.1989  0.5031
 6670SOL    HW131646   0.311   2.383   8.155 -0.0787 -2.0525  0.2090
 6670SOL    HW231647   0.449   2.410   8.209 -1.0015  1.3510  0.0227
 6671SOL     OW31648   1.477   2.861   6.965 -0.8144 -0.2823  0.3170
 6671SOL    HW131649   1.488   2.854   7.060  0.8827 -0.3357  0.1210
 6671SOL    HW231650   1.401   2.917   6.953 -1.2208 -1.0315 -0.5491
 6672SOL     OW31651   0.138   2.897  15.276 -0.2683 -0.3393 -0.3220
 6672SOL    HW131652   0.190   2.829  15.319  1.6279 -0.9145 -3.5554
 6672SOL    HW231653   0.067   2.845  15.239 -0.6150  0.1721 -0.3709
 6673SOL     OW31654   0.965   1.487   2.765  0.6330 -0.0690 -0.4913
 6673SOL    HW131655   1.032   1.419   2.755 -1.6844 -2.4237 -0.2282
 6673SOL    HW231656   1.016   1.550   2.715  0.7531  0.2532  0.0416
 6674SOL     OW31657   0.174   2.412   0.503  0.0451  0.2608  0.2442
 6674SOL    HW131658   0.107   2.359   0.547  0.6713 -0.6364  0.1305
 6674SOL    HW231659   0.222   2.456   0.573  1.4158 -1.4811  0.4040
 6675SOL     OW31660   3.456   0.085  10.425 -0.0781  0.3453  0.7435
 6675SOL    HW131661   3.509   0.006  10.416  1.5712  1.3895  1.1877
 6675SOL    HW231662   3.405   0.068  10.504  0.1791  0.5273  0.9517
 6676SOL     OW31663   0.501   2.493   3.558 -0.1760  0.4094 -0.6655
 6676SOL    HW131664   0.505   2.466   3.650 -0.0141  2.4022 -0.0754
 6676SOL    HW231665   0.429   2.556   3.565 -1.3599 -0.9874 -0.2233
 6677SOL     OW31666   0.150   3.082  14.977  0.3871 -0.6331 -0.5036
 6677SOL    HW131667   0.138   3.177  14.975  2.0053 -0.4262 -0.0746
 6677SOL    HW231668   0.148   3.070  15.072 -0.5684  0.1281 -0.4277
 6678SOL     OW31669   2.881   2.228   0.153  0.1033  0.0341 -0.3973
 6678SOL    HW131670   2.800   2.236   0.204 -0.1039  0.0432 -0.7197
 6678SOL    HW231671   2.851   2.197   0.067  0.1725 -0.7205 -0.1479
 6679SOL     OW31672   1.496   3.575   7.358  0.0910 -0.5044  0.1707
 6679SOL    HW131673   1.471   3.668   7.354  1.6223 -0.1510 -1.2329
 6679SOL    HW231674   1.558   3.574   7.285  0.7191 -0.1054  0.7011
 6680SOL     OW31675   1.956   2.444   7.552  0.4695  0.3251 -0.3401
 6680SOL    HW131676   1.958   2.386   7.628 -1.7474  0.4728 -0.1807
 6680SOL    HW231677   2.016   2.511   7.584 -0.0002  0.5595  0.0442
 6681SOL     OW31678   1.906   4.428  11.378  0.0371  0.4980 -0.0160
 6681SOL    HW131679   1.938   4.344  11.410  1.8537  0.8765 -0.8934
 6681SOL    HW231680   1.811   4.423  11.366 -0.2423 -0.9012  2.7557
 6682SOL     OW31681   3.742   2.976   6.443 -0.5502 -0.6931 -0.2928
 6682SOL    HW131682   3.783   2.945   6.362  0.3545  0.5751 -0.3212
 6682SOL    HW231683   3.742   2.893   6.491 -0.9347  0.0056  0.9296
 6683SOL     OW31684   2.097   3.695   3.214 -0.0707 -0.4733  0.3328
 6683SOL    HW131685   2.146   3.712   3.133  0.6939 -0.1464  0.8704
 6683SOL    HW231686   2.118   3.771   3.267 -1.5016  0.5100 -0.5157
 6684SOL     OW31687   0.274   2.409   5.933 -0.0784  0.1922 -0.2328
 6684SOL    HW131688   0.363   2.375   5.930  0.0604  0.7349 -1.9938
 6684SOL    HW231689   0.277   2.493   5.979  0.8083 -1.1360  2.1254
 6685SOL     OW31690   2.705   0.167   5.740  0.0153  0.6771 -0.1028
 6685SOL    HW131691   2.693   0.256   5.772 -1.4200  0.4473  0.0181
 6685SOL    HW231692   2.742   0.170   5.652  1.6447 -1.1034  0.5228
 6686SOL     OW31693   1.158   3.291   9.776 -0.6730 -0.3683 -0.0831
 6686SOL    HW131694   1.107   3.248   9.844  1.9078 -1.2920  1.2753
 6686SOL    HW231695   1.094   3.333   9.718 -0.8402 -1.1601 -0.4786
 6687SOL     OW31696   3.394   2.504   8.469  0.3043  0.0581  0.1851
 6687SOL    HW131697   3.433   2.456   8.396 -0.2010  2.9509 -2.0097
 6687SOL    HW231698   3.303   2.476   8.474 -0.0515  0.5328 -3.4633
 6688SOL     OW31699   1.272   4.610   7.005 -0.1811  0.0284 -0.0112
 6688SOL    HW131700   1.200   4.574   7.057 -0.0555 -0.9305 -0.5038
 6688SOL    HW231701   1.247   4.557   6.928 -2.1750 -2.5626  2.3952
 6689SOL     OW31702   2.165   0.488   7.106 -0.2725 -0.6409 -0.4226
 6689SOL    HW131703   2.096   0.519   7.166 -2.2123 -0.7363 -2.6178
 6689SOL    HW231704   2.154   0.553   7.036 -0.9222  2.2251  2.3198
 6690SOL     OW31705   3.450   3.130   8.573  0.6516 -0.5453  0.4934
 6690SOL    HW131706   3.502   3.054   8.600  0.1797 -0.2672  2.1868
 6690SOL    HW231707   3.486   3.132   8.484 -0.9766  0.5115 -0.1415
 6691SOL     OW31708   3.950   1.413   3.343 -0.3254 -0.3064  0.5368
 6691SOL    HW131709   4.004   1.414   3.264 -1.5820  1.2181 -0.3018
 6691SOL    HW231710   3.979   1.495   3.383  0.0965  0.5385 -1.5089
 6692SOL     OW31711   0.208   1.026   0.504 -0.7705 -0.1842  0.0236
 6692SOL    HW131712   0.167   0.979   0.577  2.0191 -0.6545  1.3049
 6692SOL    HW231713   0.267   0.963   0.461  0.3964  0.7793  0.2205
 6693SOL     OW31714   0.950   2.081   6.443  0.3201  0.1064  0.3569
 6693SOL    HW131715   0.855   2.073   6.450  0.1570 -0.5753 -2.4509
 6693SOL    HW231716   0.963   2.175   6.425  0.3914 -0.3167 -1.8056
 6694SOL     OW31717   2.334   4.437  17.498  0.6983  0.2390 -0.1229
 6694SOL    HW131718   2.306   4.422  17.407 -0.7302  1.1583  0.1826
 6694SOL    HW231719   2.426   4.458  17.481  0.9654  0.3624  1.5717
 6695SOL     OW31720   2.582   2.113   9.257 -0.6938 -0.1380 -0.0755
 6695SOL    HW131721   2.494   2.133   9.289 -1.2921  0.1153 -1.9273
 6695SOL    HW231722   2.600   2.203   9.231 -1.8163  0.6672  1.8815
 6696SOL     OW31723   0.931   2.655   1.329 -0.1974 -0.4476 -0.6110
 6696SOL    HW131724   0.959   2.698   1.248 -0.3111  1.9563  0.6315
 6696SOL    HW231725   0.845   2.693   1.346 -0.7182 -1.6558 -0.5095
 6697SOL     OW31726   4.012   0.383   7.274 -0.5477 -0.8359  0.4879
 6697SOL    HW131727   3.996   0.327   7.350 -0.3217 -0.2349  0.9815
 6697SOL    HW231728   4.107   0.379   7.282 -0.1726  1.7405 -3.2297
 6698SOL     OW31729   2.717   0.109  14.904 -0.7285 -0.8295  0.5017
 6698SOL    HW131730   2.702   0.084  14.812 -0.7905  0.0396  0.2787
 6698SOL    HW231731   2.784   0.177  14.905 -1.6467  0.0393  2.7860
 6699SOL     OW31732   1.151   2.825   3.719  0.3255  0.2925 -0.1303
 6699SOL    HW131733   1.066   2.785   3.736  1.4578 -2.3657 -0.7044
 6699SOL    HW231734   1.165   2.786   3.632  0.7794  0.1474  0.0091
 6700SOL     OW31735   3.220   3.242  16.195 -0.3456  0.4806  0.0233
 6700SOL    HW131736   3.225   3.161  16.144 -0.5656  1.4314 -1.5113
 6700SOL    HW231737   3.304   3.248  16.241 -0.0314 -0.5432 -0.4218
 6701SOL     OW31738   2.068   0.153   3.556 -0.1522  0.7725 -0.0762
 6701SOL    HW131739   2.143   0.194   3.599 -1.3577  2.2948  0.5778
 6701SOL    HW231740   2.006   0.144   3.629  2.2812 -0.6147  1.8221
 6702SOL     OW31741   0.009   3.708   8.854 -0.1848 -0.1317 -0.1936
 6702SOL    HW131742   4.685   3.638   8.879 -0.5431  0.6803  1.2398
 6702SOL    HW231743   0.070   3.701   8.928 -0.0237 -1.6379 -0.4744
 6703SOL     OW31744   0.713   0.199   3.912 -0.2382 -0.2996 -0.1953
 6703SOL    HW131745   0.769   0.153   3.849  2.0689  0.9741  0.9070
 6703SOL    HW231746   0.631   0.212   3.865  0.8754  1.7763 -1.5700
 6704SOL     OW31747   0.722   4.661   2.024  0.1191 -0.9158  0.5002
 6704SOL    HW131748   0.789   4.605   2.064  3.6355  1.3519 -2.3119
 6704SOL    HW231749   0.654   4.596   2.006  0.8618 -1.5392 -0.0543
 6705SOL     OW31750   1.198   0.526   8.087 -0.1822 -0.5409  0.3586
 6705SOL    HW131751   1.259   0.575   8.143 -1.8886  3.1743 -1.0262
 6705SOL    HW231752   1.214   0.541   7.994  0.4920  0.5955  0.6487
 6706SOL     OW31753   2.631   4.692   5.913  0.2361 -0.3772  0.5617
 6706SOL    HW131754   2.655   4.715   6.003  2.8910  1.5284 -0.6435
 6706SOL    HW231755   2.682   0.018   5.861 -1.1152  1.4624  1.4429
 6707SOL     OW31756   0.856   0.886   5.502 -1.1074 -0.1762 -0.0766
 6707SOL    HW131757   0.779   0.937   5.480 -2.3499 -2.5704 -1.2759
 6707SOL    HW231758   0.801   0.827   5.553 -1.3079 -0.5540 -0.7224
 6708SOL     OW31759   2.300   4.391   5.249  0.6155 -0.5256 -0.7869
 6708SOL    HW131760   2.388   4.429   5.256  0.4667 -0.0258 -1.6699
 6708SOL    HW231761   2.242   4.457   5.286  0.0129 -0.3723 -2.0245
 6709SOL     OW31762   0.922   3.808   3.298 -0.4287  0.7747 -0.2171
 6709SOL    HW131763   1.018   3.805   3.305 -0.5106 -1.1008  0.1651
 6709SOL    HW231764   0.899   3.734   3.241  0.8289 -0.1026  0.4101
 6710SOL     OW31765   3.172   3.705   2.282  0.0939  0.2048  0.2687
 6710SOL    HW131766   3.260   3.697   2.319 -0.5447 -0.9478  1.5514
 6710SOL    HW231767   3.165   3.615   2.250 -1.5247  1.1869 -2.1746
 6711SOL     OW31768   2.494   2.977   5.429 -0.2670  0.0377  0.0918
 6711SOL    HW131769   2.435   2.902   5.441 -0.1300  0.1338  1.3010
 6711SOL    HW231770   2.547   2.955   5.352 -0.1634  1.8633 -0.3547
 6712SOL     OW31771   0.519   2.058   2.883  0.4082 -0.0809  0.0769
 6712SOL    HW131772   0.513   2.109   2.964  0.4513 -2.5039  1.6066
 6712SOL    HW231773   0.596   2.087   2.833 -1.4878 -2.0620 -4.0381
 6713SOL     OW31774   3.170   0.351   0.836 -0.3723  0.1016 -0.3669
 6713SOL    HW131775   3.216   0.432   0.815  2.4750 -1.4368 -0.0742
 6713SOL    HW231776   3.098   0.352   0.772 -1.0984  0.3630  0.4524
 6714SOL     OW31777   0.829   3.002   8.820 -0.0277 -0.4866 -0.0223
 6714SOL    HW131778   0.839   3.048   8.737 -0.2305  0.7256  0.6166
 6714SOL    HW231779   0.842   3.069   8.888 -0.6492 -0.9545  0.5524
 6715SOL     OW31780   4.382   1.826   1.707  0.0133  0.0420  0.1528
 6715SOL    HW131781   4.433   1.757   1.750 -0.3893 -0.8177 -0.7426
 6715SOL    HW231782   4.387   1.807   1.613  1.9084 -0.5279  0.3638
 6716SOL     OW31783   0.059   0.177  12.601 -0.3231  0.0236 -0.2495
 6716SOL    HW131784   0.007   0.112  12.649  1.4775 -1.5027 -0.3313
 6716SOL    HW231785   4.728   0.246  12.599  1.9128  2.1753 -0.3187
 6717SOL     OW31786   1.887   3.887   3.040 -0.1083  0.3532 -0.4380
 6717SOL    HW131787   1.955   3.919   3.100  0.0135  0.2070 -0.4963
 6717SOL    HW231788   1.928   3.818   2.988 -0.7004 -1.7440  1.8907
 6718SOL     OW31789   2.423   4.335   4.502  0.3786 -0.5480 -0.2204
 6718SOL    HW131790   2.452   4.370   4.418  2.2727 -0.6649  0.3863
 6718SOL    HW231791   2.430   4.240   4.494 -1.0081 -0.6644  0.0318
 6719SOL     OW31792   0.295   3.797  14.395 -0.5746  0.0094  0.1141
 6719SOL    HW131793   0.383   3.819  14.426 -0.1528 -0.2740 -0.8705
 6719SOL    HW231794   0.313   3.715  14.349  1.1164  1.3346 -1.5947
 6720SOL     OW31795   2.337   2.323   4.958  0.1737  0.0690  0.8076
 6720SOL    HW131796   2.272   2.368   5.012  0.9261 -0.7705  2.4352
 6720SOL    HW231797   2.309   2.338   4.868 -0.2808  0.7108  1.0532
 6721SOL     OW31798   2.254   1.102   5.022 -0.4033 -0.2777  0.4023
 6721SOL    HW131799   2.179   1.044   5.031  1.0463 -2.0752  0.8470
 6721SOL    HW231800   2.247   1.118   4.928  1.1470 -0.1658  0.3038
 6722SOL     OW31801   2.602   4.689  10.883 -0.1040 -0.1387  0.3980
 6722SOL    HW131802   2.512   4.656  10.875  0.1586 -0.5477 -0.9719
 6722SOL    HW231803   2.644   4.626  10.824 -0.0647 -0.4037  0.7084
 6723SOL     OW31804   1.696   4.660   0.349 -0.4147 -0.6976 -0.0440
 6723SOL    HW131805   1.763   4.627   0.410 -0.0216  0.8605  0.3734
 6723SOL    HW231806   1.666   4.574   0.322  0.2907  0.2366 -3.8284
 6724SOL     OW31807   1.615   1.177  14.396 -0.2124 -0.1970 -1.0338
 6724SOL    HW131808   1.613   1.116  14.469 -0.0899  2.2285  0.9879
 6724SOL    HW231809   1.569   1.135  14.323 -2.3722 -1.1455  0.9165
 6725SOL     OW31810   3.754   3.647   9.607  0.0221  0.0732  0.2164
 6725SOL    HW131811   3.721   3.567   9.648 -0.3567 -0.0144 -0.2581
 6725SOL    HW231812   3.685   3.711   9.625 -1.1694 -0.5328 -2.2316
 6726SOL     OW31813   1.009   3.636   5.005 -0.1299  0.1774 -0.7080
 6726SOL    HW131814   1.020   3.606   4.915  2.8588 -0.6788 -0.0348
 6726SOL    HW231815   0.978   3.721   4.972 -0.1342  0.4271 -0.0568
 6727SOL     OW31816   2.316   4.726  13.664 -0.4470 -0.5640 -0.0404
 6727SOL    HW131817   2.331   4.645  13.615  0.2552  0.0975 -0.9143
 6727SOL    HW231818   2.373   4.719  13.741 -1.8986  1.9419  1.2827
 6728SOL     OW31819   1.085   1.843   6.985  0.1506  0.1975  0.0822
 6728SOL    HW131820   1.049   1.816   7.070 -1.1996 -0.9134 -0.8348
 6728SOL    HW231821   1.053   1.773   6.929 -0.6657  0.8238 -0.2444
 6729SOL     OW31822   2.905   1.049   8.506 -0.2943 -0.4320 -0.4720
 6729SOL    HW131823   2.995   1.023   8.489  0.2956  0.7939  0.7638
 6729SOL    HW231824   2.928   1.115   8.571  1.5810 -1.6799  0.1248
 6730SOL     OW31825   3.952   4.441   3.360  0.1139  0.4430 -0.6064
 6730SOL    HW131826   3.863   4.407   3.356  0.3078 -0.2598  1.1250
 6730SOL    HW231827   3.987   4.439   3.271  1.7154  1.8937 -0.0016
 6731SOL     OW31828   1.382   2.867   3.158  0.3879  0.0235 -0.1618
 6731SOL    HW131829   1.342   2.782   3.142  0.4536 -0.1244  0.4352
 6731SOL    HW231830   1.448   2.880   3.090  0.0183 -1.6281 -0.8107
 6732SOL     OW31831   3.791   2.185  11.463 -0.1641  0.0875 -1.1565
 6732SOL    HW131832   3.744   2.248  11.516  1.2212 -1.5584  2.0157
 6732SOL    HW231833   3.718   2.125  11.450  0.2550 -0.6605 -0.0123
 6733SOL     OW31834   4.336   1.582  11.256 -0.3899 -0.2608 -0.1702
 6733SOL    HW131835   4.383   1.567  11.337 -0.7447 -2.3034 -0.3398
 6733SOL    HW231836   4.396   1.642  11.211 -0.9769 -0.1927 -0.8684
 6734SOL     OW31837   3.328   2.968   6.112 -0.1486 -0.5043  0.2617
 6734SOL    HW131838   3.300   3.057   6.129 -1.2572 -1.0922  1.5259
 6734SOL    HW231839   3.386   2.944   6.184 -2.4133  0.5191  2.4218
 6735SOL     OW31840   1.311   1.678   2.563  0.0203 -0.3835 -0.3115
 6735SOL    HW131841   1.262   1.752   2.601  2.6182  0.2024  1.9169
 6735SOL    HW231842   1.375   1.734   2.520 -0.7539 -0.6873 -1.8365
 6736SOL     OW31843   2.600   0.045  15.398  0.6216  0.1439  0.1230
 6736SOL    HW131844   2.683   0.061  15.354 -0.6606 -1.0381 -2.7254
 6736SOL    HW231845   2.541   0.059  15.324 -3.2278 -3.6483  2.5054
 6737SOL     OW31846   1.301   1.911   5.132 -0.5391  0.2806 -0.0254
 6737SOL    HW131847   1.272   1.963   5.056 -0.7204 -0.3548 -0.3941
 6737SOL    HW231848   1.221   1.912   5.184  0.3362  1.2932  1.2830
 6738SOL     OW31849   3.762   1.563   5.642 -0.0496  0.1172  0.0321
 6738SOL    HW131850   3.815   1.590   5.566 -0.0445  0.0253  0.0026
 6738SOL    HW231851   3.802   1.478   5.658 -0.6534 -0.0802  0.4847
 6739SOL     OW31852   3.694   4.111   3.423  0.3056  0.2405 -0.7378
 6739SOL    HW131853   3.748   4.156   3.488 -0.3708 -2.6454  1.8344
 6739SOL    HW231854   3.691   4.026   3.466  3.0809  1.4813  1.9239
 6740SOL     OW31855   4.648   1.925  11.754  0.0498  0.5559 -0.3042
 6740SOL    HW131856   4.559   1.958  11.769  0.6860  0.5704  3.2363
 6740SOL    HW231857   4.668   1.956  11.665 -0.5220 -0.4684 -0.7901
 6741SOL     OW31858   3.698   1.142   7.224 -0.2065  0.5087 -0.0728
 6741SOL    HW131859   3.693   1.078   7.296  2.4530 -0.1393 -0.4561
 6741SOL    HW231860   3.702   1.087   7.145  0.9269  0.6118 -0.0918
 6742SOL     OW31861   2.790   1.587  16.758  0.2150 -0.2821  0.2455
 6742SOL    HW131862   2.879   1.616  16.776  0.8903 -1.1434 -1.8293
 6742SOL    HW231863   2.790   1.597  16.663 -0.3750  1.7836  0.4647
 6743SOL     OW31864   3.836   2.451   2.634 -0.1750  0.3603 -0.7099
 6743SOL    HW131865   3.855   2.538   2.599 -0.6058  1.1332  0.9701
 6743SOL    HW231866   3.825   2.404   2.551 -1.6445 -0.6664  0.0723
 6744SOL     OW31867   2.257   3.913   4.578  0.1395  0.4739  0.4747
 6744SOL    HW131868   2.250   3.861   4.658 -1.2323 -1.6981 -1.0758
 6744SOL    HW231869   2.172   3.956   4.580  1.2726  2.7942 -1.2210
 6745SOL     OW31870   1.373   4.191  16.137  0.2542 -0.0869 -0.5921
 6745SOL    HW131871   1.362   4.158  16.226 -1.8108 -2.6473 -1.8058
 6745SOL    HW231872   1.408   4.279  16.149 -1.7135  0.9038 -2.0941
 6746SOL     OW31873   1.995   3.149   2.647 -0.6069 -0.1522  0.0993
 6746SOL    HW131874   1.958   3.090   2.713 -0.3953  1.3761  1.5850
 6746SOL    HW231875   2.063   3.095   2.606 -0.2777  0.9724 -0.8413
 6747SOL     OW31876   1.826   0.029   3.094 -0.6762  0.5673 -0.4432
 6747SOL    HW131877   1.872   4.726   3.169 -1.6988  1.0515  0.4346
 6747SOL    HW231878   1.736   0.028   3.125 -0.0298  0.4220  1.4075
 6748SOL     OW31879   4.166   1.018  11.132  0.4381  0.3747 -0.3986
 6748SOL    HW131880   4.216   1.066  11.066  0.7042  1.7482  0.8049
 6748SOL    HW231881   4.133   1.095  11.180  1.4431  1.3539 -1.2724
 6749SOL     OW31882   0.636   2.132  11.176  0.1489  0.3550 -0.6391
 6749SOL    HW131883   0.684   2.051  11.190  0.3423  0.5392 -0.2300
 6749SOL    HW231884   0.550   2.088  11.173 -0.3972  1.3724 -0.0658
 6750SOL     OW31885   1.749   1.192   2.596  0.7396  0.0397 -0.6716
 6750SOL    HW131886   1.753   1.096   2.596 -2.1812 -0.0665  0.4382
 6750SOL    HW231887   1.710   1.190   2.684  0.3397 -2.0677 -0.8936
 6751SOL     OW31888   3.834   4.716   9.979  0.1903 -0.1783  0.4091
 6751SOL    HW131889   3.770   4.650   9.952 -1.0969  1.2028  0.0477
 6751SOL    HW231890   3.830   0.041   9.905  0.2004  1.1192  1.4727
 6752SOL     OW31891   0.479   4.625   0.100 -0.1518  0.3336  0.0287
 6752SOL    HW131892   0.507   4.709   0.063 -0.5277  1.1549  1.6224
 6752SOL    HW231893   0.560   4.574   0.107 -1.0903 -1.0396  0.8517
 6753SOL     OW31894   4.578   3.470  10.440  0.5013  0.1790  0.4944
 6753SOL    HW131895   4.656   3.476  10.385 -0.1619  0.5380 -0.4179
 6753SOL    HW231896   4.557   3.379  10.423  0.2099  0.3284  0.0480
 6754SOL     OW31897   2.565   0.529   6.680  0.3968  0.1389 -0.4228
 6754SOL    HW131898   2.471   0.509   6.683  1.0838 -3.0308 -0.1296
 6754SOL    HW231899   2.607   0.448   6.709  0.6770 -0.3235 -2.1654
 6755SOL     OW31900   2.477   3.653   5.467  0.6052 -0.0017  0.3192
 6755SOL    HW131901   2.479   3.662   5.562 -0.8341  0.8034  0.2630
 6755SOL    HW231902   2.568   3.675   5.446 -0.2138  1.1775 -1.9759
 6756SOL     OW31903   3.091   3.984   9.776  0.2103  0.2778 -0.1557
 6756SOL    HW131904   3.079   3.995   9.870 -1.8789 -0.7328 -0.2989
 6756SOL    HW231905   3.003   4.009   9.748 -0.6661 -2.4469  0.1467
 6757SOL     OW31906   1.783   2.355   4.104  0.7083  0.5371 -0.4754
 6757SOL    HW131907   1.736   2.437   4.117  1.3055  1.0589 -1.5099
 6757SOL    HW231908   1.725   2.293   4.060  0.0709  1.7958 -1.4181
 6758SOL     OW31909   1.818   3.889   7.750  0.0490  0.1786 -0.0772
 6758SOL    HW131910   1.863   3.970   7.727  0.1863  0.0942 -0.1023
 6758SOL    HW231911   1.773   3.919   7.829  1.4585  2.0010  0.0061
 6759SOL     OW31912   1.046   2.908   9.468 -0.1509  0.0877  0.0767
 6759SOL    HW131913   1.092   2.890   9.550 -1.8861  0.6115  1.1613
 6759SOL    HW231914   1.035   2.820   9.433  0.1107  0.0364  0.1298
 6760SOL     OW31915   3.825   0.346   3.889  0.2759 -0.0308 -0.1415
 6760SOL    HW131916   3.767   0.405   3.840  0.3022 -1.1848 -1.5510
 6760SOL    HW231917   3.853   0.401   3.963  0.5122  1.1303 -1.1029
 6761SOL     OW31918   0.469   1.761   3.861  0.6448  0.0917  0.2473
 6761SOL    HW131919   0.532   1.734   3.795  0.4288  0.3307 -0.0552
 6761SOL    HW231920   0.411   1.685   3.861  0.3671  0.3031 -0.3735
 6762SOL     OW31921   0.727   3.771   5.111 -0.3142 -0.3662 -0.6305
 6762SOL    HW131922   0.794   3.824   5.067  1.6053 -1.5038  0.9379
 6762SOL    HW231923   0.772   3.687   5.121  1.7829  0.8060 -0.2362
 6763SOL     OW31924   3.970   3.618  17.463 -0.0541  0.6555 -0.5352
 6763SOL    HW131925   3.984   3.640  17.371  1.1524  1.2659 -0.2018
 6763SOL    HW231926   4.059   3.640  17.489 -0.9102  0.8305  2.1823
 6764SOL     OW31927   1.970   0.545   6.685  0.6370 -0.3792  0.5913
 6764SOL    HW131928   1.997   0.571   6.596  1.1192  0.3631  0.9557
 6764SOL    HW231929   1.906   0.476   6.669  0.0116  0.8021 -1.9712
 6765SOL     OW31930   2.613   3.931   3.586 -0.5503 -0.2319  0.2240
 6765SOL    HW131931   2.574   3.921   3.500  2.8913 -0.0306 -1.3672
 6765SOL    HW231932   2.571   4.015   3.605 -0.6905 -0.5023  1.1285
 6766SOL     OW31933   1.563   0.395  16.582 -0.1920  0.5776 -0.5446
 6766SOL    HW131934   1.572   0.299  16.590  1.8256  0.9142  1.3363
 6766SOL    HW231935   1.468   0.403  16.583 -0.1443  1.0091  1.1504
 6767SOL     OW31936   2.963   2.783   7.453  0.4692 -0.1044  0.4675
 6767SOL    HW131937   2.870   2.770   7.470  0.4743 -1.3016 -0.3998
 6767SOL    HW231938   2.975   2.877   7.441 -0.9239  0.0116  0.0242
 6768SOL     OW31939   4.163   1.091   7.267  0.3196 -0.0562  0.5380
 6768SOL    HW131940   4.099   1.154   7.300 -0.2407  1.5482 -3.5360
 6768SOL    HW231941   4.101   1.043   7.213 -1.0288 -0.3348  2.3548
 6769SOL     OW31942   0.333   1.538  15.692  0.6408  0.1753  0.2221
 6769SOL    HW131943   0.363   1.517  15.604 -0.8556 -1.1216  0.0188
 6769SOL    HW231944   0.323   1.633  15.694 -1.2074 -0.0128 -0.0702
 6770SOL     OW31945   3.302   2.748  16.403  0.1401  0.1739 -0.0507
 6770SOL    HW131946   3.346   2.780  16.481 -0.3121 -1.2712  0.7938
 6770SOL    HW231947   3.270   2.831  16.366  1.4605  0.0705 -1.4199
 6771SOL     OW31948   0.182   3.262   5.243 -0.4327 -0.1458 -0.3425
 6771SOL    HW131949   0.193   3.178   5.288 -0.2375  0.4525  0.7249
 6771SOL    HW231950   0.162   3.310   5.324  2.5990 -0.3558  0.5626
 6772SOL     OW31951   4.716   4.224   0.774  0.1870  0.2311  0.2895
 6772SOL    HW131952   0.076   4.221   0.773  0.1690 -0.1214 -0.2515
 6772SOL    HW231953   4.691   4.141   0.735  1.8715 -0.4733  0.7296
 6773SOL     OW31954   0.190   4.654  16.511 -0.3244 -0.0748 -0.2238
 6773SOL    HW131955   0.252   4.641  16.440  1.2720 -0.9654  1.3173
 6773SOL    HW231956   0.132   4.578  16.505  1.2837 -1.2400 -1.1832
 6774SOL     OW31957   2.667   4.600   0.900  0.0619 -0.0843 -0.0257
 6774SOL    HW131958   2.687   4.552   0.820  1.1457 -0.5175  0.4924
 6774SOL    HW231959   2.670   4.536   0.972  2.5059  1.0380  0.8864
 6775SOL     OW31960   4.013   1.686   6.907 -0.3106 -0.3241  0.0132
 6775SOL    HW131961   4.000   1.780   6.924 -2.5035 -0.4124 -1.1343
 6775SOL    HW231962   4.006   1.651   6.996 -1.7127 -0.7807 -0.2745
 6776SOL     OW31963   4.193   2.949   6.070 -0.0348  0.0168  0.4438
 6776SOL    HW131964   4.231   2.945   6.158  1.6422  0.6926 -0.2513
 6776SOL    HW231965   4.146   2.866   6.065  2.1595 -1.0959 -1.4087
 6777SOL     OW31966   0.879   1.726  13.562 -0.3487 -0.0537 -0.4995
 6777SOL    HW131967   0.854   1.708  13.471  0.9725 -0.1082 -0.8548
 6777SOL    HW231968   0.967   1.763  13.552 -0.8109  0.3634 -3.0089
 6778SOL     OW31969   0.931   0.678   3.054 -0.4935  0.5924  0.9628
 6778SOL    HW131970   0.977   0.632   2.983 -4.2201  0.0250 -1.0706
 6778SOL    HW231971   0.859   0.714   3.003  2.4423  1.1317 -2.8874
 6779SOL     OW31972   4.700   4.501   6.936  0.4763  0.1939 -0.0644
 6779SOL    HW131973   0.032   4.524   7.001  0.8875 -0.1749 -0.3663
 6779SOL    HW231974   4.645   4.446   6.992 -1.8507  0.6701 -1.9104
 6780SOL     OW31975   1.914   4.153   5.583 -0.3493 -0.2548 -0.1614
 6780SOL    HW131976   1.885   4.064   5.598  1.7174 -1.0498 -0.8530
 6780SOL    HW231977   1.853   4.159   5.510  0.7537 -0.8014 -1.1368
 6781SOL     OW31978   2.557   3.884   2.875  0.1964  0.0301 -0.0086
 6781SOL    HW131979   2.642   3.872   2.833  1.4473  4.5232  1.1801
 6781SOL    HW231980   2.524   3.794   2.876 -0.0029  0.0913 -1.3085
 6782SOL     OW31981   2.080   0.208  11.301  0.4437  0.1409 -0.1756
 6782SOL    HW131982   2.057   0.301  11.295  1.0943  0.2075 -1.7245
 6782SOL    HW231983   2.083   0.188  11.394 -0.3824  1.8005  0.2076
 6783SOL     OW31984   2.409   1.507   9.563 -0.3636  0.3284  0.0090
 6783SOL    HW131985   2.454   1.591   9.574  0.1019  0.4604 -3.1065
 6783SOL    HW231986   2.429   1.467   9.479  1.2441 -1.8606  1.4238
 6784SOL     OW31987   2.614   0.335   8.965 -0.2101 -0.1010 -0.5247
 6784SOL    HW131988   2.593   0.353   8.873 -0.3173  1.5251 -0.1800
 6784SOL    HW231989   2.688   0.275   8.954 -0.8194 -0.9827  0.1668
 6785SOL     OW31990   1.707   2.415   5.398 -0.0411 -0.6124  0.8400
 6785SOL    HW131991   1.648   2.477   5.441 -0.9785  0.8887 -2.5789
 6785SOL    HW231992   1.682   2.340   5.451  0.3970 -0.8950  0.6453
 6786SOL     OW31993   3.808   3.994  15.833  0.8388 -0.1131  0.3879
 6786SOL    HW131994   3.833   4.064  15.773 -0.3194  0.3000  0.3955
 6786SOL    HW231995   3.836   3.907  15.804  0.5000 -0.3958  0.8960
 6787SOL     OW31996   4.496   3.890   9.221 -0.1957  0.0196  0.2362
 6787SOL    HW131997   4.532   3.978   9.227  1.6643 -0.5572 -2.0276
 6787SOL    HW231998   4.404   3.900   9.198 -0.1269 -2.1664 -1.0622
 6788SOL     OW31999   3.755   2.562   4.618  0.1348 -0.1715  0.3238
 6788SOL    HW132000   3.774   2.489   4.559 -0.7642  0.8586 -1.2162
 6788SOL    HW232001   3.801   2.538   4.699 -0.0902  0.6031  0.6733
 6789SOL     OW32002   3.557   4.083  17.613  0.7271 -0.1779  0.7171
 6789SOL    HW132003   3.625   4.106  17.549  0.8911 -0.7735  0.6758
 6789SOL    HW232004   3.480   4.085  17.555  0.2871 -0.8434  1.2841
 6790SOL     OW32005   0.820   3.715  13.385  0.6183 -0.2282  0.6345
 6790SOL    HW132006   0.885   3.739  13.451  1.4358 -0.0788 -0.2393
 6790SOL    HW232007   0.757   3.662  13.434  2.1659 -0.5691  2.2753
 6791SOL     OW32008   0.270   1.729   3.583  0.8179 -0.3555  0.1526
 6791SOL    HW132009   0.347   1.741   3.527 -0.8022  0.6577 -1.8714
 6791SOL    HW232010   0.224   1.667   3.527 -1.3408 -0.7803  2.4239
 6792SOL     OW32011   1.932   3.114  10.103 -0.2013 -0.1308  0.0505
 6792SOL    HW132012   1.876   3.144  10.174 -1.6155  2.8783 -2.3237
 6792SOL    HW232013   1.868   3.086  10.037 -0.4399  0.4758  0.0311
 6793SOL     OW32014   0.402   0.274   5.611 -0.0869  0.6235  0.0504
 6793SOL    HW132015   0.376   0.338   5.545  3.2139 -1.2532 -3.0251
 6793SOL    HW232016   0.314   0.256   5.644 -1.0958  1.5637 -2.1495
 6794SOL     OW32017   0.530   3.801   7.546 -0.0962 -0.3642  0.3454
 6794SOL    HW132018   0.437   3.820   7.528  0.7387  1.3688 -2.2085
 6794SOL    HW232019   0.573   3.881   7.515 -1.9604  1.0390  1.3608
 6795SOL     OW32020   1.980   0.268   0.999  0.1347 -0.1850  0.1261
 6795SOL    HW132021   2.023   0.249   1.082 -1.0502  2.0808  1.2633
 6795SOL    HW232022   1.896   0.305   1.024  1.2920  1.1862  1.9504
 6796SOL     OW32023   1.847   4.035   8.840 -0.4287  0.7810  0.2494
 6796SOL    HW132024   1.885   3.956   8.880 -4.1812 -1.1071  0.1219
 6796SOL    HW232025   1.895   4.110   8.875  0.4905  1.2114 -1.9264
 6797SOL     OW32026   3.346   2.236  10.738 -0.3299 -0.7915 -0.6375
 6797SOL    HW132027   3.366   2.198  10.824  1.2230 -2.2780 -1.6492
 6797SOL    HW232028   3.409   2.308  10.744 -0.6152 -0.6624  0.8955
 6798SOL     OW32029   1.116   4.527   4.092  0.1586  0.0384 -0.4036
 6798SOL    HW132030   1.095   4.499   4.003 -1.0886 -0.9743  0.2089
 6798SOL    HW232031   1.100   4.448   4.143 -1.1270  1.7644  1.8825
 6799SOL     OW32032   1.495   2.151  14.519  0.4472 -0.3938  0.4163
 6799SOL    HW132033   1.409   2.153  14.476  1.1096  0.1769 -0.8715
 6799SOL    HW232034   1.481   2.218  14.585 -0.0837  0.8007 -0.9082
 6800SOL     OW32035   4.094   3.640   0.195 -0.2792  0.9626 -0.0281
 6800SOL    HW132036   4.164   3.699   0.168  1.2437  0.0901  2.0467
 6800SOL    HW232037   4.106   3.642   0.290 -0.3857 -0.2607  0.0129
 6801SOL     OW32038   0.070   3.115   4.493 -0.5255  0.2021  0.3267
 6801SOL    HW132039   0.149   3.071   4.525 -0.7405 -0.3643  0.0581
 6801SOL    HW232040   0.048   3.171   4.567 -0.9080 -0.4508  0.6938
 6802SOL     OW32041   0.229   3.551   3.736 -0.0164 -0.5620  0.1786
 6802SOL    HW132042   0.210   3.490   3.807  0.4207  0.3008  1.0485
 6802SOL    HW232043   0.157   3.526   3.678 -0.8156 -1.0964  1.4099
 6803SOL     OW32044   3.171   1.977   9.519 -0.5036  0.3341 -0.4477
 6803SOL    HW132045   3.186   2.013   9.607  0.6728  2.6476 -1.5987
 6803SOL    HW232046   3.084   2.010   9.494 -1.6245 -2.6600 -0.4168
 6804SOL     OW32047   1.693   3.175   2.010 -0.1188 -0.2689  0.1175
 6804SOL    HW132048   1.746   3.255   2.008 -1.7730  0.8732  1.3615
 6804SOL    HW232049   1.712   3.150   1.920 -3.0082 -2.2223  0.0624
 6805SOL     OW32050   1.660   3.720   3.446  0.3553 -0.2961 -0.1820
 6805SOL    HW132051   1.681   3.748   3.356  3.2103 -3.0630 -0.3467
 6805SOL    HW232052   1.735   3.753   3.496 -1.4420  0.1537  2.2362
 6806SOL     OW32053   1.086   1.248   4.189 -0.2905  0.2717  0.0201
 6806SOL    HW132054   1.049   1.289   4.110 -0.9950 -1.2944 -0.4666
 6806SOL    HW232055   1.047   1.163   4.210  2.7704 -1.3440 -0.8624
 6807SOL     OW32056   0.216   3.157   6.411  0.1776  0.3362  0.1329
 6807SOL    HW132057   0.236   3.117   6.327  1.3257  2.4505 -0.5942
 6807SOL    HW232058   0.135   3.113   6.436 -0.3461 -0.1669 -2.4880
 6808SOL     OW32059   4.532   2.558   5.000  0.2636  0.2496  0.1017
 6808SOL    HW132060   4.593   2.485   4.996 -0.9431 -0.7149 -0.6399
 6808SOL    HW232061   4.598   2.626   5.013  0.5405 -0.2812  1.4144
 6809SOL     OW32062   0.217   4.595   5.788 -0.3654 -0.0760 -0.6651
 6809SOL    HW132063   0.166   4.516   5.773  0.7197 -1.3919  2.5381
 6809SOL    HW232064   0.154   4.662   5.816  0.1466 -0.6238  1.7794
 6810SOL     OW32065   2.380   3.932   8.322  0.1783  0.0392  0.2128
 6810SOL    HW132066   2.286   3.922   8.310 -0.2368  0.4558  3.2024
 6810SOL    HW232067   2.414   3.854   8.278 -0.8633 -1.1169  1.4531
 6811SOL     OW32068   3.248   3.685   3.358 -0.2028  0.0056  0.4903
 6811SOL    HW132069   3.271   3.723   3.442  0.8642  1.0945 -0.2946
 6811SOL    HW232070   3.191   3.748   3.313 -1.9749 -1.0120  1.3029
 6812SOL     OW32071   4.657   1.206  16.427  0.1575  0.3497 -0.0629
 6812SOL    HW132072   4.730   1.169  16.377 -1.0903  1.0860 -2.4062
 6812SOL    HW232073   4.598   1.131  16.427  0.3254  0.2213 -2.3380
 6813SOL     OW32074   3.819   3.664   0.491 -0.0633  0.0468  0.5069
 6813SOL    HW132075   3.910   3.647   0.470 -1.2181 -4.1113 -1.1638
 6813SOL    HW232076   3.794   3.584   0.539 -0.6901 -0.4775 -0.7042
 6814SOL     OW32077   1.039   2.079   5.736 -0.1723 -0.0896  0.3821
 6814SOL    HW132078   1.034   2.059   5.643  2.1061 -0.9459  0.4468
 6814SOL    HW232079   0.964   2.138   5.744  0.1732  0.5583 -1.2961
 6815SOL     OW32080   2.488   1.755  16.663  0.0358 -0.1614 -0.3659
 6815SOL    HW132081   2.520   1.720  16.580  3.0458  0.3310  0.5684
 6815SOL    HW232082   2.437   1.678  16.687  0.3360  0.2098  1.4364
 6816SOL     OW32083   2.310   0.539   8.105 -0.2646  0.2951 -0.0843
 6816SOL    HW132084   2.301   0.619   8.156 -0.6715  1.8364 -2.5816
 6816SOL    HW232085   2.279   0.556   8.016  0.3318 -1.1065 -0.5672
 6817SOL     OW32086   0.334   2.206   1.730 -0.4461  0.1509 -0.0694
 6817SOL    HW132087   0.286   2.169   1.656 -0.3749 -1.4766  0.7093
 6817SOL    HW232088   0.372   2.136   1.783  0.7651  1.6799  1.1092
 6818SOL     OW32089   0.907   3.100  16.450 -0.1278  0.4345 -0.5047
 6818SOL    HW132090   0.918   3.192  16.426  2.0135  0.2542 -0.2436
 6818SOL    HW232091   0.846   3.074  16.381  2.0536 -1.0971 -1.8760
 6819SOL     OW32092   2.201   2.947  14.197 -0.5716 -0.3950  0.0986
 6819SOL    HW132093   2.146   2.942  14.119 -0.0228  0.1456 -0.3254
 6819SOL    HW232094   2.183   2.866  14.243  5.0457 -0.5662  1.9844
 6820SOL     OW32095   1.647   3.764  17.128 -0.0975  0.3128  0.1359
 6820SOL    HW132096   1.678   3.752  17.218  0.5106  0.8539  0.0019
 6820SOL    HW232097   1.720   3.764  17.067  0.4736 -0.6742  0.8267
 6821SOL     OW32098   4.450   1.816  10.959  0.2029  0.1079  0.0737
 6821SOL    HW132099   4.357   1.827  10.977 -0.2344 -0.0146 -2.0644
 6821SOL    HW232100   4.488   1.853  11.038  0.9104 -0.7404  0.1356
 6822SOL     OW32101   3.405   4.649   4.726 -0.1806 -0.3636  0.1887
 6822SOL    HW132102   3.399   4.611   4.813 -0.9652 -1.2302 -0.2423
 6822SOL    HW232103   3.489   4.622   4.689 -0.4895  0.4936 -1.1209
 6823SOL     OW32104   1.219   1.085   6.193  0.7155 -0.4505  0.8911
 6823SOL    HW132105   1.171   1.111   6.114  1.6573  4.6647  1.9970
 6823SOL    HW232106   1.226   1.172   6.232  2.7767 -0.6580  0.9864
 6824SOL     OW32107   3.895   1.559   4.805  0.4932 -0.5058  0.2889
 6824SOL    HW132108   3.831   1.488   4.811 -0.5588  0.5208  1.0593
 6824SOL    HW232109   3.840   1.634   4.828  0.1978  0.2788 -2.9187
 6825SOL     OW32110   4.308   1.005  13.420  1.1730  0.2933 -0.2146
 6825SOL    HW132111   4.265   0.970  13.498  1.4403  1.4971  0.4788
 6825SOL    HW232112   4.270   1.091  13.401 -0.6716 -0.3447  0.6112
 6826SOL     OW32113   3.917   1.674   2.294  0.4041  0.5366 -0.3094
 6826SOL    HW132114   3.908   1.768   2.310  3.4597  0.6307  0.8128
 6826SOL    HW232115   3.833   1.649   2.255  0.1365  1.3572 -0.2635
 6827SOL     OW32116   2.879   1.347   8.098 -0.6040 -0.2735 -0.9535
 6827SOL    HW132117   2.940   1.352   8.171 -0.2344  0.3808 -1.3068
 6827SOL    HW232118   2.807   1.402   8.130 -1.0189 -1.0078 -0.6254
 6828SOL     OW32119   2.068   0.718   1.936 -0.1404  0.0705  0.2535
 6828SOL    HW132120   2.002   0.682   1.876 -1.1887  2.3596  0.0299
 6828SOL    HW232121   2.070   0.663   2.014  0.3733  0.4189  0.4857
 6829SOL     OW32122   1.303   3.654   5.678 -0.0483 -0.0636 -0.0230
 6829SOL    HW132123   1.351   3.670   5.759  0.0528  0.5305 -0.2029
 6829SOL    HW232124   1.350   3.574   5.654 -0.1743 -0.1431 -0.0052
 6830SOL     OW32125   0.430   2.157   6.292  0.2368 -0.3629  0.1205
 6830SOL    HW132126   0.394   2.096   6.228  0.4608  0.3205 -0.6559
 6830SOL    HW232127   0.377   2.159   6.372 -0.7858 -3.1483 -0.4735
 6831SOL     OW32128   0.860   0.023   1.000  0.2522  0.4995  0.0975
 6831SOL    HW132129   0.893   0.091   0.942  1.0437  0.6697  0.7493
 6831SOL    HW232130   0.889   0.058   1.084 -3.9416  2.9442  0.5081
 6832SOL     OW32131   0.132   3.754  13.438 -0.1892  0.1413 -0.0403
 6832SOL    HW132132   0.199   3.818  13.416  0.4095 -0.2525  0.6592
 6832SOL    HW232133   0.081   3.758  13.357 -0.7516 -2.0761  0.1870
 6833SOL     OW32134   1.135   3.204   8.756  0.5778 -0.0772  0.0518
 6833SOL    HW132135   1.150   3.214   8.850 -0.3087 -0.5881  0.2437
 6833SOL    HW232136   1.154   3.111   8.746  0.6412  0.1444 -1.8371
 6834SOL     OW32137   2.590   1.224  17.044  0.5290  0.0943  0.1193
 6834SOL    HW132138   2.653   1.282  17.088  1.1264 -0.6419  0.2364
 6834SOL    HW232139   2.613   1.269  16.962  0.8714 -1.7330 -0.7762
 6835SOL     OW32140   3.144   0.019   8.529 -0.1968  0.0615  0.0082
 6835SOL    HW132141   3.130   0.054   8.617 -1.6857 -1.9487  0.5633
 6835SOL    HW232142   3.183   0.096   8.487  1.4826 -1.5364 -1.3371
 6836SOL     OW32143   1.454   0.021   4.314  0.7485 -0.1162  0.5458
 6836SOL    HW132144   1.460   4.675   4.365 -1.6389 -2.1058 -2.4151
 6836SOL    HW232145   1.489   4.728   4.229 -0.4174  0.8141 -0.2352
 6837SOL     OW32146   2.556   1.125   3.090  0.0041 -0.1398  0.0841
 6837SOL    HW132147   2.562   1.216   3.062 -1.9500 -0.1045 -0.2210
 6837SOL    HW232148   2.502   1.079   3.027 -1.7988 -0.3321  1.7667
 6838SOL     OW32149   2.998   1.386   7.826  0.2414 -0.3930  0.1656
 6838SOL    HW132150   2.953   1.302   7.819  0.0840 -0.3045  0.0933
 6838SOL    HW232151   2.986   1.403   7.919  0.3401 -0.9074  0.2709
 6839SOL     OW32152   2.549   2.066   7.451 -0.6973  0.3071  0.4311
 6839SOL    HW132153   2.474   2.015   7.420 -0.4954 -0.3622  1.0394
 6839SOL    HW232154   2.502   2.128   7.507  1.3731  1.3499  0.9928
 6840SOL     OW32155   3.027   1.322   8.349 -0.5828 -0.1074  0.1353
 6840SOL    HW132156   3.067   1.401   8.385 -1.0980 -0.6007  1.7857
 6840SOL    HW232157   2.977   1.294   8.425  0.5092 -0.7195  0.6235
 6841SOL     OW32158   4.268   3.824   3.530  0.0080  0.5660  0.0658
 6841SOL    HW132159   4.342   3.815   3.589 -0.9158 -0.0710  1.1120
 6841SOL    HW232160   4.216   3.888   3.579 -2.6465 -1.1326 -0.5931
 6842SOL     OW32161   3.484   1.388   8.757  0.2389  0.3084  0.0044
 6842SOL    HW132162   3.480   1.456   8.690 -1.2929 -0.0857 -0.2921
 6842SOL    HW232163   3.404   1.402   8.807 -0.3707 -1.5035 -0.4574
 6843SOL     OW32164   0.339   0.791  11.337  0.1398  0.8172 -0.3843
 6843SOL    HW132165   0.403   0.837  11.392  0.8175  0.9494 -1.2835
 6843SOL    HW232166   0.391   0.780  11.257 -0.6326  1.1180 -0.9247
 6844SOL     OW32167   2.571   3.254  15.751  0.2399  0.4204 -0.4756
 6844SOL    HW132168   2.514   3.177  15.752  0.3226  0.3653 -0.0957
 6844SOL    HW232169   2.606   3.265  15.662 -0.2975 -0.7439 -0.8270
 6845SOL     OW32170   3.980   0.765   9.009 -0.1492  0.0300  0.1470
 6845SOL    HW132171   4.012   0.774   9.099  1.1007  0.3751 -0.3304
 6845SOL    HW232172   4.057   0.734   8.961  0.2598  1.3693 -0.0353
 6846SOL     OW32173   0.215   3.462   2.328 -0.4881 -0.7208 -0.7916
 6846SOL    HW132174   0.220   3.367   2.340  0.0802 -0.2486  2.6106
 6846SOL    HW232175   0.122   3.481   2.321 -0.5632 -1.5273 -2.0637
 6847SOL     OW32176   1.673   3.744   7.583 -0.2942 -0.2266  0.0036
 6847SOL    HW132177   1.595   3.799   7.571  1.5908  2.0564 -1.5396
 6847SOL    HW232178   1.715   3.790   7.656  0.6374 -0.8260 -0.1601
 6848SOL     OW32179   4.561   1.226   0.317  0.3438  0.0184 -0.5572
 6848SOL    HW132180   4.478   1.179   0.314 -1.4461  3.1888 -1.3175
 6848SOL    HW232181   4.615   1.161   0.273 -0.3623  1.5887 -3.7540
 6849SOL     OW32182   3.671   2.006   9.132 -0.4185  0.1265  0.5134
 6849SOL    HW132183   3.699   1.997   9.041  0.5905 -1.2157  0.9495
 6849SOL    HW232184   3.596   1.947   9.138  0.3875 -0.9786 -0.1573
 6850SOL     OW32185   3.008   3.969   7.747 -0.6017  0.0051  0.3516
 6850SOL    HW132186   3.017   3.918   7.667 -1.8627  1.9971 -1.0807
 6850SOL    HW232187   3.032   4.057   7.716  1.0257 -1.3111 -2.1114
 6851SOL     OW32188   3.923   3.292   9.202 -0.2442  0.0587  0.0817
 6851SOL    HW132189   3.935   3.292   9.107  0.6846  0.9626  0.2036
 6851SOL    HW232190   3.938   3.385   9.216 -0.4870  0.0353  0.5057
 6852SOL     OW32191   0.147   2.164   8.363 -0.7854 -0.9373 -0.1952
 6852SOL    HW132192   0.226   2.125   8.399 -1.2934 -0.0074  1.9522
 6852SOL    HW232193   0.151   2.251   8.403  0.5423 -0.7486 -0.7567
 6853SOL     OW32194   4.177   1.397   8.710  0.1498  0.6343  0.2911
 6853SOL    HW132195   4.093   1.351   8.720 -0.9652  1.7985 -3.8229
 6853SOL    HW232196   4.237   1.327   8.736  1.5813  0.9719 -2.1864
 6854SOL     OW32197   4.381   2.399   3.453 -0.2891  0.0793  0.4269
 6854SOL    HW132198   4.474   2.400   3.475 -0.1700 -1.6409  0.0705
 6854SOL    HW232199   4.372   2.322   3.396  0.1344  0.7093 -0.4869
 6855SOL     OW32200   4.018   1.326   9.159 -0.2740 -0.5948 -0.5976
 6855SOL    HW132201   3.994   1.411   9.195  2.4952 -0.1624  0.2949
 6855SOL    HW232202   4.089   1.359   9.103 -1.6851  0.4787 -1.7381
 6856SOL     OW32203   4.485   2.016  11.251  0.3257 -0.2181 -0.1417
 6856SOL    HW132204   4.395   2.000  11.225  0.9015  0.1363 -2.3500
 6856SOL    HW232205   4.539   1.939  11.231 -1.4677 -1.7358  0.9745
 6857SOL     OW32206   4.505   4.535   5.918 -0.2535  0.2047 -0.1921
 6857SOL    HW132207   4.419   4.557   5.882 -0.5379 -3.1665 -1.5993
 6857SOL    HW232208   4.559   4.612   5.903  0.8852 -0.5406  0.1721
 6858SOL     OW32209   0.769   3.213   3.186 -0.1796  0.1131 -1.1446
 6858SOL    HW132210   0.850   3.229   3.137  0.3542  0.7605 -0.0571
 6858SOL    HW232211   0.723   3.155   3.125  0.3784 -0.1562 -1.3029
 6859SOL     OW32212   4.027   1.359  14.458 -0.3250 -0.3388  0.0435
 6859SOL    HW132213   4.090   1.295  14.491 -1.1463 -0.2222  1.8810
 6859SOL    HW232214   3.983   1.375  14.542  0.5208  1.5965  0.1145
 6860SOL     OW32215   1.226   4.299   1.457  0.4185 -0.4694  0.4835
 6860SOL    HW132216   1.230   4.380   1.408  0.1471 -0.8082 -0.1003
 6860SOL    HW232217   1.141   4.257   1.440 -0.3586  1.4211 -0.2278
 6861SOL     OW32218   3.514   4.049   5.770 -0.2840 -0.1844 -0.0199
 6861SOL    HW132219   3.545   3.978   5.828  0.3283 -0.1975 -0.3662
 6861SOL    HW232220   3.600   4.063   5.730 -1.8650  1.4257 -2.8049
 6862SOL     OW32221   2.145   3.266   3.307 -0.4884 -0.1183 -0.2949
 6862SOL    HW132222   2.111   3.207   3.375  0.0142 -1.9817 -1.6428
 6862SOL    HW232223   2.120   3.353   3.337  0.6350 -0.4561  1.6911
 6863SOL     OW32224   1.905   1.093  14.840  0.4977 -0.0204 -0.1649
 6863SOL    HW132225   1.822   1.102  14.887  0.4578  2.2833 -0.6918
 6863SOL    HW232226   1.891   1.141  14.759 -0.6165  1.5353  0.9359
 6864SOL     OW32227   2.714   1.131   5.932 -0.1497  0.5750 -0.2031
 6864SOL    HW132228   2.757   1.062   5.982 -0.4553  0.4269 -0.1403
 6864SOL    HW232229   2.645   1.151   5.996  0.2554 -0.1921  0.4749
 6865SOL     OW32230   2.100   3.431   4.708 -0.7441  0.0073  0.8565
 6865SOL    HW132231   2.184   3.385   4.710 -2.2185 -2.8024 -0.7702
 6865SOL    HW232232   2.053   3.382   4.775  0.8814 -1.2826  1.0566
 6866SOL     OW32233   2.929   0.159   4.919  0.2389 -0.3072 -0.3628
 6866SOL    HW132234   2.947   0.178   4.827 -1.0451 -0.3496 -0.6251
 6866SOL    HW232235   2.856   0.100   4.901 -0.0142 -0.3314  0.7409
 6867SOL     OW32236   1.966   2.060   9.271  0.3368  0.0849  0.5330
 6867SOL    HW132237   2.002   2.148   9.257 -0.2941  0.3083  0.2820
 6867SOL    HW232238   1.980   2.040   9.364  1.5389  1.2676  0.6075
 6868SOL     OW32239   3.023   4.606   5.329 -0.3031 -0.1214 -0.2696
 6868SOL    HW132240   3.009   4.669   5.258 -0.9176  0.5074  0.4151
 6868SOL    HW232241   3.107   4.567   5.307 -0.2237  0.2678 -0.6524
 6869SOL     OW32242   0.670   0.545   4.954 -0.3043  0.1637  0.3949
 6869SOL    HW132243   0.688   0.629   4.912  2.4212 -0.2333  0.8020
 6869SOL    HW232244   0.576   0.532   4.938  0.0484 -0.0145 -1.5315
 6870SOL     OW32245   0.471   1.215   9.763  0.1756 -0.0700 -0.1416
 6870SOL    HW132246   0.446   1.174   9.846  0.4457 -1.1007 -0.5769
 6870SOL    HW232247   0.454   1.308   9.776  1.4339  0.3006 -1.1752
 6871SOL     OW32248   0.336   0.291   8.288 -0.0032 -0.1920 -0.3868
 6871SOL    HW132249   0.259   0.346   8.301  0.7984  0.7530  0.3556
 6871SOL    HW232250   0.312   0.234   8.215  1.0273  0.6103 -1.3508
 6872SOL     OW32251   1.748   2.778   4.413 -0.4292  0.0111  0.1993
 6872SOL    HW132252   1.841   2.764   4.431 -0.6951 -0.7838  0.9609
 6872SOL    HW232253   1.744   2.843   4.343  2.3871  0.8805  0.8836
 6873SOL     OW32254   4.485   0.704   2.328  0.2838  0.8038  0.1560
 6873SOL    HW132255   4.430   0.649   2.383  0.2608 -0.2989 -0.9542
 6873SOL    HW232256   4.555   0.639   2.319 -0.0719  0.6683 -1.6159
 6874SOL     OW32257   1.846   2.435   8.395  0.7252  0.6759 -0.3194
 6874SOL    HW132258   1.752   2.449   8.407  0.4044 -0.6094 -1.2217
 6874SOL    HW232259   1.843   2.451   8.300 -0.9729  0.7070 -0.2483
 6875SOL     OW32260   3.318   1.508   5.345  0.0583  0.3807 -0.2556
 6875SOL    HW132261   3.297   1.601   5.351 -0.4563  0.2986 -0.7727
 6875SOL    HW232262   3.366   1.495   5.427 -0.2439 -1.0874 -0.3058
 6876SOL     OW32263   0.172   1.974   3.701 -0.6150 -0.5035 -0.5091
 6876SOL    HW132264   0.195   1.972   3.794  1.3920 -0.1024 -0.9917
 6876SOL    HW232265   0.221   1.908   3.652  0.6565 -0.1463  0.3018
 6877SOL     OW32266   0.782   3.195  13.289  0.1423 -0.0676  0.4966
 6877SOL    HW132267   0.867   3.238  13.279 -0.3871  0.7469 -0.4263
 6877SOL    HW232268   0.766   3.152  13.205  2.1344 -0.3134  0.2471
 6878SOL     OW32269   0.899   3.217  16.079 -0.2781 -0.1057  0.1121
 6878SOL    HW132270   0.812   3.179  16.071  0.3111 -1.0802 -1.6876
 6878SOL    HW232271   0.926   3.207  15.988 -1.9907  1.4233 -0.5643
 6879SOL     OW32272   2.968   0.617  14.958  0.2743  0.1483  0.1388
 6879SOL    HW132273   2.923   0.690  14.999 -2.3103 -0.4691 -1.6042
 6879SOL    HW232274   3.054   0.658  14.957  0.9705 -1.3191 -0.2658
 6880SOL     OW32275   3.520   1.137  12.207  0.4605 -0.0812 -0.7062
 6880SOL    HW132276   3.580   1.189  12.155  0.9030 -0.7897 -0.8987
 6880SOL    HW232277   3.456   1.207  12.224 -0.2341 -0.3436 -2.2493
 6881SOL     OW32278   2.087   3.012   2.375  0.8144 -0.1329 -0.4917
 6881SOL    HW132279   2.065   2.919   2.384 -0.8152  0.2042 -0.8767
 6881SOL    HW232280   2.011   3.050   2.331  2.4590  3.0528 -0.5854
 6882SOL     OW32281   1.493   1.613   7.341  0.0120 -0.3564  0.1407
 6882SOL    HW132282   1.512   1.538   7.397  2.6474 -0.6235 -1.0815
 6882SOL    HW232283   1.571   1.610   7.285  0.1232 -0.3357  0.2949
 6883SOL     OW32284   3.564   3.343   3.152 -0.2775  0.0522  0.0243
 6883SOL    HW132285   3.500   3.413   3.164 -2.2211 -1.7282  0.0741
 6883SOL    HW232286   3.636   3.400   3.126  0.2323  0.4567  2.3467
 6884SOL     OW32287   2.940   1.113  13.849  0.4150  0.5846  0.2277
 6884SOL    HW132288   2.898   1.137  13.932  0.2620 -1.3765  0.7209
 6884SOL    HW232289   2.955   1.199  13.809  1.8166  1.3865  2.4926
 6885SOL     OW32290   2.299   0.050   8.865  0.0876 -0.3840  0.1785
 6885SOL    HW132291   2.225   0.019   8.917  0.3689 -2.4250 -0.6270
 6885SOL    HW232292   2.335   0.112   8.929 -0.2096 -0.8527  0.7982
 6886SOL     OW32293   0.580   1.195   4.112  0.4276  0.0034 -0.1511
 6886SOL    HW132294   0.643   1.131   4.143 -0.2808 -0.4238  0.3954
 6886SOL    HW232295   0.617   1.229   4.030  0.1807  1.7149  0.4315
 6887SOL     OW32296   1.565   3.608   3.785 -0.0777  0.6078  0.1800
 6887SOL    HW132297   1.601   3.682   3.736 -1.4064  1.0073 -0.2096
 6887SOL    HW232298   1.588   3.538   3.725  0.1951  0.0205  0.9702
 6888SOL     OW32299   1.077   2.436   3.367 -0.6895  0.1636 -0.0473
 6888SOL    HW132300   1.111   2.354   3.404  0.1469 -0.9696 -3.3686
 6888SOL    HW232301   1.072   2.423   3.272  2.4509 -0.9372 -0.0459
 6889SOL     OW32302   3.348   3.167   9.245  0.5157  0.0312  0.0525
 6889SOL    HW132303   3.354   3.253   9.287  0.0674 -0.1229  0.4278
 6889SOL    HW232304   3.269   3.175   9.193  0.4395 -0.2438  0.1269
 6890SOL     OW32305   2.252   0.394   3.595 -0.6783  0.7022 -0.0287
 6890SOL    HW132306   2.199   0.429   3.524  0.1841  1.0006 -0.5182
 6890SOL    HW232307   2.297   0.477   3.610 -1.8869  1.0140  2.0451
 6891SOL     OW32308   2.525   3.356   4.078 -0.0630 -0.2674 -0.2239
 6891SOL    HW132309   2.503   3.437   4.124  3.5807 -0.6676  2.1435
 6891SOL    HW232310   2.566   3.389   3.998 -2.3688  1.5310 -0.6576
 6892SOL     OW32311   0.632   0.668   2.518  0.3092 -0.6759 -0.5451
 6892SOL    HW132312   0.565   0.711   2.465 -1.4746 -3.1184 -0.2497
 6892SOL    HW232313   0.710   0.710   2.482  0.8560 -0.5955  0.7281
 6893SOL     OW32314   3.290   1.457  13.653 -0.1058 -0.5350  0.0213
 6893SOL    HW132315   3.312   1.522  13.587  1.9367 -1.9321 -0.6876
 6893SOL    HW232316   3.373   1.409  13.653 -0.8776 -1.8873  3.2281
 6894SOL     OW32317   0.157   0.302   3.879  0.1937  0.6387 -0.5231
 6894SOL    HW132318   0.233   0.274   3.930 -0.4647  3.7097  2.1432
 6894SOL    HW232319   0.113   0.217   3.877 -1.4950  1.4679  2.0454
 6895SOL     OW32320   4.535   2.888  15.191  0.0044 -0.4773 -0.3894
 6895SOL    HW132321   4.584   2.820  15.145  0.2215 -0.1761 -0.6049
 6895SOL    HW232322   4.449   2.852  15.213 -0.3662  2.0613  2.2282
 6896SOL     OW32323   1.640   2.746   0.475  0.1359 -0.0842  0.1903
 6896SOL    HW132324   1.549   2.742   0.505 -0.2277 -0.3949 -0.9524
 6896SOL    HW232325   1.675   2.794   0.550  2.8212  0.7036 -1.5741
 6897SOL     OW32326   0.718   0.542   6.522 -0.0605 -0.1249 -0.0456
 6897SOL    HW132327   0.743   0.633   6.536 -0.8368  0.2222 -0.9523
 6897SOL    HW232328   0.717   0.529   6.427  0.1884 -0.0847 -0.0550
 6898SOL     OW32329   2.696   2.828   6.555  0.5666  0.4238 -0.2640
 6898SOL    HW132330   2.732   2.785   6.478 -0.6738 -0.0318 -0.5901
 6898SOL    HW232331   2.614   2.780   6.566  1.2408 -0.2074  2.1958
 6899SOL     OW32332   0.082   0.129   7.025 -0.1660 -0.3972 -0.3495
 6899SOL    HW132333   0.115   0.185   6.955 -1.7887 -1.6890 -2.1332
 6899SOL    HW232334   4.724   0.154   7.025  0.1854  0.9304 -1.3010
 6900SOL     OW32335   3.832   1.645  13.363  0.0577 -0.7585 -0.3005
 6900SOL    HW132336   3.919   1.668  13.331  0.6789 -3.6895 -0.7752
 6900SOL    HW232337   3.802   1.731  13.392  1.4095 -0.6611  0.8161
 6901SOL     OW32338   0.095   4.266   2.434 -0.0634 -0.8803  0.3383
 6901SOL    HW132339   0.089   4.301   2.345  0.8059  1.1489  1.0634
 6901SOL    HW232340   0.150   4.188   2.424 -1.3677 -1.7761  0.1414
 6902SOL     OW32341   4.022   2.492   2.037 -0.0234  0.9213 -0.0354
 6902SOL    HW132342   4.106   2.499   2.083  0.8102 -2.9297 -0.9693
 6902SOL    HW232343   4.013   2.562   1.973  2.3443  0.8605 -0.4535
 6903SOL     OW32344   0.095   0.066   3.414 -0.4052  0.0454  0.6251
 6903SOL    HW132345   0.158   4.730   3.422  0.3422  0.5501 -0.7740
 6903SOL    HW232346   0.032   0.034   3.479 -0.2220  0.6549  1.1067
 6904SOL     OW32347   2.112   1.613   7.242 -0.3402  0.0697 -0.3812
 6904SOL    HW132348   2.075   1.641   7.325  0.4790 -0.0939  0.0368
 6904SOL    HW232349   2.086   1.521   7.243 -0.7348  0.1996  0.7487
 6905SOL     OW32350   2.678   0.574   1.311 -0.1790 -0.1092 -0.3518
 6905SOL    HW132351   2.583   0.569   1.322 -0.3903  3.4568 -0.5503
 6905SOL    HW232352   2.705   0.502   1.369 -1.7200 -0.3532  0.0502
 6906SOL     OW32353   3.957   1.795   4.981 -0.0979  0.3332  0.5296
 6906SOL    HW132354   4.002   1.879   4.971 -2.1518  1.3613  0.0242
 6906SOL    HW232355   3.878   1.814   4.930  0.5333  1.8059  0.1084
 6907SOL     OW32356   0.705   1.328  14.275  0.0711  0.1153 -0.0502
 6907SOL    HW132357   0.670   1.348  14.188  4.0241  0.3612 -1.5739
 6907SOL    HW232358   0.799   1.322  14.257 -0.0845  0.5807 -1.0613
 6908SOL     OW32359   1.595   3.576  13.391 -0.3250  0.3670 -0.2841
 6908SOL    HW132360   1.597   3.567  13.296  1.7325  1.8914 -0.3812
 6908SOL    HW232361   1.551   3.660  13.406  0.6137  0.9502 -0.8603
 6909SOL     OW32362   2.340   3.481   2.069  0.3834 -0.1528 -0.5539
 6909SOL    HW132363   2.289   3.560   2.083  1.2054 -0.2490  2.8304
 6909SOL    HW232364   2.291   3.415   2.118  2.5384 -1.4404 -0.1323
 6910SOL     OW32365   4.391   1.558   8.420  0.0975 -0.0964  0.4629
 6910SOL    HW132366   4.310   1.590   8.461 -0.2846 -1.9720  1.1538
 6910SOL    HW232367   4.407   1.632   8.362 -0.5510  0.6729  1.2532
 6911SOL     OW32368   1.825   0.444   6.920 -0.4800 -0.8067 -0.1460
 6911SOL    HW132369   1.911   0.480   6.899 -0.7736 -0.1886 -0.2835
 6911SOL    HW232370   1.845   0.352   6.937  2.2036 -0.0446  0.7728
 6912SOL     OW32371   2.552   0.349  15.353  0.1247  0.3965  0.0724
 6912SOL    HW132372   2.532   0.301  15.273 -0.1044 -0.4279  0.6314
 6912SOL    HW232373   2.558   0.435  15.311  2.0635  0.3594  0.2500
 6913SOL     OW32374   4.326   0.519   2.913 -0.2561  0.6127 -0.1062
 6913SOL    HW132375   4.243   0.492   2.953  0.2533 -0.6083  0.1256
 6913SOL    HW232376   4.373   0.436   2.912 -0.6350  0.4233 -2.2385
 6914SOL     OW32377   3.042   3.465   9.650  0.2668  0.2559  0.5147
 6914SOL    HW132378   3.047   3.436   9.559  1.0519 -1.8344  1.2275
 6914SOL    HW232379   3.085   3.550   9.642  0.0998  0.1681 -1.2006
 6915SOL     OW32380   4.433   2.936   3.517  0.1720  0.1398 -0.9462
 6915SOL    HW132381   4.346   2.903   3.495  0.3429 -0.8333 -0.2069
 6915SOL    HW232382   4.484   2.860   3.489 -0.4371 -0.4696 -0.3899
 6916SOL     OW32383   4.059   0.176  14.143  0.9909  0.3444  0.0764
 6916SOL    HW132384   4.090   0.243  14.081  0.5046  1.5494  1.1209
 6916SOL    HW232385   3.986   0.227  14.177 -1.1019 -1.8836 -1.1078
 6917SOL     OW32386   2.433   0.372   2.213 -0.5504 -0.0221 -0.4611
 6917SOL    HW132387   2.483   0.453   2.219 -2.5988  1.1295  1.2777
 6917SOL    HW232388   2.454   0.331   2.297  1.0030  1.7013 -0.0128
 6918SOL     OW32389   0.518   2.814   6.589  0.1823  0.1020  0.7166
 6918SOL    HW132390   0.543   2.846   6.503  1.2070 -1.8718  0.2764
 6918SOL    HW232391   0.427   2.803   6.561  0.3938 -1.2134  0.5528
 6919SOL     OW32392   3.156   3.616   0.087  0.1697 -0.2382  0.0518
 6919SOL    HW132393   3.175   3.574   0.171 -0.4345  0.1994  0.4146
 6919SOL    HW232394   3.195   3.702   0.104  0.9636 -0.8448  1.3335
 6920SOL     OW32395   0.633   3.592   2.918  0.0110  0.5012 -0.4736
 6920SOL    HW132396   0.544   3.597   2.884  0.5119  0.4371 -1.8221
 6920SOL    HW232397   0.650   3.505   2.883  1.0814  0.6806 -0.3996
 6921SOL     OW32398   2.737   2.788   7.244 -0.2854  0.0464 -0.0060
 6921SOL    HW132399   2.693   2.834   7.174 -2.4379  2.8060  3.1799
 6921SOL    HW232400   2.812   2.757   7.193 -1.2462  0.0086 -1.3847
 6922SOL     OW32401   4.258   4.128  15.236 -0.2158 -0.1430 -0.0036
 6922SOL    HW132402   4.194   4.076  15.188 -0.9324  1.1029 -0.4079
 6922SOL    HW232403   4.344   4.098  15.208 -0.5733  0.8123 -2.0892
 6923SOL     OW32404   3.125   3.010  16.830 -0.0360 -0.1438 -0.5697
 6923SOL    HW132405   3.041   3.020  16.785  0.9071 -0.9851 -2.5020
 6923SOL    HW232406   3.123   2.915  16.843 -0.7808 -0.2580 -1.5164
 6924SOL     OW32407   3.191   2.443   7.107  0.1595  0.6998  0.0406
 6924SOL    HW132408   3.214   2.415   7.196  0.5312  1.2165  0.1085
 6924SOL    HW232409   3.229   2.369   7.060 -1.6029 -1.5700  2.1765
 6925SOL     OW32410   3.471   3.660   8.983 -0.7383  1.0926 -0.0017
 6925SOL    HW132411   3.505   3.708   8.907 -0.0610  2.3541  1.0951
 6925SOL    HW232412   3.540   3.676   9.048 -0.4922  1.9061 -0.4539
 6926SOL     OW32413   1.702   4.267   9.162  0.5144  0.3339  0.4966
 6926SOL    HW132414   1.767   4.201   9.138 -1.8253 -0.8783 -2.5664
 6926SOL    HW232415   1.726   4.282   9.253  0.7919 -0.2711  0.5202
 6927SOL     OW32416   3.690   2.694   5.679 -0.0574 -0.5554  1.1779
 6927SOL    HW132417   3.691   2.786   5.650 -0.5547 -0.8732  0.1417
 6927SOL    HW232418   3.747   2.703   5.755  0.3952  1.2696  0.6352
 6928SOL     OW32419   2.148   2.503   3.742 -0.0627 -0.3007 -0.3197
 6928SOL    HW132420   2.228   2.451   3.739 -0.1630 -0.4777  0.0747
 6928SOL    HW232421   2.104   2.468   3.819 -0.0082 -0.5382 -0.3949
 6929SOL     OW32422   0.690   2.372   8.453  0.3018 -0.2504 -0.0499
 6929SOL    HW132423   0.718   2.295   8.504  3.2595 -0.7549 -2.4549
 6929SOL    HW232424   0.763   2.379   8.391  1.0334 -0.5654  0.7756
 6930SOL     OW32425   2.912   2.955   8.715  0.2113 -0.3394 -0.3500
 6930SOL    HW132426   2.888   2.929   8.804 -0.0038  2.1365  0.3261
 6930SOL    HW232427   2.869   3.041   8.709 -1.7462 -1.3515 -0.8537
 6931SOL     OW32428   2.057   2.760  13.459 -0.2285 -0.5464 -0.3376
 6931SOL    HW132429   2.023   2.728  13.375  0.2986  1.9794 -1.4894
 6931SOL    HW232430   2.013   2.843  13.474 -0.5127 -0.3688 -2.1432
 6932SOL     OW32431   1.031   0.785   2.620  0.3976 -0.1819  0.0583
 6932SOL    HW132432   1.124   0.782   2.598  1.1637 -0.7071  3.4033
 6932SOL    HW232433   1.004   0.694   2.625 -0.7127  0.0332 -1.9943
 6933SOL     OW32434   0.837   0.516   0.647  0.1843  0.3772  0.1721
 6933SOL    HW132435   0.846   0.445   0.585  1.4893  0.1822  0.5897
 6933SOL    HW232436   0.749   0.492   0.677  0.2256  2.2356  1.8358
 6934SOL     OW32437   0.789   0.156   8.207 -0.5390  0.7660 -0.1942
 6934SOL    HW132438   0.855   0.224   8.222  0.5762 -0.4925  0.5562
 6934SOL    HW232439   0.784   0.164   8.112 -1.4449  2.8608  0.0345
 6935SOL     OW32440   3.913   0.201   0.631 -0.8559 -0.0805 -0.2613
 6935SOL    HW132441   3.860   0.180   0.555  1.6670 -3.4866 -1.0559
 6935SOL    HW232442   3.903   0.297   0.635 -0.7566 -0.1501  1.9026
 6936SOL     OW32443   2.942   1.420  11.780  0.1400  0.5203 -0.3084
 6936SOL    HW132444   2.846   1.420  11.777  0.1388 -0.2524 -0.2335
 6936SOL    HW232445   2.961   1.486  11.847  1.5139 -0.7286  0.5197
 6937SOL     OW32446   0.186   0.115   6.312  0.5360  0.6212 -0.2272
 6937SOL    HW132447   0.096   0.137   6.288  1.0939  1.6248 -1.4279
 6937SOL    HW232448   0.183   0.092   6.405 -1.7116 -0.8897 -0.6835
 6938SOL     OW32449   0.975   1.296  14.083 -0.3034  0.1419  0.2093
 6938SOL    HW132450   0.968   1.237  14.008 -0.0986 -0.4839  0.6773
 6938SOL    HW232451   1.044   1.252  14.133  1.0113  2.0270  0.0745
 6939SOL     OW32452   2.950   2.744   4.668 -0.0048 -0.4427  0.5149
 6939SOL    HW132453   3.015   2.717   4.733  0.3073 -0.2135  0.2997
 6939SOL    HW232454   2.973   2.678   4.603 -2.1400  0.5489 -1.2284
 6940SOL     OW32455   2.691   3.079  16.571 -0.1433  0.3175 -0.5250
 6940SOL    HW132456   2.689   2.992  16.530 -1.3451  0.0657  0.0414
 6940SOL    HW232457   2.661   3.130  16.497 -1.7507  0.9318  0.5591
 6941SOL     OW32458   3.600   4.653   5.311 -0.7825 -0.2714  0.1476
 6941SOL    HW132459   3.619   4.666   5.217 -2.1268 -0.3494 -0.1324
 6941SOL    HW232460   3.534   4.584   5.309 -0.2679 -0.6967 -2.4528
 6942SOL     OW32461   0.213   1.608   7.134  0.6310 -0.0442  0.0655
 6942SOL    HW132462   0.216   1.670   7.207  2.3008  1.5139 -1.3264
 6942SOL    HW232463   0.198   1.522   7.175  0.7637 -0.0025  0.2008
 6943SOL     OW32464   1.256   2.584  17.696 -0.1037  0.1444  0.0109
 6943SOL    HW132465   1.175   2.630  17.719  0.9394  2.1803 -0.4472
 6943SOL    HW232466   1.229   2.530  17.622  1.2531  2.5495 -2.2089
 6944SOL     OW32467   1.217   2.958   5.156 -0.2921  0.6197 -0.1401
 6944SOL    HW132468   1.286   2.908   5.199 -0.9397 -1.6078 -1.6466
 6944SOL    HW232469   1.241   2.957   5.063  0.2364  1.9753 -0.0100
 6945SOL     OW32470   1.195   2.910   3.963  0.4971  0.1803 -0.4508
 6945SOL    HW132471   1.189   2.888   3.871 -2.8969 -1.8084  0.2524
 6945SOL    HW232472   1.203   3.005   3.956  1.8297  0.1808  1.0871
 6946SOL     OW32473   3.129   3.341   3.158 -0.4793 -0.9852  0.5160
 6946SOL    HW132474   3.212   3.388   3.162 -1.0152  0.0193  0.0142
 6946SOL    HW232475   3.149   3.254   3.125  2.6124  1.0145 -2.8123
 6947SOL     OW32476   3.650   3.466   8.791 -0.7538  0.4443 -0.1121
 6947SOL    HW132477   3.727   3.431   8.836  0.3454  2.0236 -0.7761
 6947SOL    HW232478   3.588   3.394   8.788  2.3082 -2.1894  0.4874
 6948SOL     OW32479   0.184   3.390   2.644 -0.1259  0.5342 -0.0048
 6948SOL    HW132480   0.261   3.438   2.613  0.1202 -0.5941 -1.1386
 6948SOL    HW232481   0.114   3.447   2.615 -1.5866 -0.6832  1.1284
 6949SOL     OW32482   2.367   1.627  14.706 -0.0912 -0.4721  0.5872
 6949SOL    HW132483   2.291   1.678  14.680  0.0243  0.0658  1.2965
 6949SOL    HW232484   2.413   1.694  14.758 -0.9777 -0.0166  0.7747
 6950SOL     OW32485   0.846   1.367   3.518 -0.9452  0.2098  0.1558
 6950SOL    HW132486   0.812   1.279   3.531  0.6395 -0.2215  1.4670
 6950SOL    HW232487   0.775   1.407   3.470  0.9273  1.1865 -1.7981
 6951SOL     OW32488   3.811   3.399   8.057 -0.1629 -0.2571  0.3963
 6951SOL    HW132489   3.715   3.405   8.055  0.0618  2.7930 -1.0531
 6951SOL    HW232490   3.827   3.305   8.066 -1.1478 -0.4207  0.5043
 6952SOL     OW32491   3.121   3.773   2.748  0.2179  0.2673  0.0289
 6952SOL    HW132492   3.184   3.840   2.722 -2.1186  1.9206 -1.3425
 6952SOL    HW232493   3.117   3.701   2.686  0.8907 -1.2625  1.7575
 6953SOL     OW32494   0.060   2.650   8.511  0.1010  0.0796  0.2830
 6953SOL    HW132495   4.722   2.692   8.468  0.7552 -0.0141 -0.9236
 6953SOL    HW232496   0.062   2.562   8.474 -0.6679 -0.3576  1.2831
 6954SOL     OW32497   4.103   1.484   3.131  0.0667 -0.2975 -0.2508
 6954SOL    HW132498   4.034   1.511   3.070  0.1475 -1.3148 -0.7840
 6954SOL    HW232499   4.123   1.396   3.101  0.7451 -0.7071  1.4371
 6955SOL     OW32500   4.440   4.650   4.930  0.1104 -0.6603  0.4879
 6955SOL    HW132501   4.521   4.681   4.969  0.5211 -1.4781  0.2697
 6955SOL    HW232502   4.380   4.690   4.994 -0.5447  0.8576 -1.0664
 6956SOL     OW32503   2.971   2.508   4.465  0.4224 -0.0767 -0.2818
 6956SOL    HW132504   2.901   2.451   4.496 -0.1052 -0.1669 -1.6221
 6956SOL    HW232505   3.054   2.461   4.470  0.3368  0.1145  3.0908
 6957SOL     OW32506   3.406   2.982   4.041 -0.2984  0.3450 -0.0640
 6957SOL    HW132507   3.383   2.891   4.026 -0.2080  0.3585 -0.2975
 6957SOL    HW232508   3.492   2.966   4.081  0.4918  3.4005 -0.5262
 6958SOL     OW32509   0.613   0.113   1.866 -0.0085 -0.2087  0.7317
 6958SOL    HW132510   0.543   0.070   1.816  1.4824  0.7687 -2.1705
 6958SOL    HW232511   0.641   0.040   1.922  1.9218  0.9176  1.2241
 6959SOL     OW32512   4.257   0.482   8.172 -0.2194 -0.1648 -0.0023
 6959SOL    HW132513   4.324   0.550   8.183 -2.2321  1.9566 -0.7155
 6959SOL    HW232514   4.240   0.500   8.080  1.8175  1.9540  0.0174
 6960SOL     OW32515   3.966   0.383  15.257  0.9759 -0.3871 -0.7225
 6960SOL    HW132516   3.885   0.334  15.265  0.5715  0.8668  2.6900
 6960SOL    HW232517   3.929   0.468  15.235 -1.2096 -1.7597 -2.3287
 6961SOL     OW32518   2.392   1.813   6.328 -0.5591  0.6417  0.4050
 6961SOL    HW132519   2.377   1.870   6.404 -0.3763  1.3438 -0.0850
 6961SOL    HW232520   2.423   1.873   6.260  0.2899  3.2109  3.0533
 6962SOL     OW32521   3.717   2.991   3.926 -0.1739 -0.5763  0.0930
 6962SOL    HW132522   3.696   2.953   4.011 -2.3202  0.6034  0.0796
 6962SOL    HW232523   3.799   2.948   3.900  0.3646  1.1319 -1.0678
 6963SOL     OW32524   0.549   1.427   4.303 -0.2726 -0.4082  0.2331
 6963SOL    HW132525   0.500   1.417   4.385  1.2689  1.5844  1.4040
 6963SOL    HW232526   0.523   1.351   4.251 -0.3554  1.9162 -3.0983
 6964SOL     OW32527   0.533   0.332   6.875  0.6100 -0.3599 -0.2395
 6964SOL    HW132528   0.481   0.282   6.937 -0.6503  0.1538 -0.8818
 6964SOL    HW232529   0.570   0.407   6.922  1.3250 -1.7796  1.4695
 6965SOL     OW32530   2.963   1.201   5.521  0.1053  0.4381  0.9527
 6965SOL    HW132531   2.901   1.272   5.505 -2.0327 -1.3502  1.2979
 6965SOL    HW232532   3.025   1.240   5.583  3.4233 -1.9306 -0.8686
 6966SOL     OW32533   4.698   2.905   5.295  0.1912  0.0662 -0.1881
 6966SOL    HW132534   0.031   2.882   5.358  0.1759  1.1863  0.2318
 6966SOL    HW232535   4.628   2.857   5.338 -1.0863  0.9553 -1.2730
 6967SOL     OW32536   3.418   1.600  12.062 -0.0310  0.3066 -0.1156
 6967SOL    HW132537   3.372   1.630  11.984 -0.5021  1.6127  0.6577
 6967SOL    HW232538   3.503   1.620  12.024 -0.2180  0.2127 -0.5799
 6968SOL     OW32539   1.515   2.258   1.436 -0.1577  0.1522  0.1608
 6968SOL    HW132540   1.500   2.341   1.391 -0.3286  0.1779  0.2672
 6968SOL    HW232541   1.602   2.281   1.470  1.2627 -0.0745 -3.3876
 6969SOL     OW32542   3.394   4.121   8.058  0.0199 -0.5665  0.0203
 6969SOL    HW132543   3.403   4.072   7.977 -0.3150  1.7582 -1.4125
 6969SOL    HW232544   3.462   4.187   8.045 -0.4192 -0.4747 -1.7975
 6970SOL     OW32545   4.150   4.255  14.457  0.1070 -0.4329  0.2578
 6970SOL    HW132546   4.165   4.344  14.425  1.6262 -0.8665 -0.2550
 6970SOL    HW232547   4.208   4.203  14.401  1.3368  0.9355  0.2638
 6971SOL     OW32548   0.390   0.302   9.230 -0.7170  0.3785  0.2746
 6971SOL    HW132549   0.421   0.269   9.145 -2.4914  1.7817 -0.9042
 6971SOL    HW232550   0.451   0.257   9.288  0.1786  1.2980  0.0345
 6972SOL     OW32551   2.087   3.065   3.516  0.0763  0.3107  0.3699
 6972SOL    HW132552   2.032   3.071   3.594 -1.5514 -0.8907 -0.6949
 6972SOL    HW232553   2.026   3.047   3.444  0.4835  0.6819 -0.0656
 6973SOL     OW32554   0.243   2.712  12.199 -0.3794 -0.3064  0.1672
 6973SOL    HW132555   0.231   2.639  12.260 -0.3443  0.3812  1.0000
 6973SOL    HW232556   0.337   2.711  12.181 -0.6344 -0.6370 -1.1629
 6974SOL     OW32557   3.312   0.706   8.744  0.4188 -0.2334  0.0671
 6974SOL    HW132558   3.330   0.624   8.790 -0.3076 -0.2862  0.2676
 6974SOL    HW232559   3.301   0.678   8.653 -0.5721  2.1373 -0.5378
 6975SOL     OW32560   2.160   2.378   5.549  0.1472 -0.0574  0.3894
 6975SOL    HW132561   2.083   2.366   5.493 -1.0300  1.3585  1.6936
 6975SOL    HW232562   2.142   2.310   5.614  1.5734 -0.8427 -0.0374
 6976SOL     OW32563   0.139   1.814  10.107  0.1912  0.8014  0.5601
 6976SOL    HW132564   0.175   1.766  10.033  0.8456 -1.8224  2.5998
 6976SOL    HW232565   0.078   1.750  10.145  0.1776  1.3919  1.5226
 6977SOL     OW32566   3.229   4.242   0.097 -0.1357 -0.2368  0.2088
 6977SOL    HW132567   3.165   4.170   0.094  1.0889 -1.4102  2.0214
 6977SOL    HW232568   3.301   4.183   0.076  1.6116  1.8137  0.5235
 6978SOL     OW32569   3.772   4.732  14.962  0.4384 -0.0523 -0.5656
 6978SOL    HW132570   3.846   0.015  15.020  0.0821 -3.6784  1.0580
 6978SOL    HW232571   3.705   0.044  15.010  0.5003 -1.9623  1.4456
 6979SOL     OW32572   3.547   1.764   2.284 -0.0036 -0.1597  0.8461
 6979SOL    HW132573   3.502   1.728   2.360  0.2954  0.6314  1.3873
 6979SOL    HW232574   3.618   1.703   2.265 -0.2662 -0.5697  1.1820
 6980SOL     OW32575   4.158   3.412   2.300  0.1221  0.3452  0.0743
 6980SOL    HW132576   4.122   3.333   2.340  0.7617  0.6905  1.3372
 6980SOL    HW232577   4.097   3.432   2.230 -0.8195  1.2109  1.1287
 6981SOL     OW32578   1.332   3.086   4.311  0.4519 -0.4982  0.2259
 6981SOL    HW132579   1.293   3.070   4.396 -1.5490 -0.3830 -0.6660
 6981SOL    HW232580   1.426   3.069   4.315  0.5651  0.7320  2.1733
 6982SOL     OW32581   2.730   0.715   6.767  0.1680 -0.0737 -0.0848
 6982SOL    HW132582   2.654   0.767   6.793 -0.3746 -0.4358 -0.9686
 6982SOL    HW232583   2.685   0.636   6.737 -1.4374  1.0429 -0.5736
 6983SOL     OW32584   2.665   3.373  15.023  0.3071 -0.0532  0.0460
 6983SOL    HW132585   2.715   3.366  15.104  0.1808 -0.8036  0.0611
 6983SOL    HW232586   2.690   3.291  14.980  0.4857 -0.7473  1.4963
 6984SOL     OW32587   1.339   3.483  17.473 -0.0758  0.4605 -0.2178
 6984SOL    HW132588   1.262   3.483  17.416 -1.1419 -0.2067  1.2301
 6984SOL    HW232589   1.345   3.390  17.496  2.0405  0.5499 -0.3980
 6985SOL     OW32590   1.025   1.047  14.449  0.0865 -0.0689 -0.0389
 6985SOL    HW132591   1.010   0.971  14.506 -0.1750 -1.3582 -1.8086
 6985SOL    HW232592   1.001   1.120  14.505 -2.2484 -1.0867  0.2705
 6986SOL     OW32593   3.939   0.552   2.915 -0.5008  0.3977 -0.4800
 6986SOL    HW132594   4.013   0.605   2.886  0.5522  0.2787  1.9967
 6986SOL    HW232595   3.920   0.520   2.827 -0.5149  0.7563 -0.6106
 6987SOL     OW32596   2.322   1.547  16.721 -0.1086  0.1198  0.1598
 6987SOL    HW132597   2.396   1.487  16.715  0.7565  1.0075  2.0073
 6987SOL    HW232598   2.243   1.495  16.707  0.3942 -0.5456 -0.2212
 6988SOL     OW32599   3.494   1.558   8.553  0.2767  0.3162  0.3279
 6988SOL    HW132600   3.473   1.530   8.464  2.2865  2.2293 -0.7539
 6988SOL    HW232601   3.499   1.652   8.534  1.8419 -0.0877 -1.2610
 6989SOL     OW32602   0.373   2.082   8.049  0.4665  0.5637  0.1016
 6989SOL    HW132603   0.312   2.150   8.022 -2.1389 -1.4337  0.9456
 6989SOL    HW232604   0.418   2.122   8.123  1.2371 -2.0623  1.0865
 6990SOL     OW32605   0.920   2.671   7.747  0.4824 -0.0545 -0.2241
 6990SOL    HW132606   0.886   2.681   7.659 -1.5505 -2.7700  0.2751
 6990SOL    HW232607   1.011   2.694   7.729  0.8031 -0.7398  0.5163
 6991SOL     OW32608   2.783   0.353   2.390 -0.8581 -0.3284  0.0350
 6991SOL    HW132609   2.836   0.355   2.311 -0.2711 -0.2139  0.4364
 6991SOL    HW232610   2.849   0.344   2.458 -1.3182 -0.7153  0.4361
 6992SOL     OW32611   4.503   0.239  12.624  0.4365 -0.0884 -0.4663
 6992SOL    HW132612   4.480   0.245  12.531  2.3939  0.6197 -0.8922
 6992SOL    HW232613   4.525   0.146  12.619  0.9234 -0.0251  0.5802
 6993SOL     OW32614   2.279   3.745   2.064  0.4221 -0.0959  0.0526
 6993SOL    HW132615   2.250   3.757   1.973  0.9927  1.2999  0.0641
 6993SOL    HW232616   2.195   3.729   2.107  0.5046  0.8143  0.5349
 6994SOL     OW32617   1.266   3.887   8.540  0.4752 -0.2888 -0.3363
 6994SOL    HW132618   1.221   3.888   8.625  2.2036 -3.2070  0.6145
 6994SOL    HW232619   1.322   3.963   8.548  1.9592 -1.5041  0.8100
 6995SOL     OW32620   3.152   3.174   5.227  0.2737  0.8050 -0.1629
 6995SOL    HW132621   3.194   3.115   5.289 -1.2217 -2.6132 -2.3947
 6995SOL    HW232622   3.085   3.205   5.288 -1.9742  1.2153 -2.8242
 6996SOL     OW32623   3.542   3.662   7.205 -0.6481  0.7888 -0.3194
 6996SOL    HW132624   3.612   3.691   7.263 -0.2343 -0.4671 -0.1978
 6996SOL    HW232625   3.508   3.744   7.168 -0.6460  2.0963  2.6569
 6997SOL     OW32626   2.829   3.603   6.272  0.6574 -0.4993  0.0249
 6997SOL    HW132627   2.911   3.618   6.319 -0.1831 -2.1854  2.0175
 6997SOL    HW232628   2.849   3.659   6.196 -1.2317  0.6825  0.3988
 6998SOL     OW32629   0.050   4.472   4.172 -0.4574  0.4572  0.1913
 6998SOL    HW132630   0.032   4.537   4.103 -0.1747 -0.2854 -0.5907
 6998SOL    HW232631   0.105   4.525   4.229  0.3407  0.6696 -0.7727
 6999SOL     OW32632   0.490   0.244   8.510 -0.2752  0.3829  0.0247
 6999SOL    HW132633   0.457   0.254   8.421 -0.6432  1.1608  0.2456
 6999SOL    HW232634   0.556   0.176   8.499 -1.7579 -0.8145 -1.5226
 7000SOL     OW32635   4.637   2.127  13.045 -0.4398  0.2381 -0.1459
 7000SOL    HW132636   4.660   2.137  12.952  1.4545 -0.2233  0.2822
 7000SOL    HW232637   4.711   2.166  13.091  1.3721 -1.1529 -1.8584
 7001SOL     OW32638   0.820   3.473   1.534 -0.3356  0.4875 -0.1702
 7001SOL    HW132639   0.893   3.522   1.573 -2.6205  2.7116  1.3107
 7001SOL    HW232640   0.839   3.383   1.558 -0.3819  1.4742  3.5429
 7002SOL     OW32641   4.003   1.537   5.207 -0.4238  0.5173  0.2458
 7002SOL    HW132642   4.056   1.584   5.271 -1.2886  0.4752  0.9867
 7002SOL    HW232643   3.931   1.595   5.184 -0.0033  0.5885 -0.9071
 7003SOL     OW32644   4.131   0.071   0.727 -0.1746  0.7032 -0.5507
 7003SOL    HW132645   4.057   0.105   0.675  0.3998  0.5637 -1.4681
 7003SOL    HW232646   4.108   0.085   0.818  0.6024 -1.9114  0.0502
 7004SOL     OW32647   2.800   3.037   6.693  0.4273  0.2747  0.0510
 7004SOL    HW132648   2.879   3.064   6.646 -0.3387  1.3595 -0.6412
 7004SOL    HW232649   2.771   2.956   6.651  1.7367 -0.4359  0.5260
 7005SOL     OW32650   2.836   4.302   4.451 -0.8316 -0.2583 -0.4430
 7005SOL    HW132651   2.807   4.333   4.537 -0.9268  0.0487 -0.5859
 7005SOL    HW232652   2.761   4.249   4.425  0.1280 -2.3869  1.0595
 7006SOL     OW32653   3.877   0.406   0.003 -0.4393  0.3299  0.0419
 7006SOL    HW132654   3.842   0.317  17.735 -0.1981  0.1887  0.5621
 7006SOL    HW232655   3.833   0.450  17.671  0.8278 -1.4505 -1.8368
 7007SOL     OW32656   4.363   2.213   6.758 -0.6487 -0.2079 -0.7499
 7007SOL    HW132657   4.452   2.187   6.733 -0.3358 -0.7163  0.8962
 7007SOL    HW232658   4.358   2.293   6.705  1.7238  0.4805  0.0783
 7008SOL     OW32659   2.715   4.084   4.284 -0.2734 -0.5454  0.0933
 7008SOL    HW132660   2.726   4.009   4.343  1.8269  0.4129  0.8922
 7008SOL    HW232661   2.634   4.062   4.237 -0.1322 -1.5247  0.3079
 7009SOL     OW32662   4.253   1.484   1.929  0.5629 -0.1228 -0.1211
 7009SOL    HW132663   4.259   1.470   2.023 -1.2847 -0.7351 -0.0831
 7009SOL    HW232664   4.178   1.429   1.905 -1.4010  1.6704  1.8812
 7010SOL     OW32665   3.472   1.694   7.718 -0.1088  0.1328 -0.7478
 7010SOL    HW132666   3.386   1.669   7.754 -0.0919  2.5395  0.9515
 7010SOL    HW232667   3.471   1.788   7.733  1.9816  0.1098 -0.4991
 7011SOL     OW32668   2.803   3.277   5.458  0.3189  0.5408  0.4775
 7011SOL    HW132669   2.710   3.284   5.477 -0.3275  1.0461 -2.9040
 7011SOL    HW232670   2.812   3.320   5.374  0.8496 -1.0617 -0.2909
 7012SOL     OW32671   3.007   3.921   8.006 -0.2807  0.1623 -0.1228
 7012SOL    HW132672   3.026   3.925   7.912  3.0506  2.2779  0.6547
 7012SOL    HW232673   3.058   3.990   8.048 -0.1954  0.6127 -0.9516
 7013SOL     OW32674   3.740   4.101   9.467 -0.3014 -0.4264  0.1382
 7013SOL    HW132675   3.793   4.041   9.519  0.4741 -0.4085 -0.6359
 7013SOL    HW232676   3.664   4.121   9.522 -1.9112 -0.3815 -2.0647
 7014SOL     OW32677   3.549   1.257   2.154 -0.1515  0.1024  0.5420
 7014SOL    HW132678   3.482   1.193   2.130 -0.1846  0.6159 -0.7274
 7014SOL    HW232679   3.503   1.333   2.188 -0.6412  1.0821 -2.3511
 7015SOL     OW32680   0.712   1.103   4.773 -0.4477  0.0210  0.2429
 7015SOL    HW132681   0.775   1.086   4.702 -2.0353 -0.2367 -1.1211
 7015SOL    HW232682   0.720   1.020   4.820 -3.8961 -0.6825 -0.4618
 7016SOL     OW32683   2.073   4.327   3.626  0.2114  0.5119 -0.6585
 7016SOL    HW132684   2.138   4.312   3.557 -0.7984 -0.4105 -1.4276
 7016SOL    HW232685   2.002   4.356   3.568 -1.2892 -0.1569  0.8342
 7017SOL     OW32686   4.043   3.060  16.007 -1.1262  0.5422  0.3754
 7017SOL    HW132687   4.012   3.106  15.929  1.2147  1.7958  0.2076
 7017SOL    HW232688   4.070   2.978  15.966  1.4690  1.2919  0.6180
 7018SOL     OW32689   0.113   0.813   5.247 -0.0676  0.6180 -0.4236
 7018SOL    HW132690   0.046   0.851   5.190 -0.6614 -2.0909 -1.5061
 7018SOL    HW232691   0.135   0.732   5.201  1.7566  0.3287  0.9755
 7019SOL     OW32692   2.393   1.424   7.246 -0.0309 -0.3802  0.6842
 7019SOL    HW132693   2.358   1.507   7.280 -0.2792 -0.6020  0.9697
 7019SOL    HW232694   2.470   1.414   7.303  1.2831 -1.1747 -1.2235
 7020SOL     OW32695   2.124   1.502   5.313  0.8543 -0.1106  0.0118
 7020SOL    HW132696   2.097   1.467   5.229 -1.1464 -1.1605  1.0891
 7020SOL    HW232697   2.219   1.517   5.311  0.6538  1.6834  2.8350
 7021SOL     OW32698   2.561   3.358  12.511  0.1796 -0.2343  0.0304
 7021SOL    HW132699   2.654   3.373  12.530 -0.5382  3.5337  0.6155
 7021SOL    HW232700   2.545   3.448  12.483 -1.0474 -0.4663 -0.0248
 7022SOL     OW32701   1.428   3.498   6.522 -0.0439  0.4088  0.3300
 7022SOL    HW132702   1.451   3.407   6.540  1.0558  1.0256  2.0189
 7022SOL    HW232703   1.512   3.531   6.491 -0.1154 -1.3824 -1.6795
 7023SOL     OW32704   1.769   1.820  13.034  0.3640  0.0580  0.0980
 7023SOL    HW132705   1.676   1.794  13.035 -0.2221  2.1302 -0.2336
 7023SOL    HW232706   1.802   1.769  12.960  0.2225  0.3629 -0.1780
 7024SOL     OW32707   4.579   3.304   1.302  0.3169 -0.0837  0.0200
 7024SOL    HW132708   4.606   3.213   1.290  0.0429 -0.2106  0.3830
 7024SOL    HW232709   4.649   3.351   1.256  0.7925 -0.2011  0.6347
 7025SOL     OW32710   2.878   1.399   3.783  0.1637  0.1873 -0.0446
 7025SOL    HW132711   2.813   1.337   3.749  1.4878 -0.5149 -1.2729
 7025SOL    HW232712   2.887   1.466   3.715  2.3792  1.1214  1.1970
 7026SOL     OW32713   3.345   0.166   4.660  0.5498 -0.5540 -0.5472
 7026SOL    HW132714   3.268   0.164   4.603 -1.8072  1.1508  2.5566
 7026SOL    HW232715   3.359   0.074   4.682  2.4096 -0.4334 -1.2803
 7027SOL     OW32716   1.056   4.468   5.049 -0.1027  0.2248 -0.1512
 7027SOL    HW132717   1.059   4.390   5.106  0.6805  0.1043 -0.3671
 7027SOL    HW232718   0.986   4.440   4.991  0.3524 -2.5828  0.6362
 7028SOL     OW32719   1.380   2.136  15.240 -0.0105  0.4284  0.4616
 7028SOL    HW132720   1.328   2.209  15.208  1.6772  1.6261  0.4198
 7028SOL    HW232721   1.458   2.183  15.271  0.3726  0.7461 -0.9740
 7029SOL     OW32722   4.577   2.784   7.353  0.0054 -0.0567  0.1539
 7029SOL    HW132723   4.498   2.769   7.404 -0.4744 -0.3011 -0.6802
 7029SOL    HW232724   4.635   2.718   7.390  0.8132 -0.8393 -2.5251
 7030SOL     OW32725   3.692   0.357   4.511 -0.1249  0.4931 -0.1371
 7030SOL    HW132726   3.676   0.325   4.600 -0.0683  0.5805 -0.0956
 7030SOL    HW232727   3.704   0.449   4.534  1.0696  0.1068  0.7861
 7031SOL     OW32728   1.863   2.691   5.809  0.1891  0.4683 -0.4740
 7031SOL    HW132729   1.831   2.611   5.768  0.2448 -0.4661  1.2891
 7031SOL    HW232730   1.947   2.651   5.829  0.2112 -0.1276 -1.7825
 7032SOL     OW32731   1.909   1.461   6.966  0.1370 -0.1140  0.0744
 7032SOL    HW132732   1.918   1.504   6.881  0.0836 -1.5043 -0.6357
 7032SOL    HW232733   1.989   1.486   7.013  1.1313 -0.3632 -1.4656
 7033SOL     OW32734   1.938   4.524   5.750  0.1350  0.0630  0.4535
 7033SOL    HW132735   1.891   4.449   5.788 -1.1920 -0.9437 -3.2082
 7033SOL    HW232736   2.029   4.495   5.761  0.3918  0.8572  0.3971
 7034SOL     OW32737   4.396   1.162   1.722 -0.0970 -0.3494 -0.3498
 7034SOL    HW132738   4.455   1.115   1.782  0.8355  1.9801  0.5739
 7034SOL    HW232739   4.456   1.229   1.689  1.1676 -1.3251 -0.0233
 7035SOL     OW32740   1.634   1.457   6.874  0.2220 -0.1322  0.4695
 7035SOL    HW132741   1.602   1.402   6.803  1.4419 -3.7013  2.7056
 7035SOL    HW232742   1.659   1.544   6.841  1.4004 -0.7807 -0.3515
 7036SOL     OW32743   4.128   4.324   3.538  0.2507  0.4697  0.3582
 7036SOL    HW132744   4.057   4.330   3.474 -2.0197  0.2524  2.8389
 7036SOL    HW232745   4.182   4.401   3.522 -0.2033  0.2934 -1.9201
 7037SOL     OW32746   3.672   0.942   1.566 -0.3200 -0.4365 -0.2348
 7037SOL    HW132747   3.739   0.991   1.615 -1.9732 -0.1741  1.7643
 7037SOL    HW232748   3.726   0.872   1.528  0.0273  0.0190 -0.5769
 7038SOL     OW32749   3.044   1.467   5.304  0.5186 -0.1777  0.5314
 7038SOL    HW132750   3.045   1.473   5.400 -0.1529  0.4172  0.4955
 7038SOL    HW232751   3.129   1.508   5.284 -0.2428  0.4411 -1.4318
 7039SOL     OW32752   0.107   0.264   7.711  0.0445  0.2177  0.2488
 7039SOL    HW132753   0.052   0.313   7.772  0.7931  0.0462  1.0612
 7039SOL    HW232754   0.032   0.226   7.666  2.4599 -0.9010 -2.8366
 7040SOL     OW32755   3.573   1.074   1.903  0.6122  0.1953  0.4627
 7040SOL    HW132756   3.534   1.022   1.833  0.9329 -1.7287  1.7173
 7040SOL    HW232757   3.502   1.083   1.966 -0.9295  3.5455 -1.7376
 7041SOL     OW32758   4.147   2.843   7.706 -0.4016 -0.3244  0.0128
 7041SOL    HW132759   4.153   2.860   7.800  0.1727  1.9832 -0.4383
 7041SOL    HW232760   4.131   2.932   7.675  1.2355  0.1670  0.6141
 7042SOL     OW32761   3.511   2.209   3.591  0.3818  1.0963  0.3546
 7042SOL    HW132762   3.423   2.173   3.597  0.0973  1.1763 -3.4726
 7042SOL    HW232763   3.570   2.134   3.604  0.6929  1.6611  2.3134
 7043SOL     OW32764   0.969   4.232   8.521 -0.0334  0.3366 -0.0767
 7043SOL    HW132765   0.909   4.307   8.526  0.2664  0.4889  1.4374
 7043SOL    HW232766   1.009   4.250   8.437 -1.2583 -3.1567 -1.3988
 7044SOL     OW32767   3.573   4.517   5.569 -0.2682  0.3662  0.0819
 7044SOL    HW132768   3.590   4.579   5.498  1.3922  0.9039  0.9487
 7044SOL    HW232769   3.533   4.440   5.529 -1.0954  0.7893  0.0989
 7045SOL     OW32770   2.172   1.686   6.247 -0.0969  0.4271 -0.0269
 7045SOL    HW132771   2.196   1.596   6.223  0.4222  0.1285  1.6122
 7045SOL    HW232772   2.256   1.729   6.261 -0.7853  2.3145 -1.6857
 7046SOL     OW32773   2.014   2.698  15.257  0.4157  0.2474 -0.0800
 7046SOL    HW132774   2.000   2.775  15.313  4.2332  0.7804  0.1271
 7046SOL    HW232775   2.100   2.718  15.221 -0.1629  2.6361 -0.1397
 7047SOL     OW32776   2.168   1.537   1.175  0.2735  0.7776 -0.5403
 7047SOL    HW132777   2.224   1.614   1.181  2.6181 -0.8019 -2.0938
 7047SOL    HW232778   2.121   1.513   1.255  0.1938 -0.0312 -0.8232
 7048SOL     OW32779   3.625   1.750   7.277 -0.1380  0.1866 -0.5637
 7048SOL    HW132780   3.568   1.735   7.202 -1.2183 -0.6891  0.4186
 7048SOL    HW232781   3.700   1.699   7.247 -0.4220 -0.9873  0.7073
 7049SOL     OW32782   3.242   3.767   9.780 -0.3747 -0.3135 -0.1094
 7049SOL    HW132783   3.183   3.839   9.800  0.7053  0.8191 -1.0000
 7049SOL    HW232784   3.207   3.732   9.697 -0.0677 -1.9266  0.4314
 7050SOL     OW32785   0.977   0.928  14.202  0.0739  0.1614  0.4395
 7050SOL    HW132786   0.983   0.949  14.296  0.2119 -1.1738  0.7245
 7050SOL    HW232787   1.045   0.991  14.177 -0.6075 -0.1617 -2.2236
 7051SOL     OW32788   0.625   1.000  13.747 -0.8699  0.7919  0.4498
 7051SOL    HW132789   0.562   1.029  13.813 -0.5862  0.8707  0.6885
 7051SOL    HW232790   0.709   1.022  13.787  0.5577 -0.1592 -2.0536
 7052SOL     OW32791   1.602   4.476  13.925  0.0880 -0.1513  0.2767
 7052SOL    HW132792   1.585   4.544  13.990 -2.9618  1.0056 -1.7283
 7052SOL    HW232793   1.515   4.436  13.925  0.6728 -1.4269  1.1676
 7053SOL     OW32794   0.947   3.345  16.317 -0.6650  0.0612  0.4841
 7053SOL    HW132795   0.928   3.309  16.230  0.7191 -1.4015  0.8130
 7053SOL    HW232796   0.911   3.433  16.303 -1.2152 -0.2200  0.0914
 7054SOL     OW32797   2.374   4.462   6.840  0.1946  0.4655 -0.4115
 7054SOL    HW132798   2.434   4.412   6.785  0.9179 -1.0734  1.7988
 7054SOL    HW232799   2.389   4.407   6.917 -3.0904  1.1451  0.7190
 7055SOL     OW32800   1.132   2.241   5.931 -0.1659  0.2203 -0.6141
 7055SOL    HW132801   1.167   2.313   5.879  1.9107  0.3219  0.9198
 7055SOL    HW232802   1.127   2.174   5.862  2.1434  0.0067 -0.5630
 7056SOL     OW32803   4.211   0.672  12.629 -0.0852 -0.4035  0.2158
 7056SOL    HW132804   4.210   0.712  12.716 -0.8178 -0.0967  0.0693
 7056SOL    HW232805   4.262   0.593  12.649 -3.3093 -2.3332  0.6979
 7057SOL     OW32806   3.521   0.327   2.524 -0.5367  0.1610 -0.2784
 7057SOL    HW132807   3.566   0.395   2.474 -1.1422 -0.1998 -1.3248
 7057SOL    HW232808   3.438   0.338   2.478 -0.7791  0.6190  0.2558
 7058SOL     OW32809   3.787   3.335   7.122  0.4376  0.3328 -0.1869
 7058SOL    HW132810   3.803   3.248   7.084 -1.1662 -0.0099 -0.0909
 7058SOL    HW232811   3.746   3.311   7.205 -0.1482 -0.7501 -0.7789
 7059SOL     OW32812   0.017   0.672   6.997  0.5764 -0.1000 -0.3642
 7059SOL    HW132813   0.090   0.637   6.945  1.1878 -0.5431  0.7970
 7059SOL    HW232814   4.679   0.645   6.942 -2.6244 -0.6098  4.1763
 7060SOL     OW32815   2.150   4.091  12.500  0.2319  0.1817 -0.0637
 7060SOL    HW132816   2.222   4.054  12.551  0.5753  0.1125 -0.5949
 7060SOL    HW232817   2.148   4.035  12.422 -1.0416  0.7759 -0.4550
 7061SOL     OW32818   0.316   4.075   3.184 -0.4923  0.6468  0.0482
 7061SOL    HW132819   0.293   4.040   3.098 -3.6438  0.8420  0.8188
 7061SOL    HW232820   0.261   4.015   3.235  1.8908  0.0471  1.9546
 7062SOL     OW32821   3.415   0.814   0.659 -0.4793 -0.5635  0.3919
 7062SOL    HW132822   3.340   0.867   0.685  0.0799 -1.0592  2.9505
 7062SOL    HW232823   3.378   0.786   0.575 -0.2022  2.6902 -0.8218
 7063SOL     OW32824   4.290   0.944   3.352 -0.0320 -0.1904  0.0068
 7063SOL    HW132825   4.386   0.943   3.360 -0.0669  1.1453  0.4668
 7063SOL    HW232826   4.271   0.899   3.434 -1.3891 -0.3543 -0.4007
 7064SOL     OW32827   0.506   2.701   9.803  0.0365 -0.1009 -0.3546
 7064SOL    HW132828   0.574   2.761   9.832  0.8104 -0.7689 -0.7735
 7064SOL    HW232829   0.454   2.770   9.763 -0.3538  0.0447  0.4218
 7065SOL     OW32830   3.682   2.109   5.470  0.2144  0.2584  0.6382
 7065SOL    HW132831   3.701   2.017   5.452  0.6450  0.2342  1.2091
 7065SOL    HW232832   3.630   2.134   5.394  0.8374 -1.8486 -0.4687
 7066SOL     OW32833   0.045   3.297   4.998  0.2226  0.3625 -0.9694
 7066SOL    HW132834   0.106   3.298   5.071  0.4545  0.8988 -1.1668
 7066SOL    HW232835   0.032   3.391   4.989 -0.5808  0.1894 -1.6119
 7067SOL     OW32836   4.615   0.557   5.457  0.3208 -0.2410 -0.3706
 7067SOL    HW132837   4.690   0.603   5.421 -0.0697  0.4135 -0.3419
 7067SOL    HW232838   4.653   0.509   5.531 -0.8738  1.8322  1.6042
 7068SOL     OW32839   0.492   0.394   7.376  0.8102 -0.2684  0.3123
 7068SOL    HW132840   0.513   0.311   7.335 -1.2407  0.7430 -2.7738
 7068SOL    HW232841   0.435   0.362   7.446  0.2188 -2.7683 -1.3445
 7069SOL     OW32842   4.406   2.025  11.827  0.2554  0.4616  0.8593
 7069SOL    HW132843   4.401   2.120  11.816 -0.8125  0.4353  1.1684
 7069SOL    HW232844   4.321   1.988  11.849  1.1356 -2.2946 -0.4016
 7070SOL     OW32845   4.585   2.729   3.464  0.2793 -0.2106 -0.3655
 7070SOL    HW132846   4.646   2.749   3.393 -1.7443  3.5418 -1.0756
 7070SOL    HW232847   4.595   2.634   3.467  2.0768  0.0128  0.9570
 7071SOL     OW32848   1.748   1.947   4.670 -0.3585 -0.7371 -0.0195
 7071SOL    HW132849   1.737   1.921   4.579 -0.6030 -1.0976  0.1123
 7071SOL    HW232850   1.683   2.018   4.676 -2.3383 -2.4986 -0.6412
 7072SOL     OW32851   4.004   2.634   9.150  0.7815  0.0339 -0.0860
 7072SOL    HW132852   4.004   2.583   9.231 -1.4418  0.5190  0.2193
 7072SOL    HW232853   3.909   2.636   9.134  0.8916 -2.9439 -1.1276
 7073SOL     OW32854   1.479   0.892   7.259  0.8239  0.8551 -0.2859
 7073SOL    HW132855   1.398   0.872   7.213  1.4006 -1.1940 -0.4315
 7073SOL    HW232856   1.465   0.987   7.259 -2.7115  0.3584  2.3039
 7074SOL     OW32857   2.880   2.178  17.522  0.1947 -0.2254 -0.2274
 7074SOL    HW132858   2.866   2.186  17.428  0.7925 -0.7093 -0.3560
 7074SOL    HW232859   2.976   2.180  17.519  0.1524  0.1906 -1.3980
 7075SOL     OW32860   0.650   2.778   3.140  0.1953  0.1654 -0.1864
 7075SOL    HW132861   0.555   2.767   3.135  0.4170 -0.5884 -2.6067
 7075SOL    HW232862   0.657   2.731   3.223 -1.0491  1.4364  0.6406
 7076SOL     OW32863   1.183   1.412   5.237 -0.8083  0.3392  0.0119
 7076SOL    HW132864   1.224   1.373   5.315  1.6946  0.3137 -1.3098
 7076SOL    HW232865   1.256   1.460   5.197 -0.1997 -0.4074  0.2046
 7077SOL     OW32866   4.634   2.469   3.552 -0.5650  0.4178 -0.1593
 7077SOL    HW132867   4.726   2.485   3.530 -0.2933  1.1601  1.4832
 7077SOL    HW232868   4.642   2.380   3.588  0.1297  0.6730  0.3312
 7078SOL     OW32869   1.843   0.333   8.046 -0.0275 -0.0185  0.1249
 7078SOL    HW132870   1.775   0.334   7.979  1.4323  1.5432 -1.3006
 7078SOL    HW232871   1.807   0.392   8.112  2.7340  2.5567 -0.7157
 7079SOL     OW32872   3.974   1.555   9.778 -0.2484 -0.4646  0.7160
 7079SOL    HW132873   3.992   1.575   9.870 -0.7233  0.9546  0.4968
 7079SOL    HW232874   4.019   1.622   9.727 -2.2926 -0.3737 -0.9397
 7080SOL     OW32875   0.969   1.537   3.321 -0.3041  0.1717  0.7476
 7080SOL    HW132876   1.031   1.540   3.248 -0.8491 -0.2423  0.2713
 7080SOL    HW232877   0.967   1.448   3.356  1.3131 -0.7930 -1.6216
 7081SOL     OW32878   1.208   1.465  12.595  0.1493  0.0542 -0.0603
 7081SOL    HW132879   1.158   1.485  12.516 -0.2019  1.2371  0.4725
 7081SOL    HW232880   1.182   1.541  12.647 -2.0105 -0.7002 -0.0138
 7082SOL     OW32881   1.381   2.653   1.702  0.0793 -0.2326  0.3888
 7082SOL    HW132882   1.306   2.620   1.652  0.1263 -2.1868  1.6167
 7082SOL    HW232883   1.452   2.597   1.671 -0.2989 -0.1044 -0.7127
 7083SOL     OW32884   1.335   4.310  17.683  0.4432  0.2322 -0.4053
 7083SOL    HW132885   1.358   4.354   0.025  0.6995  0.9454 -0.8518
 7083SOL    HW232886   1.278   4.369  17.634  1.3215  0.5918 -0.9893
 7084SOL     OW32887   0.853   1.704   3.518 -0.4909 -0.1694 -1.0759
 7084SOL    HW132888   0.898   1.788   3.511 -1.6281  0.6838  1.7490
 7084SOL    HW232889   0.903   1.645   3.461 -1.0581  0.3259 -2.0752
 7085SOL     OW32890   1.153   0.818  13.273  0.9110  0.1372 -0.6491
 7085SOL    HW132891   1.204   0.886  13.229  1.7069 -0.9865 -1.4781
 7085SOL    HW232892   1.206   0.739  13.261  1.9211  0.2878  2.9508
 7086SOL     OW32893   4.425   3.179   6.120  0.3062  0.7150  0.2716
 7086SOL    HW132894   4.352   3.197   6.060  0.9300 -1.2508 -1.0626
 7086SOL    HW232895   4.453   3.106   6.065  0.8852  0.2815  1.1561
 7087SOL     OW32896   3.572   3.957   1.587  0.2928  0.2751 -0.0360
 7087SOL    HW132897   3.547   3.886   1.647 -1.7204  0.8792 -0.1822
 7087SOL    HW232898   3.513   4.028   1.613  0.2151 -0.3173  1.4115
 7088SOL     OW32899   0.603   1.134   6.984 -0.1073 -0.2118  0.0221
 7088SOL    HW132900   0.583   1.221   7.020 -1.9170 -0.3011 -0.8122
 7088SOL    HW232901   0.634   1.165   6.899  1.8298 -0.6753  0.5480
 7089SOL     OW32902   3.399   1.909   4.627  0.1135  0.2442  0.6011
 7089SOL    HW132903   3.442   1.873   4.549  0.4374 -0.0236  0.8994
 7089SOL    HW232904   3.452   1.989   4.633  1.8776 -0.8599 -0.3023
 7090SOL     OW32905   0.549   4.449   8.517  0.2732  0.0792  0.0315
 7090SOL    HW132906   0.642   4.428   8.509  0.1433  0.9626 -3.5518
 7090SOL    HW232907   0.543   4.466   8.423 -1.5552 -3.9453 -0.5443
 7091SOL     OW32908   3.523   1.101   7.619 -0.5255  0.3650 -0.1247
 7091SOL    HW132909   3.486   1.166   7.559  1.8831  1.7413 -0.0891
 7091SOL    HW232910   3.541   1.160   7.692 -2.2601  0.6567  0.0823
 7092SOL     OW32911   3.136   3.413   9.396  0.5533 -0.0828  0.0793
 7092SOL    HW132912   3.227   3.394   9.416  0.5479  1.9041  1.9994
 7092SOL    HW232913   3.137   3.471   9.319 -0.6187 -0.5223 -0.2658
 7093SOL     OW32914   2.160   0.237  11.997  0.2483 -0.0592  0.3548
 7093SOL    HW132915   2.247   0.238  11.958  0.2505  2.5155  0.4716
 7093SOL    HW232916   2.163   0.148  12.032 -0.2913 -0.7034 -1.2360
 7094SOL     OW32917   1.118   4.497   9.166  0.4456  0.6146  0.2319
 7094SOL    HW132918   1.112   4.431   9.096  1.0219  1.4453 -0.5979
 7094SOL    HW232919   1.038   4.545   9.144  0.0824 -0.3220 -0.5093
 7095SOL     OW32920   0.007   1.324   7.731 -0.0325 -0.3340 -0.2378
 7095SOL    HW132921   4.727   1.253   7.794 -0.1761 -0.1094 -0.0200
 7095SOL    HW232922   4.707   1.286   7.650 -0.8163 -0.3141  0.0981
 7096SOL     OW32923   4.233   2.581   5.261  0.4673 -0.6577  0.0343
 7096SOL    HW132924   4.217   2.623   5.176  0.5310  1.1207  0.9007
 7096SOL    HW232925   4.157   2.527   5.279  1.7245 -2.1166  1.0143
 7097SOL     OW32926   4.218   1.652   5.327  0.1497  0.2929  0.0547
 7097SOL    HW132927   4.309   1.626   5.311 -0.1482 -0.8391  0.2451
 7097SOL    HW232928   4.244   1.729   5.377  0.5236  0.4328 -0.3538
 7098SOL     OW32929   0.283   3.710   1.296  0.3795 -0.3689  0.1687
 7098SOL    HW132930   0.295   3.627   1.341 -1.9890 -0.2234  1.1041
 7098SOL    HW232931   0.187   3.716   1.288  0.5925  3.2954  0.3384
 7099SOL     OW32932   0.657   0.848   7.835  0.5459 -0.0700  0.5692
 7099SOL    HW132933   0.725   0.786   7.808  1.0510  1.3382 -1.3451
 7099SOL    HW232934   0.601   0.859   7.759 -1.4371  0.7702  2.1562
 7100SOL     OW32935   0.560   3.962   8.180 -0.8244  0.6408 -0.0537
 7100SOL    HW132936   0.520   3.918   8.255 -1.5835  0.1283 -0.7708
 7100SOL    HW232937   0.631   3.900   8.164  0.8109  2.4529  0.2173
 7101SOL     OW32938   4.031   1.572  10.039 -0.0443 -0.0956  0.1660
 7101SOL    HW132939   4.032   1.493  10.094  2.0371 -1.7343 -2.2440
 7101SOL    HW232940   3.992   1.633  10.102 -0.0759  0.4417 -0.3752
 7102SOL     OW32941   2.944   0.574  12.557 -0.0602 -0.1505 -0.3496
 7102SOL    HW132942   2.863   0.544  12.598 -1.0512  2.1374 -0.6206
 7102SOL    HW232943   2.932   0.513  12.485 -0.2066  0.0430 -0.4900
 7103SOL     OW32944   4.600   4.673   3.010  0.4077  0.2905 -0.4665
 7103SOL    HW132945   4.538   4.674   3.082 -1.5253 -0.5618 -2.1058
 7103SOL    HW232946   4.664   0.007   3.026  2.1881 -0.6779 -3.2350
 7104SOL     OW32947   1.879   3.960   3.904  0.0932 -0.2830  0.2744
 7104SOL    HW132948   1.799   3.913   3.926 -0.7985  0.4107 -1.5466
 7104SOL    HW232949   1.852   4.049   3.883  2.6453  0.0753 -1.5089
 7105SOL     OW32950   3.482   0.126  13.723 -0.1827 -0.1317 -0.1347
 7105SOL    HW132951   3.517   0.194  13.782 -0.2644  1.4588 -1.9197
 7105SOL    HW232952   3.475   0.050  13.781 -0.0459  0.9894  1.3588
 7106SOL     OW32953   1.251   1.850   9.324  1.1480 -0.7244  0.4947
 7106SOL    HW132954   1.308   1.914   9.281 -0.2804 -1.5723 -2.6443
 7106SOL    HW232955   1.226   1.897   9.404 -0.5640 -0.0584 -0.4310
 7107SOL     OW32956   3.882   3.098   6.182  0.3426  0.7627  0.3598
 7107SOL    HW132957   3.954   3.098   6.244  1.2898  3.4982 -0.7365
 7107SOL    HW232958   3.912   3.172   6.130 -0.4450  2.2325  1.9948
 7108SOL     OW32959   1.127   1.340  10.424 -0.0180  0.3372 -0.1547
 7108SOL    HW132960   1.079   1.297  10.494 -0.8940  0.3133 -0.7678
 7108SOL    HW232961   1.071   1.416  10.407  0.2192  0.7064  0.6919
 7109SOL     OW32962   4.096   4.614  10.005  0.1866 -0.3816  0.2854
 7109SOL    HW132963   4.014   4.663   9.997  0.9370  0.8057 -0.0425
 7109SOL    HW232964   4.104   4.587   9.914 -2.3430 -1.4758  0.3885
 7110SOL     OW32965   2.319   2.450   7.778  0.8614 -0.6305 -0.4198
 7110SOL    HW132966   2.300   2.474   7.869 -0.6187  0.7033 -1.0893
 7110SOL    HW232967   2.250   2.499   7.733 -0.4725 -1.2493  0.9312
 7111SOL     OW32968   2.224   2.592   3.267 -0.0115  0.4829  0.6868
 7111SOL    HW132969   2.274   2.672   3.252 -0.4547  0.6418  0.0538
 7111SOL    HW232970   2.184   2.570   3.183 -2.3285  1.7703  1.4308
 7112SOL     OW32971   4.478   1.247   3.244 -0.2039 -0.9193  0.3464
 7112SOL    HW132972   4.399   1.238   3.299 -0.1304  0.2946  0.6676
 7112SOL    HW232973   4.525   1.311   3.299 -0.9733  1.5454 -1.8696
 7113SOL     OW32974   0.619   2.704   3.412 -0.5790 -0.2926 -0.1615
 7113SOL    HW132975   0.564   2.773   3.450  0.2737 -0.3265  1.1548
 7113SOL    HW232976   0.589   2.639   3.476  3.1311 -0.6655  1.1956
 7114SOL     OW32977   2.689   4.491   3.627  0.1123 -0.3288 -0.0863
 7114SOL    HW132978   2.778   4.474   3.656  0.8005  1.3466 -1.2174
 7114SOL    HW232979   2.692   4.465   3.535  0.0992  0.3650 -0.2866
 7115SOL     OW32980   3.006   3.658   2.993 -0.0298 -0.1258  0.1307
 7115SOL    HW132981   3.072   3.592   3.012  2.9064  2.1114 -2.3440
 7115SOL    HW232982   3.062   3.732   2.968 -0.2504  0.3658  1.0654
 7116SOL     OW32983   3.535   4.675  17.381 -0.5306  0.0632 -0.3529
 7116SOL    HW132984   3.471   4.726  17.332  0.1050  0.7288 -0.4844
 7116SOL    HW232985   3.593   4.640  17.313  1.1965  0.8714  0.7136
 7117SOL     OW32986   2.588   1.664  16.397  0.1439  0.3275  0.2072
 7117SOL    HW132987   2.623   1.741  16.352  0.4179 -0.8055 -1.5239
 7117SOL    HW232988   2.623   1.585  16.356  1.0667  0.1159  1.4006
 7118SOL     OW32989   1.835   0.355   3.212 -0.4909  0.0502 -0.1039
 7118SOL    HW132990   1.901   0.299   3.254 -1.3762 -1.2644 -0.4447
 7118SOL    HW232991   1.753   0.306   3.215 -1.6202  1.8389 -2.1988
 7119SOL     OW32992   3.568   0.632   6.912  0.2693 -0.1569  0.6006
 7119SOL    HW132993   3.641   0.678   6.871 -1.8961  2.3806 -0.3989
 7119SOL    HW232994   3.506   0.705   6.918  0.4050  0.0500 -0.5265
 7120SOL     OW32995   0.461   1.639   7.000 -0.1757  0.2783  0.1849
 7120SOL    HW132996   0.499   1.699   7.064  0.8403  0.0514 -0.2067
 7120SOL    HW232997   0.382   1.610   7.047 -0.6371 -0.7197 -1.1776
 7121SOL     OW32998   1.480   4.284  10.099  0.1662  0.4281  0.4216
 7121SOL    HW132999   1.439   4.234  10.170  1.5167 -0.1359  0.7947
 7121SOL    HW233000   1.477   4.374  10.130  1.0583  0.6892 -0.2599
 7122SOL     OW33001   4.607   3.393  10.894 -0.2151  0.0813 -0.3325
 7122SOL    HW133002   4.696   3.412  10.923 -0.0618 -1.2583  0.0772
 7122SOL    HW233003   4.607   3.299  10.913  1.4061  0.0759 -0.3691
 7123SOL     OW33004   3.474   4.450  14.714  0.2760 -0.2639 -0.3547
 7123SOL    HW133005   3.386   4.421  14.740  0.8239 -0.5925  1.1498
 7123SOL    HW233006   3.479   4.404  14.630 -0.9103  0.4352 -0.8086
 7124SOL     OW33007   0.850   2.530   3.525 -0.0396 -0.1626 -0.7848
 7124SOL    HW133008   0.912   2.494   3.461  0.6301 -0.9765  0.3210
 7124SOL    HW233009   0.777   2.468   3.515  1.6841 -2.5588  1.4119
 7125SOL     OW33010   3.087   4.680   4.335 -0.2957  0.4842 -0.3554
 7125SOL    HW133011   3.097   0.028   4.381 -0.6288 -0.0385  0.6505
 7125SOL    HW233012   3.112   4.615   4.401  0.1334  0.1514 -0.8455
 7126SOL     OW33013   0.814   3.819   5.755  0.0667 -0.3851  0.1632
 7126SOL    HW133014   0.861   3.834   5.837  1.2966  0.4800 -0.7115
 7126SOL    HW233015   0.867   3.750   5.715 -2.3808 -2.2070  0.0502
 7127SOL     OW33016   1.106   2.528   5.799 -0.4303  0.1643 -0.1641
 7127SOL    HW133017   1.060   2.483   5.728 -2.1281 -1.1623  1.7767
 7127SOL    HW233018   1.034   2.572   5.846 -0.4794  0.7294 -0.7660
 7128SOL     OW33019   2.970   0.609   1.788 -0.6914 -0.0427  0.0521
 7128SOL    HW133020   2.989   0.617   1.694 -0.3241  1.3197  0.2391
 7128SOL    HW233021   2.988   0.516   1.801 -1.8064 -0.3362 -0.4819
 7129SOL     OW33022   0.802   1.742   5.717  0.4227  0.0985 -0.1605
 7129SOL    HW133023   0.771   1.651   5.709  1.3095 -0.1802 -0.3992
 7129SOL    HW233024   0.745   1.779   5.650 -2.0243  2.2656  3.1487
 7130SOL     OW33025   3.015   3.616  10.351 -0.7045 -0.1578 -0.0516
 7130SOL    HW133026   3.029   3.667  10.270  3.0472 -1.4293 -0.1824
 7130SOL    HW233027   2.920   3.606  10.345 -0.6699  0.0336 -1.0134
 7131SOL     OW33028   3.545   4.283   1.661  0.2176  0.5294 -0.1937
 7131SOL    HW133029   3.475   4.318   1.606  0.3413 -0.6374 -1.0800
 7131SOL    HW233030   3.499   4.245   1.736  0.0597 -0.6329 -0.8900
 7132SOL     OW33031   3.813   3.236   6.764 -0.2003 -0.2183 -0.2680
 7132SOL    HW133032   3.743   3.173   6.775 -0.3221  0.1600  1.1768
 7132SOL    HW233033   3.777   3.308   6.713 -0.8982  1.2732  2.3469
 7133SOL     OW33034   2.972   2.118  15.728  0.2430 -0.1036 -0.3570
 7133SOL    HW133035   2.916   2.075  15.664  1.3660 -1.4276 -0.4460
 7133SOL    HW233036   2.982   2.200  15.681  2.1436 -0.6928 -0.9742
 7134SOL     OW33037   2.603   1.745   0.941 -0.3204 -0.0401 -0.0674
 7134SOL    HW133038   2.627   1.830   0.903  0.2883 -0.0369  0.3155
 7134SOL    HW233039   2.666   1.684   0.903  0.8767  1.8796 -1.1658
 7135SOL     OW33040   0.131   3.170  15.268  0.1395 -0.7630  0.1297
 7135SOL    HW133041   0.168   3.217  15.343 -0.2311 -0.1686 -0.0611
 7135SOL    HW233042   0.157   3.080  15.287  0.4531 -0.5722  0.5963
 7136SOL     OW33043   2.997   4.050   7.320 -0.8369 -0.2459  0.0175
 7136SOL    HW133044   3.043   4.123   7.361 -1.3436  0.2457 -0.2770
 7136SOL    HW233045   3.066   3.988   7.298 -0.1800  0.5640 -0.2300
 7137SOL     OW33046   2.592   2.408   9.224 -0.0369 -0.2546  0.0472
 7137SOL    HW133047   2.665   2.460   9.258 -1.3511  1.5997  0.0459
 7137SOL    HW233048   2.591   2.432   9.131  0.6114 -0.0884  0.0791
 7138SOL     OW33049   4.312   0.274   5.309  0.2187  0.0564  0.1473
 7138SOL    HW133050   4.225   0.312   5.292  1.4038  1.3657 -3.0570
 7138SOL    HW233051   4.315   0.253   5.402 -1.2563 -0.6528  0.0304
 7139SOL     OW33052   4.574   2.502  12.671  0.4554 -0.0280  0.1046
 7139SOL    HW133053   4.567   2.516  12.766 -0.9392  2.8030 -0.3889
 7139SOL    HW233054   4.646   2.561  12.651  1.6567 -1.8844 -1.0242
 7140SOL     OW33055   0.269   1.584   7.968 -0.2819 -0.5690 -0.4301
 7140SOL    HW133056   0.298   1.675   7.974 -2.0353 -0.1548  1.8183
 7140SOL    HW233057   0.285   1.548   8.055  0.4540 -0.7988 -0.6625
 7141SOL     OW33058   2.993   2.266  11.855 -0.4226  0.1251  0.8597
 7141SOL    HW133059   3.053   2.212  11.906 -0.3029  0.3237  0.9299
 7141SOL    HW233060   2.918   2.274  11.914 -0.7374  0.4080  0.4217
 7142SOL     OW33061   0.172   4.258  14.883 -0.4858  0.1379 -0.0929
 7142SOL    HW133062   0.135   4.319  14.819  2.0569  0.9426 -0.8042
 7142SOL    HW233063   0.093   4.204  14.894  0.4804 -1.4470 -0.8635
 7143SOL     OW33064   4.336   0.449  12.700 -0.2205 -0.5716 -0.3550
 7143SOL    HW133065   4.294   0.395  12.768 -0.4312  0.3183  0.2168
 7143SOL    HW233066   4.398   0.381  12.673 -1.3259 -1.5673 -0.3716
 7144SOL     OW33067   0.969   1.238   4.499  0.1198  0.0487  0.0820
 7144SOL    HW133068   0.948   1.174   4.431  1.7155  0.6199 -0.9385
 7144SOL    HW233069   1.063   1.232   4.514  0.4140 -1.0106 -2.1663
 7145SOL     OW33070   0.808   2.740   8.018  0.7986  0.0637 -0.0737
 7145SOL    HW133071   0.898   2.775   8.017  0.8712 -0.1391 -0.3610
 7145SOL    HW233072   0.828   2.662   7.967 -0.7573 -0.3559 -0.0290
 7146SOL     OW33073   3.412   0.723   4.762 -0.3206  0.6286  0.2440
 7146SOL    HW133074   3.390   0.801   4.815  0.1507  1.6900 -1.1237
 7146SOL    HW233075   3.507   0.717   4.764 -0.5562 -2.8809  0.2024
 7147SOL     OW33076   1.076   1.857   8.440  0.2376 -0.1580  0.0064
 7147SOL    HW133077   1.003   1.797   8.429  0.3089 -0.3313  0.5138
 7147SOL    HW233078   1.074   1.869   8.535  0.5092  2.7461 -0.3386
 7148SOL     OW33079   0.610   3.543   1.863 -0.0426 -0.1655 -0.4971
 7148SOL    HW133080   0.572   3.541   1.775 -1.4176  1.8583  0.0384
 7148SOL    HW233081   0.663   3.464   1.868 -0.0291 -0.1609 -0.5794
 7149SOL     OW33082   2.726   0.311   3.201  0.4252 -0.1419  0.0720
 7149SOL    HW133083   2.756   0.402   3.200 -0.3442  0.1242  0.6999
 7149SOL    HW233084   2.660   0.322   3.269  0.3045 -1.0183  0.0986
 7150SOL     OW33085   2.216   1.318   9.557  0.5806  0.0092 -0.4466
 7150SOL    HW133086   2.274   1.390   9.581 -1.9924  2.3988 -1.4600
 7150SOL    HW233087   2.135   1.368   9.565  0.7279 -0.0059  1.1097
 7151SOL     OW33088   0.256   1.369   2.965  0.8905  0.5328  0.2823
 7151SOL    HW133089   0.337   1.351   2.917  1.6040  1.3160  1.1877
 7151SOL    HW233090   0.214   1.446   2.926 -1.3947 -0.3198  1.0382
 7152SOL     OW33091   1.419   2.715   0.136 -0.6469 -0.0070 -0.3418
 7152SOL    HW133092   1.369   2.648   0.089  1.7726 -1.8644 -0.2284
 7152SOL    HW233093   1.434   2.783   0.069 -1.8659  1.6328  1.0450
 7153SOL     OW33094   4.217   3.244   5.408  0.0741 -0.2225 -0.3714
 7153SOL    HW133095   4.169   3.227   5.327  2.1980 -1.0489 -1.4375
 7153SOL    HW233096   4.285   3.305   5.381 -0.3693  0.5103  0.1671
 7154SOL     OW33097   3.939   3.551   9.252  0.2674  0.0348  0.3261
 7154SOL    HW133098   3.990   3.614   9.202 -1.6163  0.3990 -1.1418
 7154SOL    HW233099   3.963   3.578   9.340  0.3364  1.4849 -0.1399
 7155SOL     OW33100   3.830   0.667   1.933  0.4589  0.1076  0.3801
 7155SOL    HW133101   3.846   0.640   2.024 -1.1529  0.7854  0.8653
 7155SOL    HW233102   3.829   0.762   1.947  0.3853  0.3264 -1.1384
 7156SOL     OW33103   2.403   4.420   8.838  0.4339 -0.6111 -0.4870
 7156SOL    HW133104   2.451   4.340   8.861 -1.3798 -1.4643  0.3876
 7156SOL    HW233105   2.359   4.445   8.920 -0.4302 -0.4459 -1.0019
 7157SOL     OW33106   3.381   1.432   1.906  0.6715 -0.6492 -0.1247
 7157SOL    HW133107   3.348   1.429   1.816 -1.9975 -0.7188  0.8454
 7157SOL    HW233108   3.382   1.527   1.921  0.9504 -0.3386 -2.1099
 7158SOL     OW33109   4.635   0.082   6.275 -0.1967 -0.3614 -0.2253
 7158SOL    HW133110   4.612   0.008   6.220  2.4683 -1.0427 -0.4177
 7158SOL    HW233111   4.551   0.128   6.282 -0.0105  0.2446 -1.9891
 7159SOL     OW33112   1.923   1.114   3.864 -0.4897 -0.1714 -0.7920
 7159SOL    HW133113   1.868   1.144   3.936  2.7759  1.0254  1.2078
 7159SOL    HW233114   1.978   1.192   3.851  3.0551 -2.5790 -0.0167
 7160SOL     OW33115   4.545   0.441   0.917  0.8603  0.0454  0.7366
 7160SOL    HW133116   4.586   0.356   0.907  0.0114 -0.0771 -1.7358
 7160SOL    HW233117   4.457   0.404   0.908  1.1845 -0.7020  0.7383
 7161SOL     OW33118   2.957   2.110   3.769 -0.6358 -0.1820 -0.7582
 7161SOL    HW133119   2.890   2.101   3.837  1.1757 -1.0380  0.9073
 7161SOL    HW233120   2.910   2.053   3.708  0.7976 -1.6115 -0.5187
 7162SOL     OW33121   4.325   2.728  16.166 -0.7699 -0.1334 -0.4905
 7162SOL    HW133122   4.397   2.688  16.216 -0.6044  0.7244 -0.0503
 7162SOL    HW233123   4.362   2.814  16.146 -0.0530 -0.0659  1.1331
 7163SOL     OW33124   4.345   2.720  11.126 -0.1921 -0.0891 -0.1623
 7163SOL    HW133125   4.251   2.732  11.123 -0.4020 -1.8392 -0.6338
 7163SOL    HW233126   4.346   2.653  11.195  1.3988 -0.1684 -0.2658
 7164SOL     OW33127   2.715   3.339   0.979  0.0657 -0.3650 -0.0679
 7164SOL    HW133128   2.806   3.367   0.986 -0.6253  2.0728 -0.9265
 7164SOL    HW233129   2.718   3.279   1.053  0.1584 -1.9894 -1.3751
 7165SOL     OW33130   3.446   2.436  14.004  0.2169  0.2779 -0.0536
 7165SOL    HW133131   3.418   2.369  13.942  0.2566  3.0812 -3.1277
 7165SOL    HW233132   3.465   2.518  13.958 -0.6605  1.8040  2.3203
 7166SOL     OW33133   0.705   0.788   0.687  0.2462  0.6774  0.0573
 7166SOL    HW133134   0.659   0.707   0.662  4.8287 -1.0628 -2.6775
 7166SOL    HW233135   0.669   0.849   0.623 -0.1142 -0.0209 -0.4114
 7167SOL     OW33136   1.546   0.436   9.884 -0.4175 -0.5275  0.1787
 7167SOL    HW133137   1.533   0.404   9.973  1.1347 -1.9261 -0.1014
 7167SOL    HW233138   1.472   0.496   9.878  0.1901  0.2057  0.0290
 7168SOL     OW33139   1.125   1.458   3.102 -0.2290  0.0746  0.1681
 7168SOL    HW133140   1.214   1.422   3.106 -0.4819 -0.4116  1.4040
 7168SOL    HW233141   1.069   1.390   3.066  0.7329 -1.1147  0.9027
 7169SOL     OW33142   1.827   2.248   2.043  0.1423  0.0781 -0.0904
 7169SOL    HW133143   1.885   2.222   2.115  0.4122 -1.7889 -0.9630
 7169SOL    HW233144   1.808   2.161   2.008  0.7819 -0.0066 -0.2239
 7170SOL     OW33145   4.186   3.089   5.646  0.0517 -0.5915  0.0361
 7170SOL    HW133146   4.257   3.027   5.632 -0.5164 -0.8931 -1.4581
 7170SOL    HW233147   4.193   3.135   5.562  0.5006  0.8069  0.8213
 7171SOL     OW33148   3.060   0.754   4.023 -0.1633 -0.0906 -0.3278
 7171SOL    HW133149   3.101   0.681   4.070 -1.4431 -0.4099  0.2854
 7171SOL    HW233150   3.005   0.783   4.096 -2.9562 -0.4974 -2.2922
 7172SOL     OW33151   0.941   1.727   9.270 -0.0345 -0.1169 -0.0724
 7172SOL    HW133152   1.021   1.686   9.304  0.7450 -0.1618 -1.9362
 7172SOL    HW233153   0.977   1.801   9.221  0.1473 -0.5572 -0.6019
 7173SOL     OW33154   0.807   3.994   2.825  0.5434  0.7001  0.4421
 7173SOL    HW133155   0.851   3.913   2.801 -1.1446  0.0673 -0.5176
 7173SOL    HW233156   0.864   4.016   2.899  0.5707  0.5207  0.4737
 7174SOL     OW33157   1.766   0.333   0.180 -0.3561 -0.3518 -0.6118
 7174SOL    HW133158   1.718   0.405   0.222 -1.3938 -0.6368 -1.3137
 7174SOL    HW233159   1.698   0.286   0.133 -0.9052 -1.5226  1.3613
 7175SOL     OW33160   1.321   4.491   6.372 -0.2519  0.9317  0.6358
 7175SOL    HW133161   1.314   4.570   6.319  0.2297  1.1563  0.9051
 7175SOL    HW233162   1.245   4.434   6.355  0.6179  0.3345 -1.2138
 7176SOL     OW33163   1.886   3.936   5.065 -0.4458 -0.4403 -0.1872
 7176SOL    HW133164   1.828   3.988   5.122 -1.2806 -1.2048 -0.3526
 7176SOL    HW233165   1.935   3.894   5.137 -1.4330 -1.0279  0.1439
 7177SOL     OW33166   2.838   0.524   5.928  0.2049 -0.8038  0.4917
 7177SOL    HW133167   2.860   0.612   5.959 -0.8925  0.2336 -1.5876
 7177SOL    HW233168   2.756   0.551   5.885  0.8352 -0.5934 -0.5698
 7178SOL     OW33169   2.385   4.453   4.833  0.2457 -0.1270 -0.3075
 7178SOL    HW133170   2.446   4.383   4.856 -1.4284 -1.8771 -1.1688
 7178SOL    HW233171   2.443   4.510   4.782 -1.1245  0.1298 -1.5989
 7179SOL     OW33172   1.606   2.566   2.134  0.1350 -0.5202 -0.4545
 7179SOL    HW133173   1.673   2.533   2.194 -0.6639 -1.9093 -0.3342
 7179SOL    HW233174   1.550   2.621   2.188  1.6959  0.4228  0.2161
 7180SOL     OW33175   3.995   4.416   2.686  0.6301 -0.0621 -0.0833
 7180SOL    HW133176   4.073   4.376   2.725 -0.1936 -2.0123 -0.4562
 7180SOL    HW233177   3.988   4.501   2.731  0.2822 -0.1661  0.0543
 7181SOL     OW33178   1.681   0.388   8.526 -0.0522  0.1814 -0.1432
 7181SOL    HW133179   1.688   0.464   8.582  0.7994 -1.3341  1.8036
 7181SOL    HW233180   1.768   0.348   8.534 -0.3366 -0.5602 -0.6537
 7182SOL     OW33181   1.053   4.358  10.215 -0.1806  0.0307  0.2464
 7182SOL    HW133182   1.031   4.295  10.147 -0.8580 -0.4391  0.8968
 7182SOL    HW233183   1.098   4.425  10.163 -1.2501 -0.2170 -0.9912
 7183SOL     OW33184   0.520   3.975   7.906 -0.1527  0.4984 -0.8467
 7183SOL    HW133185   0.567   3.892   7.895 -1.0053  0.0054 -0.7352
 7183SOL    HW233186   0.530   3.981   8.001 -3.0484  0.8257 -0.5592
 7184SOL     OW33187   3.090   1.216   5.196  0.1725  0.0307  0.3007
 7184SOL    HW133188   3.035   1.154   5.244 -1.1852  1.2399  0.3002
 7184SOL    HW233189   3.076   1.290   5.255 -0.1900 -0.5906  0.9824
 7185SOL     OW33190   1.282   1.130   3.008 -0.2318  0.5177 -0.0682
 7185SOL    HW133191   1.260   1.052   2.957  0.6995  0.1278  0.1377
 7185SOL    HW233192   1.292   1.094   3.096  1.8857 -0.3352 -0.6708
 7186SOL     OW33193   0.256   4.013   3.509  0.7192 -0.0235  0.5032
 7186SOL    HW133194   0.166   3.982   3.495  1.2767 -1.2912 -0.2620
 7186SOL    HW233195   0.301   3.936   3.542  1.1913  0.1724  0.3170
 7187SOL     OW33196   3.393   3.013   2.824 -0.1832 -0.5829  0.2631
 7187SOL    HW133197   3.453   2.951   2.784 -0.0173 -0.2043 -0.0759
 7187SOL    HW233198   3.310   2.966   2.827 -0.3852 -0.1448  1.6007
 7188SOL     OW33199   2.855   4.035   5.666 -0.3475  0.2429 -0.0295
 7188SOL    HW133200   2.790   4.096   5.700  0.1683  0.4108  0.6503
 7188SOL    HW233201   2.813   3.952   5.690 -0.9347  0.8359  0.9654
 7189SOL     OW33202   1.920   1.840   6.684  0.3390  0.2260  0.3598
 7189SOL    HW133203   2.008   1.859   6.716  0.1084  0.5580  0.7914
 7189SOL    HW233204   1.933   1.840   6.589  0.9933 -0.6340  0.4425
 7190SOL     OW33205   3.923   3.584  11.967 -0.0368  0.2786  0.2226
 7190SOL    HW133206   3.943   3.672  11.936 -0.2022  0.4236  0.5393
 7190SOL    HW233207   4.005   3.542  11.941 -0.9755 -1.6151  0.3282
 7191SOL     OW33208   2.831   4.247   4.058 -0.1898 -0.0115  0.3119
 7191SOL    HW133209   2.825   4.231   4.152  1.1377 -0.3791  0.3351
 7191SOL    HW233210   2.785   4.170   4.025 -1.5859  0.1538  1.8894
 7192SOL     OW33211   0.165   3.365  11.424 -0.2066 -0.0277 -0.5198
 7192SOL    HW133212   0.214   3.322  11.494  0.7216  1.0047 -0.5297
 7192SOL    HW233213   0.076   3.354  11.458  0.1193 -1.7101 -0.2289
 7193SOL     OW33214   4.659   1.637   0.563  0.5961 -0.0765 -0.3176
 7193SOL    HW133215   4.600   1.610   0.634  1.4414  1.4885  0.9614
 7193SOL    HW233216   4.636   1.576   0.493  1.4832  1.0779 -1.6076
 7194SOL     OW33217   1.951   4.107   1.442 -0.1812 -0.3057  0.2750
 7194SOL    HW133218   1.958   4.182   1.501 -1.0151 -0.0893  0.0941
 7194SOL    HW233219   1.887   4.136   1.376 -0.3994  1.0066  1.0679
 7195SOL     OW33220   4.002   1.681   0.863 -0.0186 -0.1615 -0.1562
 7195SOL    HW133221   4.007   1.644   0.951 -3.9474  1.1471  0.6207
 7195SOL    HW233222   3.921   1.731   0.868  0.4373  0.5128  0.5363
 7196SOL     OW33223   2.633   2.998  14.433  0.0649  0.5861 -0.2307
 7196SOL    HW133224   2.582   3.078  14.418 -2.9293 -1.0001  1.5631
 7196SOL    HW233225   2.565   2.933  14.415  2.7029 -1.8697 -1.3091
 7197SOL     OW33226   4.264   4.700   2.089  0.1646  0.1549 -0.2906
 7197SOL    HW133227   4.321   0.009   2.151  0.4289 -2.5220  1.3824
 7197SOL    HW233228   4.271   0.023   2.014  2.1906  0.7986  0.4080
 7198SOL     OW33229   3.184   3.098   3.019 -0.1186 -0.1038  0.5104
 7198SOL    HW133230   3.221   3.035   3.080  0.4376 -1.1087 -0.8654
 7198SOL    HW233231   3.242   3.083   2.944 -1.1231 -0.9639 -0.1079
 7199SOL     OW33232   1.193   3.483  16.167 -0.4901 -0.2633 -0.1064
 7199SOL    HW133233   1.177   3.564  16.215  1.3790 -0.0068  0.0909
 7199SOL    HW233234   1.221   3.511  16.080  1.2187 -1.6844 -0.0173
 7200SOL     OW33235   3.696   1.400   8.924  0.2130 -0.1604 -0.0184
 7200SOL    HW133236   3.620   1.379   8.869 -0.0167  0.5456  0.0256
 7200SOL    HW233237   3.690   1.494   8.905  0.7000 -0.0655  0.3146
 7201SOL     OW33238   2.911   2.428  14.652  0.2293  0.1466  0.2360
 7201SOL    HW133239   2.906   2.373  14.574 -3.0026 -0.9438  1.1974
 7201SOL    HW233240   2.949   2.365  14.714  1.3559  2.8081  2.2232
 7202SOL     OW33241   2.189   1.847   6.702  0.1539  0.2076 -0.1166
 7202SOL    HW133242   2.254   1.911   6.670  0.4457  0.1702  0.3995
 7202SOL    HW233243   2.230   1.764   6.678  0.8465  0.2528  0.9063
 7203SOL     OW33244   1.570   0.295   5.422 -0.1018 -0.5661 -0.7150
 7203SOL    HW133245   1.565   0.206   5.389  2.4677 -0.1659 -2.1906
 7203SOL    HW233246   1.653   0.319   5.380  1.0142  0.7519  2.2104
 7204SOL     OW33247   0.377   1.040   1.454  0.3894  0.0079  0.4307
 7204SOL    HW133248   0.323   1.086   1.390  2.7125  0.0745 -1.5235
 7204SOL    HW233249   0.388   1.101   1.527  0.1859 -0.1221  0.5704
 7205SOL     OW33250   1.526   2.973  12.676  0.4061 -0.2424  0.6879
 7205SOL    HW133251   1.567   2.893  12.708  2.1016 -0.9457 -3.3146
 7205SOL    HW233252   1.600   3.032  12.663  0.7226 -0.9656 -0.7367
 7206SOL     OW33253   0.584   1.671   7.614  0.1794 -0.0646  0.1029
 7206SOL    HW133254   0.556   1.626   7.694  2.9625 -1.0264  0.5420
 7206SOL    HW233255   0.620   1.598   7.563 -2.6812 -0.8076 -0.9054
 7207SOL     OW33256   1.922   4.576   8.520  0.7776 -0.3665 -0.4415
 7207SOL    HW133257   1.982   4.550   8.450  0.0965  0.3580 -1.2982
 7207SOL    HW233258   1.961   4.659   8.548 -1.7040  0.7825 -0.4016
 7208SOL     OW33259   2.312   0.560   7.505  0.3724 -0.0628 -0.6573
 7208SOL    HW133260   2.297   0.468   7.483 -0.3575  0.1531 -1.0787
 7208SOL    HW233261   2.322   0.561   7.601 -3.0148  1.0165 -0.3151
 7209SOL     OW33262   3.395   1.534  15.114 -0.1510 -0.3409  0.1430
 7209SOL    HW133263   3.313   1.577  15.090 -0.8592 -2.1463 -0.6431
 7209SOL    HW233264   3.365   1.444  15.102  1.5168 -1.0084  0.9491
 7210SOL     OW33265   1.523   2.510   1.321  0.4664  0.3634  0.3281
 7210SOL    HW133266   1.527   2.603   1.340  1.3611  0.3655  0.1150
 7210SOL    HW233267   1.608   2.472   1.296  1.6187  2.3293  1.2653
 7211SOL     OW33268   1.134   2.430   1.625  0.0960 -0.2464  0.4329
 7211SOL    HW133269   1.129   2.518   1.588 -1.3757  0.8826  3.3402
 7211SOL    HW233270   1.051   2.392   1.595  0.2213  0.2086 -0.5111
 7212SOL     OW33271   0.154   0.266  14.702  0.2620  0.9681  0.3851
 7212SOL    HW133272   0.238   0.311  14.714 -0.4015  1.9457  1.3461
 7212SOL    HW233273   0.146   0.286  14.609  1.3883  1.3690  0.3657
 7213SOL     OW33274   0.042   0.813   2.388  0.0907 -0.2376  0.0295
 7213SOL    HW133275   4.726   0.831   2.466 -0.2754  1.2987 -0.5703
 7213SOL    HW233276   0.022   0.721   2.368 -1.4131  0.3259 -1.1027
 7214SOL     OW33277   2.110   3.657   6.564 -0.5116 -0.1590  0.0187
 7214SOL    HW133278   2.199   3.646   6.531  0.0750  0.7355  1.2942
 7214SOL    HW233279   2.099   3.749   6.587  0.3060  0.1360 -0.8079
 7215SOL     OW33280   0.429   3.929  11.758  0.7356  0.7026 -0.2033
 7215SOL    HW133281   0.383   3.846  11.769  1.7357  0.0519 -1.0116
 7215SOL    HW233282   0.376   3.983  11.699  0.4465  1.4784  0.7648
 7216SOL     OW33283   0.619   2.638   7.585  0.1490  0.2829  0.3961
 7216SOL    HW133284   0.649   2.703   7.649  0.1236  0.9023 -0.2189
 7216SOL    HW233285   0.527   2.629   7.608  0.2294 -1.4121  0.0771
 7217SOL     OW33286   4.696   3.501   1.824  0.4887  0.0511  0.4397
 7217SOL    HW133287   4.609   3.500   1.783 -0.4140  3.0782  2.2289
 7217SOL    HW233288   0.019   3.514   1.750  1.9055 -2.2157  1.1713
 7218SOL     OW33289   1.811   0.185   2.412  0.6575 -0.0063  0.0471
 7218SOL    HW133290   1.902   0.165   2.435  0.8378  2.2287  1.2303
 7218SOL    HW233291   1.776   0.194   2.500 -0.5494 -0.1384 -0.4218
 7219SOL     OW33292   1.949   4.044   8.593  0.0114  0.1731  0.3071
 7219SOL    HW133293   1.883   4.039   8.663  0.4870 -1.5874  0.6247
 7219SOL    HW233294   1.906   3.993   8.524  0.5306  0.9321 -0.5589
 7220SOL     OW33295   3.091   2.514   2.028 -0.2326 -0.0451 -0.3769
 7220SOL    HW133296   3.132   2.467   2.101 -2.4732  0.5709  1.2462
 7220SOL    HW233297   3.054   2.594   2.065 -1.5124 -1.4233  1.2933
 7221SOL     OW33298   0.540   4.301   6.779  0.2634 -0.6195  0.4603
 7221SOL    HW133299   0.493   4.241   6.837  0.0938  0.3880  1.3504
 7221SOL    HW233300   0.628   4.266   6.792  0.7443  0.6864  0.7296
 7222SOL     OW33301   0.582   4.555   7.723 -0.2564  0.0363  0.5613
 7222SOL    HW133302   0.605   4.598   7.805  2.8676 -0.8000  0.1298
 7222SOL    HW233303   0.528   4.481   7.751 -0.8698 -0.4689 -1.9764
 7223SOL     OW33304   2.445   2.298  17.539 -0.1994  0.2990 -0.4954
 7223SOL    HW133305   2.399   2.375  17.572  2.1588  1.4507  0.1008
 7223SOL    HW233306   2.493   2.325  17.460 -0.4071  1.0830 -0.3527
 7224SOL     OW33307   0.121   0.629   4.859  0.0638 -0.5219 -0.2556
 7224SOL    HW133308   0.133   0.585   4.775 -1.2049 -1.3439 -0.0073
 7224SOL    HW233309   0.083   0.712   4.831 -0.2182 -1.0402 -1.3894
 7225SOL     OW33310   0.510   0.672   9.228  0.3029 -0.0629  0.3188
 7225SOL    HW133311   0.566   0.594   9.233  1.1020  0.6351  2.1949
 7225SOL    HW233312   0.538   0.716   9.148 -1.9623  1.0456  0.1448
 7226SOL     OW33313   1.358   4.011   8.115 -0.6815  0.2675 -0.1557
 7226SOL    HW133314   1.434   3.978   8.164  0.6141  0.6724 -1.8939
 7226SOL    HW233315   1.398   4.044   8.034 -0.5263  1.0387  0.2247
 7227SOL     OW33316   1.756   0.093  10.651 -0.2731 -0.2005  0.5819
 7227SOL    HW133317   1.671   0.117  10.614 -0.4782 -0.4520  0.8853
 7227SOL    HW233318   1.810   0.095  10.573 -0.0258  1.5426  0.7961
 7228SOL     OW33319   4.146   3.832   8.325  0.2290 -0.1451 -0.0911
 7228SOL    HW133320   4.190   3.909   8.362  0.0842 -0.1274  0.0406
 7228SOL    HW233321   4.054   3.859   8.324  0.1764 -0.3604 -1.8117
 7229SOL     OW33322   0.321   4.297  15.465  0.6360 -0.3807  0.0913
 7229SOL    HW133323   0.405   4.253  15.454 -0.7280 -2.2586 -2.6903
 7229SOL    HW233324   0.320   4.299  15.561  1.3858 -0.4410  0.1016
 7230SOL     OW33325   1.715   0.584   7.149  0.1247 -0.3410  0.0677
 7230SOL    HW133326   1.720   0.520   7.079 -1.1391  0.5368 -0.8411
 7230SOL    HW233327   1.656   0.643   7.101  3.1109  0.4436 -2.6068
 7231SOL     OW33328   2.221   1.374   3.518  0.1875  0.2643 -0.0887
 7231SOL    HW133329   2.235   1.463   3.549 -0.1631  0.3411 -0.1487
 7231SOL    HW233330   2.126   1.370   3.529  0.3523 -1.5314  0.6604
 7232SOL     OW33331   2.104   0.673   6.931  0.5902 -0.5038 -0.2350
 7232SOL    HW133332   2.053   0.754   6.931  1.2369 -0.0861  0.4322
 7232SOL    HW233333   2.071   0.647   6.846  0.6487 -2.3638  0.3182
 7233SOL     OW33334   4.111   0.483  12.426 -0.0711  0.3975  0.2020
 7233SOL    HW133335   4.145   0.483  12.337  2.4488  1.1510  1.1824
 7233SOL    HW233336   4.193   0.481  12.475 -0.7005  0.0603  1.2554
 7234SOL     OW33337   1.585   2.148   3.987 -0.4622 -0.4087  0.1380
 7234SOL    HW133338   1.546   2.174   3.903 -1.2087 -1.9444 -0.0008
 7234SOL    HW233339   1.621   2.067   3.950 -2.4784 -1.7572  1.1544
 7235SOL     OW33340   0.340   1.419   0.858  0.0465  0.3680 -1.0063
 7235SOL    HW133341   0.381   1.351   0.805  0.3367 -0.3697  0.1736
 7235SOL    HW233342   0.255   1.433   0.817 -1.5190 -0.6195  1.9608
 7236SOL     OW33343   4.513   0.899   5.453  0.2807  0.1578 -0.2782
 7236SOL    HW133344   4.505   0.903   5.548 -1.6971  2.3526 -0.5246
 7236SOL    HW233345   4.483   0.808   5.445 -1.7264  0.8467 -0.8002
 7237SOL     OW33346   2.201   2.589   5.740  0.5486  0.3174  0.3165
 7237SOL    HW133347   2.293   2.582   5.716 -0.0796 -0.7396 -1.7812
 7237SOL    HW233348   2.158   2.539   5.670 -1.3101 -1.2397  2.5807
 7238SOL     OW33349   3.539   3.107   4.682 -0.3832 -0.0037  0.8443
 7238SOL    HW133350   3.567   3.198   4.698  0.8929  0.3377 -3.3695
 7238SOL    HW233351   3.565   3.060   4.762 -1.2774  1.8943  2.2546
 7239SOL     OW33352   2.323   0.625   9.883 -0.3206 -0.0553  0.1338
 7239SOL    HW133353   2.319   0.702   9.825  3.2263 -0.8670 -1.2042
 7239SOL    HW233354   2.363   0.676   9.954 -0.6093 -1.0348  0.9857
 7240SOL     OW33355   1.808   2.483   2.295 -0.2033  0.2689  0.0106
 7240SOL    HW133356   1.799   2.423   2.220 -0.3738 -0.1826  0.3925
 7240SOL    HW233357   1.786   2.430   2.372  0.5101 -2.6666 -1.7845
 7241SOL     OW33358   3.702   3.682  12.205 -0.0084  0.4054 -0.0386
 7241SOL    HW133359   3.738   3.746  12.143 -1.3004  2.1828  1.0308
 7241SOL    HW233360   3.763   3.705  12.276  0.1040 -0.0117  0.0004
 7242SOL     OW33361   4.097   1.667   6.371 -0.5597 -0.2624  0.0817
 7242SOL    HW133362   4.181   1.706   6.346 -0.6567  0.1653  0.4201
 7242SOL    HW233363   4.048   1.710   6.300  1.1065 -0.5015 -1.2142
 7243SOL     OW33364   1.546   4.709   8.777  0.4865  0.0810 -0.3496
 7243SOL    HW133365   1.503   4.697   8.861  0.8003 -1.6986 -0.4355
 7243SOL    HW233366   1.632   4.679   8.807  0.0706 -0.4624  0.2853
 7244SOL     OW33367   4.399   1.266  14.133  0.5156 -0.2035 -0.2647
 7244SOL    HW133368   4.392   1.220  14.050  1.2100 -0.6926 -0.0437
 7244SOL    HW233369   4.396   1.357  14.102  0.7897  0.6680  2.1842
 7245SOL     OW33370   1.756   0.599   3.110  0.2163 -0.3642  0.2417
 7245SOL    HW133371   1.802   0.516   3.123  1.2544 -0.3001 -3.0254
 7245SOL    HW233372   1.796   0.635   3.031 -1.0078 -0.4022 -0.3811
 7246SOL     OW33373   0.947   4.681   8.608 -0.2787 -0.1158  0.1825
 7246SOL    HW133374   0.892   0.024   8.605 -1.1552 -0.7072  1.0642
 7246SOL    HW233375   0.946   4.668   8.703 -0.2995 -1.7483 -0.0443
 7247SOL     OW33376   1.039   0.804   4.765 -0.0725 -0.6009 -0.1313
 7247SOL    HW133377   1.073   0.894   4.770  1.0365 -0.9131 -1.8018
 7247SOL    HW233378   1.009   0.794   4.675  2.0849  1.2768 -1.0792
 7248SOL     OW33379   3.834   2.808   4.726  0.1347  0.0038 -0.5345
 7248SOL    HW133380   3.787   2.766   4.654 -0.7529 -1.9728  1.2138
 7248SOL    HW233381   3.774   2.775   4.791 -0.6616  0.6062 -0.9627
 7249SOL     OW33382   4.096   2.030   7.960  1.0406  0.0628  0.2350
 7249SOL    HW133383   4.059   1.951   8.000 -0.6339  0.3114 -0.8229
 7249SOL    HW233384   4.148   1.984   7.894 -0.7864 -2.0575  0.2567
 7250SOL     OW33385   4.152   1.375  11.569 -0.2761  0.0077  0.3226
 7250SOL    HW133386   4.194   1.305  11.618  1.7082  1.1602  0.2836
 7250SOL    HW233387   4.180   1.361  11.478 -1.6562 -1.0416  0.0620
 7251SOL     OW33388   4.491   3.516   2.536  0.3804 -0.1599  0.2131
 7251SOL    HW133389   4.479   3.465   2.616  1.2562 -0.6925 -0.0052
 7251SOL    HW233390   4.446   3.465   2.468  2.4103 -1.7121  0.0504
 7252SOL     OW33391   4.586   3.118  14.974  0.1431  1.0007 -0.1614
 7252SOL    HW133392   4.586   3.133  15.069 -2.7623  1.9791 -0.3161
 7252SOL    HW233393   4.663   3.063  14.961 -0.3588  0.3506 -0.4211
 7253SOL     OW33394   1.634   0.445   1.421  0.3372 -1.2001 -0.2275
 7253SOL    HW133395   1.584   0.444   1.503 -1.2442  0.5122 -1.1695
 7253SOL    HW233396   1.619   0.536   1.395 -0.4241 -0.9026  1.2025
 7254SOL     OW33397   4.221   2.874   4.466 -0.1118  0.2887 -0.1658
 7254SOL    HW133398   4.221   2.784   4.498 -2.8151 -0.1397 -1.3355
 7254SOL    HW233399   4.126   2.886   4.478  0.0952  0.0527  1.7341
 7255SOL     OW33400   4.430   2.633   3.152  0.3870  0.0171  0.7880
 7255SOL    HW133401   4.352   2.586   3.180  0.6361  0.5431  2.3415
 7255SOL    HW233402   4.487   2.620   3.228  0.6624  0.8597  0.7235
 7256SOL     OW33403   4.227   4.314   2.900  0.0792 -0.2408  0.5817
 7256SOL    HW133404   4.160   4.247   2.888 -0.9025  0.5602  1.4881
 7256SOL    HW233405   4.303   4.262   2.877 -0.6551 -0.4638 -1.4169
 7257SOL     OW33406   3.008   0.949  14.627  0.1224  0.1283 -0.5702
 7257SOL    HW133407   2.998   0.854  14.634  1.6326  0.0380  0.5110
 7257SOL    HW233408   3.080   0.940  14.565  0.3722  0.6032 -0.3504
 7258SOL     OW33409   1.095   1.404  14.447  0.1506  0.7843  0.2892
 7258SOL    HW133410   1.048   1.487  14.448 -1.7182 -0.2551 -0.7710
 7258SOL    HW233411   1.178   1.437  14.480 -0.8926  2.5549  1.1233
 7259SOL     OW33412   4.476   1.003  12.703  0.1615  0.1185 -0.4197
 7259SOL    HW133413   4.425   1.020  12.783  0.9859 -1.0343  0.3606
 7259SOL    HW233414   4.563   1.007  12.742  0.0768  2.7832 -0.4717
 7260SOL     OW33415   2.470   4.031   6.028 -0.3821 -0.1170 -0.2307
 7260SOL    HW133416   2.555   4.013   6.069 -0.0561  2.3024  0.1252
 7260SOL    HW233417   2.408   3.982   6.081 -1.4000 -1.1527 -2.3681
 7261SOL     OW33418   1.227   3.785  11.132  0.0048 -0.2986 -0.1131
 7261SOL    HW133419   1.283   3.727  11.183 -1.5820 -1.5067  0.2495
 7261SOL    HW233420   1.224   3.724  11.059 -1.2625 -0.5027  0.1050
 7262SOL     OW33421   0.850   2.903   7.404  0.1274  0.2366 -0.0625
 7262SOL    HW133422   0.904   2.959   7.460  1.1563  0.9076 -1.7590
 7262SOL    HW233423   0.855   2.966   7.333  1.8233 -1.0832 -1.1143
 7263SOL     OW33424   4.118   1.978   3.122  0.7318 -0.0967 -0.0372
 7263SOL    HW133425   4.146   1.892   3.091 -1.1052 -0.6626 -0.1072
 7263SOL    HW233426   4.039   2.000   3.074  0.9200  1.0000  0.1448
 7264SOL     OW33427   2.978   4.411   2.818  0.3868  0.0231  0.0472
 7264SOL    HW133428   2.888   4.379   2.824 -0.4185  1.7954 -2.4782
 7264SOL    HW233429   2.962   4.505   2.813  1.5242  0.2351  0.4425
 7265SOL     OW33430   0.073   4.508   2.612  0.2855 -0.5907  0.2620
 7265SOL    HW133431   0.136   4.580   2.605  0.4318 -0.5114  2.4234
 7265SOL    HW233432   0.129   4.432   2.601  0.7238 -0.3195  0.6278
 7266SOL     OW33433   2.413   0.703  16.223 -0.3469 -0.1277  0.0438
 7266SOL    HW133434   2.493   0.655  16.202  0.0074  0.4824 -0.0077
 7266SOL    HW233435   2.407   0.689  16.317 -3.4305  0.3403 -0.0810
 7267SOL     OW33436   3.266   1.717  11.850  0.4802 -0.1312  0.2368
 7267SOL    HW133437   3.257   1.700  11.757 -0.6515  0.6894  0.1955
 7267SOL    HW233438   3.301   1.806  11.846 -0.4837  0.2225 -0.1341
 7268SOL     OW33439   1.741   4.540   6.586 -0.2241  0.1032  0.4111
 7268SOL    HW133440   1.670   4.480   6.564 -0.7917 -0.0757  2.7610
 7268SOL    HW233441   1.770   4.505   6.670 -0.4365  0.1572  0.5039
 7269SOL     OW33442   0.597   3.774   3.609  0.8795  0.0691 -0.0801
 7269SOL    HW133443   0.604   3.678   3.605  2.9214  0.1155  2.0628
 7269SOL    HW233444   0.569   3.796   3.698 -0.9285 -0.8504 -0.4342
 7270SOL     OW33445   3.076   1.581   6.074 -0.8253 -0.2210 -0.6585
 7270SOL    HW133446   2.989   1.548   6.097 -0.8564  0.8870  0.8009
 7270SOL    HW233447   3.099   1.520   6.005  0.7195 -0.8171  0.3760
 7271SOL     OW33448   1.841   0.642  17.435  0.1947 -0.0870  0.1118
 7271SOL    HW133449   1.830   0.557  17.477  0.9926 -0.2788 -0.0788
 7271SOL    HW233450   1.853   0.614  17.344  0.6363 -0.2223  0.2134
 7272SOL     OW33451   4.001   0.264   1.104 -0.2065 -0.5153  0.4351
 7272SOL    HW133452   4.076   0.254   1.163  0.6549  1.0585 -0.4055
 7272SOL    HW233453   3.942   0.288   1.175  0.0104 -2.0299  1.1170
 7273SOL     OW33454   0.035   1.558  12.550  0.0826 -0.0229  0.2548
 7273SOL    HW133455   0.080   1.616  12.612  1.8967 -0.9167 -0.2064
 7273SOL    HW233456   4.679   1.583  12.561 -0.3361 -2.2034  1.6946
 7274SOL     OW33457   0.543   1.757   2.571 -0.5606 -0.3426  0.4024
 7274SOL    HW133458   0.462   1.808   2.562 -0.7832 -0.5037  1.5187
 7274SOL    HW233459   0.539   1.756   2.666  0.8672  0.3231  0.4704
 7275SOL     OW33460   4.412   0.104   6.559 -0.1367  0.4614  0.8387
 7275SOL    HW133461   4.358   0.181   6.542  1.7589  1.4297 -0.7918
 7275SOL    HW233462   4.498   0.144   6.573 -0.3225  1.6331 -1.3765
 7276SOL     OW33463   0.996   3.759   8.415  0.2722  0.6896 -0.0281
 7276SOL    HW133464   1.091   3.767   8.417  0.3731  0.1016 -2.4726
 7276SOL    HW233465   0.991   3.802   8.330 -1.0775  0.2921 -0.1425
 7277SOL     OW33466   4.217   3.484   6.044 -0.0112  0.6653 -0.2310
 7277SOL    HW133467   4.209   3.463   6.137 -1.9826 -0.0384 -0.5698
 7277SOL    HW233468   4.187   3.574   6.034 -0.5529  0.5118  0.0611
 7278SOL     OW33469   3.989   1.875  10.972  0.1968 -0.2167  0.5588
 7278SOL    HW133470   4.008   1.801  11.030  2.0263  0.2506  0.5781
 7278SOL    HW233471   3.894   1.875  10.977  0.2730  0.8911  1.9566
 7279SOL     OW33472   3.047   4.629   8.129 -0.3405  0.3520 -0.5157
 7279SOL    HW133473   3.132   4.623   8.085  0.2295 -0.1196  0.6425
 7279SOL    HW233474   2.984   4.601   8.062 -1.7833  1.8693  0.2091
 7280SOL     OW33475   3.069   2.819   1.517  0.2579 -0.0100 -0.5094
 7280SOL    HW133476   3.065   2.803   1.611  1.8188  0.1471 -0.4098
 7280SOL    HW233477   2.978   2.839   1.496  0.1098  0.0616  0.2027
 7281SOL     OW33478   4.654   2.615   2.730  0.3010  0.3491 -0.3084
 7281SOL    HW133479   4.695   2.688   2.777  0.6983 -0.4205  0.5402
 7281SOL    HW233480   4.565   2.607   2.764  0.0637  1.0892 -0.7633
 7282SOL     OW33481   2.696   3.046   3.600  0.0389 -0.3582 -0.1547
 7282SOL    HW133482   2.690   3.059   3.694 -0.0087 -0.8209 -0.0957
 7282SOL    HW233483   2.606   3.051   3.568 -0.5565 -1.6187  1.3518
 7283SOL     OW33484   3.622   1.686  12.860  0.2942 -0.0399 -0.5634
 7283SOL    HW133485   3.701   1.670  12.911 -1.2121 -0.5983  1.5815
 7283SOL    HW233486   3.589   1.596  12.861  2.4857 -0.8242 -0.2918
 7284SOL     OW33487   4.699   3.014   1.192 -0.5517 -0.1557  0.9881
 7284SOL    HW133488   4.607   3.015   1.165  0.5101  1.3399 -2.5424
 7284SOL    HW233489   4.709   2.953   1.266  0.2188 -0.9418  0.2505
 7285SOL     OW33490   3.991   3.386   0.220 -0.6764 -0.1510  0.0648
 7285SOL    HW133491   4.022   3.476   0.206  0.1358 -0.0732  2.3926
 7285SOL    HW233492   3.898   3.390   0.196 -0.8725  0.6661  0.9562
 7286SOL     OW33493   2.932   3.458  11.074  0.5053  0.0767  0.2476
 7286SOL    HW133494   2.986   3.381  11.060  0.3597 -0.1357  0.8481
 7286SOL    HW233495   3.005   3.517  11.094 -1.0174  1.6140  1.2454
 7287SOL     OW33496   1.866   3.854   8.308 -0.5472  0.0800  0.5938
 7287SOL    HW133497   1.801   3.921   8.289  0.0278 -0.0778 -1.9084
 7287SOL    HW233498   1.814   3.773   8.301 -0.9404  0.2554  1.5346
 7288SOL     OW33499   1.591   2.480  13.480  0.1126 -0.2636  0.3897
 7288SOL    HW133500   1.527   2.551  13.477 -0.9118 -1.2229 -0.2687
 7288SOL    HW233501   1.651   2.523  13.418  0.8268 -0.1862  1.1273
 7289SOL     OW33502   2.505   4.078  14.554 -0.1063 -0.3729 -0.1411
 7289SOL    HW133503   2.449   4.085  14.477  2.1260  1.1940 -1.6192
 7289SOL    HW233504   2.589   4.051  14.515  0.1024 -1.2084  0.8790
 7290SOL     OW33505   3.424   3.489   2.827 -0.2303 -0.1017  0.2673
 7290SOL    HW133506   3.411   3.570   2.877  0.7685 -0.3481  0.9409
 7290SOL    HW233507   3.511   3.503   2.790  0.0763 -0.8483  0.7050
 7291SOL     OW33508   2.073   1.065   7.800 -0.0766  0.4439  0.2369
 7291SOL    HW133509   2.138   1.052   7.870 -0.7702  2.5090  1.2771
 7291SOL    HW233510   2.060   1.157   7.821  1.1562  0.1433  2.3252
 7292SOL     OW33511   2.279   4.235  16.105  0.4956 -0.6760 -0.0105
 7292SOL    HW133512   2.257   4.145  16.082 -2.1510 -0.3476  1.2384
 7292SOL    HW233513   2.307   4.263  16.017 -2.2659  2.4171  0.1029
 7293SOL     OW33514   3.785   0.278   4.228  0.5147 -0.3072 -0.2906
 7293SOL    HW133515   3.775   0.314   4.316 -0.5039 -2.7640  0.5683
 7293SOL    HW233516   3.710   0.318   4.183 -0.4791 -0.7637  1.0001
 7294SOL     OW33517   2.588   0.452  10.723 -0.2278 -0.1822  0.0683
 7294SOL    HW133518   2.598   0.526  10.783  0.7337 -0.3685  0.1379
 7294SOL    HW233519   2.580   0.374  10.778  2.6147 -1.1145 -0.8142
 7295SOL     OW33520   3.340   0.747  16.067 -0.0018  0.4849  0.9557
 7295SOL    HW133521   3.434   0.734  16.052 -0.6633 -1.6914 -1.4245
 7295SOL    HW233522   3.306   0.672  16.018  2.9817  1.4771 -2.6494
 7296SOL     OW33523   4.434   2.274  11.344  0.8240 -0.2341  0.0349
 7296SOL    HW133524   4.422   2.188  11.303 -3.6566  1.1519 -1.6788
 7296SOL    HW233525   4.412   2.254  11.435 -0.2760 -1.6584 -0.5371
 7297SOL     OW33526   0.027   3.424   1.122 -0.5109 -0.1068  0.4218
 7297SOL    HW133527   0.071   3.491   1.070 -1.1232  0.5332  0.7411
 7297SOL    HW233528   0.089   3.350   1.123 -0.5019 -0.0779  2.1952
 7298SOL     OW33529   3.932   3.902  15.554 -0.1692 -0.5023  0.0227
 7298SOL    HW133530   4.022   3.931  15.562 -0.6226  0.2100  2.4417
 7298SOL    HW233531   3.887   3.980  15.586  0.9063  0.2477 -0.3290
 7299SOL     OW33532   0.246   0.563   5.919 -0.4595  0.3704 -0.2115
 7299SOL    HW133533   0.270   0.472   5.900 -2.3322 -0.0756 -0.4600
 7299SOL    HW233534   0.328   0.600   5.950  0.8640 -2.0656 -0.7812
 7300SOL     OW33535   3.456   1.384   9.928 -0.2807 -0.2698  0.0975
 7300SOL    HW133536   3.536   1.375   9.979  1.5316  3.2703 -2.1319
 7300SOL    HW233537   3.408   1.445   9.983 -3.9133 -2.0813 -1.0819
 7301SOL     OW33538   3.290   4.476   2.036 -0.0037 -0.5679  0.0785
 7301SOL    HW133539   3.278   4.487   2.130 -0.1343 -0.9678  0.1098
 7301SOL    HW233540   3.356   4.538   2.004  0.0429  1.1646  3.5662
 7302SOL     OW33541   3.722   3.948   6.369  0.0676 -0.1607  0.3275
 7302SOL    HW133542   3.779   3.978   6.299 -1.2594  2.4007  0.3406
 7302SOL    HW233543   3.777   3.981   6.440 -1.3312  1.1349  0.8239
 7303SOL     OW33544   0.648   1.795  10.841 -0.1976 -0.7829 -0.1308
 7303SOL    HW133545   0.685   1.879  10.868 -2.9209  0.6995 -1.0189
 7303SOL    HW233546   0.652   1.803  10.745 -1.9789 -1.4009 -0.2632
 7304SOL     OW33547   3.824   0.660  10.267 -0.0499  0.1615  0.6655
 7304SOL    HW133548   3.807   0.661  10.173  0.8556  1.5070  0.5228
 7304SOL    HW233549   3.737   0.636  10.299 -0.4775  1.0182  0.1252
 7305SOL     OW33550   3.616   0.782   5.071  0.1217  0.2707  0.7211
 7305SOL    HW133551   3.691   0.786   5.130  0.6990 -2.5980  0.1977
 7305SOL    HW233552   3.629   0.696   5.031 -1.6445  1.1304 -1.6790
 7306SOL     OW33553   2.406   2.402   3.387  0.2833 -0.5290  0.6454
 7306SOL    HW133554   2.457   2.477   3.420 -0.9915  1.3785 -1.7027
 7306SOL    HW233555   2.348   2.457   3.334 -1.1660 -0.3388  2.4210
 7307SOL     OW33556   4.413   3.516   7.300 -0.2277  0.1412 -0.1088
 7307SOL    HW133557   4.458   3.467   7.232  0.9189  0.9806  0.0609
 7307SOL    HW233558   4.362   3.447   7.344 -0.4533  1.7122  2.1001
 7308SOL     OW33559   1.965   4.662   5.235 -0.4975  0.2168 -0.1062
 7308SOL    HW133560   1.963   0.017   5.202 -0.9657 -0.3793 -1.6959
 7308SOL    HW233561   2.052   4.658   5.274 -0.3251 -0.6948 -0.5939
 7309SOL     OW33562   3.890   2.973   8.995  0.2816  0.4972 -0.3806
 7309SOL    HW133563   3.842   3.055   8.987  0.1351  0.1517 -3.3326
 7309SOL    HW233564   3.874   2.942   8.905 -0.1458 -0.5957  0.0599
 7310SOL     OW33565   2.000   4.644   7.392 -0.4260  0.1965  0.2657
 7310SOL    HW133566   2.012   4.694   7.311 -0.0956 -0.9213 -0.3898
 7310SOL    HW233567   1.960   4.707   7.452  1.6199  1.3317  0.4148
 7311SOL     OW33568   2.636   0.778   3.495  0.0498 -0.1376  0.4984
 7311SOL    HW133569   2.634   0.874   3.491  1.1147 -0.1659 -0.7213
 7311SOL    HW233570   2.580   0.758   3.570 -0.2359 -1.4002 -0.0511
 7312SOL     OW33571   2.036   0.952   4.996 -0.2789  0.0560 -0.6072
 7312SOL    HW133572   2.036   0.884   4.929  0.3528 -0.4875 -0.0613
 7312SOL    HW233573   1.958   0.999   4.968  0.3790  0.4626 -1.7797
 7313SOL     OW33574   1.476   2.726  17.471 -0.1329  0.0251  0.0328
 7313SOL    HW133575   1.489   2.802  17.529  0.4553  1.5958 -2.1739
 7313SOL    HW233576   1.393   2.685  17.496 -0.1075  1.0477  1.8360
 7314SOL     OW33577   3.514   2.809   8.156 -0.2047  0.4119 -0.9449
 7314SOL    HW133578   3.449   2.835   8.220 -0.1071  1.6703 -1.3555
 7314SOL    HW233579   3.479   2.724   8.128  1.8741 -0.1771 -1.7934
 7315SOL     OW33580   2.992   0.233   4.577 -0.0273  0.2572 -0.1597
 7315SOL    HW133581   3.004   0.138   4.581  0.9731  0.4171  0.4916
 7315SOL    HW233582   2.952   0.244   4.490 -0.1043  2.0523  0.1042
 7316SOL     OW33583   0.660   3.242   4.924  0.5912 -0.1584 -0.0052
 7316SOL    HW133584   0.567   3.222   4.926  1.5634 -4.9057 -1.4584
 7316SOL    HW233585   0.668   3.280   4.837  0.5684 -0.3365 -0.0864
 7317SOL     OW33586   1.976   3.962   0.471  0.0925 -0.1997 -0.8307
 7317SOL    HW133587   1.985   3.871   0.445 -1.4275 -1.1526  1.9809
 7317SOL    HW233588   1.903   3.950   0.532 -0.2019  1.7577 -0.7675
 7318SOL     OW33589   1.301   0.496   3.707 -0.5138 -0.0846  0.2264
 7318SOL    HW133590   1.373   0.482   3.769 -0.2169  1.9259  0.3330
 7318SOL    HW233591   1.251   0.414   3.716  0.6562 -0.7826  0.4454
 7319SOL     OW33592   0.012   0.458   5.713  0.3706 -0.5841  0.6307
 7319SOL    HW133593   4.688   0.462   5.788 -1.5286 -0.0052 -0.8930
 7319SOL    HW233594   0.024   0.551   5.693 -1.4500  0.1965  3.2048
 7320SOL     OW33595   1.190   4.537  10.064  0.6211 -0.1943 -0.6573
 7320SOL    HW133596   1.224   4.552   9.976  3.0427 -1.0102  0.1331
 7320SOL    HW233597   1.274   4.543  10.108 -0.8600 -0.5994  2.2005
 7321SOL     OW33598   4.302   0.064   4.266  0.3051 -0.4494 -0.6356
 7321SOL    HW133599   4.246   0.063   4.189  0.0990 -0.0225 -0.4923
 7321SOL    HW233600   4.269   0.141   4.313  1.5201  0.6852 -1.6597
 7322SOL     OW33601   2.621   1.990  10.831  0.0368  0.2927 -0.6773
 7322SOL    HW133602   2.548   1.929  10.834 -0.4181  0.8975  0.8049
 7322SOL    HW233603   2.572   2.071  10.845 -2.3601 -1.3739  0.6748
 7323SOL     OW33604   3.263   2.607   6.452  0.2278  0.1238  0.0842
 7323SOL    HW133605   3.354   2.577   6.461  0.5609  1.9996  3.0041
 7323SOL    HW233606   3.267   2.642   6.363 -1.4969 -0.2460 -0.1279
 7324SOL     OW33607   0.916   1.836   2.758  0.1836  0.0529  0.6525
 7324SOL    HW133608   0.869   1.787   2.690 -0.4241 -0.2064  1.2611
 7324SOL    HW233609   0.891   1.785   2.835 -1.6092 -0.9697 -0.5920
 7325SOL     OW33610   0.916   3.036  15.820  0.2566  0.3775 -0.0138
 7325SOL    HW133611   0.978   2.979  15.865 -2.3321  0.7931  4.1499
 7325SOL    HW233612   0.828   3.005  15.844 -0.3782  1.6025 -0.7387
 7326SOL     OW33613   1.469   0.498   4.723 -0.3292 -0.0260  0.2282
 7326SOL    HW133614   1.489   0.426   4.664 -2.2071 -0.5007  0.1462
 7326SOL    HW233615   1.462   0.445   4.802 -1.4232 -0.7763 -0.3642
 7327SOL     OW33616   3.391   0.270   8.127 -0.2362 -0.1705  0.0334
 7327SOL    HW133617   3.409   0.274   8.033 -0.1038 -0.3129  0.0534
 7327SOL    HW233618   3.475   0.299   8.164  0.9690 -0.6120 -2.3348
 7328SOL     OW33619   4.046   0.116   9.354  0.4634 -0.3405  0.5435
 7328SOL    HW133620   3.963   0.078   9.327 -1.4156  3.5001  0.9064
 7328SOL    HW233621   4.025   0.124   9.447 -2.0236 -1.0248  0.0183
 7329SOL     OW33622   4.004   0.369   4.576  0.2030  0.4847  0.0680
 7329SOL    HW133623   3.990   0.274   4.573 -0.3688  0.4815  2.4437
 7329SOL    HW233624   3.974   0.387   4.666 -0.5908 -0.3615 -0.0175
 7330SOL     OW33625   0.306   1.852   2.258  0.7429  0.8534 -0.0053
 7330SOL    HW133626   0.272   1.790   2.323 -0.2833  2.3390  0.8965
 7330SOL    HW233627   0.400   1.844   2.244  0.5296 -0.0804 -0.8493
 7331SOL     OW33628   0.474   2.354  12.794 -0.1460  0.1095  0.5385
 7331SOL    HW133629   0.504   2.264  12.811 -1.8074 -0.5679 -0.1214
 7331SOL    HW233630   0.545   2.389  12.740 -0.7139 -1.0748 -0.9560
 7332SOL     OW33631   3.828   2.372   3.278 -0.4005  0.0370  0.4784
 7332SOL    HW133632   3.783   2.445   3.320  2.2479  0.6149  2.3075
 7332SOL    HW233633   3.761   2.311   3.247  0.4706 -0.7165  0.0891
 7333SOL     OW33634   1.553   2.448   1.654  0.2710  0.0618  0.5574
 7333SOL    HW133635   1.605   2.445   1.735  0.3548 -1.6108  0.4489
 7333SOL    HW233636   1.627   2.468   1.596 -1.5512  0.3725 -1.6452
 7334SOL     OW33637   1.960   2.471   5.357 -0.0385  0.3675  0.0970
 7334SOL    HW133638   1.872   2.443   5.382 -0.2106  0.0389 -0.9103
 7334SOL    HW233639   1.954   2.492   5.264 -2.7413 -0.5769  0.0765
 7335SOL     OW33640   0.338   0.485   7.144 -0.0104  0.2246  0.0052
 7335SOL    HW133641   0.255   0.454   7.181 -0.8828  1.4863 -0.9083
 7335SOL    HW233642   0.398   0.436   7.200 -0.0752 -0.0842 -0.1953
 7336SOL     OW33643   3.146   0.833   3.787 -0.2499  0.2962 -0.4896
 7336SOL    HW133644   3.112   0.789   3.866 -0.3317 -1.7454 -1.6576
 7336SOL    HW233645   3.230   0.788   3.782 -0.5908 -0.1868 -1.8563
 7337SOL     OW33646   3.505   2.539  10.039  0.3211  0.1746  0.3744
 7337SOL    HW133647   3.504   2.633  10.059  3.5011  0.5320 -1.2129
 7337SOL    HW233648   3.494   2.506  10.128  1.9885 -0.4692  0.3262
 7338SOL     OW33649   2.230   3.995   1.273 -0.5413 -0.0646  0.0641
 7338SOL    HW133650   2.150   4.002   1.325  0.4911  0.4064  1.5807
 7338SOL    HW233651   2.211   4.063   1.209 -1.9542  2.3558  3.0156
 7339SOL     OW33652   4.545   3.008   5.926 -0.6450 -0.0188 -0.5279
 7339SOL    HW133653   4.510   2.970   5.845 -0.2228 -2.9334  0.6339
 7339SOL    HW233654   4.636   3.033   5.907 -0.3205 -0.7608  0.0475
 7340SOL     OW33655   1.086   0.271   5.182 -1.0817 -0.0039  0.1188
 7340SOL    HW133656   1.165   0.283   5.235 -0.7256 -1.4710 -0.0943
 7340SOL    HW233657   1.084   0.180   5.152  0.7413 -0.0260  0.0414
 7341SOL     OW33658   0.342   0.519   2.708 -0.1743 -0.1121  0.3628
 7341SOL    HW133659   0.434   0.509   2.685 -0.1197  2.0339 -0.3888
 7341SOL    HW233660   0.352   0.498   2.801  0.8457  2.5157  0.8510
 7342SOL     OW33661   3.477   2.736  16.802 -0.3040 -0.3289 -0.1796
 7342SOL    HW133662   3.477   2.799  16.729  1.4368 -0.0041  0.1117
 7342SOL    HW233663   3.429   2.784  16.869 -0.5580 -0.4130 -0.2998
 7343SOL     OW33664   3.059   4.214   6.035 -0.0971  0.4852  0.3439
 7343SOL    HW133665   2.997   4.287   6.032 -0.7031  0.0216  1.4660
 7343SOL    HW233666   3.092   4.210   6.125  0.1169 -0.1079  0.2376
 7344SOL     OW33667   2.085   0.190   2.457 -0.7264 -0.0023 -0.3343
 7344SOL    HW133668   2.139   0.178   2.535  1.4465  1.4688 -1.5986
 7344SOL    HW233669   2.104   0.283   2.448  0.6232 -0.1310  1.2399
 7345SOL     OW33670   0.540   2.118   1.272  0.1195  0.1477  0.4896
 7345SOL    HW133671   0.635   2.104   1.271  0.0618 -0.0923 -1.5940
 7345SOL    HW233672   0.537   2.214   1.273 -0.4482  0.1308 -0.5668
 7346SOL     OW33673   3.070   4.019   0.421 -0.2786 -0.6547  0.2226
 7346SOL    HW133674   3.145   3.960   0.410  0.4131  0.6375 -1.8930
 7346SOL    HW233675   3.035   3.984   0.503  1.2369 -1.5416  0.4935
 7347SOL     OW33676   3.816   3.851  14.601 -0.4277  0.2586 -0.8461
 7347SOL    HW133677   3.842   3.932  14.556 -0.9493  0.6837 -0.3852
 7347SOL    HW233678   3.885   3.791  14.575 -1.5825 -1.6098  0.4540
 7348SOL     OW33679   3.963   1.059   2.427  1.2819  0.3978  0.2017
 7348SOL    HW133680   3.986   0.986   2.484 -0.1350 -0.2973 -0.1157
 7348SOL    HW233681   4.035   1.055   2.365  0.3953  1.6719 -0.9107
 7349SOL     OW33682   3.417   1.350   7.574 -0.5193 -0.0805 -0.1312
 7349SOL    HW133683   3.457   1.430   7.540  1.3325 -0.6284  0.7210
 7349SOL    HW233684   3.391   1.370   7.664 -0.4170  0.6544 -0.2616
 7350SOL     OW33685   0.240   2.215   2.092 -0.1900 -0.2727  0.0662
 7350SOL    HW133686   0.147   2.234   2.080 -0.2642 -1.1506 -0.7411
 7350SOL    HW233687   0.275   2.298   2.059 -1.0341  0.9938  2.3707
 7351SOL     OW33688   1.726   4.520   4.867  0.1233 -0.6808 -0.4549
 7351SOL    HW133689   1.749   4.429   4.847 -0.3792 -0.9185  0.0444
 7351SOL    HW233690   1.771   4.524   4.951 -0.2472  1.8919 -0.3861
 7352SOL     OW33691   1.432   2.874   2.478  0.0228  0.2798  0.1659
 7352SOL    HW133692   1.450   2.968   2.479  0.9596  0.1176 -0.7129
 7352SOL    HW233693   1.362   2.867   2.414 -0.0214  1.7822  0.0512
 7353SOL     OW33694   2.521   4.722   4.701 -0.2886 -0.1127 -0.0085
 7353SOL    HW133695   2.432   0.023   4.701 -0.2316  0.0187  0.6893
 7353SOL    HW233696   2.536   4.699   4.609 -0.5394 -0.7969  0.1264
 7354SOL     OW33697   1.469   2.007  10.819 -0.4172 -0.6824 -0.0039
 7354SOL    HW133698   1.409   1.942  10.854 -1.4934  1.1630  1.5639
 7354SOL    HW233699   1.495   2.054  10.898 -0.5818  0.3605 -0.5681
 7355SOL     OW33700   1.164   4.356   3.592  0.1308 -0.4773  0.3154
 7355SOL    HW133701   1.193   4.380   3.504 -0.7670 -1.0263 -0.1197
 7355SOL    HW233702   1.189   4.264   3.586 -0.8639 -0.9762  3.7677
 7356SOL     OW33703   1.929   2.405  17.191  0.0331  0.5776 -0.1423
 7356SOL    HW133704   1.889   2.450  17.117 -0.6763  0.6555  0.2916
 7356SOL    HW233705   1.975   2.478  17.234 -0.6354  1.2447 -0.5588
 7357SOL     OW33706   3.683   3.591   4.922  0.3197  0.1569 -0.3463
 7357SOL    HW133707   3.718   3.521   4.867  1.3136  1.0631 -0.8516
 7357SOL    HW233708   3.734   3.587   5.003  0.0642 -1.3345 -0.2602
 7358SOL     OW33709   0.153   2.002   4.926 -0.4296 -0.0989  0.0033
 7358SOL    HW133710   0.236   2.041   4.896 -0.5229  0.3047  0.2633
 7358SOL    HW233711   0.119   1.984   4.838  0.9650 -4.1446  0.3072
 7359SOL     OW33712   0.484   2.283   4.426 -0.1631  0.1998 -0.0835
 7359SOL    HW133713   0.476   2.272   4.331  0.5945  3.0186 -0.4812
 7359SOL    HW233714   0.406   2.336   4.441 -0.1368  0.4649 -0.8706
 7360SOL     OW33715   4.226   0.439   4.324  0.0144 -0.4783  0.3514
 7360SOL    HW133716   4.161   0.383   4.282 -0.7131  1.7705 -1.5343
 7360SOL    HW233717   4.163   0.510   4.337  1.2778  0.4915  1.1772
 7361SOL     OW33718   0.350   3.644   2.793 -0.0731  0.3517  0.2573
 7361SOL    HW133719   0.313   3.730   2.813  3.6620  2.2197 -0.7127
 7361SOL    HW233720   0.335   3.632   2.699 -1.8495  0.8333  0.4876
 7362SOL     OW33721   2.549   3.423   3.037  0.0778 -0.2246 -1.1420
 7362SOL    HW133722   2.534   3.330   3.056 -0.5054  0.4635  1.7151
 7362SOL    HW233723   2.643   3.436   3.023  0.1112  0.5709 -0.1922
 7363SOL     OW33724   0.860   4.125  12.178  0.1658 -0.8514  0.0100
 7363SOL    HW133725   0.807   4.048  12.197 -2.8936  1.3476  0.4942
 7363SOL    HW233726   0.945   4.087  12.200 -1.4087 -2.9353  2.5479
 7364SOL     OW33727   1.637   4.270   5.060  0.4434 -0.1259  0.1756
 7364SOL    HW133728   1.698   4.257   4.988  1.0244 -0.7725  0.7857
 7364SOL    HW233729   1.641   4.365   5.075 -3.0503  0.5011 -2.7774
 7365SOL     OW33730   0.897   0.353   4.404  0.1429  0.6521  0.2296
 7365SOL    HW133731   0.802   0.344   4.414  0.0039  0.4049 -1.4431
 7365SOL    HW233732   0.927   0.346   4.495 -0.0547 -0.6097  0.1898
 7366SOL     OW33733   1.541   0.223  11.025 -0.2982 -0.1383  0.7288
 7366SOL    HW133734   1.523   0.311  10.991  1.4803 -0.3178 -0.6537
 7366SOL    HW233735   1.497   0.169  10.960  0.1266 -1.0644  1.2085
 7367SOL     OW33736   0.797   0.068   7.382 -0.0288 -0.0674  0.1039
 7367SOL    HW133737   0.836   0.144   7.426 -0.5378 -0.7649  1.7353
 7367SOL    HW233738   0.851   4.730   7.414  1.1862  1.5956  1.8906
 7368SOL     OW33739   1.676   1.481   1.111 -0.1781  0.0810 -0.3781
 7368SOL    HW133740   1.757   1.437   1.086 -0.5520 -0.1914 -1.1040
 7368SOL    HW233741   1.667   1.546   1.042 -1.8636 -0.5524 -0.7730
 7369SOL     OW33742   2.152   3.925   3.361  0.3201 -0.6164 -0.4289
 7369SOL    HW133743   2.159   3.895   3.452 -0.2437  0.5285 -0.0042
 7369SOL    HW233744   2.057   3.938   3.355  0.2302 -0.5624  1.0923
 7370SOL     OW33745   4.280   0.620   3.703 -0.0862 -0.2242 -0.2655
 7370SOL    HW133746   4.272   0.658   3.790  0.1680 -2.8546  0.8970
 7370SOL    HW233747   4.238   0.688   3.650 -1.0432 -1.3671 -0.9743
 7371SOL     OW33748   3.089   1.270   2.117 -0.8845  0.0250  0.1460
 7371SOL    HW133749   3.060   1.213   2.188  1.5186 -1.8315 -0.3816
 7371SOL    HW233750   3.086   1.209   2.044 -1.0177  0.3592 -0.1283
 7372SOL     OW33751   0.791   3.437   5.505  0.2871 -0.4518  0.6818
 7372SOL    HW133752   0.700   3.467   5.507  1.2260  2.5510 -0.7142
 7372SOL    HW233753   0.792   3.345   5.478 -0.2166 -0.1855 -0.2540
 7373SOL     OW33754   1.936   0.681   1.614  0.2763 -0.4824  0.5016
 7373SOL    HW133755   1.978   0.766   1.604 -0.4249 -0.0344  1.2683
 7373SOL    HW233756   1.850   0.712   1.642  0.5907  0.3911  0.5060
 7374SOL     OW33757   0.715   3.799   9.533 -0.1649 -0.3506 -0.7441
 7374SOL    HW133758   0.746   3.756   9.453 -2.6972 -0.0834 -1.8864
 7374SOL    HW233759   0.644   3.736   9.545 -2.1583  2.0526  0.1053
 7375SOL     OW33760   1.015   1.742   7.235  0.1975  0.0331  0.3129
 7375SOL    HW133761   0.943   1.700   7.283  0.3173  1.2667  1.5811
 7375SOL    HW233762   1.086   1.700   7.283  0.3784 -0.4937 -0.4153
 7376SOL     OW33763   0.729   2.659   4.423 -0.3412  0.7060 -0.3583
 7376SOL    HW133764   0.661   2.676   4.359  0.0753 -0.1503 -1.0371
 7376SOL    HW233765   0.798   2.717   4.392  2.5955 -2.4123  0.2200
 7377SOL     OW33766   4.239   2.436  10.433 -0.2390  0.0616 -0.4142
 7377SOL    HW133767   4.233   2.507  10.496  2.3047  0.3965 -0.5349
 7377SOL    HW233768   4.146   2.416  10.419  0.1672 -1.8267 -0.4842
 7378SOL     OW33769   4.050   1.301   9.788  0.2463  0.1785 -0.4090
 7378SOL    HW133770   4.021   1.392   9.782 -1.7383 -0.4004  0.2189
 7378SOL    HW233771   4.145   1.311   9.794  0.1115  0.4209  1.4952
 7379SOL     OW33772   4.623   0.856   0.468  0.4471 -0.0671 -0.5124
 7379SOL    HW133773   4.633   0.890   0.379  3.4230 -1.1563 -0.5976
 7379SOL    HW233774   4.533   0.882   0.490  0.2455 -1.5307  0.3181
 7380SOL     OW33775   2.742   0.516  12.720  0.1906 -0.1329 -0.3803
 7380SOL    HW133776   2.773   0.532  12.809 -0.3901  0.7085 -0.3337
 7380SOL    HW233777   2.739   0.420  12.720 -0.8260 -0.1112 -1.8706
 7381SOL     OW33778   1.906   2.313   8.633 -0.0169 -0.7542 -0.7036
 7381SOL    HW133779   1.867   2.359   8.559  0.5354  1.9482  0.6774
 7381SOL    HW233780   1.965   2.377   8.672 -0.5911 -0.2778 -0.6108
 7382SOL     OW33781   0.643   0.944  15.930  0.5950  0.0188 -0.0601
 7382SOL    HW133782   0.660   0.878  15.863 -0.6850 -0.1020 -0.2633
 7382SOL    HW233783   0.602   1.008  15.872 -0.0270 -0.2577  0.0740
 7383SOL     OW33784   1.884   1.438   7.415 -0.8132 -0.0065  0.7907
 7383SOL    HW133785   1.947   1.373   7.446  1.0792  0.4535 -2.0471
 7383SOL    HW233786   1.872   1.496   7.489  1.7931  1.4218  0.0672
 7384SOL     OW33787   2.936   3.947   5.233 -0.1541 -0.0284 -0.3121
 7384SOL    HW133788   2.981   3.878   5.184  0.2625 -0.0429  0.0876
 7384SOL    HW233789   2.871   3.978   5.170  2.6853  0.9219 -2.7178
 7385SOL     OW33790   3.778   1.597  11.307 -0.4022  0.1020  0.2828
 7385SOL    HW133791   3.698   1.549  11.329 -0.2765  0.4216  1.4599
 7385SOL    HW233792   3.807   1.602  11.399  0.9097 -0.4656 -0.1031
 7386SOL     OW33793   2.446   4.437   0.737 -0.5837  0.2971 -0.2319
 7386SOL    HW133794   2.475   4.372   0.673  2.6823  0.7422  0.8112
 7386SOL    HW233795   2.450   4.518   0.686  1.7018 -1.7345 -3.2807
 7387SOL     OW33796   3.313   2.237  16.405  0.6390  1.0069 -0.4196
 7387SOL    HW133797   3.368   2.315  16.412  1.1572  0.6605 -0.6745
 7387SOL    HW233798   3.333   2.216  16.313  0.5443  1.3834 -0.5266
 7388SOL     OW33799   2.755   4.406   9.078 -0.6061  0.0601  0.3724
 7388SOL    HW133800   2.708   4.344   9.022  1.0384 -2.4677  1.8426
 7388SOL    HW233801   2.735   4.363   9.161  0.0461 -0.1902  0.4004
 7389SOL     OW33802   4.457   0.015  13.082 -0.3734 -0.7100  0.2906
 7389SOL    HW133803   4.464   4.656  13.096 -0.4834 -0.8815 -0.7613
 7389SOL    HW233804   4.510   0.047  13.155  0.8703  0.4012 -1.0674
 7390SOL     OW33805   0.431   2.560   6.725  0.1959  0.1099 -0.3985
 7390SOL    HW133806   0.394   2.586   6.641 -0.6912 -0.4582 -0.1796
 7390SOL    HW233807   0.434   2.465   6.716  2.2507  0.0928  0.3480
 7391SOL     OW33808   3.473   0.999   4.096  0.2353  0.2652  0.1439
 7391SOL    HW133809   3.413   1.054   4.045  2.5007  0.7952 -1.9341
 7391SOL    HW233810   3.411   0.949   4.148 -0.7155  1.7337  0.4422
 7392SOL     OW33811   2.489   0.703   4.196 -0.2572  0.2179  0.1785
 7392SOL    HW133812   2.585   0.703   4.186 -0.3488 -0.1953 -0.7591
 7392SOL    HW233813   2.456   0.671   4.112  0.8686  0.4832 -0.3647
 7393SOL     OW33814   2.320   1.992   5.715 -0.5280 -0.1405  0.1076
 7393SOL    HW133815   2.327   1.903   5.680  1.5477 -1.9685  5.1383
 7393SOL    HW233816   2.400   2.025   5.673  0.1684 -0.4697  1.1943
 7394SOL     OW33817   2.515   4.532   7.713  0.0403 -0.6041  0.1608
 7394SOL    HW133818   2.526   4.438   7.700 -1.1743 -0.5488 -1.2512
 7394SOL    HW233819   2.511   4.539   7.809  0.0382 -0.4031  0.1476
 7395SOL     OW33820   3.758   4.469   7.608  0.6152 -0.2215 -0.0158
 7395SOL    HW133821   3.753   4.532   7.537  3.2472 -1.5093 -1.3375
 7395SOL    HW233822   3.665   4.449   7.603  0.2778  0.9490  1.6985
 7396SOL     OW33823   2.003   2.429   0.285 -0.1644  0.4215  0.1001
 7396SOL    HW133824   2.026   2.336   0.287 -0.5945  0.3605  1.8089
 7396SOL    HW233825   1.909   2.410   0.288 -0.1006 -0.0044 -0.4232
 7397SOL     OW33826   0.063   0.145  16.421  0.5871  0.1899  0.9128
 7397SOL    HW133827   0.106   0.069  16.460  1.8816  0.7987  0.6675
 7397SOL    HW233828   0.047   0.128  16.328 -1.0916  1.5990  0.9446
 7398SOL     OW33829   2.397   0.870   7.711 -1.1218 -0.5286  0.0568
 7398SOL    HW133830   2.418   0.849   7.802  1.2198  2.7852  0.2655
 7398SOL    HW233831   2.474   0.844   7.661 -1.6374 -0.1932 -0.9051
 7399SOL     OW33832   4.697   4.389   4.417  0.2354  0.3731  0.0590
 7399SOL    HW133833   0.004   4.392   4.331  0.5075  0.8693  0.2109
 7399SOL    HW233834   4.608   4.373   4.385  0.4216 -0.0061 -0.2709
 7400SOL     OW33835   0.668   1.176  11.429 -0.5668  0.2873 -0.3604
 7400SOL    HW133836   0.652   1.209  11.518 -1.0643 -0.2326 -0.2617
 7400SOL    HW233837   0.645   1.084  11.438  1.8392 -0.1203  1.6222
 7401SOL     OW33838   2.348   0.628   3.341  0.0531 -0.3567  0.6203
 7401SOL    HW133839   2.406   0.694   3.303 -1.4068  0.7485  0.3229
 7401SOL    HW233840   2.382   0.630   3.431 -0.5510 -0.8963  0.8538
 7402SOL     OW33841   3.824   4.281  11.511 -0.1134  0.0626 -0.5673
 7402SOL    HW133842   3.741   4.322  11.488  0.9620  1.8873 -1.2384
 7402SOL    HW233843   3.800   4.220  11.581  1.3471 -1.3853 -1.3220
 7403SOL     OW33844   0.722   0.344   8.924 -0.0240  0.2819  0.2349
 7403SOL    HW133845   0.791   0.410   8.923  1.7842 -1.6038  0.6251
 7403SOL    HW233846   0.672   0.363   8.844  0.6314  1.1536  0.0393
 7404SOL     OW33847   2.192   4.398   7.758 -0.0527 -0.0946  0.1695
 7404SOL    HW133848   2.199   4.459   7.685  1.2520 -1.0340 -0.4938
 7404SOL    HW233849   2.261   4.334   7.737  1.0405  0.5890  1.6195
 7405SOL     OW33850   4.647   3.871   2.931 -0.0120  0.0554 -0.5733
 7405SOL    HW133851   4.706   3.808   2.973  2.2460  3.8818  2.0277
 7405SOL    HW233852   4.659   3.950   2.983 -1.5305  0.3923 -0.7353
 7406SOL     OW33853   1.234   1.890   7.609  0.6356  0.6912  0.3762
 7406SOL    HW133854   1.252   1.922   7.698 -0.5964 -1.2411  1.3238
 7406SOL    HW233855   1.179   1.956   7.566 -0.3967 -0.5567 -0.2255
 7407SOL     OW33856   0.532   3.990   2.871 -0.3619  0.0729 -0.0305
 7407SOL    HW133857   0.551   3.943   2.789  0.2888 -1.1837  0.8474
 7407SOL    HW233858   0.619   4.029   2.867 -0.3030  0.0782  1.5585
 7408SOL     OW33859   0.580   1.766  12.091  0.3499  0.3359  0.7370
 7408SOL    HW133860   0.545   1.722  12.169 -0.9673 -0.1862 -0.1517
 7408SOL    HW233861   0.536   1.721  12.019  1.2442  0.4366  0.1301
 7409SOL     OW33862   1.291   0.384  16.597  0.1411  0.4233  0.0258
 7409SOL    HW133863   1.213   0.365  16.544  0.6952 -0.3093 -0.5213
 7409SOL    HW233864   1.255   0.382  16.686 -1.0283  1.4188 -0.4229
 7410SOL     OW33865   4.119   2.381   6.291  0.0423 -0.6316 -0.6626
 7410SOL    HW133866   4.206   2.353   6.262  0.6853  0.1828  0.4550
 7410SOL    HW233867   4.072   2.390   6.208 -0.0914  1.1471 -0.3854
 7411SOL     OW33868   3.125   2.276  12.284 -0.7208 -0.1965  0.9672
 7411SOL    HW133869   3.035   2.294  12.257 -0.0117  1.0088 -0.6349
 7411SOL    HW233870   3.159   2.223  12.212 -1.6995 -0.2942  0.5667
 7412SOL     OW33871   0.665   0.461   6.254  0.4414 -0.5288 -0.3337
 7412SOL    HW133872   0.665   0.438   6.161  1.4734  1.1659 -0.7599
 7412SOL    HW233873   0.694   0.381   6.298  1.3525 -0.0641 -0.0914
 7413SOL     OW33874   0.231   4.050   1.704  0.2189  0.5535 -0.0669
 7413SOL    HW133875   0.223   3.956   1.687  1.0902  0.5033 -0.2165
 7413SOL    HW233876   0.312   4.042   1.754 -0.4757 -0.7915  0.8606
 7414SOL     OW33877   1.381   1.454   0.433  0.0424  0.3083 -0.4008
 7414SOL    HW133878   1.390   1.420   0.344 -1.7973 -0.9429 -0.1223
 7414SOL    HW233879   1.310   1.398   0.466  0.2782  0.0379 -0.3482
 7415SOL     OW33880   1.384   1.466  14.267 -0.1636 -0.5900  0.2231
 7415SOL    HW133881   1.324   1.392  14.277 -1.1088  0.0891 -0.4353
 7415SOL    HW233882   1.438   1.454  14.345  0.7757  2.1651 -0.0062
 7416SOL     OW33883   1.303   0.321   1.799  0.3999 -0.5309  0.2566
 7416SOL    HW133884   1.318   0.343   1.891 -0.0344  0.1881  0.1543
 7416SOL    HW233885   1.254   0.240   1.811  0.3300 -0.7404 -1.4234
 7417SOL     OW33886   0.534   2.021  12.059 -0.0229 -0.1049  0.4678
 7417SOL    HW133887   0.548   1.929  12.080 -1.2655 -0.1909  0.9367
 7417SOL    HW233888   0.510   2.012  11.967 -0.1921 -0.8137  0.5824
 7418SOL     OW33889   2.903   3.524   2.578 -0.4017 -0.4116 -0.0473
 7418SOL    HW133890   2.839   3.467   2.619  0.7774 -1.6424  0.0908
 7418SOL    HW233891   2.984   3.494   2.619  1.3195  0.8779 -2.4804
 7419SOL     OW33892   2.407   4.549   3.575  0.3115 -0.2446 -0.0302
 7419SOL    HW133893   2.477   4.488   3.598 -0.6202 -1.4458 -0.4057
 7419SOL    HW233894   2.458   4.626   3.552  0.5008  0.0147  1.2400
 7420SOL     OW33895   0.875   3.574   2.076  0.0767 -0.1160  0.2438
 7420SOL    HW133896   0.848   3.504   2.135  0.3830 -0.1150  0.3836
 7420SOL    HW233897   0.969   3.558   2.082 -0.1021 -1.0630  0.5941
 7421SOL     OW33898   1.701   3.745   3.184  0.2610  0.0410  0.2801
 7421SOL    HW133899   1.736   3.673   3.131  0.6194 -0.3997  1.1207
 7421SOL    HW233900   1.753   3.815   3.144  0.6334 -0.1260  0.4718
 7422SOL     OW33901   0.439   2.189   7.514 -0.4543 -0.0551 -0.4271
 7422SOL    HW133902   0.383   2.188   7.436  0.8145 -0.3523 -1.3290
 7422SOL    HW233903   0.529   2.200   7.484  0.3271  1.3005  2.4261
 7423SOL     OW33904   4.433   3.176   3.377  0.3644  0.1065 -0.5382
 7423SOL    HW133905   4.446   3.088   3.412 -0.9277 -0.8585 -2.5108
 7423SOL    HW233906   4.368   3.218   3.434 -0.5338  0.1290 -1.5889
 7424SOL     OW33907   2.523   3.578  10.737  0.3142  0.7786  0.0993
 7424SOL    HW133908   2.511   3.489  10.704  2.8186 -0.1505  1.7242
 7424SOL    HW233909   2.449   3.582  10.797  0.6349 -0.8677  0.5921
 7425SOL     OW33910   4.200   3.928  15.986  0.4204  0.2035  0.0023
 7425SOL    HW133911   4.187   3.995  16.053  0.5273  0.5833 -0.3536
 7425SOL    HW233912   4.139   3.870  16.031 -0.7678  0.8068 -0.8558
 7426SOL     OW33913   1.768   2.791   1.219  0.0564  0.3073 -0.4471
 7426SOL    HW133914   1.814   2.717   1.257 -1.3603 -1.2183 -1.6758
 7426SOL    HW233915   1.815   2.811   1.138 -2.5853  1.3351 -1.7547
 7427SOL     OW33916   1.775   1.449   7.963  0.0595  0.5447 -0.3731
 7427SOL    HW133917   1.768   1.386   7.891  0.1935  0.8026 -0.6162
 7427SOL    HW233918   1.692   1.428   8.005  1.0636  1.8582  2.2386
 7428SOL     OW33919   1.776   3.159  10.362 -0.2410  0.5385  0.6539
 7428SOL    HW133920   1.758   3.236  10.416  0.9328  2.3869 -1.6330
 7428SOL    HW233921   1.707   3.168  10.296  0.5880 -0.0902 -0.2935
 7429SOL     OW33922   2.808   1.697   3.271 -0.2450  0.3859  0.5333
 7429SOL    HW133923   2.823   1.714   3.178  1.0078  3.1490  1.2468
 7429SOL    HW233924   2.774   1.784   3.292  1.6348  1.3337 -0.3805
 7430SOL     OW33925   0.726   2.811   1.395  0.0662  0.3680 -0.1165
 7430SOL    HW133926   0.673   2.748   1.444 -0.9085 -0.0227 -1.7020
 7430SOL    HW233927   0.719   2.888   1.452 -0.5055  0.3869 -0.2066
 7431SOL     OW33928   0.788   0.452  12.786  0.0005  0.2502  0.3520
 7431SOL    HW133929   0.868   0.464  12.838  1.2652  2.9553 -2.2015
 7431SOL    HW233930   0.785   0.520  12.719 -0.2758  0.2763  0.3931
 7432SOL     OW33931   3.199   4.145   5.536 -0.0240  0.1141 -0.2091
 7432SOL    HW133932   3.284   4.174   5.567 -0.1463  0.6864 -0.4192
 7432SOL    HW233933   3.210   4.050   5.549 -0.7463 -0.0066 -0.4568
 7433SOL     OW33934   1.788   2.648   7.940 -0.2723 -0.4389  0.7262
 7433SOL    HW133935   1.747   2.597   7.870  0.0623  1.2522 -0.7110
 7433SOL    HW233936   1.728   2.723   7.943 -0.9867 -0.9295 -1.3308
 7434SOL     OW33937   4.598   1.381  13.760  0.2502 -0.1503  0.0799
 7434SOL    HW133938   4.626   1.467  13.791 -0.1702 -0.7276  2.0219
 7434SOL    HW233939   4.516   1.410  13.720  0.9654  1.4507 -0.1995
 7435SOL     OW33940   3.160   2.155   6.631 -0.3249 -0.4096  0.0068
 7435SOL    HW133941   3.130   2.240   6.665  2.0962  0.7572 -0.7379
 7435SOL    HW233942   3.189   2.181   6.544  3.4018 -0.5370  1.1821
 7436SOL     OW33943   0.382   3.585   2.525 -0.1815  0.1954  0.4480
 7436SOL    HW133944   0.462   3.623   2.488 -0.1846  2.3037  2.6527
 7436SOL    HW233945   0.336   3.562   2.444  0.3975  1.6421 -0.2862
 7437SOL     OW33946   1.111   1.994   2.469  0.2869 -0.3085  0.0914
 7437SOL    HW133947   1.158   1.979   2.551  1.1599 -1.6885 -0.6542
 7437SOL    HW233948   1.174   2.034   2.407 -1.1877  0.4886 -0.9012
 7438SOL     OW33949   2.227   3.528   5.479 -0.1208  0.7515 -0.0085
 7438SOL    HW133950   2.201   3.609   5.523 -1.3278 -0.6234  1.8001
 7438SOL    HW233951   2.317   3.557   5.463  0.1431 -1.4152 -2.4365
 7439SOL     OW33952   3.652   0.397   2.206 -0.1054 -0.1871 -0.8599
 7439SOL    HW133953   3.599   0.473   2.231  1.0588  0.6569 -0.9504
 7439SOL    HW233954   3.732   0.432   2.244  0.3090 -1.2924 -0.7120
 7440SOL     OW33955   4.599   1.972   0.689 -0.4244  0.2080  0.0297
 7440SOL    HW133956   4.612   1.951   0.782  1.5714 -2.3748 -0.8291
 7440SOL    HW233957   4.522   2.028   0.692 -0.9983 -0.7294  2.6276
 7441SOL     OW33958   4.387   2.244   4.450  0.0338 -0.1161  0.0048
 7441SOL    HW133959   4.390   2.335   4.480 -0.4075  0.4068 -1.5470
 7441SOL    HW233960   4.446   2.239   4.375  0.8265 -1.6896  0.7289
 7442SOL     OW33961   4.674   4.211   3.402  0.1168 -0.2066  0.6472
 7442SOL    HW133962   0.032   4.228   3.393  0.6459 -2.6579  1.4408
 7442SOL    HW233963   4.670   4.152   3.477 -0.4522  0.3756  1.0784
 7443SOL     OW33964   1.241   2.903   7.422 -0.2017  0.2905 -0.0257
 7443SOL    HW133965   1.199   2.897   7.337  0.5614 -2.3757 -0.2085
 7443SOL    HW233966   1.335   2.920   7.412  0.0135 -1.8924 -1.5834
 7444SOL     OW33967   1.966   2.416  17.682 -0.2647 -0.4748  0.1527
 7444SOL    HW133968   2.022   2.448   0.013 -1.3642  0.6167  0.5253
 7444SOL    HW233969   1.939   2.331  17.714 -3.6388  0.7153  0.4371
 7445SOL     OW33970   3.096   2.418   9.084 -0.1903 -0.1872 -0.1111
 7445SOL    HW133971   3.125   2.450   9.169  0.8145 -0.3403 -0.3949
 7445SOL    HW233972   3.175   2.393   9.035  0.0513 -0.3816  0.3777
 7446SOL     OW33973   4.554   2.970   4.865  0.3956  0.4153  0.5192
 7446SOL    HW133974   4.558   3.006   4.954 -1.8967  0.0601  0.7621
 7446SOL    HW233975   4.475   2.916   4.869 -0.1980  1.2364 -0.1780
 7447SOL     OW33976   3.396   1.153   2.605 -0.5456 -0.4168  0.5255
 7447SOL    HW133977   3.393   1.232   2.550  1.1588 -2.6030 -2.7423
 7447SOL    HW233978   3.477   1.120   2.566 -0.0279  1.2084  0.1986
 7448SOL     OW33979   0.476   1.032  14.005 -0.6584 -0.7937  0.2655
 7448SOL    HW133980   0.561   0.989  14.019 -0.2705 -0.1398 -0.0862
 7448SOL    HW233981   0.455   1.052  14.096 -0.3537 -1.1466  0.4184
 7449SOL     OW33982   3.799   3.080   1.773  0.0546 -0.0035  0.1835
 7449SOL    HW133983   3.729   3.075   1.838 -0.1570 -0.2955 -0.0684
 7449SOL    HW233984   3.767   3.023   1.703  0.4958 -0.2779  0.2065
 7450SOL     OW33985   3.310   2.370   3.172  0.2232  0.2997  0.1634
 7450SOL    HW133986   3.223   2.407   3.185 -0.1931 -1.1478  1.6237
 7450SOL    HW233987   3.352   2.395   3.255  0.0672  0.6901  0.1220
 7451SOL     OW33988   2.667   3.024   3.888 -0.2232 -0.2304 -0.3639
 7451SOL    HW133989   2.584   3.022   3.936  0.1314 -1.1631  0.2008
 7451SOL    HW233990   2.681   2.929   3.882 -0.1359 -0.3573  1.9332
 7452SOL     OW33991   4.612   1.790   7.993  0.4228 -0.0542 -0.3223
 7452SOL    HW133992   4.652   1.708   7.965 -0.1630 -0.5780  0.3923
 7452SOL    HW233993   4.587   1.834   7.911  0.2974  0.7525  0.1458
 7453SOL     OW33994   1.305   3.133   3.080  0.0741  0.2307  0.0727
 7453SOL    HW133995   1.315   3.050   3.127  1.6915  1.4741  1.9403
 7453SOL    HW233996   1.387   3.178   3.102 -0.7290  0.1058  3.3740
 7454SOL     OW33997   3.151   2.198  17.487  0.2776  0.3684 -0.1507
 7454SOL    HW133998   3.131   2.261  17.557  0.8253 -1.7877  1.9335
 7454SOL    HW233999   3.221   2.148  17.531 -1.7828 -1.5522  0.9231
 7455SOL     OW34000   1.031   3.409   5.397  0.0789 -1.2667 -0.0495
 7455SOL    HW134001   1.060   3.332   5.446  1.4640 -0.6864  0.0656
 7455SOL    HW234002   0.945   3.422   5.436  1.0261  2.4202  0.8676
 7456SOL     OW34003   3.295   1.790   6.055 -0.1484 -0.3498  0.6934
 7456SOL    HW134004   3.232   1.857   6.081  0.8618  0.3650  1.2868
 7456SOL    HW234005   3.280   1.714   6.111 -0.5805 -2.2643 -2.0166
 7457SOL     OW34006   3.405   3.644  10.468  0.6573  0.1878 -0.5286
 7457SOL    HW134007   3.325   3.638  10.519  1.6590  0.3669  1.0726
 7457SOL    HW234008   3.435   3.554  10.485  0.5489 -0.0048 -1.3909
 7458SOL     OW34009   2.159   3.418   8.947  0.1194 -0.2327 -0.2028
 7458SOL    HW134010   2.128   3.447   8.861 -0.1065  2.5131  0.7990
 7458SOL    HW234011   2.109   3.338   8.962  1.0388 -0.8880 -0.6785
 7459SOL     OW34012   2.480   0.752   5.264 -0.2119  0.5153 -0.1608
 7459SOL    HW134013   2.449   0.810   5.333 -0.1410  0.5733 -0.1785
 7459SOL    HW234014   2.420   0.762   5.190 -1.6158  0.2341  0.9352
 7460SOL     OW34015   2.479   0.749   0.348  0.1107 -0.4993  0.2412
 7460SOL    HW134016   2.452   0.775   0.260  2.0871 -0.9499 -0.4937
 7460SOL    HW234017   2.530   0.671   0.326  4.2225  2.8344 -1.8883
 7461SOL     OW34018   3.158   4.212   2.888 -0.1340 -0.2240  0.7215
 7461SOL    HW134019   3.093   4.162   2.936  0.7215 -1.2430  0.7992
 7461SOL    HW234020   3.095   4.284   2.875 -1.2872 -1.3938 -0.1559
 7462SOL     OW34021   2.994   2.512   8.149  0.0328 -0.4599  0.5448
 7462SOL    HW134022   2.915   2.509   8.095  0.1073 -1.5913  0.5100
 7462SOL    HW234023   3.017   2.604   8.135 -0.2303 -0.1796  1.9183
 7463SOL     OW34024   1.646   1.016  11.733  0.2219 -0.8191 -0.9710
 7463SOL    HW134025   1.639   0.922  11.745  1.6953 -0.6444  1.3623
 7463SOL    HW234026   1.556   1.048  11.740  0.6006  0.1174 -0.3045
 7464SOL     OW34027   0.830   0.683  15.475 -0.2017 -0.2683 -0.0392
 7464SOL    HW134028   0.903   0.628  15.447 -1.9944 -1.8342 -1.6165
 7464SOL    HW234029   0.850   0.773  15.449  0.6013 -0.2457  0.6472
 7465SOL     OW34030   2.791   4.241   6.553  0.0094 -0.0238  0.3349
 7465SOL    HW134031   2.862   4.269   6.495 -0.4916  0.9548  0.1939
 7465SOL    HW234032   2.853   4.244   6.625  0.8069 -2.2432 -0.2630
 7466SOL     OW34033   2.571   1.189   1.643 -0.1297 -0.0055  0.1613
 7466SOL    HW134034   2.591   1.168   1.551  0.6427  0.5207  0.2016
 7466SOL    HW234035   2.600   1.114   1.695 -2.1469 -1.5188 -0.8999
 7467SOL     OW34036   1.162   1.532   5.941  0.4546  0.1613 -0.1982
 7467SOL    HW134037   1.196   1.613   5.979 -0.3450  0.9563 -1.1904
 7467SOL    HW234038   1.217   1.461   5.973 -0.3054 -0.7676 -0.9259
 7468SOL     OW34039   2.711   0.670   5.179  0.2385 -0.2981  0.0620
 7468SOL    HW134040   2.752   0.737   5.233 -0.3624  0.2895 -0.2046
 7468SOL    HW234041   2.618   0.690   5.194 -0.0130 -0.6566 -1.0005
 7469SOL     OW34042   3.669   3.623  12.563  0.2170 -0.0611 -0.0432
 7469SOL    HW134043   3.666   3.699  12.621  0.2213  0.6338 -0.9677
 7469SOL    HW234044   3.716   3.669  12.494  1.5023  1.7183  2.0109
 7470SOL     OW34045   2.532   2.587   7.846  0.0065 -0.6663 -0.2051
 7470SOL    HW134046   2.500   2.656   7.904 -1.0619 -1.1000 -0.2894
 7470SOL    HW234047   2.457   2.534   7.819 -1.0499  0.2634  0.8899
 7471SOL     OW34048   3.171   3.841  12.785  0.6657 -0.2955 -0.0499
 7471SOL    HW134049   3.237   3.817  12.850  1.4433 -0.5265 -0.9350
 7471SOL    HW234050   3.195   3.776  12.719 -2.9314  1.2380 -2.8838
 7472SOL     OW34051   2.475   0.273   1.806 -0.2686  0.2923  0.7978
 7472SOL    HW134052   2.566   0.247   1.793 -0.1000  0.9194  0.6891
 7472SOL    HW234053   2.491   0.360   1.843 -0.8310  0.8529 -0.2602
 7473SOL     OW34054   1.333   4.459   4.997  0.3458  0.3491  0.1674
 7473SOL    HW134055   1.356   4.387   5.056 -2.0264  0.7855  1.6570
 7473SOL    HW234056   1.239   4.456   5.017  0.6095  0.6604  1.4669
 7474SOL     OW34057   2.822   3.316  15.251 -0.2002  0.3580  0.5215
 7474SOL    HW134058   2.915   3.321  15.227 -0.1172  1.8896  1.1626
 7474SOL    HW234059   2.835   3.232  15.294 -1.8063 -0.6181 -0.8845
 7475SOL     OW34060   3.690   2.058   5.906 -0.3416 -0.1577 -0.1277
 7475SOL    HW134061   3.650   1.992   5.963 -2.0478 -0.5973 -1.8194
 7475SOL    HW234062   3.622   2.086   5.845  1.9706  0.2668 -2.4925
 7476SOL     OW34063   0.705   1.534   3.951  0.4623 -0.3371  1.0435
 7476SOL    HW134064   0.725   1.536   4.045 -0.0857 -1.2705  1.1792
 7476SOL    HW234065   0.785   1.493   3.919  0.4468 -0.1064  0.7174
 7477SOL     OW34066   3.144   1.104  13.034 -0.3598 -0.3307  0.0836
 7477SOL    HW134067   3.186   1.019  13.023  0.5199 -0.1668  2.2499
 7477SOL    HW234068   3.126   1.125  12.942 -0.8823 -3.0346 -0.4527
 7478SOL     OW34069   2.232   1.736   8.178  0.1824  0.8601 -0.0895
 7478SOL    HW134070   2.162   1.771   8.233 -0.5717 -1.0756  0.2071
 7478SOL    HW234071   2.225   1.785   8.097 -3.1640  3.3154  1.6495
 7479SOL     OW34072   2.633   0.962  16.993  0.4789  0.2684  0.2111
 7479SOL    HW134073   2.715   0.992  17.032  0.3861 -0.6910  1.1591
 7479SOL    HW234074   2.588   1.045  17.007 -0.6372 -0.3173  0.1165
 7480SOL     OW34075   0.597   1.820   1.967 -0.4847  0.2278  0.3443
 7480SOL    HW134076   0.527   1.883   1.951  0.4356  0.4649 -2.6573
 7480SOL    HW234077   0.573   1.744   1.913 -2.4570 -0.3707  2.0458
 7481SOL     OW34078   2.469   0.880  13.586 -0.2718 -0.6777 -0.0418
 7481SOL    HW134079   2.527   0.889  13.661  0.7317  1.3876 -1.0676
 7481SOL    HW234080   2.481   0.962  13.539  1.7910 -1.8789 -1.5926
 7482SOL     OW34081   0.419   3.518  11.792 -0.7852 -0.2461  0.3378
 7482SOL    HW134082   0.374   3.545  11.712  2.1526 -0.2587 -1.3000
 7482SOL    HW234083   0.340   3.511  11.845 -0.5248 -0.0808  0.7469
 7483SOL     OW34084   1.801   3.364  15.497 -0.1011  0.5419  0.0236
 7483SOL    HW134085   1.834   3.279  15.524 -0.7109  0.7636  1.4612
 7483SOL    HW234086   1.863   3.429  15.530  0.8736 -0.8152  0.8448
 7484SOL     OW34087   1.760   0.828  10.503 -0.4289 -0.0116  0.2333
 7484SOL    HW134088   1.783   0.912  10.544 -0.6550 -0.3732  1.1046
 7484SOL    HW234089   1.722   0.783  10.578 -3.1513  2.1572  0.1414
 7485SOL     OW34090   2.950   2.099   7.682  0.0848 -0.8339 -0.3084
 7485SOL    HW134091   2.894   2.133   7.752 -1.3960  0.8094 -2.2974
 7485SOL    HW234092   2.886   2.037   7.646 -0.7600 -0.1913  0.0940
 7486SOL     OW34093   3.643   0.554   1.794 -0.1914 -0.4801 -0.5755
 7486SOL    HW134094   3.618   0.484   1.854  0.8713  0.1043  0.5428
 7486SOL    HW234095   3.708   0.609   1.838 -2.0057  1.0036  0.2495
 7487SOL     OW34096   1.890   2.748  13.253 -0.4624 -0.0389 -0.4297
 7487SOL    HW134097   1.808   2.699  13.244 -0.0404 -0.1744 -3.3045
 7487SOL    HW234098   1.857   2.834  13.280 -0.5338 -0.1940 -0.0152
 7488SOL     OW34099   1.457   0.377   2.470 -0.0076  0.0874  0.1345
 7488SOL    HW134100   1.472   0.290   2.433 -0.3796 -0.0498  0.3042
 7488SOL    HW234101   1.510   0.425   2.407  1.3106  0.3447  1.4352
 7489SOL     OW34102   0.678   0.747  15.733 -0.0840 -0.0205 -0.0919
 7489SOL    HW134103   0.609   0.788  15.681 -1.1270 -2.6188 -0.7825
 7489SOL    HW234104   0.709   0.683  15.668  2.0821 -0.8924  1.8215
 7490SOL     OW34105   2.459   4.712   8.186 -0.3508  0.1180 -0.2172
 7490SOL    HW134106   2.514   0.054   8.204 -1.8800  0.7251  1.8963
 7490SOL    HW234107   2.438   4.680   8.274  1.6913  0.1940  0.2897
 7491SOL     OW34108   3.696   3.037  13.515  0.0752 -0.0208  0.3857
 7491SOL    HW134109   3.752   2.964  13.542 -2.3860 -1.5630  1.3462
 7491SOL    HW234110   3.766   3.085  13.472 -1.3116  0.5611 -1.2476
 7492SOL     OW34111   2.635   0.198  16.024  0.4011 -0.0398 -0.0035
 7492SOL    HW134112   2.542   0.219  16.028  0.3506 -0.1552 -0.5479
 7492SOL    HW234113   2.658   0.236  15.940  0.8256  0.3016  0.2644
 7493SOL     OW34114   0.465   1.705  17.229  0.7551 -0.2395  0.2971
 7493SOL    HW134115   0.408   1.635  17.262 -0.9663  0.8955 -0.2887
 7493SOL    HW234116   0.548   1.680  17.270  0.3428  2.6289  2.8902
 7494SOL     OW34117   1.562   0.040   5.333 -0.0083 -0.2282  0.4157
 7494SOL    HW134118   1.603   4.703   5.287 -0.8132  1.1068 -2.4437
 7494SOL    HW234119   1.468   0.023   5.331 -0.3836  1.3884  3.2929
 7495SOL     OW34120   4.532   2.259   1.639  0.1266 -0.1406 -0.0883
 7495SOL    HW134121   4.596   2.329   1.647  0.2800 -0.3126  0.1559
 7495SOL    HW234122   4.572   2.174   1.657 -0.3989 -0.5252 -0.7261
 7496SOL     OW34123   2.323   3.405   9.154  0.1302 -0.2636  0.3997
 7496SOL    HW134124   2.273   3.406   9.072  0.5181  2.3760  0.2147
 7496SOL    HW234125   2.250   3.421   9.213 -0.9128  0.3584 -1.0717
 7497SOL     OW34126   0.467   3.841   5.052 -0.2065 -0.4777  0.2062
 7497SOL    HW134127   0.442   3.862   5.142  0.3929  0.6988  0.0997
 7497SOL    HW234128   0.563   3.844   5.054 -0.1018 -2.8868 -1.7824
 7498SOL     OW34129   1.636   4.606  16.562  0.2849 -0.7926 -1.1906
 7498SOL    HW134130   1.562   4.596  16.622 -0.3296  1.9327 -1.5178
 7498SOL    HW234131   1.703   4.547  16.597 -1.7232 -1.8649  0.9147
 7499SOL     OW34132   1.725   0.342  15.108  0.1211  0.1115  0.0493
 7499SOL    HW134133   1.690   0.270  15.161 -0.5784  0.6726  0.3592
 7499SOL    HW234134   1.654   0.360  15.046 -0.9654  1.2359  1.5927
 7500SOL     OW34135   3.321   3.531   3.156  0.0264  0.5200  0.5228
 7500SOL    HW134136   3.316   3.595   3.086  0.2529  1.6789  1.5677
 7500SOL    HW234137   3.289   3.579   3.233 -0.6342 -0.3971  0.8245
 7501SOL     OW34138   2.670   3.090   9.528 -0.0445 -0.6474 -0.0947
 7501SOL    HW134139   2.656   3.178   9.563  0.1754 -0.5703 -0.2003
 7501SOL    HW234140   2.687   3.108   9.435  0.1484 -1.2156 -0.1735
 7502SOL     OW34141   0.170   4.496   8.574  0.0524 -0.2918  0.3305
 7502SOL    HW134142   0.082   4.497   8.535  1.9303  2.0397 -3.8779
 7502SOL    HW234143   0.224   4.510   8.496  2.2693  1.1324  2.0996
 7503SOL     OW34144   4.223   2.844  11.838 -0.1920  0.6171 -0.5521
 7503SOL    HW134145   4.203   2.752  11.827 -0.1610  0.6593 -0.9459
 7503SOL    HW234146   4.292   2.847  11.772 -0.6378 -0.2812 -1.0582
 7504SOL     OW34147   0.040   1.150   4.704 -0.3941  0.3399 -0.1247
 7504SOL    HW134148   0.070   1.157   4.613 -1.5822  0.2022 -0.5193
 7504SOL    HW234149   0.067   1.236   4.736  0.0789  0.8620 -1.9746
 7505SOL     OW34150   3.841   2.169   8.370 -0.0154 -0.1055 -0.0340
 7505SOL    HW134151   3.867   2.201   8.283  0.3087 -0.2459  0.0096
 7505SOL    HW234152   3.907   2.215   8.422 -2.1984  4.2746 -1.0854
 7506SOL     OW34153   4.585   0.736   2.907 -0.2111 -0.5185 -0.2882
 7506SOL    HW134154   4.663   0.777   2.945 -0.2120 -1.3674  0.6336
 7506SOL    HW234155   4.601   0.649   2.945  0.9765  0.3202  1.0887
 7507SOL     OW34156   2.302   1.363   3.252 -0.0549 -0.6127  0.4499
 7507SOL    HW134157   2.248   1.348   3.330  1.2814 -0.5465  1.3764
 7507SOL    HW234158   2.391   1.377   3.283 -0.1353  0.7187  0.0640
 7508SOL     OW34159   3.972   2.613   8.327  0.4322  0.0823 -0.2189
 7508SOL    HW134160   4.032   2.648   8.261  1.8197  0.5402  1.3093
 7508SOL    HW234161   3.905   2.681   8.322  1.4551  1.2177  2.0751
 7509SOL     OW34162   0.000   2.985   8.690  0.3776  0.0621  0.1547
 7509SOL    HW134163   0.078   3.025   8.651  0.0454 -0.7218 -1.3156
 7509SOL    HW234164   0.048   2.912   8.729 -1.1094 -1.1958 -0.3768
 7510SOL     OW34165   3.455   2.510  10.813  0.0110 -0.5538  0.0088
 7510SOL    HW134166   3.422   2.573  10.877  0.7828  0.1658 -0.3010
 7510SOL    HW234167   3.531   2.476  10.862  0.1120  0.8452  0.8302
 7511SOL     OW34168   1.754   2.859   0.732  0.6725 -0.4530 -0.3041
 7511SOL    HW134169   1.715   2.822   0.811  1.4890 -0.5207  0.0681
 7511SOL    HW234170   1.733   2.953   0.732  1.8603 -0.1831  0.5934
 7512SOL     OW34171   1.442   2.375   7.948 -0.0262  0.0110 -0.0386
 7512SOL    HW134172   1.396   2.400   8.029  0.4599  3.4062 -0.8393
 7512SOL    HW234173   1.533   2.379   7.976 -0.1105 -3.3620  0.7426
 7513SOL     OW34174   0.217   4.284   2.847 -0.0322  0.1484  0.3581
 7513SOL    HW134175   0.182   4.229   2.778 -0.4140  0.2207  0.4968
 7513SOL    HW234176   0.141   4.328   2.885  1.7946  2.6267  1.2278
 7514SOL     OW34177   3.555   2.263   9.128 -0.0689  0.1838 -0.0239
 7514SOL    HW134178   3.593   2.175   9.128  1.2225  0.7438 -0.7326
 7514SOL    HW234179   3.593   2.305   9.051  1.0648  1.8543  1.4439
 7515SOL     OW34180   1.445   2.127   0.393  0.1938 -0.0810 -0.7101
 7515SOL    HW134181   1.436   2.055   0.331 -3.1673  2.2218 -2.9115
 7515SOL    HW234182   1.462   2.084   0.476 -2.2533  1.6236  0.6850
 7516SOL     OW34183   2.396   4.435  14.097 -0.1308 -0.3165 -0.1852
 7516SOL    HW134184   2.314   4.441  14.145  0.0808  0.0720  0.1287
 7516SOL    HW234185   2.360   4.466  14.014  2.0901  2.6767 -0.0167
 7517SOL     OW34186   3.688   0.160  10.747 -0.6193  0.5802  0.2448
 7517SOL    HW134187   3.753   0.201  10.689  1.1551 -2.8218 -0.1738
 7517SOL    HW234188   3.601   0.199  10.735 -0.5435  0.1264 -1.7466
 7518SOL     OW34189   2.377   0.489   8.830  0.4278 -0.2104  0.0273
 7518SOL    HW134190   2.328   0.426   8.776 -1.0766  1.4502 -0.5393
 7518SOL    HW234191   2.463   0.461   8.797 -0.8923 -4.2881  0.0339
 7519SOL     OW34192   3.773   1.965   7.279 -0.0596 -0.0276  0.0088
 7519SOL    HW134193   3.752   1.990   7.189  0.1667 -1.4576 -0.4453
 7519SOL    HW234194   3.716   1.889   7.288 -1.5917  1.1584  0.1519
 7520SOL     OW34195   2.777   2.391   5.209 -0.3722 -0.3241  0.0917
 7520SOL    HW134196   2.722   2.316   5.186 -0.4002 -0.0810 -0.6484
 7520SOL    HW234197   2.853   2.370   5.153  1.1420  0.8634  1.7291
 7521SOL     OW34198   4.260   3.614   6.428  0.1500  0.0848 -0.2053
 7521SOL    HW134199   4.259   3.624   6.523 -0.4265  1.9132 -0.3877
 7521SOL    HW234200   4.250   3.520   6.413 -1.6684 -0.3455  3.6487
 7522SOL     OW34201   2.671   1.629  10.616  0.4501 -0.4333 -0.3259
 7522SOL    HW134202   2.576   1.638  10.625  0.2861 -0.8874 -1.6432
 7522SOL    HW234203   2.693   1.678  10.536  0.4716 -0.4840 -0.3511
 7523SOL     OW34204   3.295   3.667  12.620 -0.0707 -0.3736  0.4004
 7523SOL    HW134205   3.316   3.576  12.642  0.9215 -0.2999 -0.2265
 7523SOL    HW234206   3.370   3.686  12.563 -0.0673  0.4937  0.7041
 7524SOL     OW34207   2.460   2.646   5.715  0.0695 -0.1454 -0.5933
 7524SOL    HW134208   2.430   2.694   5.638 -0.7901  1.0731  0.5017
 7524SOL    HW234209   2.517   2.710   5.757 -0.0614  1.2047 -2.4867
 7525SOL     OW34210   0.728   4.366  12.230  0.0347 -0.0269 -0.1444
 7525SOL    HW134211   0.795   4.301  12.250  0.7341  0.9107  0.5591
 7525SOL    HW234212   0.756   4.396  12.144 -2.0462  0.1555 -0.7654
 7526SOL     OW34213   0.484   0.162   3.791  0.2212  0.3657 -0.5158
 7526SOL    HW134214   0.438   0.095   3.740 -1.3079 -0.1684  1.5545
 7526SOL    HW234215   0.494   0.112   3.872 -0.9984  0.3757 -0.3600
 7527SOL     OW34216   3.555   1.933  17.138  0.0111  0.0488  0.3123
 7527SOL    HW134217   3.601   2.008  17.100 -2.3387  0.4620 -1.7289
 7527SOL    HW234218   3.589   1.852  17.101  0.3983 -0.0485  0.8766
 7528SOL     OW34219   2.053   2.067   8.834  0.0125  0.0539 -0.7279
 7528SOL    HW134220   2.023   2.149   8.874 -1.2671  1.3332 -4.3206
 7528SOL    HW234221   2.143   2.088   8.808  0.0482 -1.6208 -1.9745
 7529SOL     OW34222   1.925   2.086  13.081 -0.0492  0.0186  0.2157
 7529SOL    HW134223   1.894   1.995  13.082  1.4412 -0.4868  0.2792
 7529SOL    HW234224   1.898   2.104  12.991  0.1089  1.1810  0.4096
 7530SOL     OW34225   2.649   3.765   2.415 -0.4678  0.2299  0.1363
 7530SOL    HW134226   2.555   3.766   2.430 -0.5236  2.1104 -0.2776
 7530SOL    HW234227   2.659   3.670   2.413  1.5460  0.4269  1.1323
 7531SOL     OW34228   0.618   2.451   5.633 -0.1785 -0.6167 -0.3038
 7531SOL    HW134229   0.579   2.487   5.712  0.6288  2.7525 -1.4506
 7531SOL    HW234230   0.643   2.534   5.593  0.2538 -0.4582  0.3064
 7532SOL     OW34231   4.351   2.646   8.485  0.0817 -0.2211 -0.5219
 7532SOL    HW134232   4.287   2.698   8.436 -0.7314  1.5282  2.4093
 7532SOL    HW234233   4.322   2.666   8.574  0.4877  0.7732 -0.6128
 7533SOL     OW34234   1.289   4.575   9.827  0.0056 -0.0596 -0.9832
 7533SOL    HW134235   1.345   4.614   9.760  0.5398 -0.5328 -0.8171
 7533SOL    HW234236   1.266   4.501   9.771  0.9151 -1.1308  0.0245
 7534SOL     OW34237   0.513   4.424   3.722 -0.1390 -0.0145 -0.5126
 7534SOL    HW134238   0.593   4.457   3.761 -1.1304  0.6961  0.8945
 7534SOL    HW234239   0.537   4.430   3.629 -0.2163 -0.6574 -0.5801
 7535SOL     OW34240   0.192   4.602  11.048  0.1779  0.2794  0.0306
 7535SOL    HW134241   0.220   4.642  10.966 -0.1380 -0.7341 -0.5730
 7535SOL    HW234242   0.229   4.664  11.111  0.5158  0.9753 -0.8610
 7536SOL     OW34243   1.231   4.495   4.417  0.5909 -0.6597  0.4643
 7536SOL    HW134244   1.186   4.425   4.370 -0.4467 -0.1425  0.6869
 7536SOL    HW234245   1.173   4.492   4.493  0.6296 -1.5806  0.4630
 7537SOL     OW34246   3.317   1.343   4.853  0.3181 -0.7087  0.3271
 7537SOL    HW134247   3.325   1.317   4.945  1.4721 -1.7940 -0.0866
 7537SOL    HW234248   3.351   1.432   4.852 -1.7662  0.0977  0.0578
 7538SOL     OW34249   4.051   0.117   3.782 -0.1673  0.4350 -0.1303
 7538SOL    HW134250   4.055   0.213   3.774  1.6157  0.2537 -1.3640
 7538SOL    HW234251   4.140   0.096   3.754  0.1887 -1.6844  2.5979
 7539SOL     OW34252   0.028   2.259   8.788  0.0054  0.3192  0.3143
 7539SOL    HW134253   0.058   2.174   8.821 -3.2845 -0.9398  0.0977
 7539SOL    HW234254   4.708   2.233   8.713 -1.8289 -1.1918  2.1840
 7540SOL     OW34255   4.507   0.950  17.121  0.4703  0.2573  0.7732
 7540SOL    HW134256   4.454   0.974  17.197  0.3646  0.7711  0.5402
 7540SOL    HW234257   4.596   0.978  17.144  1.5075  0.1446 -3.0806
 7541SOL     OW34258   1.738   4.538   5.540 -0.8166  0.0080 -0.4146
 7541SOL    HW134259   1.811   4.521   5.600 -0.3256 -0.6606 -1.2045
 7541SOL    HW234260   1.668   4.549   5.605 -0.2521  0.2591  0.1534
 7542SOL     OW34261   2.533   1.490   7.959  0.5581 -0.5021 -0.4672
 7542SOL    HW134262   2.574   1.468   8.042 -0.3810 -0.5336 -0.0175
 7542SOL    HW234263   2.441   1.469   7.972  1.1450 -0.8492  3.1067
 7543SOL     OW34264   0.921   1.976   7.522  0.1142 -0.1684 -0.1011
 7543SOL    HW134265   0.919   1.882   7.503 -0.6541 -0.1825  0.0621
 7543SOL    HW234266   0.929   2.006   7.431  0.1290 -0.4910 -0.2055
 7544SOL     OW34267   3.159   0.067   0.552 -0.2148  0.1538  0.0968
 7544SOL    HW134268   3.117   0.142   0.510 -2.4781 -0.8902  0.5338
 7544SOL    HW234269   3.092   0.035   0.612  0.5035  0.5690  1.1202
 7545SOL     OW34270   2.764   1.887   2.071 -0.5779 -0.3733 -0.1504
 7545SOL    HW134271   2.740   1.836   2.149 -1.8226 -1.1024 -1.0071
 7545SOL    HW234272   2.705   1.963   2.077 -0.7924 -0.4074 -1.7364
 7546SOL     OW34273   3.002   2.122   1.690 -0.5855 -0.2443 -0.4821
 7546SOL    HW134274   3.079   2.074   1.659  1.3265  1.6099  1.4110
 7546SOL    HW234275   3.043   2.176   1.758 -1.3832  1.3715 -1.2862
 7547SOL     OW34276   0.746   2.481   5.307 -0.4819  0.2294  0.2116
 7547SOL    HW134277   0.662   2.464   5.264  0.5271 -0.5267 -1.4439
 7547SOL    HW234278   0.790   2.396   5.296  1.3884  1.0452  1.4311
 7548SOL     OW34279   2.900   2.219   8.489 -0.1250 -0.4609  0.1426
 7548SOL    HW134280   2.851   2.151   8.442 -0.7970  0.8354 -1.0094
 7548SOL    HW234281   2.884   2.183   8.576  1.9170 -2.1736 -0.1798
 7549SOL     OW34282   1.907   0.948   0.571  0.1198  0.5371 -0.0623
 7549SOL    HW134283   1.982   0.967   0.514 -0.3689  1.4237 -0.4020
 7549SOL    HW234284   1.948   0.956   0.657  2.2926  2.0382 -1.2113
 7550SOL     OW34285   3.095   0.211   5.339  0.1513 -0.0810  0.7644
 7550SOL    HW134286   3.105   0.237   5.430  0.3371  1.0363  0.4339
 7550SOL    HW234287   3.186   0.190   5.320 -0.2392 -0.4657 -0.7475
 7551SOL     OW34288   0.213   1.430   5.079 -0.5703  0.3078 -0.2705
 7551SOL    HW134289   0.166   1.403   5.158  2.7551 -2.1327  0.8460
 7551SOL    HW234290   0.290   1.377   5.096  0.5059  2.0739  0.3316
 7552SOL     OW34291   3.432   4.625   4.443 -0.5796  0.0902 -0.4359
 7552SOL    HW134292   3.461   4.705   4.398 -2.8539  1.0222 -0.2241
 7552SOL    HW234293   3.420   4.655   4.533  0.1028  1.1851 -0.7019
 7553SOL     OW34294   4.583   1.574   6.473 -0.1250  0.3054  0.2270
 7553SOL    HW134295   4.503   1.549   6.519  2.0485 -1.1878  3.2270
 7553SOL    HW234296   4.639   1.547   6.547  1.7169  1.7731 -0.6364
 7554SOL     OW34297   0.886   4.195  15.577 -0.0170 -0.1299 -0.4546
 7554SOL    HW134298   0.847   4.281  15.588  0.4137  0.5679 -4.3491
 7554SOL    HW234299   0.966   4.214  15.527  1.6028 -1.2394  1.6994
 7555SOL     OW34300   0.875   4.446  13.051 -0.2101  0.1117 -0.0639
 7555SOL    HW134301   0.820   4.389  13.105  0.9594 -2.0651 -1.1609
 7555SOL    HW234302   0.947   4.386  13.032  0.8781  0.9916  1.3313
 7556SOL     OW34303   3.470   3.206   6.239 -0.0389  0.0595  0.0706
 7556SOL    HW134304   3.523   3.175   6.313 -0.1661  1.3003  0.6795
 7556SOL    HW234305   3.515   3.289   6.221 -1.3086  0.2336 -2.2874
 7557SOL     OW34306   0.573   4.702  17.488 -0.0533  0.0864 -0.2656
 7557SOL    HW134307   0.571   0.030  17.561  3.2151  0.2859 -0.3516
 7557SOL    HW234308   0.531   0.018  17.419  1.3679  0.4272 -0.8785
 7558SOL     OW34309   3.449   3.027   4.389 -0.4078  0.0212 -0.2661
 7558SOL    HW134310   3.472   3.113   4.356 -1.6888  0.1112 -0.9133
 7558SOL    HW234311   3.423   3.051   4.478 -1.0471  1.6503 -0.9014
 7559SOL     OW34312   0.819   0.821   2.315  0.0592  0.5357  0.1493
 7559SOL    HW134313   0.836   0.852   2.226 -0.4888 -1.6283 -0.7021
 7559SOL    HW234314   0.726   0.843   2.323 -0.5111 -1.6959 -0.3210
 7560SOL     OW34315   0.039   0.346  15.759 -0.0967  0.1096  0.4417
 7560SOL    HW134316   4.707   0.294  15.715 -1.0724  0.7829  1.1419
 7560SOL    HW234317   4.723   0.376  15.834  0.1872  1.8195 -0.0502
 7561SOL     OW34318   4.017   0.600   3.899  0.1798 -0.0452  0.1703
 7561SOL    HW134319   4.086   0.666   3.913  0.2089  0.0357 -0.3434
 7561SOL    HW234320   3.949   0.653   3.857 -1.3313 -2.5140 -0.4951
 7562SOL     OW34321   3.297   3.935  10.231 -0.0440 -0.1310  0.0673
 7562SOL    HW134322   3.258   3.908  10.315 -0.0406  0.5118  0.2827
 7562SOL    HW234323   3.278   4.029  10.221  0.7154 -0.1465 -1.4377
 7563SOL     OW34324   1.344   0.604  10.304 -0.0216 -0.4267 -0.1769
 7563SOL    HW134325   1.358   0.677  10.244 -1.3936  1.5132  1.8633
 7563SOL    HW234326   1.394   0.636  10.379  1.8166 -1.0497 -1.1303
 7564SOL     OW34327   2.877   2.557   6.557 -0.1098  0.4747 -0.1828
 7564SOL    HW134328   2.881   2.653   6.551  1.3639  0.4910  1.2201
 7564SOL    HW234329   2.809   2.527   6.497  0.2663 -3.1567  1.1991
 7565SOL     OW34330   0.250   4.010   7.914 -0.3164 -0.6229  0.0358
 7565SOL    HW134331   0.235   3.915   7.917  0.6344 -0.7734  0.0277
 7565SOL    HW234332   0.345   4.013   7.899 -0.3843  1.5675  0.0374
 7566SOL     OW34333   3.830   2.391  17.068 -0.0019 -0.3537 -0.0361
 7566SOL    HW134334   3.778   2.449  17.012  0.0603 -0.3010 -0.0394
 7566SOL    HW234335   3.892   2.360  17.002 -0.0722 -0.7116  0.0709
 7567SOL     OW34336   1.754   2.940   3.206 -0.2543  0.0231 -0.5232
 7567SOL    HW134337   1.737   3.007   3.139 -1.3975 -0.0594 -0.3173
 7567SOL    HW234338   1.700   2.864   3.187 -3.5162  2.1793  0.0158
 7568SOL     OW34339   2.873   1.657   8.315  0.1198 -0.6700 -0.2372
 7568SOL    HW134340   2.803   1.723   8.323  1.3483  0.8151 -1.6971
 7568SOL    HW234341   2.879   1.659   8.219 -0.0923 -1.3381 -0.2606
 7569SOL     OW34342   2.004   1.577  10.745  0.0008  0.3537 -0.2242
 7569SOL    HW134343   1.959   1.507  10.697 -0.0339  0.9728 -1.0965
 7569SOL    HW234344   2.092   1.542  10.763 -0.2178  0.3050  0.7319
 7570SOL     OW34345   3.689   2.573   8.497 -0.3484 -0.4147 -0.1519
 7570SOL    HW134346   3.723   2.508   8.436 -0.8102  0.1006 -0.9582
 7570SOL    HW234347   3.608   2.522   8.510  0.4743 -1.7372 -0.1815
 7571SOL     OW34348   3.592   3.842   7.413 -0.3803  1.1593 -0.0393
 7571SOL    HW134349   3.655   3.906   7.378  0.2949  0.4069 -0.1976
 7571SOL    HW234350   3.649   3.781   7.459  0.3383  0.2884 -2.1035
 7572SOL     OW34351   2.114   0.918   3.904  0.6885  0.0351 -0.0762
 7572SOL    HW134352   2.171   0.991   3.928 -1.2890  1.1708  1.1699
 7572SOL    HW234353   2.038   0.972   3.880 -1.7956 -2.8415  1.2915
 7573SOL     OW34354   0.606   4.167   2.254 -0.1137  0.1565 -0.6484
 7573SOL    HW134355   0.534   4.104   2.265 -0.1655  0.5904  1.3892
 7573SOL    HW234356   0.675   4.105   2.276  1.1257  1.8450  0.1800
 7574SOL     OW34357   3.725   0.891  13.066 -0.7940  0.8078  0.3964
 7574SOL    HW134358   3.746   0.811  13.114  0.2655  0.7894 -0.1030
 7574SOL    HW234359   3.778   0.882  12.986  0.4711  3.3549  0.9564
 7575SOL     OW34360   1.139   1.175   3.326  0.1612  0.6530 -0.1950
 7575SOL    HW134361   1.192   1.103   3.292 -0.5730  1.3736 -2.8119
 7575SOL    HW234362   1.101   1.195   3.241  0.6990  2.3546 -0.0341
 7576SOL     OW34363   3.821   0.863   5.954  0.4345 -0.2399  0.2476
 7576SOL    HW134364   3.797   0.776   5.923  0.6711 -1.3195  3.0936
 7576SOL    HW234365   3.762   0.907   5.893  0.4175  0.8221  1.0226
 7577SOL     OW34366   3.667   4.557   7.954 -0.3557  0.4806 -0.6099
 7577SOL    HW134367   3.624   4.618   7.895  0.0264 -0.3840 -1.7785
 7577SOL    HW234368   3.759   4.584   7.958  0.2661 -1.7589  0.2476
 7578SOL     OW34369   4.211   1.260   9.517  0.0149  0.3465 -0.5063
 7578SOL    HW134370   4.147   1.210   9.567  1.9867 -2.3949 -0.7225
 7578SOL    HW234371   4.244   1.317   9.587 -0.5951 -1.3034  1.1447
 7579SOL     OW34372   0.281   3.934   9.516 -0.2948 -0.1500  0.4237
 7579SOL    HW134373   0.358   3.942   9.460 -0.3589 -0.2549  0.3193
 7579SOL    HW234374   0.202   3.955   9.467  0.9919  0.5566 -1.3485
 7580SOL     OW34375   2.841   1.409   2.910  0.1903 -0.4918  0.0171
 7580SOL    HW134376   2.856   1.468   2.836 -0.6196 -0.1212  0.1530
 7580SOL    HW234377   2.856   1.472   2.980  0.7282 -1.8241  1.1097
 7581SOL     OW34378   4.041   3.955   9.636  0.5870  0.3596  0.5939
 7581SOL    HW134379   4.119   3.901   9.647  0.9670  0.3064 -2.3008
 7581SOL    HW234380   4.075   4.027   9.584  2.7720 -0.2720  1.1510
 7582SOL     OW34381   0.814   2.241   5.691 -0.2432  0.3537  0.7609
 7582SOL    HW134382   0.737   2.183   5.696  0.0779  0.0282  1.8776
 7582SOL    HW234383   0.769   2.317   5.654 -1.2991 -1.0783 -0.9546
 7583SOL     OW34384   2.963   3.882   0.637  0.1456  0.2190 -0.5617
 7583SOL    HW134385   2.904   3.810   0.658 -1.7272  1.9770  0.2553
 7583SOL    HW234386   3.030   3.863   0.703 -0.5767  3.3348  1.0845
 7584SOL     OW34387   3.601   0.035  15.206  0.2111 -0.5462  0.5262
 7584SOL    HW134388   3.648   4.694  15.240  1.7936  1.1105  2.0369
 7584SOL    HW234389   3.508   0.017  15.219 -0.5735  2.2896 -1.0793
 7585SOL     OW34390   0.118   0.109   8.891 -0.4511  0.2800 -0.0240
 7585SOL    HW134391   0.188   0.059   8.934  1.4216  1.4938 -1.6350
 7585SOL    HW234392   0.129   0.088   8.798 -0.1389 -0.3681  0.1613
 7586SOL     OW34393   1.616   0.766   2.306 -0.2301 -0.8286  0.4724
 7586SOL    HW134394   1.670   0.784   2.229  0.9432  0.1419  1.5159
 7586SOL    HW234395   1.534   0.807   2.278  0.2977 -0.7865 -1.0068
 7587SOL     OW34396   2.587   0.675  15.592  0.2199  0.1165 -0.4680
 7587SOL    HW134397   2.570   0.591  15.636  1.6831 -0.7304 -1.5227
 7587SOL    HW234398   2.677   0.696  15.616  0.2188 -1.5460  1.0093
 7588SOL     OW34399   2.648   2.496   1.957  0.0656 -0.2632 -0.5538
 7588SOL    HW134400   2.713   2.446   2.008 -0.6254 -2.3491 -1.7003
 7588SOL    HW234401   2.657   2.583   1.996 -1.2082  0.3175 -1.5766
 7589SOL     OW34402   4.402   3.005  14.805  0.2081 -0.5441 -0.4328
 7589SOL    HW134403   4.454   3.059  14.864  0.1181  1.1600 -1.9475
 7589SOL    HW234404   4.443   2.921  14.827  0.2480 -0.7788 -1.4155
 7590SOL     OW34405   1.363   2.590   7.755  0.1826  0.0417  0.2362
 7590SOL    HW134406   1.375   2.523   7.822 -0.8678  0.0065  0.3824
 7590SOL    HW234407   1.360   2.533   7.678  0.3071  0.6333 -0.2054
 7591SOL     OW34408   1.570   1.736   6.012 -0.3040 -0.4369 -0.3789
 7591SOL    HW134409   1.584   1.830   6.000 -0.8950 -0.3388 -0.3246
 7591SOL    HW234410   1.477   1.722   6.029 -0.3655  0.6930  0.1707
 7592SOL     OW34411   4.408   2.326  12.559  0.0270  0.6478  0.2541
 7592SOL    HW134412   4.329   2.359  12.516 -0.5812 -0.6893  0.3413
 7592SOL    HW234413   4.450   2.406  12.590 -0.7826  1.4683 -0.8155
 7593SOL     OW34414   1.823   1.839   7.083  0.7734  0.5878 -0.1933
 7593SOL    HW134415   1.754   1.793   7.131  1.9163  0.6305  1.4969
 7593SOL    HW234416   1.772   1.908   7.041 -0.4792 -1.2606 -1.7160
 7594SOL     OW34417   1.917   0.738   1.313 -0.1648  0.3345  0.1482
 7594SOL    HW134418   1.995   0.750   1.367 -0.5105  1.5954  0.3809
 7594SOL    HW234419   1.947   0.656   1.274  2.7122  1.0539  0.8480
 7595SOL     OW34420   3.706   4.064   4.943 -0.7951  0.0612 -0.2825
 7595SOL    HW134421   3.787   4.021   4.973 -1.8984 -2.3101 -0.6884
 7595SOL    HW234422   3.720   4.153   4.975  3.1953 -1.1859  1.5141
 7596SOL     OW34423   4.322   3.480   4.217 -0.2976  1.0157 -0.2080
 7596SOL    HW134424   4.349   3.534   4.291  1.8868  0.6679 -0.7626
 7596SOL    HW234425   4.245   3.532   4.193  0.4033  1.8561 -0.6414
 7597SOL     OW34426   0.626   0.151   7.953  0.2636 -0.4326  1.0116
 7597SOL    HW134427   0.640   0.234   7.907 -0.4150 -0.4917  0.7100
 7597SOL    HW234428   0.690   0.094   7.910 -0.7988  0.0413 -1.2306
 7598SOL     OW34429   1.205   0.738   3.683 -0.6927 -0.2869  0.4326
 7598SOL    HW134430   1.217   0.643   3.681 -1.2948 -0.3755  1.4704
 7598SOL    HW234431   1.298   0.764   3.683 -0.2831 -1.7356  0.9533
 7599SOL     OW34432   1.940   4.047   7.325  0.0167  0.3314  0.3799
 7599SOL    HW134433   2.024   4.005   7.310 -0.2710 -0.2229  0.3360
 7599SOL    HW234434   1.946   4.061   7.420  1.2313  0.6427  0.2633
 7600SOL     OW34435   2.702   1.252   8.424 -0.1134 -0.3363  0.1971
 7600SOL    HW134436   2.671   1.278   8.510 -2.1813 -0.2236 -0.5597
 7600SOL    HW234437   2.752   1.172   8.443 -0.8761 -0.5024  1.4393
 7601SOL     OW34438   4.076   4.484   4.312 -0.0874  0.5127 -0.2969
 7601SOL    HW134439   4.159   4.517   4.346  0.5419 -2.6265  1.1926
 7601SOL    HW234440   4.081   4.395   4.348  3.5077  0.4721 -0.9011
 7602SOL     OW34441   0.318   4.270   9.316 -0.2765 -0.7568  0.7016
 7602SOL    HW134442   0.341   4.204   9.382  0.7783  1.2255  2.3337
 7602SOL    HW234443   0.242   4.243   9.265 -0.7967 -1.3027  1.7669
 7603SOL     OW34444   1.335   0.959   6.437 -0.0954  0.3466  0.3897
 7603SOL    HW134445   1.297   0.940   6.351  0.9323  0.3390 -0.0661
 7603SOL    HW234446   1.271   0.916   6.493  0.6812 -1.5298 -0.1481
 7604SOL     OW34447   0.558   3.285  10.207 -0.6818  0.1126 -0.5816
 7604SOL    HW134448   0.466   3.263  10.201 -0.6120 -0.2218 -0.4458
 7604SOL    HW234449   0.605   3.202  10.214 -2.0137 -0.5346  0.5103
 7605SOL     OW34450   4.183   3.973   3.806  0.0805 -0.1732 -1.0652
 7605SOL    HW134451   4.257   3.941   3.858  0.2284  1.4722 -0.2656
 7605SOL    HW234452   4.211   4.062   3.786 -1.5005  0.2264 -1.5188
 7606SOL     OW34453   0.821   3.154   9.033 -0.4158 -0.8838  0.1597
 7606SOL    HW134454   0.734   3.115   9.043 -0.5662 -1.2797 -2.6758
 7606SOL    HW234455   0.865   3.102   9.100  0.2762 -1.3557 -0.6512
 7607SOL     OW34456   0.328   1.387   8.436 -0.1498  0.3202 -0.3839
 7607SOL    HW134457   0.307   1.474   8.471  0.2041  0.5819 -0.8188
 7607SOL    HW234458   0.332   1.344   8.521  1.4568  0.7751 -0.2364
 7608SOL     OW34459   3.618   3.451  12.082 -0.5423  0.0541  0.0727
 7608SOL    HW134460   3.664   3.528  12.114  2.0677 -0.8371 -1.5094
 7608SOL    HW234461   3.678   3.391  12.126 -2.8913  0.2393  3.5625
 7609SOL     OW34462   1.293   1.161  10.958 -0.4377 -0.4547 -0.3158
 7609SOL    HW134463   1.241   1.207  11.023  0.9282  0.0890  0.3914
 7609SOL    HW234464   1.338   1.236  10.920  1.6090 -1.3005  0.4245
 7610SOL     OW34465   2.439   2.034  17.473 -0.2609 -0.1419  0.5448
 7610SOL    HW134466   2.429   2.126  17.495 -1.1014  0.1311 -0.9976
 7610SOL    HW234467   2.389   2.034  17.391 -0.1353 -0.5507  0.4687
 7611SOL     OW34468   2.289   0.859   8.452 -0.4242  0.4239 -0.4354
 7611SOL    HW134469   2.355   0.793   8.472 -1.3014 -0.2295  0.2862
 7611SOL    HW234470   2.292   0.906   8.536  1.1176  0.2530 -0.3938
 7612SOL     OW34471   4.716   1.437  16.149  0.2110  0.1605  0.0656
 7612SOL    HW134472   4.730   1.364  16.209  0.1128  0.5756  0.5964
 7612SOL    HW234473   4.641   1.410  16.097 -0.8455  0.6620  1.3360
 7613SOL     OW34474   0.251   2.549   4.750 -0.0496 -0.2049 -0.0067
 7613SOL    HW134475   0.325   2.526   4.806  0.4702  0.6442 -0.3353
 7613SOL    HW234476   0.223   2.637   4.777 -0.7039 -0.6157  0.6249
 7614SOL     OW34477   3.657   4.297   9.699 -0.1690  0.5141  0.0109
 7614SOL    HW134478   3.637   4.204   9.689 -1.7661  0.5178  3.2904
 7614SOL    HW234479   3.574   4.327   9.662  0.0167  0.7862 -0.1845
 7615SOL     OW34480   0.060   1.537  16.971 -0.2387 -0.0540 -0.7535
 7615SOL    HW134481   0.017   1.491  16.898  2.5517 -2.0768 -1.1010
 7615SOL    HW234482   4.719   1.560  17.023 -0.9224 -0.1184 -1.7205
 7616SOL     OW34483   4.188   2.290   1.680 -0.2496 -0.1470 -0.2800
 7616SOL    HW134484   4.250   2.232   1.638  1.8086  2.7040 -1.1682
 7616SOL    HW234485   4.148   2.231   1.744 -0.7266  0.3663 -0.0991
 7617SOL     OW34486   0.523   2.722   8.961 -0.3003 -0.4578  0.1114
 7617SOL    HW134487   0.439   2.763   8.940 -0.4636  0.2138  2.0986
 7617SOL    HW234488   0.519   2.637   8.917  1.1241  0.4248 -1.7106
 7618SOL     OW34489   1.248   0.027   0.693  0.1335 -0.3387  0.4445
 7618SOL    HW134490   1.302   4.731   0.765 -0.5274 -1.3877  0.4765
 7618SOL    HW234491   1.308   0.058   0.624 -0.4615  1.5194  0.7447
 7619SOL     OW34492   3.747   0.220  11.779 -0.7483  0.3792 -0.5412
 7619SOL    HW134493   3.835   0.256  11.787  0.5698 -2.2616 -3.2397
 7619SOL    HW234494   3.709   0.299  11.739  1.3678  1.0830 -1.1675
 7620SOL     OW34495   1.520   0.209   8.397  0.3583 -0.1528 -0.1188
 7620SOL    HW134496   1.590   0.264   8.431 -2.0213  1.9057  1.4809
 7620SOL    HW234497   1.470   0.192   8.478  1.6650  2.6402  1.2650
 7621SOL     OW34498   2.795   4.178   3.342  0.4403 -0.0055  0.6093
 7621SOL    HW134499   2.765   4.188   3.433 -1.8097  2.3121 -0.4141
 7621SOL    HW234500   2.846   4.097   3.332  2.7869  1.9389 -2.9847
 7622SOL     OW34501   2.250   0.915   4.204 -0.3239 -0.0996  0.3720
 7622SOL    HW134502   2.341   0.892   4.226  1.0363  2.6084 -2.3308
 7622SOL    HW234503   2.244   0.875   4.118  0.8568 -1.2070  0.8044
 7623SOL     OW34504   3.459   1.758   5.071  0.5565 -0.1306 -0.1923
 7623SOL    HW134505   3.470   1.708   4.990 -0.3469 -0.2465 -0.2385
 7623SOL    HW234506   3.502   1.704   5.138 -0.1518 -0.7882 -0.2681
 7624SOL     OW34507   4.237   2.378  13.692 -0.5587 -0.1161  0.4864
 7624SOL    HW134508   4.158   2.426  13.717  0.2697  1.3922  0.1977
 7624SOL    HW234509   4.238   2.397  13.599 -0.5338  1.1268  0.7412
 7625SOL     OW34510   2.275   1.119   1.562 -0.1235  0.0968  0.3665
 7625SOL    HW134511   2.349   1.113   1.622 -1.1959 -2.6303  1.4410
 7625SOL    HW234512   2.296   1.198   1.513 -0.8383 -0.6991 -1.2156
 7626SOL     OW34513   2.175   0.071   7.645 -0.1346  0.2200  0.2189
 7626SOL    HW134514   2.217   0.046   7.727 -2.5210  0.1101  1.4014
 7626SOL    HW234515   2.086   0.037   7.652  0.0503  0.4329  3.4683
 7627SOL     OW34516   0.721   1.624  17.259 -1.0180 -0.1622 -0.1038
 7627SOL    HW134517   0.758   1.589  17.178  0.4643 -1.0606  0.9783
 7627SOL    HW234518   0.785   1.581  17.315 -0.5249 -3.1588 -2.9454
 7628SOL     OW34519   2.211   3.837   3.015  0.1764  0.4180 -0.2856
 7628SOL    HW134520   2.304   3.819   3.020  0.0728 -0.8901 -3.0865
 7628SOL    HW234521   2.191   3.783   2.938 -1.7753  2.6610 -1.3793
 7629SOL     OW34522   2.243   3.024   7.443 -0.9877  0.4771 -0.2537
 7629SOL    HW134523   2.240   3.119   7.456  1.5377  0.2349  2.3077
 7629SOL    HW234524   2.270   3.028   7.352  1.8752 -2.1736  0.4709
 7630SOL     OW34525   2.067   2.414   6.918 -0.0069 -0.2633 -0.0638
 7630SOL    HW134526   2.106   2.377   6.997 -2.3387 -1.3795  0.5822
 7630SOL    HW234527   2.035   2.501   6.942  0.1739  0.0288 -0.8793
 7631SOL     OW34528   2.396   0.243  14.408 -0.0681  0.5844 -0.0698
 7631SOL    HW134529   2.374   0.221  14.317  0.4312 -1.2414  0.2512
 7631SOL    HW234530   2.346   0.174  14.452 -0.7200  0.8438 -0.3882
 7632SOL     OW34531   3.877   4.653   2.836  0.5410  0.0586 -0.6024
 7632SOL    HW134532   3.859   4.621   2.925  3.2233 -0.2364 -0.1833
 7632SOL    HW234533   3.910   0.006   2.855 -1.7397  1.1757 -1.8952
 7633SOL     OW34534   1.240   1.357   6.273 -0.2956 -0.2436  0.6719
 7633SOL    HW134535   1.227   1.448   6.298  0.5342 -0.1300  0.6815
 7633SOL    HW234536   1.274   1.363   6.184 -1.4402  0.5254  0.2961
 7634SOL     OW34537   1.180   3.772   3.845  0.4022  0.6416  0.2872
 7634SOL    HW134538   1.108   3.735   3.897  0.0058 -1.7684 -1.9681
 7634SOL    HW234539   1.155   3.718   3.770  0.6760 -1.1115  1.4404
 7635SOL     OW34540   4.397   2.877  12.598  0.2547  0.1022 -0.3057
 7635SOL    HW134541   4.364   2.791  12.573 -2.8774  1.3092 -0.2435
 7635SOL    HW234542   4.490   2.857  12.584  0.7617  2.4089 -0.2258
 7636SOL     OW34543   2.264   1.445  14.947 -0.3631 -0.3543  0.3721
 7636SOL    HW134544   2.313   1.483  15.021 -0.1571  0.8425 -0.3818
 7636SOL    HW234545   2.301   1.489  14.871 -1.0608  0.6729  0.6323
 7637SOL     OW34546   3.774   3.419   7.659 -0.1417  0.6881 -0.0200
 7637SOL    HW134547   3.760   3.466   7.742  1.3018  1.2543 -0.1095
 7637SOL    HW234548   3.780   3.330   7.695  2.0118  0.8791  0.0994
 7638SOL     OW34549   2.600   4.415   0.453 -0.0170  0.3804  0.0803
 7638SOL    HW134550   2.595   4.364   0.373  0.3105  0.5014 -0.0181
 7638SOL    HW234551   2.511   4.447   0.469  0.1008  0.9326 -0.3441
 7639SOL     OW34552   1.816   0.380   1.791 -0.1005 -0.1247 -0.0351
 7639SOL    HW134553   1.788   0.294   1.758 -1.2795  0.5025 -0.6419
 7639SOL    HW234554   1.886   0.399   1.728  1.3569 -0.4327  1.4768
 7640SOL     OW34555   0.542   3.543  10.427  0.0241 -0.6515 -0.3383
 7640SOL    HW134556   0.524   3.631  10.396 -1.9870 -0.3717  1.6673
 7640SOL    HW234557   0.453   3.509  10.417 -0.1773 -0.6310  1.3596
 7641SOL     OW34558   0.389   3.235  11.534  0.4968  0.7366 -0.2435
 7641SOL    HW134559   0.427   3.217  11.449 -0.0587 -3.6888  0.4410
 7641SOL    HW234560   0.394   3.146  11.568  0.3746  0.0479 -2.0491
 7642SOL     OW34561   2.176   2.947   2.082  0.1423  0.2713  0.1375
 7642SOL    HW134562   2.194   3.004   2.007  0.4109 -0.7000 -0.5473
 7642SOL    HW234563   2.089   2.979   2.107 -0.1909 -0.1156 -0.5239
 7643SOL     OW34564   1.924   1.041  12.702 -0.1007  0.3246  0.0734
 7643SOL    HW134565   1.959   0.953  12.718 -0.7543  0.2923  1.3068
 7643SOL    HW234566   1.838   1.038  12.659  0.0104  2.1683 -0.2690
 7644SOL     OW34567   0.726   1.453  12.394  0.5293  0.0748 -0.3067
 7644SOL    HW134568   0.798   1.478  12.336 -0.0818 -1.8131 -1.8368
 7644SOL    HW234569   0.756   1.372  12.434  0.5111 -0.0815 -0.6142
 7645SOL     OW34570   4.474   2.511  15.950 -0.8085  0.1774  0.3223
 7645SOL    HW134571   4.390   2.476  15.980 -0.0782 -2.3814 -0.6633
 7645SOL    HW234572   4.456   2.595  15.908  3.4993  0.9679  0.0857
 7646SOL     OW34573   3.063   0.129  16.545  0.7898  0.3578  0.5346
 7646SOL    HW134574   3.137   0.080  16.510 -1.1176 -1.2470 -1.2369
 7646SOL    HW234575   2.991   0.069  16.525  1.3419  0.5246 -1.8399
 7647SOL     OW34576   4.309   2.680   8.775  0.1416  0.3735  0.3872
 7647SOL    HW134577   4.401   2.652   8.778  0.7312  2.1314 -1.5970
 7647SOL    HW234578   4.289   2.670   8.868 -2.8099 -0.5258 -0.3612
 7648SOL     OW34579   1.272   1.892   1.114  0.5630 -0.1701 -0.1457
 7648SOL    HW134580   1.205   1.842   1.067 -0.1487 -0.0461  0.7533
 7648SOL    HW234581   1.342   1.874   1.051  0.2112  0.4955 -0.7367
 7649SOL     OW34582   0.764   2.343  10.403 -0.1718 -0.4657  0.7028
 7649SOL    HW134583   0.851   2.328  10.439  0.1001 -1.3815 -0.3453
 7649SOL    HW234584   0.719   2.384  10.476  0.2532  0.6081  0.3631
 7650SOL     OW34585   2.111   2.901   8.335  0.2494  0.2128  0.2400
 7650SOL    HW134586   2.186   2.959   8.322  2.3111 -2.4933 -0.2040
 7650SOL    HW234587   2.157   2.820   8.359  1.1018  0.9692  1.1821
 7651SOL     OW34588   0.271   0.507   0.571  0.1235  0.5417 -0.2855
 7651SOL    HW134589   0.204   0.452   0.611  1.2143 -1.8614 -1.7808
 7651SOL    HW234590   0.231   0.530   0.487 -3.3023 -1.2854  0.8624
 7652SOL     OW34591   3.064   4.507  16.374 -0.4831  0.4468 -0.1578
 7652SOL    HW134592   2.979   4.520  16.333  0.1279 -1.9253 -2.2633
 7652SOL    HW234593   3.047   4.518  16.467  1.7058 -0.4593  0.3676
 7653SOL     OW34594   3.432   0.633   9.076  0.2486 -0.0557  0.4016
 7653SOL    HW134595   3.482   0.684   9.140  0.6056  3.8933 -2.9644
 7653SOL    HW234596   3.509   0.612   9.023  0.4377 -1.5364  1.2848
 7654SOL     OW34597   0.232   0.258   4.785  0.1934  0.2007 -0.4774
 7654SOL    HW134598   0.191   0.182   4.745  0.2286 -0.4335  0.6757
 7654SOL    HW234599   0.169   0.324   4.757  0.1323 -0.1803 -1.2244
 7655SOL     OW34600   2.404   0.598   1.376  0.3246  0.4754 -0.2117
 7655SOL    HW134601   2.339   0.665   1.358 -0.1364 -0.3403 -1.5198
 7655SOL    HW234602   2.443   0.620   1.461  0.9321 -0.1412 -0.3248
 7656SOL     OW34603   0.483   3.739   2.200 -0.0756  0.5569 -0.0685
 7656SOL    HW134604   0.489   3.650   2.235  0.6238  0.2703 -0.9279
 7656SOL    HW234605   0.564   3.743   2.149  0.5613 -1.0694  0.7917
 7657SOL     OW34606   2.296   0.403   1.587  0.1303  0.1021 -0.7214
 7657SOL    HW134607   2.374   0.439   1.546 -0.3678 -0.4283 -2.1598
 7657SOL    HW234608   2.321   0.398   1.679  1.4534  0.6820 -1.0504
 7658SOL     OW34609   3.327   3.786   9.200  0.1246 -0.4795  0.0010
 7658SOL    HW134610   3.375   3.735   9.134  0.6814 -0.5400  0.4592
 7658SOL    HW234611   3.243   3.742   9.193 -0.1972  0.4821 -2.4433
 7659SOL     OW34612   2.891   0.365   2.136  0.5498  0.1370 -0.6839
 7659SOL    HW134613   2.873   0.280   2.097  0.4298 -0.6771  1.1339
 7659SOL    HW234614   2.985   0.349   2.127  0.7428  0.2579  1.0724
 7660SOL     OW34615   3.851   1.334   2.860  0.2324  0.5382  0.5121
 7660SOL    HW134616   3.819   1.266   2.920  1.4841  0.0168  0.5956
 7660SOL    HW234617   3.791   1.330   2.786  1.3500 -0.3136 -0.3386
 7661SOL     OW34618   2.302   2.661  17.095 -0.1995 -0.3587  0.3309
 7661SOL    HW134619   2.338   2.732  17.042 -0.2716  0.2029  1.0435
 7661SOL    HW234620   2.236   2.625  17.036  1.1554 -2.3359  0.0212
 7662SOL     OW34621   3.790   4.091   2.523  0.1356  0.0636 -0.2591
 7662SOL    HW134622   3.723   4.034   2.484  0.3536  0.4915 -1.2430
 7662SOL    HW234623   3.858   4.024   2.528 -0.7234 -0.7944  0.0681
 7663SOL     OW34624   1.847   1.609   5.877 -0.4538 -0.1050 -0.1509
 7663SOL    HW134625   1.886   1.530   5.916 -0.7547  0.4731  1.3117
 7663SOL    HW234626   1.761   1.589   5.912 -0.4710  0.2201 -0.0089
 7664SOL     OW34627   2.757   1.001   6.169 -0.5447  0.4298 -0.0517
 7664SOL    HW134628   2.685   1.042   6.216  0.6282  3.5321 -0.9725
 7664SOL    HW234629   2.833   1.044   6.208 -0.2734 -0.8231  0.7895
 7665SOL     OW34630   1.993   3.459  14.982 -0.4424 -0.7648 -0.5200
 7665SOL    HW134631   2.063   3.524  14.984 -2.5046  1.5153 -1.7282
 7665SOL    HW234632   1.939   3.476  15.059 -0.4456  0.7414 -0.8525
 7666SOL     OW34633   1.955   2.542   6.314  0.2768  0.0804 -0.3438
 7666SOL    HW134634   1.883   2.605   6.319  0.3190 -0.0376  1.5359
 7666SOL    HW234635   2.009   2.569   6.388  1.6437 -0.8436 -0.9996
 7667SOL     OW34636   3.174   0.998   4.159 -0.0765  0.1045 -0.1815
 7667SOL    HW134637   3.228   1.013   4.238  2.0965  1.5289 -1.9301
 7667SOL    HW234638   3.145   0.907   4.167  2.0930 -0.7204 -1.7376
 7668SOL     OW34639   2.270   2.500   6.607  0.1874 -0.3461  0.1525
 7668SOL    HW134640   2.208   2.554   6.558 -0.4502 -0.9252  0.3103
 7668SOL    HW234641   2.227   2.416   6.592 -1.3511  0.4775 -0.0973
 7669SOL     OW34642   3.725   0.354   9.496 -0.3113 -0.6312  0.3302
 7669SOL    HW134643   3.795   0.403   9.452  1.8758 -0.8929  3.5250
 7669SOL    HW234644   3.724   0.265   9.462  1.9770 -0.3329 -0.5177
 7670SOL     OW34645   0.748   0.790   4.834 -0.1984 -0.0648  0.3794
 7670SOL    HW134646   0.842   0.799   4.817 -0.4069 -0.0717 -0.7842
 7670SOL    HW234647   0.724   0.809   4.743  1.4663  0.9092  0.1369
 7671SOL     OW34648   0.674   3.497   4.267 -0.2794  0.2604 -0.2765
 7671SOL    HW134649   0.757   3.512   4.223  0.0254 -1.3464 -0.2604
 7671SOL    HW234650   0.642   3.413   4.232 -0.6314 -0.4437  1.7419
 7672SOL     OW34651   1.984   2.239   2.264  0.1266 -0.6029 -0.1581
 7672SOL    HW134652   1.997   2.303   2.334 -0.8276  0.7794 -1.2422
 7672SOL    HW234653   2.068   2.228   2.221  1.3390  1.8238  1.5708
 7673SOL     OW34654   0.509   0.043   6.573  0.1361  0.4636  0.5953
 7673SOL    HW134655   0.515   0.046   6.478  0.7970  0.5559  0.6393
 7673SOL    HW234656   0.569   0.115   6.594 -1.3647  1.8352  0.1675
 7674SOL     OW34657   1.419   0.354   7.150  0.5164 -0.5429  0.0614
 7674SOL    HW134658   1.509   0.324   7.138  0.1824 -1.2426 -0.6367
 7674SOL    HW234659   1.371   0.277   7.179  2.4002 -1.6899  0.1398
 7675SOL     OW34660   4.135   2.145   3.663 -0.3276 -0.0559  0.3481
 7675SOL    HW134661   4.214   2.093   3.651  1.4115  3.0295 -1.4112
 7675SOL    HW234662   4.132   2.199   3.585  0.7859 -0.2393  0.1828
 7676SOL     OW34663   4.664   3.056   8.062  0.0809  0.1718 -0.3683
 7676SOL    HW134664   4.607   3.102   8.124  1.9876 -0.5694  1.9512
 7676SOL    HW234665   0.014   3.082   8.095 -0.6185  0.5388  1.1919
 7677SOL     OW34666   3.617   2.346  11.585 -0.3925  0.3622  0.3921
 7677SOL    HW134667   3.633   2.440  11.594 -3.7842  0.8186  1.7529
 7677SOL    HW234668   3.543   2.337  11.525 -0.5137  1.0747  0.4348
 7678SOL     OW34669   4.191   3.085   6.627 -0.2478  0.5480  0.7246
 7678SOL    HW134670   4.207   3.018   6.693 -4.3896 -1.1877 -0.0996
 7678SOL    HW234671   4.125   3.144   6.663 -0.3508  1.0278 -0.2393
 7679SOL     OW34672   4.586   3.243  15.227 -0.2395 -1.0738  0.2344
 7679SOL    HW134673   4.561   3.269  15.316 -0.2216 -1.4872  0.3626
 7679SOL    HW234674   4.681   3.235  15.235 -0.4390 -0.6747  3.0171
 7680SOL     OW34675   1.521   3.927   0.801  0.0216 -0.2314 -0.0216
 7680SOL    HW134676   1.439   3.915   0.848 -0.9609 -0.6019 -1.8504
 7680SOL    HW234677   1.567   3.986   0.862 -0.2240 -1.0651  0.9662
 7681SOL     OW34678   3.492   0.368  11.592  0.0722 -0.2913 -0.2673
 7681SOL    HW134679   3.497   0.320  11.510 -0.5801 -1.3559  0.3184
 7681SOL    HW234680   3.575   0.415  11.596  0.4877 -1.1025  0.6489
 7682SOL     OW34681   4.062   3.184   8.786 -0.0995  0.0942  0.2825
 7682SOL    HW134682   4.094   3.098   8.812  1.6607  0.6335 -0.1234
 7682SOL    HW234683   4.141   3.238   8.777 -0.9844  1.2306 -0.5946
 7683SOL     OW34684   3.191   2.877   6.512 -0.4281 -0.1848  0.5172
 7683SOL    HW134685   3.171   2.789   6.480 -1.9708  0.2843  0.1984
 7683SOL    HW234686   3.276   2.864   6.555  0.2914 -1.6364 -1.3542
 7684SOL     OW34687   4.148   1.341   2.520  0.1916 -0.2711  0.2555
 7684SOL    HW134688   4.184   1.311   2.437 -1.0551  0.2813 -0.4972
 7684SOL    HW234689   4.072   1.396   2.498 -2.3057 -2.7623  2.5608
 7685SOL     OW34690   2.089   1.139   2.233 -0.0006 -1.0241 -0.2408
 7685SOL    HW134691   2.018   1.113   2.291  1.7290 -2.0014  1.4718
 7685SOL    HW234692   2.130   1.053   2.222  1.4397 -0.1831 -1.5518
 7686SOL     OW34693   0.210   4.385   8.816 -0.4430 -0.2200  0.7699
 7686SOL    HW134694   0.201   4.292   8.793  2.4928  0.1140 -1.7773
 7686SOL    HW234695   0.172   4.431   8.741 -0.0582  1.3165  1.5342
 7687SOL     OW34696   3.127   3.508   5.955  0.4980  0.0565 -0.0568
 7687SOL    HW134697   3.040   3.546   5.961  1.5533  2.1172  2.7525
 7687SOL    HW234698   3.126   3.447   6.029 -1.1480  0.0283 -0.1065
 7688SOL     OW34699   3.782   1.573  11.638  0.4228  0.7203  0.0002
 7688SOL    HW134700   3.786   1.503  11.703  2.0239  0.7901 -0.0146
 7688SOL    HW234701   3.873   1.603  11.636  0.2872  1.1620  0.4883
 7689SOL     OW34702   2.791   0.364  15.146 -0.0901 -0.1560 -0.5052
 7689SOL    HW134703   2.857   0.331  15.085 -0.5183  2.6742 -2.4580
 7689SOL    HW234704   2.703   0.337  15.119 -1.1347  3.8384 -1.0447
 7690SOL     OW34705   4.055   2.703   6.042  0.2211  0.1124 -0.3276
 7690SOL    HW134706   3.989   2.644   6.081  1.1629  0.3722  1.6558
 7690SOL    HW234707   3.996   2.747   5.981 -0.8258  0.4151  0.8767
 7691SOL     OW34708   2.920   1.970   2.311  0.0733  0.1935 -0.0775
 7691SOL    HW134709   2.923   1.875   2.319  2.5992  0.0975 -2.1351
 7691SOL    HW234710   2.831   1.970   2.345  0.1413 -0.8158  0.0888
 7692SOL     OW34711   2.284   1.439  16.376  0.0324 -0.3312  0.2970
 7692SOL    HW134712   2.259   1.357  16.332 -1.3846 -0.3044  1.0651
 7692SOL    HW234713   2.198   1.474  16.399 -0.5256 -0.0699 -2.1087
 7693SOL     OW34714   2.130   4.336  14.912 -0.0507  0.7391 -0.1638
 7693SOL    HW134715   2.174   4.301  14.835 -1.1046  1.2070 -0.9858
 7693SOL    HW234716   2.198   4.324  14.978  0.6162 -0.0214 -1.0088
 7694SOL     OW34717   3.347   3.157   2.547 -0.2800  0.3545  0.0834
 7694SOL    HW134718   3.272   3.143   2.606 -0.8513 -0.8070 -0.9320
 7694SOL    HW234719   3.394   3.074   2.549 -0.0816  0.4648  0.0244
 7695SOL     OW34720   3.554   4.616  10.140  0.0020 -0.2566 -0.2265
 7695SOL    HW134721   3.598   4.576  10.065 -0.2745 -0.0083 -0.5278
 7695SOL    HW234722   3.578   4.707  10.122  1.1111 -0.5075  0.0049
 7696SOL     OW34723   0.306   1.560  17.407 -0.1879  0.2728 -0.0817
 7696SOL    HW134724   0.317   1.622  17.480 -0.1770 -0.0929  0.2248
 7696SOL    HW234725   0.330   1.473  17.438  1.4912  0.8688  0.2870
 7697SOL     OW34726   1.553   2.633   4.800 -0.2693 -0.9808  0.8862
 7697SOL    HW134727   1.590   2.722   4.800 -2.9267  0.1288  0.9891
 7697SOL    HW234728   1.486   2.649   4.733 -0.5773 -0.3865  1.3289
 7698SOL     OW34729   2.201   1.984   4.082  0.2203 -0.0246  0.8280
 7698SOL    HW134730   2.265   1.993   4.012  0.7224 -1.2787  1.1290
 7698SOL    HW234731   2.138   2.052   4.056  0.5043 -0.3173 -0.5866
 7699SOL     OW34732   4.154   3.349   9.365 -0.4297 -0.4020 -0.0303
 7699SOL    HW134733   4.066   3.327   9.334 -0.6711 -0.4713  0.7029
 7699SOL    HW234734   4.206   3.335   9.286 -1.9302 -0.4205 -1.0178
 7700SOL     OW34735   1.470   0.700   3.948  0.2813  0.5233 -0.6843
 7700SOL    HW134736   1.528   0.651   4.007  1.7264  1.7196 -1.0991
 7700SOL    HW234737   1.480   0.791   3.976  1.4090  0.2974 -0.3442
 7701SOL     OW34738   4.309   2.911  16.422 -0.0419 -0.1681 -0.0595
 7701SOL    HW134739   4.300   2.891  16.329 -0.4165  0.2216 -0.1081
 7701SOL    HW234740   4.267   2.997  16.430  2.8368  1.3976 -1.7374
 7702SOL     OW34741   2.423   2.823  15.330  0.3264  0.1737  0.2260
 7702SOL    HW134742   2.443   2.744  15.381 -0.7199 -1.2685 -1.6013
 7702SOL    HW234743   2.501   2.839  15.278 -0.3836  1.5497 -0.3932
 7703SOL     OW34744   0.029   4.730   4.000 -0.6514  0.2470 -0.1250
 7703SOL    HW134745   0.024   0.028   3.911  0.3894  0.1402 -0.2222
 7703SOL    HW234746   4.695   0.051   4.035  1.2088  2.6576 -0.3319
 7704SOL     OW34747   1.143   0.031   3.949  0.3603  0.7970  0.2556
 7704SOL    HW134748   1.074   0.002   3.890  0.3428 -0.2117  0.7601
 7704SOL    HW234749   1.144   4.698   4.017  2.1121 -1.0203 -1.6000
 7705SOL     OW34750   2.209   0.885   5.956 -0.1109  0.3684  0.2583
 7705SOL    HW134751   2.121   0.862   5.925  0.3199 -0.0678 -0.6249
 7705SOL    HW234752   2.259   0.806   5.933 -1.6665 -1.0922  1.8176
 7706SOL     OW34753   0.756   4.274   7.629  0.2216 -0.4219 -0.5038
 7706SOL    HW134754   0.734   4.271   7.723  0.7466 -0.4092 -0.3836
 7706SOL    HW234755   0.837   4.325   7.626  0.0226  0.1661  3.3878
 7707SOL     OW34756   3.829   0.554  14.023 -0.1803 -0.3687 -0.8057
 7707SOL    HW134757   3.906   0.581  13.973  0.6839 -0.7040  0.3186
 7707SOL    HW234758   3.866   0.487  14.082  1.5804 -0.3705 -1.9247
 7708SOL     OW34759   1.519   3.294  10.583 -0.6619 -0.4055  0.0630
 7708SOL    HW134760   1.500   3.387  10.580  0.7063 -0.1069  0.9752
 7708SOL    HW234761   1.609   3.286  10.613 -0.7560  1.4312  0.8365
 7709SOL     OW34762   2.657   3.513   4.825  0.4630  0.3039  0.1706
 7709SOL    HW134763   2.718   3.463   4.770  1.7332  0.4250  1.4793
 7709SOL    HW234764   2.593   3.536   4.759 -0.0002 -1.0703  0.1418
 7710SOL     OW34765   1.207   2.453   1.218  0.7115 -0.5927 -0.3492
 7710SOL    HW134766   1.236   2.532   1.264  0.6089 -0.7717  0.0258
 7710SOL    HW234767   1.187   2.479   1.128 -0.3732 -1.2403 -0.2961
 7711SOL     OW34768   2.214   2.952  15.472 -0.1956  0.2699  0.5049
 7711SOL    HW134769   2.272   2.900  15.415  0.0308 -0.0236  1.0039
 7711SOL    HW234770   2.226   3.043  15.444 -1.4274 -0.1860 -1.5782
 7712SOL     OW34771   2.018   0.379  17.738 -0.3534 -0.3649 -0.2675
 7712SOL    HW134772   2.105   0.387  17.699  0.1893  1.4948  1.3277
 7712SOL    HW234773   2.021   0.284  17.740 -1.4120 -0.3634  1.0147
 7713SOL     OW34774   2.283   3.359  15.060 -0.7701  0.3247  0.3116
 7713SOL    HW134775   2.324   3.308  14.989  1.1842  0.5110  1.3256
 7713SOL    HW234776   2.341   3.435  15.059 -0.9287  0.4339 -0.6260
 7714SOL     OW34777   4.603   4.347   0.527 -0.0620  0.0148 -0.2622
 7714SOL    HW134778   4.678   4.404   0.512  0.1598 -0.1297  0.2556
 7714SOL    HW234779   4.639   4.296   0.600 -1.9394  2.2189  2.2258
 7715SOL     OW34780   2.321   2.640   6.839  0.0645 -0.2572 -0.1064
 7715SOL    HW134781   2.347   2.580   6.909  1.9543  1.8046  0.9369
 7715SOL    HW234782   2.287   2.568   6.785  1.1735 -1.8846  1.3691
 7716SOL     OW34783   0.373   0.878   4.367  0.3299 -0.2497  0.1785
 7716SOL    HW134784   0.335   0.816   4.305 -1.2393  0.0628  0.8298
 7716SOL    HW234785   0.397   0.818   4.438  1.4605  1.0538  0.9012
 7717SOL     OW34786   0.820   4.256   3.482 -0.0877 -0.7591  0.0251
 7717SOL    HW134787   0.736   4.301   3.474  0.6124  0.6279  0.4817
 7717SOL    HW234788   0.830   4.217   3.395  0.4028 -2.7199  0.9470
 7718SOL     OW34789   3.513   4.269   7.093  0.0729  0.0961 -0.3651
 7718SOL    HW134790   3.522   4.210   7.018  1.6722  0.0942 -0.1741
 7718SOL    HW234791   3.557   4.347   7.057  0.7203  0.5849  1.4885
 7719SOL     OW34792   3.639   0.076   1.195 -0.0366  0.3364 -0.6210
 7719SOL    HW134793   3.611   0.111   1.110  0.5599  1.8669 -0.1873
 7719SOL    HW234794   3.689   0.153   1.222 -1.3705  0.2733  1.9701
 7720SOL     OW34795   4.527   2.087   4.680  0.2652  0.2489  0.3408
 7720SOL    HW134796   4.587   2.015   4.659 -1.4266 -0.7129 -1.1278
 7720SOL    HW234797   4.531   2.143   4.602 -0.0267 -1.7842 -1.1461
 7721SOL     OW34798   1.287   2.987  10.205  0.1651  0.8213 -0.6628
 7721SOL    HW134799   1.363   2.983  10.263 -0.0659  1.5111 -0.3094
 7721SOL    HW234800   1.262   2.894  10.202  0.6172  0.6517  0.5639
 7722SOL     OW34801   4.336   3.727   2.146 -0.2059  0.1146 -0.0049
 7722SOL    HW134802   4.271   3.796   2.161  0.3137  0.4322  0.7719
 7722SOL    HW234803   4.387   3.774   2.079 -0.3685 -1.0082 -0.9206
 7723SOL     OW34804   2.945   2.783   6.036  0.0611 -0.1351 -0.7051
 7723SOL    HW134805   2.953   2.843   6.109 -0.1418 -0.1988 -0.6309
 7723SOL    HW234806   2.927   2.699   6.078 -1.1064  0.5941  0.2256
 7724SOL     OW34807   0.661   4.373   9.518 -0.9984  0.4949 -0.5850
 7724SOL    HW134808   0.700   4.287   9.503  1.9757  1.8526 -0.6564
 7724SOL    HW234809   0.574   4.358   9.556 -1.5471  0.3168 -1.9063
 7725SOL     OW34810   3.820   4.663  16.949  0.1028 -0.2200 -0.0607
 7725SOL    HW134811   3.787   4.694  16.865  1.0623 -0.7924 -0.6385
 7725SOL    HW234812   3.898   4.716  16.963 -0.4365  0.5725 -0.0378
 7726SOL     OW34813   0.877   3.329  10.046 -0.4101  0.0704 -0.3503
 7726SOL    HW134814   0.908   3.302  10.133  2.0759 -0.1125 -1.3220
 7726SOL    HW234815   0.812   3.396  10.071  1.7840  2.1728 -0.2931
 7727SOL     OW34816   1.729   4.352   1.103 -0.5105  0.4432  0.3418
 7727SOL    HW134817   1.728   4.418   1.172  0.2163  0.1771  0.6011
 7727SOL    HW234818   1.713   4.272   1.153 -1.3600  1.7670  2.1617
 7728SOL     OW34819   4.565   4.160   6.565  0.2985 -0.3149 -0.5393
 7728SOL    HW134820   4.626   4.186   6.635 -1.1360  0.1641  0.5268
 7728SOL    HW234821   4.480   4.171   6.607  0.4153 -1.6376  0.0459
 7729SOL     OW34822   1.138   2.241   3.978 -0.3804  0.0222  0.0478
 7729SOL    HW134823   1.109   2.276   3.894 -1.0964  1.5304  0.9012
 7729SOL    HW234824   1.226   2.280   3.982 -0.0263 -0.6839 -1.0588
 7730SOL     OW34825   1.938   0.758   4.560  0.1912 -0.3875 -0.0382
 7730SOL    HW134826   1.870   0.704   4.599 -2.5815  4.4779  1.8394
 7730SOL    HW234827   2.021   0.719   4.587  0.5033  0.7579  0.6852
 7731SOL     OW34828   2.759   0.744   1.852 -0.0906 -0.1813 -0.3821
 7731SOL    HW134829   2.834   0.715   1.799  0.9295  2.3417 -0.2994
 7731SOL    HW234830   2.750   0.679   1.922  0.7961  1.0408  0.8769
 7732SOL     OW34831   2.490   1.770   2.794  0.1101  0.5677  0.0086
 7732SOL    HW134832   2.483   1.829   2.870  1.4721 -1.6687  1.8855
 7732SOL    HW234833   2.457   1.689   2.832  0.7819  0.7964  1.0954
 7733SOL     OW34834   4.124   2.652   2.829  0.0465  0.4309  0.1827
 7733SOL    HW134835   4.138   2.747   2.831 -1.3782  0.5976  1.6679
 7733SOL    HW234836   4.048   2.652   2.887  0.4776 -1.7795  0.7397
 7734SOL     OW34837   3.291   0.562   0.740 -0.3635 -0.2118 -0.4604
 7734SOL    HW134838   3.267   0.549   0.648 -2.3660  2.1540 -0.2743
 7734SOL    HW234839   3.291   0.658   0.737 -0.4806 -0.1851  0.4570
 7735SOL     OW34840   1.571   4.234  15.219  0.3901  0.0806  0.3042
 7735SOL    HW134841   1.585   4.278  15.303  0.8578  2.4093 -0.9803
 7735SOL    HW234842   1.625   4.289  15.162 -1.1381 -0.6468 -1.8443
 7736SOL     OW34843   2.342   1.986   4.344  0.0674  0.0131  0.3764
 7736SOL    HW134844   2.278   1.997   4.273  0.2060 -1.9727 -0.0618
 7736SOL    HW234845   2.281   1.964   4.414 -0.9647  0.5746 -0.3395
 7737SOL     OW34846   3.505   4.420   8.454  0.0222 -0.0755  0.2146
 7737SOL    HW134847   3.414   4.394   8.463  0.4005 -1.4894 -0.0744
 7737SOL    HW234848   3.515   4.426   8.359  0.2711  2.1103  0.3703
 7738SOL     OW34849   3.204   3.032   1.909  0.1989  0.1786 -0.4533
 7738SOL    HW134850   3.134   2.980   1.870  1.0685 -1.4506  0.1514
 7738SOL    HW234851   3.251   2.969   1.964  0.6441 -0.5514 -1.6509
 7739SOL     OW34852   1.174   3.117   5.808  0.2311  0.2268  0.6140
 7739SOL    HW134853   1.258   3.142   5.845  0.6277  0.6430 -0.5563
 7739SOL    HW234854   1.168   3.026   5.836  0.9936 -0.0139 -0.0088
 7740SOL     OW34855   2.198   4.439   5.842 -0.3390 -0.0567 -0.2876
 7740SOL    HW134856   2.192   4.509   5.908  0.0531 -1.4058  1.1885
 7740SOL    HW234857   2.286   4.466   5.815 -0.8462 -1.6034 -3.4768
 7741SOL     OW34858   1.571   0.918   6.152  0.3075 -1.2822  0.2565
 7741SOL    HW134859   1.563   0.856   6.079 -1.1457 -0.4256 -0.2921
 7741SOL    HW234860   1.484   0.910   6.192  1.5931 -2.4958  2.8123
 7742SOL     OW34861   2.649   1.821   8.262 -0.0719  0.3972 -0.0752
 7742SOL    HW134862   2.646   1.806   8.167  0.9992 -1.7921  0.2406
 7742SOL    HW234863   2.567   1.783   8.293 -1.0133  2.9836  0.5318
 7743SOL     OW34864   0.003   1.546   8.385 -0.7842 -0.1134 -0.0168
 7743SOL    HW134865   4.659   1.596   8.367  0.2196  1.3669 -0.3614
 7743SOL    HW234866   0.005   1.477   8.318  0.0447 -0.7895  0.7009
 7744SOL     OW34867   0.753   4.257   6.457  0.1138 -0.1318 -0.3931
 7744SOL    HW134868   0.848   4.262   6.466  0.2389 -1.7347 -0.8412
 7744SOL    HW234869   0.720   4.327   6.514 -0.5802 -0.5725 -0.2569
 7745SOL     OW34870   0.192   2.204   3.553 -0.3531  0.1705  0.0454
 7745SOL    HW134871   0.150   2.168   3.631 -0.1745  1.0316  0.5442
 7745SOL    HW234872   0.189   2.299   3.564 -2.4929  0.2164 -0.9548
 7746SOL     OW34873   3.684   0.851  16.214 -0.5136  0.5382 -0.0275
 7746SOL    HW134874   3.642   0.937  16.206  0.1410  0.8333 -0.2559
 7746SOL    HW234875   3.639   0.821  16.293 -2.4792 -1.2593 -1.8635
 7747SOL     OW34876   4.697   1.105  13.396  0.5787 -0.1666  0.2749
 7747SOL    HW134877   4.683   1.196  13.370 -0.9504  0.0134  1.7553
 7747SOL    HW234878   4.650   1.102  13.479 -2.8846  0.0825 -1.6940
 7748SOL     OW34879   2.331   0.354   4.798  0.3873  0.2177  0.4842
 7748SOL    HW134880   2.340   0.263   4.771 -1.8109  0.1847 -0.1763
 7748SOL    HW234881   2.424   0.377   4.794 -0.2437  2.9626  1.8393
 7749SOL     OW34882   1.157   3.079   1.853 -0.1952 -0.1268  0.1690
 7749SOL    HW134883   1.246   3.103   1.878  0.2141 -3.0414  1.5834
 7749SOL    HW234884   1.174   3.019   1.781 -1.3939 -1.8212  1.2867
 7750SOL     OW34885   2.169   0.163   1.751 -0.8097  0.0003 -0.0334
 7750SOL    HW134886   2.198   0.192   1.837 -0.0100  0.5136 -0.4728
 7750SOL    HW234887   2.244   0.198   1.703 -2.0075  3.0144  0.2688
 7751SOL     OW34888   3.924   2.713  13.931  0.0044  0.4314  0.1105
 7751SOL    HW134889   3.872   2.715  14.012 -1.2182  3.3086 -0.7577
 7751SOL    HW234890   3.952   2.804  13.921 -1.1738  0.8078  0.1718
 7752SOL     OW34891   2.218   3.233  11.867  0.3329  0.0940 -0.2590
 7752SOL    HW134892   2.195   3.233  11.960 -1.2834  0.9840 -0.6517
 7752SOL    HW234893   2.139   3.260  11.820  0.7710  1.8573  0.0173
 7753SOL     OW34894   0.000   1.107   0.763 -0.3050 -0.3233 -0.9255
 7753SOL    HW134895   0.037   1.063   0.686 -0.6648  0.0243 -1.3004
 7753SOL    HW234896   4.719   1.041   0.830  1.6153  0.3608  0.2325
 7754SOL     OW34897   0.425   3.806   5.977  0.5880 -0.5318 -0.3113
 7754SOL    HW134898   0.478   3.878   6.011  0.8290 -0.1478 -1.5086
 7754SOL    HW234899   0.453   3.736   6.036 -1.5861 -0.3110  0.9887
 7755SOL     OW34900   1.531   3.995  17.241  0.2058 -0.2399 -0.0992
 7755SOL    HW134901   1.504   3.957  17.325 -1.0803 -1.2251 -0.9674
 7755SOL    HW234902   1.545   3.917  17.188 -0.9869 -0.8966  0.5631
 7756SOL     OW34903   0.670   1.511   8.256 -0.0351 -0.6263  0.5944
 7756SOL    HW134904   0.658   1.603   8.233 -1.7645 -0.9335  0.3079
 7756SOL    HW234905   0.706   1.491   8.170 -0.1294 -0.3096  0.4791
 7757SOL     OW34906   3.809   1.176   9.045 -0.3564  0.2313  0.1111
 7757SOL    HW134907   3.753   1.243   9.005 -0.0029 -0.6479 -1.8426
 7757SOL    HW234908   3.876   1.220   9.097 -0.9778 -0.4709  1.4941
 7758SOL     OW34909   0.169   3.308   5.847  0.2488 -0.1179 -0.7508
 7758SOL    HW134910   0.220   3.365   5.905 -0.0751  0.2016 -0.7803
 7758SOL    HW234911   0.086   3.354   5.838  1.1896  1.6060 -0.6510
 7759SOL     OW34912   4.574   2.715   5.805 -1.1270 -0.4090  0.7132
 7759SOL    HW134913   4.569   2.718   5.901 -0.1092 -2.0411  0.8171
 7759SOL    HW234914   4.524   2.638   5.778 -1.0593  0.0631 -0.7295
 7760SOL     OW34915   2.691   3.125  14.898 -0.0323  0.6903  0.2326
 7760SOL    HW134916   2.720   3.107  14.809 -0.4899  0.8850  0.0453
 7760SOL    HW234917   2.755   3.076  14.950  0.3388  0.0499 -0.8316
 7761SOL     OW34918   4.533   2.260  13.847  0.3526 -0.2846 -0.2285
 7761SOL    HW134919   4.517   2.342  13.800  0.7105  0.3861  0.8254
 7761SOL    HW234920   4.549   2.305  13.930 -0.1151  0.9097 -0.7729
 7762SOL     OW34921   2.870   0.780   6.007 -0.3534 -0.1560  0.5426
 7762SOL    HW134922   2.958   0.816   6.015 -0.5162 -0.2209  2.4932
 7762SOL    HW234923   2.820   0.840   6.062 -0.0125  0.7716 -0.1513
 7763SOL     OW34924   1.447   0.846  14.064  0.0877  0.1309 -0.0025
 7763SOL    HW134925   1.451   0.760  14.106  1.7750 -1.1036 -2.6842
 7763SOL    HW234926   1.534   0.859  14.026 -0.2477 -1.7424 -1.4212
 7764SOL     OW34927   0.903   4.246   6.157  0.2705 -0.0437  0.0627
 7764SOL    HW134928   0.866   4.203   6.234 -0.6449  0.8255  0.1120
 7764SOL    HW234929   0.865   4.199   6.083 -1.8147  0.3261  0.9016
 7765SOL     OW34930   0.844   4.250   1.882 -0.3577 -0.0031  0.3082
 7765SOL    HW134931   0.932   4.213   1.876 -0.2213  0.3470  0.2104
 7765SOL    HW234932   0.798   4.181   1.834  1.9551 -1.6667  0.4288
 7766SOL     OW34933   1.196   0.465   7.277  0.1460  0.4038 -0.1503
 7766SOL    HW134934   1.272   0.425   7.234 -1.2320 -1.1668 -1.0646
 7766SOL    HW234935   1.246   0.540   7.310 -1.7718  2.3562 -1.7071
 7767SOL     OW34936   2.449   0.317  17.298 -0.3717  0.5186 -0.0626
 7767SOL    HW134937   2.374   0.372  17.321 -0.2732  0.7000 -0.1764
 7767SOL    HW234938   2.410   0.232  17.317 -1.3184  1.3080  1.5974
 7768SOL     OW34939   2.837   2.006   7.046 -0.5986 -0.7916  0.0440
 7768SOL    HW134940   2.821   2.063   6.970  2.5326 -1.2971 -0.9917
 7768SOL    HW234941   2.763   2.013   7.106  2.6335  0.4443  3.8749
 7769SOL     OW34942   3.928   1.081   4.658 -0.3244  0.3252 -0.0175
 7769SOL    HW134943   3.846   1.128   4.672 -1.0549 -0.7297 -0.7555
 7769SOL    HW234944   3.991   1.136   4.704  1.6431 -3.3699  1.7048
 7770SOL     OW34945   3.842   3.282   9.588 -0.6600 -0.2385 -0.9388
 7770SOL    HW134946   3.813   3.244   9.505 -0.0288 -1.8421 -0.4249
 7770SOL    HW234947   3.916   3.224   9.604 -0.1088  0.9561  0.9321
 7771SOL     OW34948   4.235   1.140   1.948  0.2316 -0.0845 -0.3723
 7771SOL    HW134949   4.156   1.191   1.930  1.5184  2.5761  1.5621
 7771SOL    HW234950   4.295   1.161   1.876 -1.4258  0.3000 -1.6551
 7772SOL     OW34951   3.311   2.689   4.006 -0.2690  0.2110  0.7121
 7772SOL    HW134952   3.308   2.642   4.090  2.5628 -0.6751  0.3264
 7772SOL    HW234953   3.351   2.619   3.955 -2.7341  0.5511 -1.6463
 7773SOL     OW34954   4.029   4.165   7.615 -0.6763 -0.1559 -0.4309
 7773SOL    HW134955   3.990   4.234   7.669 -2.4490  0.5997 -2.6924
 7773SOL    HW234956   4.119   4.199   7.613 -0.5433 -0.4876 -0.1469
 7774SOL     OW34957   4.073   3.725   9.054 -0.2121  0.4107  0.2639
 7774SOL    HW134958   4.101   3.659   8.991  1.0651  0.3094  0.9306
 7774SOL    HW234959   4.129   3.803   9.054  0.0169  0.2498 -0.9192
 7775SOL     OW34960   0.544   0.119   7.296  0.1370  0.3035 -0.2257
 7775SOL    HW134961   0.510   0.075   7.373 -1.5989  1.0520 -0.5449
 7775SOL    HW234962   0.638   0.118   7.310  0.4089 -1.3610 -2.1753
 7776SOL     OW34963   3.815   3.722   3.345 -0.4263 -0.1384 -0.1456
 7776SOL    HW134964   3.881   3.769   3.293 -1.3710  0.9871 -0.3329
 7776SOL    HW234965   3.874   3.681   3.408  3.4211  1.8392 -2.4485
 7777SOL     OW34966   0.925   4.299   2.416 -0.3608  0.1447  0.2484
 7777SOL    HW134967   0.961   4.276   2.330 -0.7742  2.5736 -0.5984
 7777SOL    HW234968   0.964   4.238   2.478  0.5516  1.7158  1.2109
 7778SOL     OW34969   0.381   2.679   3.143  0.6817 -0.1503 -0.2139
 7778SOL    HW134970   0.340   2.641   3.220 -0.9000 -0.0765 -1.0261
 7778SOL    HW234971   0.367   2.621   3.068 -0.7158 -1.4526  1.0811
 7779SOL     OW34972   4.228   2.904   8.361 -0.7083 -0.1950  0.2467
 7779SOL    HW134973   4.134   2.914   8.344 -0.5008 -1.6067 -1.7528
 7779SOL    HW234974   4.243   2.981   8.417  1.7534 -1.6261  1.5573
 7780SOL     OW34975   2.470   1.447   1.778  0.4298 -0.3084  0.1251
 7780SOL    HW134976   2.392   1.400   1.806  0.0292  0.4197  0.2336
 7780SOL    HW234977   2.513   1.388   1.717  0.0195  0.7322 -1.1690
 7781SOL     OW34978   1.672   2.395   1.904 -0.5263 -0.3913  0.4065
 7781SOL    HW134979   1.663   2.474   1.958  2.3571  0.0008  0.3045
 7781SOL    HW234980   1.742   2.341   1.942 -0.1015 -0.5678 -0.6393
 7782SOL     OW34981   2.239   1.360   4.441 -0.3618  0.3193  0.0124
 7782SOL    HW134982   2.265   1.441   4.398  0.6234  0.0161  0.0205
 7782SOL    HW234983   2.291   1.361   4.522  0.1239  2.5200 -0.3309
 7783SOL     OW34984   0.532   4.038   9.422  0.2712 -0.5187 -0.4248
 7783SOL    HW134985   0.610   4.078   9.384  1.9369 -2.2012  1.1931
 7783SOL    HW234986   0.570   3.964   9.469 -0.1249  1.4885  3.0402
 7784SOL     OW34987   0.606   3.947   3.373  1.3636 -0.3713  0.5110
 7784SOL    HW134988   0.632   3.881   3.309 -1.5196 -2.0430  1.0664
 7784SOL    HW234989   0.631   3.916   3.460  2.2212 -0.6000  0.1811
 7785SOL     OW34990   0.149   1.069   4.458  0.1805 -0.4333  0.2254
 7785SOL    HW134991   0.140   0.986   4.412 -0.9407 -0.7392  1.0027
 7785SOL    HW234992   0.217   1.047   4.522  1.4868 -0.0651 -1.0402
 7786SOL     OW34993   1.779   1.743   8.295  0.5040 -0.5284  0.2611
 7786SOL    HW134994   1.866   1.760   8.329 -0.9036  1.3970  2.9055
 7786SOL    HW234995   1.723   1.798   8.350  2.3647  0.4952  1.1083
 7787SOL     OW34996   3.101   0.611  10.905 -0.8948  0.0539  0.3014
 7787SOL    HW134997   3.101   0.687  10.845  2.5079 -0.0212  0.1923
 7787SOL    HW234998   3.067   0.641  10.989  0.4354 -0.1712  0.9130
 7788SOL     OW34999   4.068   4.411   3.115 -0.1535 -0.0184 -0.0296
 7788SOL    HW135000   4.115   4.384   3.036 -1.1544 -0.8060 -0.3504
 7788SOL    HW235001   4.117   4.492   3.133 -1.5480  1.2367 -1.9425
 7789SOL     OW35002   3.939   3.364   3.251  0.0394  0.2564 -1.1393
 7789SOL    HW135003   3.862   3.395   3.204 -0.0944 -1.4769 -2.0350
 7789SOL    HW235004   4.002   3.395   3.186 -0.6611  1.5508 -1.2019
 7790SOL     OW35005   2.029   2.323   2.831 -0.1070 -0.1216  0.1822
 7790SOL    HW135006   2.032   2.254   2.897 -0.1977  1.1405  1.5175
 7790SOL    HW235007   2.072   2.288   2.753  1.7679  0.1843  1.0666
 7791SOL     OW35008   3.341   2.698   7.568 -0.1489  0.9365 -0.2541
 7791SOL    HW135009   3.328   2.757   7.494 -1.0147 -1.8353 -2.2967
 7791SOL    HW235010   3.422   2.653   7.542 -1.8323 -1.9161 -0.5520
 7792SOL     OW35011   2.952   3.536   3.634  0.6910 -0.2285  0.7629
 7792SOL    HW135012   3.007   3.503   3.563  2.9672  1.7000  1.6316
 7792SOL    HW235013   2.894   3.603   3.597 -0.7911 -1.7521  0.3423
 7793SOL     OW35014   3.240   0.733   3.212 -0.2177  0.1614  1.1208
 7793SOL    HW135015   3.243   0.684   3.294 -0.2425  1.2696  1.7826
 7793SOL    HW235016   3.148   0.758   3.226 -0.6612 -0.7143 -0.2367
 7794SOL     OW35017   1.696   1.977   1.712 -0.7579 -0.4125 -0.6964
 7794SOL    HW135018   1.626   1.919   1.682  0.3759 -1.6883 -0.9108
 7794SOL    HW235019   1.640   2.051   1.735 -2.4145 -1.4048 -1.5389
 7795SOL     OW35020   4.441   4.733   8.020 -0.1982 -0.1962 -0.0248
 7795SOL    HW135021   4.438   4.732   7.924  0.0414 -0.6203 -0.0318
 7795SOL    HW235022   4.351   4.710   8.040 -0.2497  0.1690  0.1592
 7796SOL     OW35023   3.583   2.929   0.516 -0.3136 -0.2577 -0.3882
 7796SOL    HW135024   3.557   2.957   0.604 -3.5946 -0.0789 -1.4181
 7796SOL    HW235025   3.675   2.951   0.524 -0.5475  0.2133  1.0843
 7797SOL     OW35026   1.350   3.228   2.657 -1.1704  0.1288  0.3487
 7797SOL    HW135027   1.363   3.206   2.565  1.6795 -1.2528  1.0937
 7797SOL    HW235028   1.348   3.323   2.647  1.0005  0.1163 -0.2051
 7798SOL     OW35029   4.601   2.845  17.676  0.3558 -0.2248 -0.1020
 7798SOL    HW135030   4.688   2.839  17.716  0.2290  1.7838  0.4981
 7798SOL    HW235031   4.579   2.752  17.668 -1.8174  0.0312  2.7627
 7799SOL     OW35032   3.972   0.181   2.839 -0.3209  0.3287  0.0220
 7799SOL    HW135033   3.905   0.244   2.814  0.3215  1.4699  1.1733
 7799SOL    HW235034   4.024   0.230   2.902  2.0330 -0.2724 -1.4464
 7800SOL     OW35035   3.038   0.753   4.317  0.3224  0.4463  0.0606
 7800SOL    HW135036   2.968   0.807   4.356  1.7382  2.2159  0.1521
 7800SOL    HW235037   3.074   0.698   4.386  1.1781  0.6250 -0.2514
 7801SOL     OW35038   2.802   2.414   2.839  0.2941 -0.0074  0.1664
 7801SOL    HW135039   2.823   2.373   2.923  1.2769 -2.1754 -1.1535
 7801SOL    HW235040   2.816   2.339   2.782  0.2857 -1.7591  2.4779
 7802SOL     OW35041   1.707   1.446   2.522  0.2517 -0.8032  0.4351
 7802SOL    HW135042   1.705   1.351   2.537  2.5611 -1.1636 -1.5778
 7802SOL    HW235043   1.629   1.458   2.467  2.1908  0.0641 -2.1236
 7803SOL     OW35044   3.621   4.515   7.358  0.3047  0.3753 -0.1567
 7803SOL    HW135045   3.624   4.422   7.382  3.0513  1.1122  2.3434
 7803SOL    HW235046   3.614   4.519   7.263  0.5394 -1.9112 -0.2557
 7804SOL     OW35047   1.629   2.725   2.376  0.1257  0.1199 -0.3335
 7804SOL    HW135048   1.569   2.784   2.422  0.6856 -0.0250  0.5836
 7804SOL    HW235049   1.602   2.639   2.409 -0.4052 -0.0910 -1.3099
 7805SOL     OW35050   3.006   3.854   9.427 -0.8732  0.3180 -0.4053
 7805SOL    HW135051   2.956   3.789   9.378  0.8740  0.7923 -2.8161
 7805SOL    HW235052   2.970   3.848   9.516  0.2230  2.1675  0.1575
 7806SOL     OW35053   1.974   2.301   8.932 -0.2796 -0.2049  0.3670
 7806SOL    HW135054   1.927   2.365   8.878  0.9043  0.8416  0.5845
 7806SOL    HW235055   1.921   2.314   9.011 -1.3601 -1.1655 -0.1893
 7807SOL     OW35056   1.396   1.723   4.082 -0.5396  0.1397  0.3957
 7807SOL    HW135057   1.366   1.795   4.138  1.2444  0.4603  0.9435
 7807SOL    HW235058   1.338   1.653   4.113 -1.7927  0.9358 -0.1226
 7808SOL     OW35059   4.712   0.275   8.210  0.4953  0.0092  0.1001
 7808SOL    HW135060   0.021   0.360   8.216 -2.8323  1.7137  0.4996
 7808SOL    HW235061   4.630   0.318   8.236 -0.4473 -0.6816 -1.6939
 7809SOL     OW35062   0.778   2.217   9.220 -0.6664 -0.2912  0.2657
 7809SOL    HW135063   0.796   2.271   9.297  0.3347  0.6749 -0.6480
 7809SOL    HW235064   0.725   2.144   9.251  0.6788 -1.0876  0.6758
 7810SOL     OW35065   3.691   1.038   9.271  0.1117  0.2524  0.5637
 7810SOL    HW135066   3.723   1.023   9.182 -0.7595 -0.6864  0.4003
 7810SOL    HW235067   3.756   1.092   9.315  0.2706  1.7431 -1.5181
 7811SOL     OW35068   4.041   2.621   9.768 -0.2860 -0.1708 -0.0241
 7811SOL    HW135069   3.957   2.639   9.812 -1.2516 -1.1840 -1.4414
 7811SOL    HW235070   4.096   2.617   9.846  1.0225 -1.3126 -1.0080
 7812SOL     OW35071   0.459   1.970   6.689 -0.7561  0.0516 -0.4009
 7812SOL    HW135072   0.468   2.007   6.777 -0.0588  0.3649 -0.6007
 7812SOL    HW235073   0.458   1.875   6.698  0.1856  0.1530  0.7167
 7813SOL     OW35074   2.344   2.346  10.459 -0.0788 -0.1009 -0.7597
 7813SOL    HW135075   2.381   2.295  10.531  0.1539  2.9530  1.2493
 7813SOL    HW235076   2.255   2.317  10.481  1.3863 -3.5412  0.5024
 7814SOL     OW35077   2.012   0.720   4.865 -0.2148 -0.3261  0.4197
 7814SOL    HW135078   1.931   0.693   4.822 -0.9214  1.5803  0.5382
 7814SOL    HW235079   2.080   0.711   4.798 -0.1000  1.1212  0.3362
 7815SOL     OW35080   4.339   2.646  16.712 -0.1435  0.2133  0.5884
 7815SOL    HW135081   4.312   2.602  16.631  0.3845 -0.2526  0.6665
 7815SOL    HW235082   4.266   2.698  16.744 -1.3549 -1.5304  0.6686
 7816SOL     OW35083   4.721   3.947   3.502  0.0360  0.1837 -0.4642
 7816SOL    HW135084   4.645   3.952   3.444  0.1250 -0.6147 -0.6530
 7816SOL    HW235085   4.712   3.856   3.529  0.1893 -0.3333 -2.1789
 7817SOL     OW35086   1.235   2.398   2.641 -0.1967  0.1362  0.2773
 7817SOL    HW135087   1.232   2.310   2.679 -0.9254  1.3510  3.0084
 7817SOL    HW235088   1.144   2.406   2.613  0.2144 -3.5814 -2.1059
 7818SOL     OW35089   2.542   4.345   6.274 -0.3159 -0.2377  0.5723
 7818SOL    HW135090   2.448   4.349   6.257 -0.1542  0.1795 -0.2462
 7818SOL    HW235091   2.578   4.310   6.192  2.3959 -0.5463  1.9140
 7819SOL     OW35092   4.400   4.254  12.245  0.3343  0.1952  0.3896
 7819SOL    HW135093   4.374   4.346  12.251 -0.9664 -0.2617  1.7806
 7819SOL    HW235094   4.354   4.232  12.164  1.8680  1.9990 -0.9499
 7820SOL     OW35095   2.064   1.998   9.520  0.4328 -0.2504 -0.6384
 7820SOL    HW135096   2.160   1.997   9.520  0.4621  2.1670 -1.7169
 7820SOL    HW235097   2.045   1.971   9.610  1.8721  0.0865 -0.2307
 7821SOL     OW35098   4.101   0.138   6.705  0.2637 -0.5287  0.0440
 7821SOL    HW135099   4.051   0.212   6.671 -0.8320 -1.5803 -0.6268
 7821SOL    HW235100   4.192   0.159   6.688  0.7916 -1.1511  2.0033
 7822SOL     OW35101   1.113   4.577   5.734 -0.0274 -0.0682  0.2519
 7822SOL    HW135102   1.128   4.498   5.786 -0.8614 -1.0202 -0.9483
 7822SOL    HW235103   1.171   4.568   5.658 -0.5127 -0.6957 -0.0434
 7823SOL     OW35104   0.231   3.764   0.323 -0.0536  0.4801 -0.1452
 7823SOL    HW135105   0.301   3.808   0.371 -0.2489  0.9110 -0.2557
 7823SOL    HW235106   0.156   3.808   0.363 -0.6499  0.4851 -1.2479
 7824SOL     OW35107   0.416   0.321   1.683  0.5701  0.6089  0.4320
 7824SOL    HW135108   0.397   0.232   1.654  1.6528  1.1536 -1.9835
 7824SOL    HW235109   0.385   0.321   1.774  0.7540  0.0265  0.4945
 7825SOL     OW35110   2.356   0.613  10.363  0.1380  0.4115 -0.8202
 7825SOL    HW135111   2.359   0.627  10.268 -3.1932  1.2717 -0.7738
 7825SOL    HW235112   2.270   0.648  10.387 -0.4507 -2.1025  0.6804
 7826SOL     OW35113   0.505   4.362   4.238 -0.6886 -0.4784  0.1032
 7826SOL    HW135114   0.459   4.434   4.195  1.6832  1.1444  0.3326
 7826SOL    HW235115   0.546   4.409   4.310 -0.8281  1.3196 -0.9983
 7827SOL     OW35116   3.613   4.460   4.713 -0.3432 -0.4001 -0.1752
 7827SOL    HW135117   3.593   4.384   4.657 -0.2751 -0.3268 -0.2981
 7827SOL    HW235118   3.557   4.437   4.787 -1.6200  1.6496 -0.5084
 7828SOL     OW35119   0.943   1.522   6.143  0.0856 -0.4826 -0.5020
 7828SOL    HW135120   0.899   1.594   6.098 -0.5325  0.0721  1.0140
 7828SOL    HW235121   1.028   1.561   6.165 -0.5992 -0.2379  1.6643
 7829SOL     OW35122   4.708   4.060   5.796  0.3995  0.2179 -1.2963
 7829SOL    HW135123   0.048   4.007   5.770  0.0520 -0.9226 -0.0306
 7829SOL    HW235124   0.004   4.092   5.880  1.1696 -1.1899 -1.0436
 7830SOL     OW35125   0.947   3.606   5.683 -0.2460  0.1376  0.1147
 7830SOL    HW135126   0.887   3.551   5.632 -0.0812 -0.0468  0.1225
 7830SOL    HW235127   1.031   3.563   5.668 -0.4859  0.2780 -1.5910
 7831SOL     OW35128   1.764   2.457   3.397 -0.0849 -0.3639 -0.2808
 7831SOL    HW135129   1.855   2.472   3.419 -0.7799  1.1782  1.5574
 7831SOL    HW235130   1.764   2.471   3.303  2.8155  0.4908 -0.1313
 7832SOL     OW35131   4.342   2.847   6.331 -0.2497 -0.2314  0.3413
 7832SOL    HW135132   4.246   2.842   6.332 -0.3163  1.1711  1.0028
 7832SOL    HW235133   4.365   2.778   6.394 -0.8451  2.3578  3.4162
 7833SOL     OW35134   0.250   1.290   5.733  0.1650 -0.2322 -0.4813
 7833SOL    HW135135   0.302   1.263   5.808 -0.6517  0.3272  0.2856
 7833SOL    HW235136   0.303   1.259   5.660  0.2366  2.0042 -1.3986
 7834SOL     OW35137   3.178   2.551   2.610 -0.2097  0.2096 -0.4551
 7834SOL    HW135138   3.096   2.501   2.617 -0.8650  1.4622  0.7691
 7834SOL    HW235139   3.230   2.513   2.538  1.3116  1.0415  0.2180
 7835SOL     OW35140   0.802   1.895   0.789  0.2250 -0.1844 -0.4564
 7835SOL    HW135141   0.736   1.827   0.777  0.5949 -0.7027  0.4638
 7835SOL    HW235142   0.784   1.942   0.871 -0.0241  0.0100 -0.6224
 7836SOL     OW35143   3.162   1.677  11.593 -0.1785  0.0913  0.2374
 7836SOL    HW135144   3.241   1.672  11.539  0.2612  3.0224  0.6355
 7836SOL    HW235145   3.097   1.736  11.555 -0.8772  0.6321  2.2690
 7837SOL     OW35146   2.139   0.377   4.259 -0.1152  0.4750  0.2277
 7837SOL    HW135147   2.103   0.431   4.188 -1.2322  1.6671  1.7020
 7837SOL    HW235148   2.149   0.289   4.223 -1.9937 -0.5851  2.2734
 7838SOL     OW35149   3.056   3.801  15.631 -0.3757 -0.0616 -0.6468
 7838SOL    HW135150   2.984   3.795  15.693  0.1057 -3.5698 -0.4309
 7838SOL    HW235151   3.131   3.758  15.672 -0.7251 -0.6489 -0.6313
 7839SOL     OW35152   2.459   2.636   0.732 -0.2572 -0.2664 -0.0163
 7839SOL    HW135153   2.405   2.706   0.769 -0.5730  0.3204 -1.5910
 7839SOL    HW235154   2.541   2.648   0.781 -0.1814  1.7223 -0.6164
 7840SOL     OW35155   3.578   3.716   8.726  0.2258  0.8889  0.2739
 7840SOL    HW135156   3.589   3.626   8.756  0.1487  0.6206 -0.4944
 7840SOL    HW235157   3.667   3.736   8.699  0.1484 -0.6174 -1.1165
 7841SOL     OW35158   2.179   1.801  10.508 -0.0084  0.2037  0.1410
 7841SOL    HW135159   2.166   1.718  10.553 -0.8961 -0.3357 -1.0971
 7841SOL    HW235160   2.183   1.870  10.575 -0.6940  1.3045 -0.9398
 7842SOL     OW35161   4.306   3.902   4.821  0.3113  0.6060  1.2702
 7842SOL    HW135162   4.249   3.826   4.833  0.5122  0.4109  0.9834
 7842SOL    HW235163   4.376   3.853   4.779  1.9055  2.5843  1.6112
 7843SOL     OW35164   0.833   2.662   8.830  0.2308  0.1528  0.4415
 7843SOL    HW135165   0.851   2.737   8.772  2.2613 -0.3594  0.3970
 7843SOL    HW235166   0.764   2.624   8.776 -0.9106  1.7032  0.7928
 7844SOL     OW35167   1.890   1.008   6.137  0.0353  0.3480 -0.0017
 7844SOL    HW135168   1.810   1.015   6.189  0.4924 -1.6570  0.9610
 7844SOL    HW235169   1.946   1.074   6.177 -1.5304  1.1977  0.7815
 7845SOL     OW35170   4.578   2.302   6.068 -0.5683 -0.3774 -0.3778
 7845SOL    HW135171   4.593   2.394   6.089 -1.3452 -0.3794  0.2047
 7845SOL    HW235172   4.663   2.274   6.034  0.4142 -0.6868  2.3919
 7846SOL     OW35173   3.391   0.151   1.323 -0.0184  0.3562 -0.7467
 7846SOL    HW135174   3.361   0.169   1.234  0.0688 -0.8120 -1.0084
 7846SOL    HW235175   3.473   0.104   1.309 -0.6205 -1.1610  0.9230
 7847SOL     OW35176   2.667   1.037   4.190 -0.2277 -0.1600 -0.2393
 7847SOL    HW135177   2.634   1.005   4.106 -2.9837 -0.0723  0.7885
 7847SOL    HW235178   2.739   1.095   4.167  0.5965 -1.1867 -0.2322
 7848SOL     OW35179   2.387   0.037  15.220  0.3027 -0.0561 -0.1178
 7848SOL    HW135180   2.305   0.004  15.256  0.4107 -0.0645  0.1185
 7848SOL    HW235181   2.361   0.074  15.136  0.2012  0.8976  0.3281
 7849SOL     OW35182   4.218   4.055   4.605 -0.0826 -0.3180 -0.2359
 7849SOL    HW135183   4.240   4.020   4.691  2.4065 -1.6602 -1.4121
 7849SOL    HW235184   4.215   3.975   4.552  0.4561 -0.4994  0.0042
 7850SOL     OW35185   3.032   1.156  11.862  0.0394  0.2858  0.3427
 7850SOL    HW135186   3.023   1.248  11.838  0.1152  0.0621 -0.5692
 7850SOL    HW235187   3.094   1.163  11.934 -0.7456 -0.1110  1.0614
 7851SOL     OW35188   4.048   4.124   1.847 -0.8657 -0.0567  0.7060
 7851SOL    HW135189   3.964   4.169   1.840 -0.9370 -0.1590  0.9157
 7851SOL    HW235190   4.107   4.196   1.822  0.2995 -1.9080 -1.8667
 7852SOL     OW35191   3.457   1.608   7.450 -0.3783  0.2488  0.1244
 7852SOL    HW135192   3.489   1.660   7.524  1.8415 -1.0447  0.0532
 7852SOL    HW235193   3.514   1.638   7.379 -0.2453  2.6475  1.2499
 7853SOL     OW35194   4.315   3.648  11.661 -0.1918  0.1745 -0.6175
 7853SOL    HW135195   4.379   3.683  11.722 -2.0958  0.9984  0.9171
 7853SOL    HW235196   4.267   3.728  11.640 -1.2088 -0.1751  0.3478
 7854SOL     OW35197   3.844   1.215   3.555 -0.0035  0.1295  0.1637
 7854SOL    HW135198   3.889   1.244   3.476  2.0593 -2.8821  0.2178
 7854SOL    HW235199   3.772   1.164   3.519  1.4774 -1.3235 -0.6963
 7855SOL     OW35200   4.342   0.108  10.024 -0.0337  0.4494  1.1548
 7855SOL    HW135201   4.328   0.107  10.118  0.7057 -3.3190  1.2265
 7855SOL    HW235202   4.260   0.148   9.992 -0.1854 -0.7725 -0.0082
 7856SOL     OW35203   2.765   1.587  11.392  0.0781  0.3839 -0.0056
 7856SOL    HW135204   2.724   1.539  11.464 -1.5921  0.1576 -1.1025
 7856SOL    HW235205   2.813   1.520  11.344  0.2353  0.8227 -0.4566
 7857SOL     OW35206   1.439   4.628   8.230  0.6542  0.4988  0.1713
 7857SOL    HW135207   1.383   4.680   8.287  1.3543  1.8200 -0.3521
 7857SOL    HW235208   1.511   4.690   8.224 -0.5460  1.8868  0.1791
 7858SOL     OW35209   1.813   1.528   4.493 -0.4268 -0.3681  0.7780
 7858SOL    HW135210   1.851   1.493   4.413  0.8926  0.9245  0.8406
 7858SOL    HW235211   1.893   1.574   4.518  1.2380 -2.9022  0.0908
 7859SOL     OW35212   3.990   4.635   1.372  0.1440 -0.4045  0.1472
 7859SOL    HW135213   3.926   4.670   1.310 -1.3252  0.3360  2.0832
 7859SOL    HW235214   4.039   4.588   1.305  1.7328  1.3458  0.0760
 7860SOL     OW35215   1.869   3.580   3.040 -0.0651  0.8840 -0.0273
 7860SOL    HW135216   1.904   3.578   3.129  1.0031 -0.5834 -0.4756
 7860SOL    HW235217   1.938   3.531   2.995 -0.2033  2.3270 -1.7897
 7861SOL     OW35218   4.215   3.945  12.194 -0.7162 -0.0032  0.5424
 7861SOL    HW135219   4.156   4.017  12.218  2.4826  2.2174  1.6876
 7861SOL    HW235220   4.205   3.966  12.101  0.5966 -0.5512  0.2791
 7862SOL     OW35221   2.537   0.256  11.555 -0.0089 -0.0424  0.1533
 7862SOL    HW135222   2.525   0.216  11.641  1.4584  1.1661  0.9277
 7862SOL    HW235223   2.568   0.179  11.507  2.2439  0.6419  0.4929
 7863SOL     OW35224   3.643   1.096   2.527 -0.4816 -0.2592 -0.1525
 7863SOL    HW135225   3.705   1.063   2.462 -1.2025 -0.7243 -0.6044
 7863SOL    HW235226   3.684   1.059   2.605  1.5610  1.5637 -0.3725
 7864SOL     OW35227   0.376   1.253   2.656 -0.0452  0.4444  0.4717
 7864SOL    HW135228   0.371   1.171   2.706  1.9275 -0.6572 -1.1704
 7864SOL    HW235229   0.433   1.297   2.719  1.3665 -0.6765 -0.0227
 7865SOL     OW35230   2.941   4.027  14.997  0.2882  1.1678  0.5988
 7865SOL    HW135231   2.901   3.940  15.007  1.1934  0.5054 -1.5633
 7865SOL    HW235232   2.936   4.023  14.901  2.0294 -1.4066  0.6102
 7866SOL     OW35233   3.943   1.978  13.198 -0.5869  0.2278  0.3989
 7866SOL    HW135234   3.855   1.942  13.193 -0.8138  0.7574  0.5905
 7866SOL    HW235235   3.977   1.895  13.232  0.5831  0.0084 -1.3232
 7867SOL     OW35236   1.751   2.074  14.577 -0.1029 -0.0954  0.2930
 7867SOL    HW135237   1.707   2.030  14.650  1.0276 -1.6812  0.0154
 7867SOL    HW235238   1.670   2.102  14.536 -0.3879 -0.2361  0.7623
 7868SOL     OW35239   1.710   0.918   5.827 -0.0427 -0.4103  0.4682
 7868SOL    HW135240   1.689   1.011   5.825 -0.1495 -0.4363  0.3913
 7868SOL    HW235241   1.631   0.881   5.867 -0.0945 -2.9556 -1.9852
 7869SOL     OW35242   1.693   4.233  15.788  0.1598  0.3305 -0.5302
 7869SOL    HW135243   1.642   4.311  15.764  0.8010  0.6503 -0.8623
 7869SOL    HW235244   1.648   4.214  15.871 -1.0880 -2.1587 -1.8066
 7870SOL     OW35245   4.471   2.665   5.363  0.2143 -0.1491 -0.3155
 7870SOL    HW135246   4.393   2.646   5.311  0.9666 -0.1291 -1.4442
 7870SOL    HW235247   4.540   2.612   5.325 -1.4336 -2.2239 -0.4045
 7871SOL     OW35248   3.135   2.363   1.487 -0.1887  0.2285  0.2828
 7871SOL    HW135249   3.086   2.334   1.410  0.2601 -2.6052  1.0742
 7871SOL    HW235250   3.188   2.286   1.507  0.6173  0.5879 -0.4842
 7872SOL     OW35251   1.722   4.321   7.673  0.2520 -0.1760 -0.1703
 7872SOL    HW135252   1.767   4.246   7.713 -0.0172 -1.2272 -1.8377
 7872SOL    HW235253   1.758   4.299   7.587  2.5156 -0.0042  0.7115
 7873SOL     OW35254   4.609   2.316  10.141 -0.4686 -0.1993 -0.0668
 7873SOL    HW135255   4.527   2.294  10.185 -0.2983 -3.2773 -1.2790
 7873SOL    HW235256   4.604   2.263  10.061  2.8174 -1.9381  0.8769
 7874SOL     OW35257   1.674   3.780   2.865  0.0357 -0.4823 -0.3440
 7874SOL    HW135258   1.731   3.823   2.801  1.0529  1.3744  1.8073
 7874SOL    HW235259   1.727   3.805   2.941 -1.1245  0.8271  0.0313
 7875SOL     OW35260   2.868   2.486  15.340 -0.2534  0.0454  0.6140
 7875SOL    HW135261   2.809   2.527  15.278 -1.1663 -2.0551  0.1231
 7875SOL    HW235262   2.821   2.405  15.359  2.2410 -2.2350 -2.8808
 7876SOL     OW35263   0.042   2.659  17.498  0.6270  0.3037  0.6858
 7876SOL    HW135264   0.050   2.635  17.590  0.9271 -2.3646 -0.0222
 7876SOL    HW235265   0.133   2.645  17.472 -0.4284 -0.5890 -2.5803
 7877SOL     OW35266   0.908   4.613   5.528  0.1680 -0.3407 -0.1176
 7877SOL    HW135267   0.916   4.706   5.506  0.3958 -0.9456 -2.6217
 7877SOL    HW235268   0.986   4.601   5.582  0.5254 -0.3253 -0.6286
 7878SOL     OW35269   4.086   2.986   5.083  0.2980 -0.1403 -1.0830
 7878SOL    HW135270   4.062   2.998   4.991  0.9699  1.2339 -1.0714
 7878SOL    HW235271   4.080   2.892   5.101 -0.6492 -0.1569 -1.4885
 7879SOL     OW35272   3.958   0.802  12.601  0.1519  0.2580  0.5872
 7879SOL    HW135273   3.904   0.783  12.525  1.8468  0.4834 -0.6923
 7879SOL    HW235274   4.033   0.742  12.600 -0.3541 -0.3351 -2.2869
 7880SOL     OW35275   3.038   1.110   6.146  0.1373 -0.0073 -0.7010
 7880SOL    HW135276   3.086   1.055   6.084  0.2397  2.0100 -2.4221
 7880SOL    HW235277   3.007   1.184   6.094 -0.5463  0.5133  0.4341
 7881SOL     OW35278   2.899   3.302   5.860  0.5049 -0.5491  0.1890
 7881SOL    HW135279   2.846   3.222   5.853 -0.6404  0.3378 -1.0311
 7881SOL    HW235280   2.917   3.301   5.954  2.7845  0.5054 -0.2322
 7882SOL     OW35281   0.505   3.678   7.788 -0.0994 -0.4269 -0.5728
 7882SOL    HW135282   0.534   3.703   7.700 -0.7216 -1.1023 -0.9733
 7882SOL    HW235283   0.494   3.583   7.780  0.1796 -0.2238 -3.2657
 7883SOL     OW35284   0.133   0.546  17.355 -0.5804 -0.1782  0.2931
 7883SOL    HW135285   0.138   0.600  17.277  0.8536 -0.4697  0.1890
 7883SOL    HW235286   0.136   0.619  17.417 -1.9705  0.4018 -0.3254
 7884SOL     OW35287   4.653   3.310   3.119  0.0989  0.1493 -0.7238
 7884SOL    HW135288   4.708   3.233   3.136  2.5960  1.5124 -2.5703
 7884SOL    HW235289   4.598   3.317   3.197  0.6835  0.9469 -0.3862
 7885SOL     OW35290   2.704   1.316  15.499  0.7962  0.6826  0.5215
 7885SOL    HW135291   2.765   1.307  15.573  0.8676 -2.1744  0.1208
 7885SOL    HW235292   2.616   1.315  15.537  0.3210  1.2286 -0.5524
 7886SOL     OW35293   0.635   3.548  13.519 -0.2282 -0.6121 -0.1977
 7886SOL    HW135294   0.566   3.528  13.456 -1.9765 -0.7277  1.7228
 7886SOL    HW235295   0.597   3.616  13.575  0.2540 -0.0911 -0.5042
 7887SOL     OW35296   0.326   3.891   7.267 -0.1088  0.4324 -0.0379
 7887SOL    HW135297   0.299   3.887   7.175  0.1587  0.3484 -0.1141
 7887SOL    HW235298   0.279   3.970   7.292 -1.4262  0.1958 -1.7302
 7888SOL     OW35299   4.267   4.383   4.764  0.0803 -0.6636 -1.0030
 7888SOL    HW135300   4.350   4.415   4.727  1.4318 -3.2637 -0.1864
 7888SOL    HW235301   4.286   4.334   4.844 -1.0171  1.9238  0.8466
 7889SOL     OW35302   3.345   1.400   4.410 -0.4316 -0.4679 -0.4768
 7889SOL    HW135303   3.299   1.461   4.468  0.4748 -0.2293 -0.0024
 7889SOL    HW235304   3.275   1.347   4.372 -1.8602 -1.0257  2.9185
 7890SOL     OW35305   2.831   3.289   1.286  1.0949  0.4083  0.6779
 7890SOL    HW135306   2.849   3.350   1.214  0.2441 -0.0637  0.0632
 7890SOL    HW235307   2.813   3.357   1.351  0.8127 -0.4696  1.5199
 7891SOL     OW35308   3.986   2.068   9.702 -0.4990  0.0365  0.7631
 7891SOL    HW135309   3.994   1.981   9.661  0.0519  0.3509  0.2061
 7891SOL    HW235310   4.061   2.119   9.673 -0.2538 -0.5092  0.4326
 7892SOL     OW35311   0.533   3.722  13.689 -0.0289 -0.4007  0.0994
 7892SOL    HW135312   0.599   3.771  13.737 -0.1852  2.5612 -2.6890
 7892SOL    HW235313   0.457   3.735  13.746  0.7940 -0.5497  1.2167
 7893SOL     OW35314   0.255   1.507  14.698  0.1072  0.1675  0.2346
 7893SOL    HW135315   0.181   1.565  14.716 -1.6112 -1.6653 -0.8933
 7893SOL    HW235316   0.278   1.535  14.609  1.5211 -1.4319  0.1133
 7894SOL     OW35317   2.934   1.723  10.237 -0.1156 -0.0847 -0.1102
 7894SOL    HW135318   2.894   1.730  10.324 -0.5908 -0.9856 -0.2582
 7894SOL    HW235319   2.857   1.708  10.183 -0.9745  0.8646  0.8656
 7895SOL     OW35320   3.642   3.016   6.819  0.1367  0.1467 -0.0054
 7895SOL    HW135321   3.577   3.086   6.818  0.1773  0.2146  1.9978
 7895SOL    HW235322   3.632   2.981   6.908  0.6502  0.3795  0.1440
 7896SOL     OW35323   1.936   4.488  14.750  0.0722 -0.7791  0.7390
 7896SOL    HW135324   1.991   4.425  14.797  0.2767 -1.4197 -0.3641
 7896SOL    HW235325   1.950   4.459  14.660  2.0510  2.4817  0.0022
 7897SOL     OW35326   0.785   3.694  16.860  0.1801  0.2324  0.3733
 7897SOL    HW135327   0.754   3.783  16.878  1.2752  0.9451 -1.1730
 7897SOL    HW235328   0.812   3.713  16.770  2.1687 -4.3997 -0.0389
 7898SOL     OW35329   1.081   2.661   8.579 -0.2257 -0.2414  0.7317
 7898SOL    HW135330   1.174   2.675   8.596  0.3688  0.0170 -2.7330
 7898SOL    HW235331   1.077   2.568   8.599 -1.3694 -0.1194  1.0613
 7899SOL     OW35332   1.366   1.760   0.766 -0.0297  0.0459  0.1189
 7899SOL    HW135333   1.427   1.749   0.839  0.4425 -0.3818 -0.3439
 7899SOL    HW235334   1.416   1.724   0.692  0.0213  0.6775 -0.1595
 7900SOL     OW35335   0.743   2.239   2.822 -0.0599  0.1116 -0.1384
 7900SOL    HW135336   0.772   2.321   2.863  0.4103 -0.4376  0.6369
 7900SOL    HW235337   0.718   2.275   2.737  0.9746 -0.9122 -0.8669
 7901SOL     OW35338   4.139   0.613  14.829 -0.1041  0.0381 -0.4147
 7901SOL    HW135339   4.169   0.611  14.920 -1.9241  0.8341  0.2046
 7901SOL    HW235340   4.220   0.599  14.779 -0.5689  0.9579 -1.4448
 7902SOL     OW35341   3.887   3.693   6.631  0.2307 -0.2974 -1.1308
 7902SOL    HW135342   3.846   3.628   6.574 -0.7378 -0.6330 -0.0297
 7902SOL    HW235343   3.908   3.764   6.570  1.9023  0.4036  0.2782
 7903SOL     OW35344   2.688   4.476  11.278 -0.3954 -0.6380  0.3950
 7903SOL    HW135345   2.612   4.505  11.227  1.8397 -0.4606 -2.8179
 7903SOL    HW235346   2.642   4.452  11.358 -3.2358  1.5962 -0.5679
 7904SOL     OW35347   4.075   4.155   9.873  0.3996 -0.4483 -0.0535
 7904SOL    HW135348   4.167   4.181   9.871  0.6769 -1.4475 -0.3224
 7904SOL    HW235349   4.027   4.229   9.837 -0.4472 -1.3304 -0.7379
 7905SOL     OW35350   0.050   1.448   1.686 -0.4494  0.3129  0.1913
 7905SOL    HW135351   0.113   1.517   1.706 -0.3580  0.2697  0.0501
 7905SOL    HW235352   0.027   1.412   1.772 -0.8317 -1.1459 -0.5118
 7906SOL     OW35353   4.285   1.323   3.865 -0.0970 -0.2210 -0.1997
 7906SOL    HW135354   4.215   1.284   3.813 -0.0551 -1.0396  0.3548
 7906SOL    HW235355   4.358   1.267   3.837  1.6250  1.5426  0.7029
 7907SOL     OW35356   3.123   3.364   1.664  0.5881 -0.8948  0.3378
 7907SOL    HW135357   3.195   3.302   1.672  0.6229 -0.7597  1.1030
 7907SOL    HW235358   3.163   3.449   1.686  1.4465 -1.0672 -0.6243
 7908SOL     OW35359   2.807   3.751   1.607  0.3115  0.2904  0.1947
 7908SOL    HW135360   2.797   3.656   1.595 -2.6630  0.6442 -0.0770
 7908SOL    HW235361   2.736   3.777   1.665 -0.7380 -0.5307 -0.7156
 7909SOL     OW35362   1.343   2.952   4.896  0.3703  0.1173  0.5081
 7909SOL    HW135363   1.423   2.929   4.944  1.1551 -1.9901 -1.8422
 7909SOL    HW235364   1.379   3.040   4.880  1.9157 -0.5515  0.3325
 7910SOL     OW35365   0.230   3.876   6.623 -0.0100  0.7015  0.4998
 7910SOL    HW135366   0.146   3.833   6.642  0.4642 -0.8370 -0.9113
 7910SOL    HW235367   0.246   3.845   6.534  0.9176  1.1002  0.5304
 7911SOL     OW35368   3.085   0.238  15.292 -0.0478  0.2317  0.5390
 7911SOL    HW135369   3.126   0.270  15.372 -2.0118  1.2709  1.1391
 7911SOL    HW235370   3.158   0.255  15.233 -1.7903 -0.5263 -1.8394
 7912SOL     OW35371   1.853   3.814  12.454  0.2433 -0.6476 -0.3161
 7912SOL    HW135372   1.912   3.741  12.472  1.3113 -0.2687 -2.2623
 7912SOL    HW235373   1.772   3.763  12.461 -0.3296  0.1905 -0.8200
 7913SOL     OW35374   1.090   2.085   1.220 -0.1102  0.1519  0.6031
 7913SOL    HW135375   1.136   2.169   1.227  1.4007 -0.6366  0.2162
 7913SOL    HW235376   1.161   2.033   1.182 -0.7686 -0.2848 -0.0217
 7914SOL     OW35377   1.884   4.232   8.351 -0.0960  0.0106 -0.2401
 7914SOL    HW135378   1.898   4.327   8.345 -1.9285  0.2690 -0.4167
 7914SOL    HW235379   1.920   4.206   8.436  2.5853 -0.1094 -1.4319
 7915SOL     OW35380   2.724   0.905   8.684 -0.2548 -0.2477  0.1744
 7915SOL    HW135381   2.800   0.866   8.728  0.8001  0.5524 -0.9210
 7915SOL    HW235382   2.762   0.955   8.611 -1.1512 -0.8296 -0.6810
 7916SOL     OW35383   1.586   3.966  15.142 -0.0969 -0.6761 -0.2287
 7916SOL    HW135384   1.589   4.049  15.189  1.6649 -0.4636 -0.7285
 7916SOL    HW235385   1.675   3.933  15.134  0.6834  1.1176  1.1211
 7917SOL     OW35386   3.307   0.590  12.909  0.1298 -0.2924 -0.5821
 7917SOL    HW135387   3.219   0.592  12.871  0.4475  0.6404 -1.2766
 7917SOL    HW235388   3.327   0.497  12.914  3.7403  0.4757 -0.2254
 7918SOL     OW35389   0.112   4.541   6.691  0.0339  0.7405  0.2559
 7918SOL    HW135390   0.036   4.547   6.634 -0.4431 -1.0136  0.7172
 7918SOL    HW235391   0.077   4.565   6.777  0.6632 -1.0241  1.0070
 7919SOL     OW35392   1.114   1.926   9.026 -0.4454  0.0328  0.2096
 7919SOL    HW135393   1.108   2.018   9.051 -1.1404 -0.1393  0.6853
 7919SOL    HW235394   1.206   1.908   9.045  0.6511  3.5226 -1.7725
 7920SOL     OW35395   3.104   1.969   6.113 -0.4768 -0.1304 -0.1045
 7920SOL    HW135396   3.013   1.944   6.102 -0.7173  1.6851 -2.1536
 7920SOL    HW235397   3.106   1.948   6.206  2.0675 -0.4591 -0.2183
 7921SOL     OW35398   0.673   3.181   9.299 -0.2680 -0.1097 -0.7246
 7921SOL    HW135399   0.634   3.124   9.233  0.2537 -0.4764 -0.7193
 7921SOL    HW235400   0.763   3.166   9.268 -0.3170 -0.4525 -0.6937
 7922SOL     OW35401   0.049   1.102  11.932 -0.3361  0.3759  0.3102
 7922SOL    HW135402   0.038   1.053  11.850 -1.5554  2.6527 -0.8923
 7922SOL    HW235403   0.087   1.029  11.981 -1.3937 -1.5570 -1.7200
 7923SOL     OW35404   2.564   2.474   0.249 -0.1078 -0.0111  0.0544
 7923SOL    HW135405   2.563   2.385   0.213  0.4789  0.0269 -0.0706
 7923SOL    HW235406   2.530   2.472   0.338  3.9904 -0.5223  1.6441
 7924SOL     OW35407   3.438   1.823  13.721  0.2790  0.1792  0.7836
 7924SOL    HW135408   3.517   1.793  13.677 -0.7838  0.8881 -1.5802
 7924SOL    HW235409   3.458   1.788  13.808  1.1322 -1.8375 -0.2387
 7925SOL     OW35410   1.005   0.905   7.332  0.4685  0.1766  0.4591
 7925SOL    HW135411   1.036   0.953   7.409  1.5901 -1.2080  0.8781
 7925SOL    HW235412   0.992   0.971   7.265  1.2399 -0.7979 -0.6492
 7926SOL     OW35413   1.244   0.948   7.039 -0.4736 -0.1820 -0.7923
 7926SOL    HW135414   1.161   0.975   7.079  1.0063  1.6575  1.0641
 7926SOL    HW235415   1.305   1.018   7.061 -2.3254  0.6074  1.9857
 7927SOL     OW35416   1.653   4.080  14.351  0.1241 -0.1132  0.2370
 7927SOL    HW135417   1.724   4.028  14.314  0.4577  1.1855 -0.9399
 7927SOL    HW235418   1.633   4.027  14.428  1.1181  1.9443  1.9491
 7928SOL     OW35419   2.277   1.226   7.420 -0.0032  0.0223 -0.0729
 7928SOL    HW135420   2.281   1.241   7.325 -0.8230  0.6631 -0.0021
 7928SOL    HW235421   2.189   1.189   7.426 -0.0600  0.0754 -0.5798
 7929SOL     OW35422   4.133   4.466   1.900  0.2345 -0.8132 -0.3716
 7929SOL    HW135423   4.095   4.513   1.825  0.5266  0.6082  0.3623
 7929SOL    HW235424   4.227   4.483   1.910 -0.0410  0.4051  0.1073
 7930SOL     OW35425   3.130   4.139   8.158 -0.3275 -0.3386 -0.2679
 7930SOL    HW135426   3.217   4.128   8.120  0.0620 -1.3094  0.9125
 7930SOL    HW235427   3.127   4.232   8.136 -0.6029  0.0521  1.4210
 7931SOL     OW35428   1.594   3.793  16.566  0.6418  0.5959 -0.6786
 7931SOL    HW135429   1.559   3.823  16.650 -0.4636  2.2870 -1.7544
 7931SOL    HW235430   1.575   3.872  16.516  1.1970  1.0729 -0.1379
 7932SOL     OW35431   0.800   3.032   4.620 -0.2245 -0.3777 -0.2658
 7932SOL    HW135432   0.841   3.016   4.535 -0.8951 -1.0321 -0.4663
 7932SOL    HW235433   0.734   2.962   4.627 -0.5681  0.1415  1.6834
 7933SOL     OW35434   3.227   2.229   0.218 -0.5435  0.1594  0.5166
 7933SOL    HW135435   3.147   2.178   0.223  0.6843 -1.6054  2.2235
 7933SOL    HW235436   3.270   2.201   0.299 -2.2199 -1.4339  0.8549
 7934SOL     OW35437   3.093   3.253   2.013 -0.6887  0.1998  0.3931
 7934SOL    HW135438   3.134   3.175   1.976  1.6389  0.8018  1.7074
 7934SOL    HW235439   3.010   3.212   2.040 -0.6424  0.8647  1.5482
 7935SOL     OW35440   3.511   4.075  13.383 -0.5117  0.1742  0.1012
 7935SOL    HW135441   3.575   4.098  13.316  0.4860  0.1792  1.0689
 7935SOL    HW235442   3.492   4.156  13.430  1.1112 -0.7536  2.3621
 7936SOL     OW35443   3.832   1.164   3.121  0.3011 -0.1413 -0.0053
 7936SOL    HW135444   3.831   1.080   3.166  0.6670 -0.4499 -0.5780
 7936SOL    HW235445   3.925   1.185   3.123 -0.3912  2.8434  1.8587
 7937SOL     OW35446   0.485   0.636   1.475  0.1291 -0.2778  0.5183
 7937SOL    HW135447   0.502   0.701   1.406  3.2868 -0.9634  0.6457
 7937SOL    HW235448   0.452   0.701   1.537 -1.0255 -1.4583  1.1391
 7938SOL     OW35449   4.692   0.704  12.275 -0.0073 -0.2595 -0.5594
 7938SOL    HW135450   4.652   0.712  12.362  1.9678  0.1704  0.2998
 7938SOL    HW235451   4.626   0.640  12.248  0.1160  0.9311 -3.6649
 7939SOL     OW35452   2.791   2.802   3.005 -0.3058 -0.3532  0.0566
 7939SOL    HW135453   2.811   2.895   3.014 -2.3717  0.3913 -3.0850
 7939SOL    HW235454   2.871   2.769   2.964 -0.1876  1.1256 -0.8950
 7940SOL     OW35455   2.840   1.687   7.111 -0.8628  0.2315  0.1027
 7940SOL    HW135456   2.879   1.685   7.198 -2.4915  1.2998  0.8665
 7940SOL    HW235457   2.751   1.719   7.123 -1.3400 -0.7983 -0.6729
 7941SOL     OW35458   1.463   2.412   6.314  0.4192 -0.0773 -0.1106
 7941SOL    HW135459   1.457   2.507   6.310 -2.2763 -0.3210 -1.4993
 7941SOL    HW235460   1.468   2.399   6.409  0.4754  1.2762  0.0642
 7942SOL     OW35461   3.232   3.048   5.712  0.7193 -0.2087 -0.1680
 7942SOL    HW135462   3.148   3.031   5.669  1.2614 -3.1405 -0.0693
 7942SOL    HW235463   3.233   3.143   5.725 -0.3244 -0.1693 -0.3374
 7943SOL     OW35464   0.540   0.493   0.623 -0.7087  0.1150 -0.3761
 7943SOL    HW135465   0.571   0.535   0.542 -0.0991  1.8397  0.7535
 7943SOL    HW235466   0.448   0.488   0.597 -0.0179 -1.0423 -2.5984
 7944SOL     OW35467   2.532   1.135   8.201  0.2627  0.4432 -0.1618
 7944SOL    HW135468   2.596   1.165   8.266 -2.5721  2.2552  1.7737
 7944SOL    HW235469   2.452   1.151   8.251  1.4058  1.0328  1.4868
 7945SOL     OW35470   1.548   4.643  14.359  0.1930  0.4992  0.1458
 7945SOL    HW135471   1.581   4.559  14.328  0.4116  1.1327 -1.3268
 7945SOL    HW235472   1.494   4.609  14.431  1.2715  3.2219  2.2533
 7946SOL     OW35473   3.815   4.279  13.847 -0.3812 -0.0497 -0.8085
 7946SOL    HW135474   3.880   4.216  13.877 -1.6449 -1.3062 -0.6606
 7946SOL    HW235475   3.795   4.233  13.765  0.1818 -1.9507  0.1129
 7947SOL     OW35476   1.333   3.811   7.341  0.0288  0.1351 -0.4070
 7947SOL    HW135477   1.359   3.833   7.251 -1.0610  0.6840 -0.5897
 7947SOL    HW235478   1.243   3.841   7.327  0.8000  1.9181 -1.6211
 7948SOL     OW35479   3.360   0.974   3.224 -0.3244 -0.0646  0.1596
 7948SOL    HW135480   3.340   0.881   3.215  0.5322 -0.1479 -0.9958
 7948SOL    HW235481   3.274   1.014   3.208 -1.3530 -0.6805  4.3692
 7949SOL     OW35482   2.965   0.904  11.819 -0.2259  0.0105  0.3688
 7949SOL    HW135483   3.001   0.988  11.848 -0.1795  0.1486 -0.0866
 7949SOL    HW235484   3.013   0.898  11.736 -0.2594 -0.9249  0.4109
 7950SOL     OW35485   3.493   0.903   6.872 -0.1315  0.6531  0.3697
 7950SOL    HW135486   3.520   0.924   6.783 -2.3197  1.4570 -0.1206
 7950SOL    HW235487   3.440   0.974   6.909 -0.8134  0.8029 -0.8794
 7951SOL     OW35488   2.763   3.122   6.938 -0.0028 -0.2450 -0.6671
 7951SOL    HW135489   2.753   3.091   6.848  0.9013 -1.4547 -0.3469
 7951SOL    HW235490   2.800   3.208   6.918  0.8492  0.4460  3.8557
 7952SOL     OW35491   1.275   2.030   0.119 -0.3406  0.3904  0.3745
 7952SOL    HW135492   1.287   2.121   0.092  0.1262  1.2771  3.5795
 7952SOL    HW235493   1.365   2.002   0.131 -0.7103 -1.0921 -0.3860
 7953SOL     OW35494   3.282   2.698   6.203  0.5670 -0.8605 -0.2712
 7953SOL    HW135495   3.297   2.771   6.143  2.5469 -0.2688  0.9514
 7953SOL    HW235496   3.246   2.638   6.137 -3.5886 -2.0267  3.0493
 7954SOL     OW35497   1.677   1.277  17.426 -0.4124 -0.0268  0.1057
 7954SOL    HW135498   1.770   1.291  17.408 -0.7043 -1.0838 -2.3303
 7954SOL    HW235499   1.646   1.254  17.338  1.8134  0.7613 -0.8747
 7955SOL     OW35500   0.066   4.192  10.086  0.2858  0.0350  0.2152
 7955SOL    HW135501   0.083   4.113  10.137  0.4824  0.6416  1.0789
 7955SOL    HW235502   0.145   4.245  10.088  0.4398 -0.2560  1.5616
 7956SOL     OW35503   1.332   2.210   1.624 -0.0762 -0.6721  0.1183
 7956SOL    HW135504   1.278   2.284   1.648  0.9139  0.1570 -0.2166
 7956SOL    HW235505   1.398   2.252   1.569 -3.0358  1.8398 -1.4972
 7957SOL     OW35506   4.438   3.416   3.260 -0.0411 -0.2270 -0.5372
 7957SOL    HW135507   4.419   3.336   3.308 -1.3871  0.2461 -0.2678
 7957SOL    HW235508   4.403   3.481   3.321  1.4483 -2.0682  2.2583
 7958SOL     OW35509   0.813   1.280   9.870  0.2243  0.2879  0.2947
 7958SOL    HW135510   0.801   1.370   9.842 -1.0803 -0.0132 -0.1265
 7958SOL    HW235511   0.752   1.273   9.944  0.0727  1.5308  0.2751
 7959SOL     OW35512   0.697   3.131   3.459 -0.0946 -0.1962  0.2614
 7959SOL    HW135513   0.755   3.056   3.449  1.8325  1.2946  0.2751
 7959SOL    HW235514   0.718   3.187   3.384  1.5667  1.3940  1.8870
 7960SOL     OW35515   0.060   0.852   6.461 -0.0253  0.5767  0.4803
 7960SOL    HW135516   0.067   0.792   6.536 -1.4602  0.1472  0.2689
 7960SOL    HW235517   0.037   0.932   6.508 -1.5815 -0.4658  1.5091
 7961SOL     OW35518   3.162   1.822   4.722  0.0175 -0.2516 -0.1375
 7961SOL    HW135519   3.252   1.835   4.690  0.3549 -0.3181  0.7612
 7961SOL    HW235520   3.129   1.910   4.735 -0.9346 -0.5740 -0.4106
 7962SOL     OW35521   3.268   4.402   5.432  0.4228 -0.1220 -0.0777
 7962SOL    HW135522   3.323   4.371   5.504 -0.4635  0.2562  0.7615
 7962SOL    HW235523   3.300   4.491   5.420  0.9048 -0.2738  0.0669
 7963SOL     OW35524   1.314   2.359   2.885 -0.5946  0.7672 -0.0178
 7963SOL    HW135525   1.408   2.366   2.868 -0.3978 -0.4301  0.6149
 7963SOL    HW235526   1.276   2.415   2.817  0.9406  1.2197 -0.4949
 7964SOL     OW35527   1.656   2.630  13.245 -0.3582  0.1480  0.1744
 7964SOL    HW135528   1.584   2.676  13.289 -1.6988 -1.0431 -0.7803
 7964SOL    HW235529   1.611   2.548  13.221 -2.1496  1.7038 -1.7204
 7965SOL     OW35530   1.511   4.571   1.710 -0.5743 -0.6223  0.3278
 7965SOL    HW135531   1.563   4.555   1.789 -0.7017 -1.6179  0.2126
 7965SOL    HW235532   1.447   4.640   1.727  1.0934  1.6377 -2.4918
 7966SOL     OW35533   3.314   4.658   5.421 -0.5759 -0.0170  0.3199
 7966SOL    HW135534   3.324   4.664   5.516 -0.0069 -2.4097  0.4152
 7966SOL    HW235535   3.345   0.007   5.389 -0.2588 -0.4396 -0.4758
 7967SOL     OW35536   2.684   2.019  17.627  0.3091 -0.4739  0.6332
 7967SOL    HW135537   2.761   2.057  17.584  0.2168 -1.4057 -0.3480
 7967SOL    HW235538   2.615   2.023  17.561  0.1238 -0.0441  0.8583
 7968SOL     OW35539   0.931   2.292  12.281 -0.5356  0.2903  0.5481
 7968SOL    HW135540   0.872   2.244  12.222  1.2131 -1.0981 -0.0540
 7968SOL    HW235541   1.010   2.240  12.293  0.9705  2.3433 -0.6482
 7969SOL     OW35542   0.643   3.689   5.430  0.0993 -0.4686 -0.0061
 7969SOL    HW135543   0.691   3.688   5.347  1.3088 -0.0348  0.6922
 7969SOL    HW235544   0.588   3.610   5.430 -1.0536  0.3282  0.8188
 7970SOL     OW35545   0.864   2.274   9.486  0.5064 -0.2883  0.6126
 7970SOL    HW135546   0.846   2.336   9.556  1.6940 -1.9286  2.3600
 7970SOL    HW235547   0.951   2.301   9.458 -0.4568  1.7720 -0.3995
 7971SOL     OW35548   0.417   0.151   7.049 -0.3365  0.0766  0.3469
 7971SOL    HW135549   0.364   0.084   7.007  0.7395  0.1328 -1.1070
 7971SOL    HW235550   0.441   0.116   7.135 -1.4610 -1.2232  0.1238
 7972SOL     OW35551   3.083   2.563  16.325 -0.2012  0.4448  0.5236
 7972SOL    HW135552   3.119   2.530  16.407  0.1632 -0.6464 -0.0765
 7972SOL    HW235553   3.165   2.582  16.280  0.5965 -3.4224  0.3845
 7973SOL     OW35554   3.712   0.651   9.722 -0.5550  0.3788  0.7971
 7973SOL    HW135555   3.663   0.574   9.753  2.1391 -1.9000 -0.6173
 7973SOL    HW235556   3.678   0.652   9.632  0.1330  0.5866  0.5436
 7974SOL     OW35557   0.059   1.792   6.461  0.0730  0.3672 -0.5407
 7974SOL    HW135558   0.148   1.768   6.486  0.3621 -0.0764 -2.0432
 7974SOL    HW235559   0.006   1.714   6.474  1.0999 -0.2764 -0.2483
 7975SOL     OW35560   1.441   1.617   8.390 -0.6382 -0.1887  0.0275
 7975SOL    HW135561   1.505   1.664   8.445 -1.0955  1.3782 -0.7816
 7975SOL    HW235562   1.467   1.525   8.396  0.0847 -0.0596 -1.2597
 7976SOL     OW35563   4.165   0.535   8.517  0.5104 -0.2541 -0.4407
 7976SOL    HW135564   4.111   0.580   8.453  0.9619  0.2738 -0.4514
 7976SOL    HW235565   4.107   0.459   8.527  0.7312 -0.4013 -0.2686
 7977SOL     OW35566   1.098   0.890   8.016  0.4335  0.9139 -0.0642
 7977SOL    HW135567   1.024   0.839   8.049 -0.2709  1.1531 -1.2464
 7977SOL    HW235568   1.056   0.975   7.999  0.4877  0.1417 -4.2297
 7978SOL     OW35569   2.421   3.782  13.827 -0.6922  0.9013  0.4446
 7978SOL    HW135570   2.486   3.844  13.862 -0.2981 -0.9542  2.9779
 7978SOL    HW235571   2.354   3.842  13.794 -2.2161 -0.2985  1.3345
 7979SOL     OW35572   0.234   3.932   4.020  0.0746 -0.3910 -0.3708
 7979SOL    HW135573   0.196   3.977   4.095  1.0415  0.5457 -0.4432
 7979SOL    HW235574   0.158   3.914   3.964  1.3181 -1.2397 -1.7836
 7980SOL     OW35575   0.558   0.890  11.954 -0.0116  0.1314  0.3570
 7980SOL    HW135576   0.564   0.946  12.032 -1.8412 -0.1772  0.7247
 7980SOL    HW235577   0.463   0.886  11.952  0.0898 -1.9804 -0.0747
 7981SOL     OW35578   3.792   2.252   2.431 -0.3249  0.2964 -0.3152
 7981SOL    HW135579   3.722   2.196   2.464 -2.6441  1.6739 -2.8593
 7981SOL    HW235580   3.866   2.191   2.434 -0.3788  0.3629  2.6500
 7982SOL     OW35581   3.915   0.568   2.170 -0.1010  0.5403  1.0439
 7982SOL    HW135582   3.939   0.634   2.235  0.2518  0.3941  1.0626
 7982SOL    HW235583   3.996   0.518   2.167  0.2393  1.1217  0.8148
 7983SOL     OW35584   2.734   3.095   5.920 -0.4767 -0.0804 -0.4259
 7983SOL    HW135585   2.648   3.088   5.961  0.0669  1.8985  1.0346
 7983SOL    HW235586   2.711   3.049   5.839  3.1490  0.3241 -1.6927
 7984SOL     OW35587   2.604   2.452   8.961 -0.3657 -0.4439 -0.4545
 7984SOL    HW135588   2.688   2.491   8.940 -0.0776 -0.7045  0.2093
 7984SOL    HW235589   2.561   2.436   8.877  0.7198  1.0720 -1.3009
 7985SOL     OW35590   1.249   0.224   4.879 -0.5262 -0.3362  0.3922
 7985SOL    HW135591   1.286   0.289   4.939  0.3889 -1.7603  1.3667
 7985SOL    HW235592   1.318   0.213   4.813 -1.0575  1.5150 -0.4846
 7986SOL     OW35593   2.679   2.002  16.673 -0.1333  0.2288 -0.1236
 7986SOL    HW135594   2.642   2.048  16.749  0.6282 -0.0695  0.4311
 7986SOL    HW235595   2.623   1.925  16.670 -0.9049  0.8463 -1.3775
 7987SOL     OW35596   3.674   1.035   5.789  0.2554  0.8076 -0.0661
 7987SOL    HW135597   3.585   1.029   5.754  0.4776 -3.6245  0.2069
 7987SOL    HW235598   3.684   1.130   5.799  0.8213  1.0548 -2.9666
 7988SOL     OW35599   2.614   2.096   7.180 -0.2228  0.0269 -0.1783
 7988SOL    HW135600   2.662   2.179   7.179  1.2796 -0.7798  2.8484
 7988SOL    HW235601   2.585   2.100   7.271 -0.6433  3.2733 -0.4824
 7989SOL     OW35602   1.337   1.426  14.531  0.1904 -0.2138  0.6391
 7989SOL    HW135603   1.415   1.480  14.534  0.3603 -0.6335  4.1860
 7989SOL    HW235604   1.350   1.349  14.587  2.8084 -0.1357  0.1260
 7990SOL     OW35605   0.707   0.627   3.211 -0.1467 -0.3847  0.3023
 7990SOL    HW135606   0.713   0.664   3.299 -1.2770 -1.4007  0.8106
 7990SOL    HW235607   0.779   0.676   3.170 -1.0991 -0.2299 -1.2213
 7991SOL     OW35608   3.793   0.422   0.287 -0.5072  0.1148 -0.3951
 7991SOL    HW135609   3.855   0.418   0.214  1.4372 -0.7110  1.2724
 7991SOL    HW235610   3.742   0.342   0.279  0.7239 -0.6650 -0.5444
 7992SOL     OW35611   1.670   1.261  14.966  0.5662  0.5645 -0.4197
 7992SOL    HW135612   1.612   1.327  15.003 -1.4624 -0.8235 -1.0657
 7992SOL    HW235613   1.751   1.301  14.996 -1.0899  2.6228  1.3221
 7993SOL     OW35614   0.862   1.781   6.020 -0.2537  0.0241  0.3112
 7993SOL    HW135615   0.913   1.852   6.060 -0.5992  0.1068  0.6044
 7993SOL    HW235616   0.873   1.784   5.925 -1.8431  0.4858  0.1329
 7994SOL     OW35617   1.596   1.023   6.897  0.0748  0.0073  0.2073
 7994SOL    HW135618   1.650   1.066   6.830  0.5714 -1.4657 -0.3244
 7994SOL    HW235619   1.528   0.985   6.841  1.2989 -3.8703  1.3814
 7995SOL     OW35620   2.067   3.915   6.614  0.0967  0.1448  0.3071
 7995SOL    HW135621   1.983   3.903   6.657  0.2646 -2.1920 -0.0529
 7995SOL    HW235622   2.056   4.005   6.582  1.0087  0.1314 -0.0528
 7996SOL     OW35623   4.365   2.724   2.179 -0.0264 -0.2410  0.1312
 7996SOL    HW135624   4.455   2.741   2.149  0.7578 -1.9708  1.4802
 7996SOL    HW235625   4.319   2.790   2.126  0.5073 -0.7720 -0.9939
 7997SOL     OW35626   2.854   3.397  11.499 -0.2034  0.6684  0.4427
 7997SOL    HW135627   2.768   3.356  11.491 -0.8490  2.1231  0.0633
 7997SOL    HW235628   2.875   3.363  11.585 -0.8706 -1.6082 -0.2888
 7998SOL     OW35629   0.608   1.839   4.074  0.2111 -0.6236  0.1115
 7998SOL    HW135630   0.536   1.812   4.017 -0.1178  0.4155  0.0316
 7998SOL    HW235631   0.671   1.771   4.051  1.8748  0.5731  1.1449
 7999SOL     OW35632   2.403   0.640   3.617 -0.6808  0.0515 -0.0763
 7999SOL    HW135633   2.359   0.689   3.686 -0.2515 -0.6225  0.6743
 7999SOL    HW235634   2.480   0.619   3.670  1.8299 -0.6814 -3.9579
 8000SOL     OW35635   2.466   2.867  11.104  0.0999 -0.3181  0.1790
 8000SOL    HW135636   2.462   2.901  11.194 -0.7369 -0.8779  0.3623
 8000SOL    HW235637   2.561   2.870  11.096 -0.0270  3.1744  0.0121
 8001SOL     OW35638   2.878   0.680   2.337 -0.6637  0.3127  0.1314
 8001SOL    HW135639   2.851   0.650   2.424 -1.0058 -0.3457 -0.2063
 8001SOL    HW235640   2.841   0.768   2.328 -2.9312 -0.6420  0.0895
 8002SOL     OW35641   1.915   2.985  11.583  0.4864  0.1399 -0.2985
 8002SOL    HW135642   1.879   3.043  11.516  1.5733 -0.5684 -1.4706
 8002SOL    HW235643   2.008   2.968  11.572  1.3370  3.0921  2.3038
 8003SOL     OW35644   1.080   1.510   8.232  0.1067  0.1488 -0.3686
 8003SOL    HW135645   1.144   1.548   8.172 -0.3925 -0.2476 -1.1531
 8003SOL    HW235646   1.015   1.578   8.249 -0.7007 -0.7069 -0.0471
 8004SOL     OW35647   0.516   3.508   4.682 -0.3188  0.8586  0.0735
 8004SOL    HW135648   0.481   3.593   4.655 -1.9144  1.1803  3.1624
 8004SOL    HW235649   0.609   3.508   4.661 -0.4810 -0.4547 -0.6168
 8005SOL     OW35650   2.014   0.754   6.252  0.1379  0.2374  0.4235
 8005SOL    HW135651   1.991   0.843   6.226  0.9560 -0.2055 -1.7853
 8005SOL    HW235652   2.095   0.776   6.298 -2.1926  2.0914  3.6224
 8006SOL     OW35653   3.842   0.593   3.546 -0.1718 -0.2001  0.0657
 8006SOL    HW135654   3.872   0.683   3.555 -0.7393  0.0698 -0.7972
 8006SOL    HW235655   3.779   0.603   3.475  1.1751 -1.8017 -1.3726
 8007SOL     OW35656   0.126   4.024   5.108 -0.5200 -0.0350 -0.1430
 8007SOL    HW135657   0.204   4.073   5.135  0.1680 -1.2426  0.0437
 8007SOL    HW235658   0.169   3.952   5.063 -3.8279 -2.2209  0.2596
 8008SOL     OW35659   0.282   4.465  11.378 -0.3092  0.4496  0.1884
 8008SOL    HW135660   0.284   4.445  11.284 -1.0395 -0.0932  0.2844
 8008SOL    HW235661   0.332   4.546  11.379  0.6330 -0.1662  2.5992
 8009SOL     OW35662   1.615   0.134  16.562 -0.0576  0.2624  0.1513
 8009SOL    HW135663   1.571   0.142  16.477 -0.5378 -0.7693  0.3002
 8009SOL    HW235664   1.620   0.038  16.565 -0.5866  0.1696 -2.0429
 8010SOL     OW35665   3.882   3.849   8.679  0.0628 -0.2274  0.0861
 8010SOL    HW135666   3.855   3.920   8.622 -2.8990 -0.3327  1.3572
 8010SOL    HW235667   3.925   3.905   8.744 -0.7176  0.5976 -0.1065
 8011SOL     OW35668   0.341   1.275   7.610  0.0193  0.1529  0.5939
 8011SOL    HW135669   0.348   1.225   7.529  0.1537 -0.5071  1.0180
 8011SOL    HW235670   0.275   1.341   7.585 -0.3700 -0.7959 -0.9104
 8012SOL     OW35671   3.902   1.616   3.735  0.1475 -0.4949 -0.0294
 8012SOL    HW135672   3.833   1.593   3.797  0.4585 -0.9352  0.1594
 8012SOL    HW235673   3.980   1.614   3.791 -0.1747  0.8435  0.4443
 8013SOL     OW35674   4.089   1.151   4.099 -0.5178 -0.2685 -0.3019
 8013SOL    HW135675   4.088   1.206   4.020 -0.3995  0.9616  0.5526
 8013SOL    HW235676   4.114   1.218   4.163  0.6244 -0.5138 -0.5024
 8014SOL     OW35677   1.911   4.303   4.081 -0.0717 -0.2639  0.8000
 8014SOL    HW135678   1.994   4.274   4.119  0.5707 -1.2979 -1.3888
 8014SOL    HW235679   1.893   4.382   4.131  0.5793 -0.5472  1.4703
 8015SOL     OW35680   4.484   3.057   1.525 -0.2617 -0.1610  1.1836
 8015SOL    HW135681   4.391   3.076   1.514  0.1743  0.2946 -1.5894
 8015SOL    HW235682   4.484   2.967   1.556  0.1420 -0.3988  0.4919
 8016SOL     OW35683   1.986   1.844  10.844  0.2371 -1.0049 -0.0231
 8016SOL    HW135684   1.912   1.842  10.906  1.0585  0.7093  1.0364
 8016SOL    HW235685   1.987   1.750  10.827 -1.1988 -1.3402  1.7308
 8017SOL     OW35686   4.225   1.913  12.919  0.1775  0.2817  0.1161
 8017SOL    HW135687   4.260   1.894  13.006 -1.4232 -1.3064  0.4014
 8017SOL    HW235688   4.175   1.995  12.924  1.3722  1.0274 -0.1882
 8018SOL     OW35689   0.213   1.695   4.088  0.7675  0.9280 -0.1331
 8018SOL    HW135690   0.240   1.604   4.093 -2.4964 -0.1440 -2.3068
 8018SOL    HW235691   0.119   1.682   4.099  0.1970  1.7561 -3.9810
 8019SOL     OW35692   4.130   0.377   3.051  0.5424 -0.1761  0.0643
 8019SOL    HW135693   4.115   0.323   3.128  0.8093 -1.3318 -0.6898
 8019SOL    HW235694   4.057   0.440   3.057 -0.4657 -1.3589  0.1804
 8020SOL     OW35695   2.658   0.070  14.614 -0.5298 -0.6148 -0.5929
 8020SOL    HW135696   2.600   0.026  14.551 -1.1075  1.2822 -1.3706
 8020SOL    HW235697   2.608   0.151  14.618  1.4967  0.5782  0.6160
 8021SOL     OW35698   2.021   2.996  17.037  0.3318  0.2569  0.1797
 8021SOL    HW135699   1.969   3.072  17.063 -0.3389 -0.2790  0.3948
 8021SOL    HW235700   1.990   2.940  17.109 -1.2418  2.5806  1.3221
 8022SOL     OW35701   1.024   4.481  12.149 -0.4561  0.0493 -0.4362
 8022SOL    HW135702   0.973   4.543  12.200 -2.3871 -0.5537 -1.6445
 8022SOL    HW235703   0.958   4.445  12.090 -1.6623 -1.0140  1.5776
 8023SOL     OW35704   0.443   3.608  12.618  0.3580  0.6431  0.1692
 8023SOL    HW135705   0.453   3.659  12.537 -3.1844  0.1483 -0.6030
 8023SOL    HW235706   0.437   3.679  12.681  1.6213  0.1254  0.8819
 8024SOL     OW35707   2.630   4.616  15.818 -0.2440 -0.2458  0.5350
 8024SOL    HW135708   2.597   4.617  15.728  0.7107  3.0426  0.2081
 8024SOL    HW235709   2.720   4.644  15.798 -0.1004  1.1808  3.2593
 8025SOL     OW35710   3.466   2.340   4.507 -0.3832  0.0060 -0.1750
 8025SOL    HW135711   3.468   2.246   4.525  1.7497 -0.0062 -0.4636
 8025SOL    HW235712   3.553   2.356   4.472 -0.7300 -0.9593 -1.4866
 8026SOL     OW35713   2.270   0.520   3.955  0.6940 -0.1222 -0.4892
 8026SOL    HW135714   2.281   0.614   3.943  0.8107  0.1087  1.3277
 8026SOL    HW235715   2.360   0.496   3.980  1.0025 -1.3783 -2.8573
 8027SOL     OW35716   4.224   3.955   6.625 -0.3945 -0.0227 -0.8761
 8027SOL    HW135717   4.147   3.999   6.588  0.0325 -1.0774 -3.0597
 8027SOL    HW235718   4.276   4.019   6.672  0.2216 -1.0398 -0.1851
 8028SOL     OW35719   1.046   1.270   9.766 -0.7281 -0.6890  0.2589
 8028SOL    HW135720   0.961   1.276   9.810 -0.1970 -0.3152  1.2455
 8028SOL    HW235721   1.035   1.325   9.689  2.4176 -1.0453 -0.4264
 8029SOL     OW35722   1.237   0.468  14.058 -0.3975 -0.1076  0.0279
 8029SOL    HW135723   1.243   0.489  13.965  0.0019 -0.8700 -0.1170
 8029SOL    HW235724   1.195   0.550  14.083 -0.6238 -0.3307  0.3784
 8030SOL     OW35725   2.007   4.579  15.169  0.1410  0.4494 -0.5080
 8030SOL    HW135726   2.041   4.570  15.079  0.0311 -0.5598 -0.4510
 8030SOL    HW235727   1.938   4.514  15.176  0.5357  0.0509 -0.3409
 8031SOL     OW35728   4.242   1.657   8.120 -0.1676 -0.0657 -0.1663
 8031SOL    HW135729   4.335   1.658   8.145 -0.0113 -0.7177 -0.7099
 8031SOL    HW235730   4.228   1.563   8.107  0.0502  0.1125 -1.7508
 8032SOL     OW35731   0.087   2.678   7.902 -0.4238 -0.2942  0.3775
 8032SOL    HW135732   0.021   2.747   7.890 -0.0225  0.0372  0.0475
 8032SOL    HW235733   0.103   2.687   7.996  0.8009 -1.7052  0.2955
 8033SOL     OW35734   2.749   4.024   7.736  0.3819  0.3719  1.2555
 8033SOL    HW135735   2.747   4.005   7.642 -1.3246  2.7861  0.8225
 8033SOL    HW235736   2.840   4.002   7.758  0.7438  0.9557  0.3190
 8034SOL     OW35737   3.158   0.900   6.003  0.3646  0.2687  0.1897
 8034SOL    HW135738   3.244   0.866   6.026  0.1032 -0.9261 -0.5853
 8034SOL    HW235739   3.164   0.897   5.908  2.2047 -0.6482  0.3325
 8035SOL     OW35740   2.900   2.016   9.571  0.2057 -0.0139  0.4147
 8035SOL    HW135741   2.815   1.976   9.558 -0.3804  1.9117 -1.7579
 8035SOL    HW235742   2.890   2.111   9.567 -3.0161 -0.4974 -2.6629
 8036SOL     OW35743   1.845   1.879   5.139  0.5453 -0.0288 -0.6960
 8036SOL    HW135744   1.768   1.936   5.140  0.3988 -0.2077 -3.7673
 8036SOL    HW235745   1.846   1.846   5.229  0.9028  0.2984 -0.5777
 8037SOL     OW35746   3.515   1.376   3.668  0.1598 -0.1126 -0.3307
 8037SOL    HW135747   3.559   1.314   3.726 -1.8758 -1.5651 -0.3554
 8037SOL    HW235748   3.426   1.342   3.665  0.2356 -0.2371 -1.1475
 8038SOL     OW35749   0.798   0.662   4.231 -0.2701 -0.3941 -0.6043
 8038SOL    HW135750   0.889   0.670   4.202  0.4769  2.1320  2.4513
 8038SOL    HW235751   0.796   0.566   4.233  0.3220 -0.4306 -1.8158
 8039SOL     OW35752   0.454   2.072   3.559 -0.1513 -0.2433 -0.1524
 8039SOL    HW135753   0.473   2.100   3.649 -0.2445 -2.4808  0.5551
 8039SOL    HW235754   0.359   2.087   3.558  0.1107  1.3847 -2.2288
 8040SOL     OW35755   4.049   0.659  10.418  0.4076 -0.1093 -0.1321
 8040SOL    HW135756   3.969   0.651  10.366  0.7002 -0.2447 -0.5640
 8040SOL    HW235757   4.015   0.626  10.501  0.2994 -0.1023 -0.1738
 8041SOL     OW35758   2.807   3.791   9.661 -0.2875  0.3202 -0.0244
 8041SOL    HW135759   2.749   3.729   9.617 -0.3461  1.9989 -2.3210
 8041SOL    HW235760   2.752   3.814   9.736 -1.4843 -0.8969 -0.5374
 8042SOL     OW35761   1.617   2.469   3.163  0.4411 -0.3705  0.0798
 8042SOL    HW135762   1.554   2.517   3.217  2.7985  0.5894  1.9272
 8042SOL    HW235763   1.560   2.395   3.140  1.9133 -1.4747 -0.0148
 8043SOL     OW35764   3.687   1.779   0.648  0.9560  1.0226  0.5058
 8043SOL    HW135765   3.622   1.799   0.580  2.6011  0.2920 -1.2427
 8043SOL    HW235766   3.669   1.688   0.669  2.2681  0.6653  0.0654
 8044SOL     OW35767   3.502   3.188   5.607 -0.3955  0.0741 -0.2923
 8044SOL    HW135768   3.533   3.192   5.517  1.4458  2.2172  0.4373
 8044SOL    HW235769   3.450   3.268   5.605 -0.8293 -0.1935  0.1782
 8045SOL     OW35770   4.110   2.193   7.385 -0.0697 -0.2491 -0.2571
 8045SOL    HW135771   4.171   2.120   7.384  0.1855 -0.0258 -0.9070
 8045SOL    HW235772   4.043   2.159   7.444  0.8804 -4.4671 -1.6242
 8046SOL     OW35773   1.587   2.297  15.279  0.2473  0.2124 -0.4096
 8046SOL    HW135774   1.610   2.275  15.189  1.0740  0.1793 -0.1901
 8046SOL    HW235775   1.561   2.390  15.282 -1.3376 -0.3719  3.6789
 8047SOL     OW35776   4.224   4.524   8.349  0.4294  0.3337  0.2889
 8047SOL    HW135777   4.260   4.436   8.353  0.8634  0.5692  1.8494
 8047SOL    HW235778   4.147   4.527   8.406 -0.6231 -0.1642 -1.1373
 8048SOL     OW35779   3.984   1.741   8.747  0.0105  0.5370  0.3058
 8048SOL    HW135780   4.068   1.723   8.789 -0.3189 -2.1042 -0.1684
 8048SOL    HW235781   3.927   1.672   8.781  1.0696 -0.3220  0.3435
 8049SOL     OW35782   3.774   2.969  10.990  0.7547  0.6171 -0.1581
 8049SOL    HW135783   3.846   3.019  11.027 -0.8318  1.3081  1.9603
 8049SOL    HW235784   3.708   3.038  10.986 -1.4277 -1.3236  2.2640
 8050SOL     OW35785   3.584   4.288  15.826  0.3594  0.1909  0.3926
 8050SOL    HW135786   3.629   4.266  15.744  2.8585 -0.3476  1.9144
 8050SOL    HW235787   3.582   4.381  15.805 -2.7990  0.4212  1.7368
 8051SOL     OW35788   2.749   0.509  10.265 -0.2469 -0.0566 -0.8256
 8051SOL    HW135789   2.706   0.576  10.211  0.2221 -0.4035 -1.6368
 8051SOL    HW235790   2.689   0.440  10.237 -0.1170 -0.1021 -0.9934
 8052SOL     OW35791   4.236   2.632   9.014  0.0686  0.1899 -0.1413
 8052SOL    HW135792   4.290   2.611   9.090  1.1775  3.1111 -0.1314
 8052SOL    HW235793   4.153   2.634   9.062  0.7708 -1.6797  1.1496
 8053SOL     OW35794   0.772   0.756   7.334  0.1145 -0.0092 -0.0662
 8053SOL    HW135795   0.861   0.790   7.343  1.0512 -2.5899  0.5128
 8053SOL    HW235796   0.800   0.669   7.304  0.0058 -0.8561  2.2561
 8054SOL     OW35797   0.445   3.746   4.567  0.2051 -0.3361  0.0617
 8054SOL    HW135798   0.453   3.722   4.475  0.7442 -0.5534  0.1695
 8054SOL    HW235799   0.432   3.840   4.556  0.3308 -0.0927  2.0103
 8055SOL     OW35800   2.525   3.678   6.804  0.8945 -0.3794  0.0868
 8055SOL    HW135801   2.569   3.639   6.728  0.2903  0.8957 -0.9199
 8055SOL    HW235802   2.489   3.758   6.765  0.4949 -1.0110 -0.8694
 8056SOL     OW35803   0.846   1.927   4.504  0.7206 -0.4543  0.1728
 8056SOL    HW135804   0.767   1.946   4.452  1.0818 -0.9446 -0.5577
 8056SOL    HW235805   0.864   1.840   4.470  0.1355  0.5495 -2.7142
 8057SOL     OW35806   2.050   2.974   9.198 -0.1573  0.2714 -0.3379
 8057SOL    HW135807   2.061   3.062   9.235 -1.9846 -0.1692  1.2336
 8057SOL    HW235808   2.115   2.928   9.251 -1.4250 -0.6828  0.3838
 8058SOL     OW35809   2.136   1.795   5.366  0.2578  0.1304  0.0844
 8058SOL    HW135810   2.181   1.795   5.451 -0.5130 -0.6003  0.4975
 8058SOL    HW235811   2.147   1.704   5.338 -0.3423 -0.2475  1.0544
 8059SOL     OW35812   3.172   1.551   9.844  0.5526  0.3682  0.1526
 8059SOL    HW135813   3.184   1.524   9.935 -1.0160  0.6272  0.4355
 8059SOL    HW235814   3.254   1.531   9.799  0.8820  0.6066  0.6400
 8060SOL     OW35815   3.138   2.596  14.560 -0.2605  0.2635 -0.4688
 8060SOL    HW135816   3.097   2.575  14.476 -1.4870 -0.0237  0.1922
 8060SOL    HW235817   3.069   2.563  14.618 -1.4364  2.0988 -0.8256
 8061SOL     OW35818   3.373   0.832   7.521 -0.9677 -0.3607  0.5544
 8061SOL    HW135819   3.321   0.854   7.599 -1.3047  2.0799 -0.3603
 8061SOL    HW235820   3.333   0.866   7.442  0.7830  0.0870 -0.1446
 8062SOL     OW35821   3.126   3.575   9.173 -0.5502  0.5681  0.1719
 8062SOL    HW135822   3.153   3.545   9.086 -0.0975  2.0762 -0.2131
 8062SOL    HW235823   3.045   3.623   9.152 -0.4009  0.2480 -1.1333
 8063SOL     OW35824   3.544   0.980   6.153 -0.0441 -0.6016 -0.3562
 8063SOL    HW135825   3.478   0.992   6.221  0.5227 -0.6319  0.1987
 8063SOL    HW235826   3.490   0.926   6.096 -0.6902 -1.0119  0.6483
 8064SOL     OW35827   4.309   4.542   3.543 -0.2384 -0.1526  0.3111
 8064SOL    HW135828   4.362   4.562   3.466  0.5872 -0.6170  0.7570
 8064SOL    HW235829   4.255   4.619   3.559 -1.7998 -1.3516  0.8708
 8065SOL     OW35830   0.451   3.226   2.620  0.1934 -0.0101  0.0841
 8065SOL    HW135831   0.365   3.268   2.612 -0.4633 -1.1497  1.1169
 8065SOL    HW235832   0.426   3.134   2.607 -0.5654 -0.0326  1.7300
 8066SOL     OW35833   1.748   1.131  16.147 -0.3174 -0.2071 -0.4248
 8066SOL    HW135834   1.747   1.212  16.097 -0.5898  0.0723  0.0310
 8066SOL    HW235835   1.842   1.111  16.143 -0.1924  0.3495 -0.2138
 8067SOL     OW35836   2.510   2.810   9.018 -0.4689 -0.1131 -0.2576
 8067SOL    HW135837   2.432   2.756   9.033 -0.2678 -0.9114 -2.0811
 8067SOL    HW235838   2.534   2.792   8.927  0.8409 -0.8487  0.2247
 8068SOL     OW35839   3.431   3.566  15.150 -0.1313 -0.1661  0.1127
 8068SOL    HW135840   3.395   3.627  15.086  2.8832 -0.1021 -1.5091
 8068SOL    HW235841   3.524   3.569  15.126 -0.5962 -1.1767 -1.7804
 8069SOL     OW35842   2.365   0.116   5.926 -0.1305  0.6249  0.1786
 8069SOL    HW135843   2.300   0.057   5.964 -2.0491  1.5632 -1.5881
 8069SOL    HW235844   2.305   0.182   5.890 -0.1302  0.5486  0.0392
 8070SOL     OW35845   0.743   0.489   8.007  0.7164 -0.2227 -0.0613
 8070SOL    HW135846   0.805   0.423   8.039  0.3567 -0.3406  0.3907
 8070SOL    HW235847   0.789   0.512   7.927  0.0609  3.1184  0.5295
 8071SOL     OW35848   3.838   1.943   2.415  0.0058  0.5334 -0.6894
 8071SOL    HW135849   3.758   1.973   2.371 -2.2529 -2.7958  1.1237
 8071SOL    HW235850   3.898   1.967   2.345  0.8291 -0.7094 -0.4015
 8072SOL     OW35851   4.306   1.067  12.906  0.3375  0.0204  0.3405
 8072SOL    HW135852   4.259   0.984  12.914  0.3780  0.0321  0.7222
 8072SOL    HW235853   4.339   1.077  12.996 -1.7030 -0.3128  1.1119
 8073SOL     OW35854   2.474   2.405   0.856  0.5783 -0.1325  0.5072
 8073SOL    HW135855   2.445   2.484   0.810  0.8350 -0.5455 -0.3761
 8073SOL    HW235856   2.474   2.437   0.946  0.5959  1.9814 -0.2366
 8074SOL     OW35857   4.024   1.434   6.074 -0.2696 -0.2436 -0.0480
 8074SOL    HW135858   4.065   1.352   6.103 -0.2855  0.5159  2.0649
 8074SOL    HW235859   3.968   1.462   6.146 -1.7835 -1.1308 -0.8875
 8075SOL     OW35860   2.986   4.126   1.426 -0.4018  0.2538  0.2840
 8075SOL    HW135861   2.997   4.064   1.499  1.2513 -1.2627 -1.2366
 8075SOL    HW235862   2.899   4.160   1.446 -0.9888 -1.7878  1.2542
 8076SOL     OW35863   2.999   1.872  14.587  0.1189 -0.6697 -0.2276
 8076SOL    HW135864   2.929   1.832  14.534 -1.8111  1.4582  0.6978
 8076SOL    HW235865   3.065   1.869  14.518  1.6677 -0.7058  1.2522
 8077SOL     OW35866   0.483   1.818   7.190 -0.2299 -0.0521 -0.2941
 8077SOL    HW135867   0.390   1.826   7.168  0.0448  0.6780 -1.2113
 8077SOL    HW235868   0.503   1.912   7.197  1.0174 -0.3969  0.7760
 8078SOL     OW35869   4.166   2.261   2.270  0.1918  0.3273  0.1522
 8078SOL    HW135870   4.099   2.289   2.207 -0.3243 -1.1553  0.0432
 8078SOL    HW235871   4.234   2.326   2.254 -1.3174  2.0212  0.6465
 8079SOL     OW35872   4.167   3.004   3.702 -0.3158  0.2995 -0.7660
 8079SOL    HW135873   4.109   2.937   3.738  2.0145 -0.2125  1.9929
 8079SOL    HW235874   4.163   2.986   3.608 -2.5813  1.8960 -0.9859
 8080SOL     OW35875   0.554   2.153   8.255 -0.2033 -0.6244 -0.3066
 8080SOL    HW135876   0.607   2.227   8.284 -1.6650  0.5083 -0.5404
 8080SOL    HW235877   0.523   2.115   8.337  0.8495 -0.5358  0.1345
 8081SOL     OW35878   0.747   3.510   7.415  0.5183  0.4245  0.2340
 8081SOL    HW135879   0.658   3.484   7.438  1.1602 -1.0141  1.1124
 8081SOL    HW235880   0.745   3.603   7.436 -2.4835 -0.2426  2.8542
 8082SOL     OW35881   1.048   2.919   2.076 -0.5709 -0.0500 -0.1968
 8082SOL    HW135882   1.022   2.830   2.050 -1.7862  0.0927  0.4989
 8082SOL    HW235883   1.087   2.956   1.997 -0.4343  0.0222 -0.0939
 8083SOL     OW35884   3.410   1.893   9.131 -0.4353  0.0116 -0.0337
 8083SOL    HW135885   3.402   1.808   9.089  2.0465 -1.2129  2.0357
 8083SOL    HW235886   3.318   1.920   9.132 -0.2430  0.6670 -0.4258
 8084SOL     OW35887   4.568   0.984   1.901 -0.3964  0.1379 -0.3028
 8084SOL    HW135888   4.509   0.917   1.938 -1.4061  0.9550 -0.4418
 8084SOL    HW235889   4.653   0.939   1.903 -1.2403 -1.3778  2.0910
 8085SOL     OW35890   3.020   1.097   2.340  0.8701  0.1291  0.2342
 8085SOL    HW135891   3.025   1.175   2.395 -0.4275  0.3530  0.0332
 8085SOL    HW235892   3.072   1.034   2.390  0.3797  0.5714  1.2946
 8086SOL     OW35893   2.246   2.074   2.515 -0.6538  0.5508 -0.2295
 8086SOL    HW135894   2.169   2.019   2.503 -0.2774 -0.4143  1.8093
 8086SOL    HW235895   2.298   2.059   2.436 -1.6144  0.8583 -0.9193
 8087SOL     OW35896   1.637   4.461   1.924 -0.0858  0.9334  0.3923
 8087SOL    HW135897   1.726   4.433   1.901 -0.6258  0.2584 -0.8583
 8087SOL    HW235898   1.650   4.490   2.014 -2.3526  2.9108  0.0830
 8088SOL     OW35899   4.438   0.485   0.635  1.0152  0.2729 -0.2348
 8088SOL    HW135900   4.447   0.491   0.730  1.7700 -2.4745 -0.1364
 8088SOL    HW235901   4.342   0.486   0.631  1.0881 -0.5527 -2.4362
 8089SOL     OW35902   1.265   3.814  12.619  0.2941 -0.5030 -0.6688
 8089SOL    HW135903   1.347   3.831  12.666 -0.6903 -5.3886  2.9292
 8089SOL    HW235904   1.223   3.755  12.682  0.5405  2.3445  2.1917
 8090SOL     OW35905   0.962   0.943   6.761  0.2891  0.1817 -0.0001
 8090SOL    HW135906   1.014   0.893   6.699 -0.7549 -0.8856 -0.0218
 8090SOL    HW235907   1.035   0.991   6.800 -0.4493  0.3807  1.1349
 8091SOL     OW35908   1.844   0.306   4.167 -0.2093 -0.2681  0.5731
 8091SOL    HW135909   1.911   0.319   4.100 -1.6327  0.3753 -0.7300
 8091SOL    HW235910   1.834   0.211   4.175  0.5260 -0.4097 -0.1754
 8092SOL     OW35911   3.166   2.872   2.803 -0.3587 -0.0189  0.3213
 8092SOL    HW135912   3.125   2.811   2.865 -0.6290 -0.4490 -0.2842
 8092SOL    HW235913   3.140   2.846   2.715 -0.0769  2.4506 -0.4914
 8093SOL     OW35914   4.570   0.707   3.262  0.4594 -0.1340 -0.0823
 8093SOL    HW135915   4.635   0.649   3.301  0.2167  1.7307  3.0936
 8093SOL    HW235916   4.586   0.790   3.306 -0.1770  1.2744 -2.5085
 8094SOL     OW35917   1.537   3.270  11.096 -0.4443  0.1080 -0.2173
 8094SOL    HW135918   1.512   3.213  11.023  1.7357 -2.0259  0.7018
 8094SOL    HW235919   1.631   3.257  11.106 -0.0654  1.5609 -1.9750
 8095SOL     OW35920   2.984   3.077   7.636 -0.1852  0.2714  0.0376
 8095SOL    HW135921   2.914   3.012   7.622 -0.7948  0.8565  0.3380
 8095SOL    HW235922   3.024   3.061   7.551 -1.7354 -0.3804 -0.5705
 8096SOL     OW35923   2.873   1.111  12.311  0.3135 -0.1349  0.2530
 8096SOL    HW135924   2.922   1.028  12.309  0.0407 -0.2732 -0.5817
 8096SOL    HW235925   2.942   1.176  12.295  0.5598 -0.4729 -0.0547
 8097SOL     OW35926   3.302   2.246   9.293  0.6796  0.6375 -0.0174
 8097SOL    HW135927   3.322   2.168   9.344 -1.7113 -1.0068 -1.6172
 8097SOL    HW235928   3.365   2.248   9.221  1.0175 -1.1602  0.2214
 8098SOL     OW35929   0.399   2.406   2.657  0.2175  0.4986 -0.1785
 8098SOL    HW135930   0.452   2.380   2.582 -0.5518  1.7844 -1.1703
 8098SOL    HW235931   0.319   2.423   2.606 -0.2208 -0.2330  0.2775
 8099SOL     OW35932   0.847   0.753  13.837  0.2734  0.0369 -0.3022
 8099SOL    HW135933   0.873   0.806  13.763 -1.6063  3.0727  1.2294
 8099SOL    HW235934   0.798   0.678  13.803 -1.4394  0.3502  1.4567
 8100SOL     OW35935   0.207   4.249   3.401  0.1134 -0.1692  0.4061
 8100SOL    HW135936   0.263   4.230   3.325  0.3712  0.5817  0.4037
 8100SOL    HW235937   0.253   4.186   3.457  1.8986  1.0327  0.2918
 8101SOL     OW35938   0.954   1.566  17.113 -0.6302 -0.0335 -0.3407
 8101SOL    HW135939   0.987   1.623  17.183  0.6232 -0.6184 -0.4662
 8101SOL    HW235940   1.036   1.545  17.070  0.5070  2.9860  0.3662
 8102SOL     OW35941   3.673   1.138   8.132 -0.4787 -0.0961  0.3617
 8102SOL    HW135942   3.724   1.120   8.053  0.3817  0.0172  0.8947
 8102SOL    HW235943   3.691   1.057   8.179 -2.1942 -0.1317  0.9812
 8103SOL     OW35944   1.107   3.230   9.028 -0.0796 -0.0781  0.1267
 8103SOL    HW135945   1.012   3.232   9.042 -0.2126  0.7405 -0.8569
 8103SOL    HW235946   1.136   3.143   9.055  0.5301  0.1624  0.2544
 8104SOL     OW35947   2.354   0.981  13.870 -0.1224  0.0125 -0.4247
 8104SOL    HW135948   2.428   1.034  13.840 -0.6603  2.0872  1.8875
 8104SOL    HW235949   2.284   1.043  13.852  0.4343  0.1367 -2.2194
 8105SOL     OW35950   0.873   0.571   5.922  0.0113  0.2207 -0.4340
 8105SOL    HW135951   0.899   0.535   5.837  1.1384  0.9502 -0.3872
 8105SOL    HW235952   0.802   0.511   5.945 -1.7851  2.2421 -0.6762
 8106SOL     OW35953   0.677   2.779   1.127  0.0228 -0.1103 -0.1365
 8106SOL    HW135954   0.710   2.815   1.209  0.6823 -0.2591 -0.3281
 8106SOL    HW235955   0.644   2.856   1.080  0.0658  0.1015  0.1842
 8107SOL     OW35956   4.457   1.223   6.540 -0.0567 -0.8430  0.1850
 8107SOL    HW135957   4.371   1.192   6.568 -0.7848  0.1897 -0.8591
 8107SOL    HW235958   4.463   1.316   6.563 -0.7673 -1.1164  1.4777
 8108SOL     OW35959   1.725   1.968   4.305  0.4578 -0.1720 -0.0441
 8108SOL    HW135960   1.651   2.029   4.309 -0.4846 -1.3025 -0.2127
 8108SOL    HW235961   1.695   1.880   4.327 -0.6118  0.8832  2.7056
 8109SOL     OW35962   1.500   1.293   2.103 -0.1557 -0.0675  0.0174
 8109SOL    HW135963   1.416   1.259   2.134 -0.9262  0.6411 -1.2821
 8109SOL    HW235964   1.550   1.221   2.063  2.8878  1.8143  0.4327
 8110SOL     OW35965   0.929   4.614   2.668  0.1990 -0.2912  0.3368
 8110SOL    HW135966   0.891   4.628   2.754  0.6169 -2.2740  0.8302
 8110SOL    HW235967   0.927   4.519   2.677 -0.6304 -0.2773  0.3427
 8111SOL     OW35968   3.668   4.282   7.876  0.0871  0.1740 -0.6599
 8111SOL    HW135969   3.625   4.363   7.902  1.6132  0.9743 -0.6259
 8111SOL    HW235970   3.615   4.254   7.801 -0.8404 -2.9233  1.1586
 8112SOL     OW35971   3.332   2.524   0.354 -0.0154  0.2986 -0.2061
 8112SOL    HW135972   3.380   2.573   0.421 -1.2260 -0.0964  0.9607
 8112SOL    HW235973   3.238   2.531   0.367 -0.1141 -0.4739 -0.5015
 8113SOL     OW35974   3.375   2.349   9.663  0.3172  0.2462 -0.0528
 8113SOL    HW135975   3.418   2.424   9.622  1.7331 -1.2689 -1.3554
 8113SOL    HW235976   3.411   2.281   9.607 -0.0407  0.1796 -0.2025
 8114SOL     OW35977   0.133   0.740   3.089 -0.1010  0.4151  0.9500
 8114SOL    HW135978   0.188   0.662   3.093 -1.1324 -0.2440  2.3632
 8114SOL    HW235979   0.056   0.717   3.140  0.5685 -2.6220  0.5513
 8115SOL     OW35980   2.171   3.347  11.603  0.6507  0.0403 -0.3630
 8115SOL    HW135981   2.165   3.436  11.571  2.4222  0.8276  1.5157
 8115SOL    HW235982   2.256   3.356  11.647  1.2419 -2.1326 -1.0482
 8116SOL     OW35983   0.362   0.400  14.787 -0.1656  0.1228  0.5515
 8116SOL    HW135984   0.457   0.403  14.779 -0.1421  0.1877  0.8571
 8116SOL    HW235985   0.343   0.363  14.873 -0.5037 -0.3274  0.2851
 8117SOL     OW35986   2.750   3.455   8.708  0.2837 -0.0935  0.7027
 8117SOL    HW135987   2.703   3.536   8.687  1.6767 -0.1309 -2.4950
 8117SOL    HW235988   2.766   3.475   8.800 -0.8226 -4.0390  1.7605
 8118SOL     OW35989   4.403   1.323   4.838 -0.5725  0.0103  0.8189
 8118SOL    HW135990   4.436   1.236   4.860  0.0335 -0.0854 -0.4540
 8118SOL    HW235991   4.310   1.314   4.859 -0.4769  0.4090  1.3969
 8119SOL     OW35992   0.628   0.956   6.412 -0.1424 -0.1513 -0.2459
 8119SOL    HW135993   0.694   1.005   6.363 -0.1488  0.0830 -0.0255
 8119SOL    HW235994   0.632   0.874   6.364  1.9806 -0.6553  0.7647
 8120SOL     OW35995   2.553   0.449  15.745  0.0914 -0.5825  0.3817
 8120SOL    HW135996   2.584   0.359  15.746  1.4817 -0.0945  1.0821
 8120SOL    HW235997   2.460   0.432  15.760  0.1409 -1.9031 -0.8188
 8121SOL     OW35998   0.256   4.571   9.008  0.0137 -0.0588  0.8365
 8121SOL    HW135999   0.234   4.486   8.970 -0.5337  0.2638  0.4284
 8121SOL    HW236000   0.199   4.576   9.085 -2.8210  0.2300 -1.2596
 8122SOL     OW36001   2.377   2.111   9.016 -0.3671  0.0274  0.0580
 8122SOL    HW136002   2.321   2.103   9.093  0.6024  2.0566  0.9553
 8122SOL    HW236003   2.326   2.155   8.948  0.3308 -1.5638 -1.5067
 8123SOL     OW36004   2.880   0.282   5.524  0.3970 -0.6845 -0.4850
 8123SOL    HW136005   2.871   0.377   5.520  1.7996 -0.5763 -0.9931
 8123SOL    HW236006   2.905   0.257   5.435 -2.5563  1.1142 -1.8618
 8124SOL     OW36007   3.720   1.299   5.804  0.1632 -0.7464 -0.2192
 8124SOL    HW136008   3.731   1.274   5.896  0.8730  0.0573 -0.0851
 8124SOL    HW236009   3.808   1.334   5.793 -0.0248 -0.3319 -0.3841
 8125SOL     OW36010   1.285   3.062  12.789 -0.6072 -0.5704  0.0933
 8125SOL    HW136011   1.254   3.043  12.700  0.8545  0.5443 -0.6567
 8125SOL    HW236012   1.359   3.002  12.785 -0.5230 -0.5196  0.8265
 8126SOL     OW36013   3.451   4.572  11.372 -0.6099 -0.1304  0.2384
 8126SOL    HW136014   3.481   4.583  11.282  1.1088  0.1933  0.8641
 8126SOL    HW236015   3.361   4.544  11.355 -0.5712 -0.1530  0.0745
 8127SOL     OW36016   1.547   2.803  10.456 -0.0943  0.2625 -0.3950
 8127SOL    HW136017   1.521   2.890  10.484 -1.7242 -0.5694  0.6478
 8127SOL    HW236018   1.642   2.811  10.452 -0.1545  1.8749  2.0543
 8128SOL     OW36019   4.597   4.599   6.527  0.2691 -0.1999  0.4631
 8128SOL    HW136020   4.512   4.615   6.568 -0.4933  0.9088 -1.5525
 8128SOL    HW236021   4.617   4.684   6.489 -1.1053 -0.0189  0.1551
 8129SOL     OW36022   4.519   2.577   6.339 -0.1246  0.1709 -0.3000
 8129SOL    HW136023   4.576   2.593   6.263 -0.9418  0.0944 -0.9352
 8129SOL    HW236024   4.556   2.637   6.403  0.3285 -1.2355  0.7420
 8130SOL     OW36025   0.743   0.870   1.465 -0.6054 -0.6104  0.2540
 8130SOL    HW136026   0.709   0.933   1.528  1.7926  2.8016 -1.8179
 8130SOL    HW236027   0.828   0.847   1.502 -0.3919 -1.8260 -0.9749
 8131SOL     OW36028   2.324   1.699   1.023 -0.2815  0.0767  0.4225
 8131SOL    HW136029   2.408   1.708   0.979 -1.2446 -0.6340 -1.6120
 8131SOL    HW236030   2.311   1.787   1.058 -2.7955 -0.2148  0.2362
 8132SOL     OW36031   2.894   3.335  15.915 -0.4523  0.5164 -0.8014
 8132SOL    HW136032   2.914   3.363  15.826 -0.9692  1.3407 -0.6644
 8132SOL    HW236033   2.974   3.364  15.960 -0.5890 -3.5184  2.0479
 8133SOL     OW36034   4.122   4.404  13.544 -0.4189  0.2047 -0.4046
 8133SOL    HW136035   4.127   4.459  13.623 -1.8813 -1.1500  0.6117
 8133SOL    HW236036   4.197   4.344  13.548 -0.6501 -0.0928 -0.5898
 8134SOL     OW36037   1.491   0.296   4.335 -0.3469 -0.1659 -0.5073
 8134SOL    HW136038   1.486   0.204   4.309  0.3808 -0.8135  1.6467
 8134SOL    HW236039   1.480   0.295   4.430 -0.2973 -2.6540 -0.5381
 8135SOL     OW36040   1.159   4.570   7.719 -0.1290 -0.6186 -0.7230
 8135SOL    HW136041   1.201   4.654   7.700 -0.0342 -0.2464  1.1098
 8135SOL    HW236042   1.210   4.552   7.798  0.4097 -2.0864 -1.4011
 8136SOL     OW36043   3.005   2.561  13.804 -0.1097 -0.2409 -0.0940
 8136SOL    HW136044   2.912   2.578  13.793  0.0753 -0.9461 -2.8224
 8136SOL    HW236045   3.005   2.475  13.761 -1.6037 -1.0010  1.4328
 8137SOL     OW36046   2.561   1.606  14.945 -0.4531  0.4722  0.0993
 8137SOL    HW136047   2.613   1.622  14.867  0.0244  2.4416  0.8261
 8137SOL    HW236048   2.633   1.604  15.008 -1.8245 -1.3524  1.6169
 8138SOL     OW36049   1.049   4.525   4.589  1.0365  0.8459 -0.1970
 8138SOL    HW136050   0.990   4.462   4.631  1.7336  0.5674  0.3703
 8138SOL    HW236051   1.104   4.546   4.664  1.5993 -0.9932 -0.0990
 8139SOL     OW36052   1.380   0.997   5.693  0.1382 -0.3697 -0.0420
 8139SOL    HW136053   1.370   0.913   5.738 -0.9265 -0.5224 -0.5688
 8139SOL    HW236054   1.324   1.050   5.750 -3.0992 -1.6499 -2.0031
 8140SOL     OW36055   3.229   0.183   8.324 -0.0603 -0.2440  0.0694
 8140SOL    HW136056   3.176   0.130   8.264 -1.5301 -1.3654  2.3440
 8140SOL    HW236057   3.295   0.207   8.259 -0.9241 -1.8355 -1.4166
 8141SOL     OW36058   1.491   2.599   5.484 -0.2401  0.3227 -0.1633
 8141SOL    HW136059   1.518   2.668   5.424  0.6687  0.3653  0.3020
 8141SOL    HW236060   1.402   2.578   5.455 -0.6923  1.8822  0.0867
 8142SOL     OW36061   0.646   1.420  15.607  0.2426  0.4443 -0.4260
 8142SOL    HW136062   0.565   1.397  15.561 -1.6388  1.8922  2.1023
 8142SOL    HW236063   0.615   1.396  15.695 -0.0850  1.6448 -0.2208
 8143SOL     OW36064   1.288   0.517  11.787 -0.1323 -0.2879  0.0950
 8143SOL    HW136065   1.363   0.531  11.845 -0.2263 -1.2479  0.4340
 8143SOL    HW236066   1.226   0.471  11.844 -0.5089  0.3311  0.1890
 8144SOL     OW36067   0.794   3.420   2.325 -0.0281 -0.0304 -0.3748
 8144SOL    HW136068   0.809   3.376   2.409  1.6339  0.3293 -0.4875
 8144SOL    HW236069   0.784   3.341   2.271 -0.0556 -0.7072  0.6144
 8145SOL     OW36070   1.208   2.638   5.126 -0.3612 -0.1322  0.2974
 8145SOL    HW136071   1.239   2.688   5.051 -0.5170 -0.5568 -0.0534
 8145SOL    HW236072   1.116   2.642   5.099 -0.3498  0.3204  0.3340
 8146SOL     OW36073   3.301   4.020  16.325  0.1295 -0.4351  0.1296
 8146SOL    HW136074   3.382   4.011  16.274  0.7350  0.9487  0.8423
 8146SOL    HW236075   3.322   4.056  16.412  0.1944  0.5368 -0.2906
 8147SOL     OW36076   3.154   3.796   7.270 -0.4520 -0.3077  0.1029
 8147SOL    HW136077   3.225   3.791   7.205 -1.4187 -2.5736 -0.7923
 8147SOL    HW236078   3.103   3.720   7.243 -0.9536 -0.1224  0.5372
 8148SOL     OW36079   4.648   0.897   7.840 -0.0856  0.0947 -0.0187
 8148SOL    HW136080   4.728   0.934   7.803  0.1529  0.9355  1.3397
 8148SOL    HW236081   4.603   0.888   7.756 -4.6229  0.5511  2.3911
 8149SOL     OW36082   3.994   3.119   4.265  0.1077  0.0062  0.1318
 8149SOL    HW136083   4.008   3.043   4.210  0.0193 -0.7963  1.2074
 8149SOL    HW236084   3.975   3.190   4.203 -1.4532 -0.3497  0.1905
 8150SOL     OW36085   2.680   3.166   9.239  0.3649  0.0480  0.1754
 8150SOL    HW136086   2.617   3.185   9.170  1.8646 -2.1188 -1.8041
 8150SOL    HW236087   2.738   3.242   9.240  0.7181 -0.1904 -1.7446
 8151SOL     OW36088   3.403   0.167   6.545  0.2229 -0.1288  0.1262
 8151SOL    HW136089   3.341   0.213   6.489 -0.8003 -1.1659  0.4026
 8151SOL    HW236090   3.477   0.161   6.484  0.6122 -1.4134  0.7282
 8152SOL     OW36091   1.583   2.384   2.828  0.4816 -0.9512  0.4422
 8152SOL    HW136092   1.637   2.317   2.870  1.7372 -1.4991 -2.0265
 8152SOL    HW236093   1.642   2.439   2.776  0.0587 -0.2592  0.6968
 8153SOL     OW36094   2.881   2.320   6.340 -1.1001 -0.0975  0.0440
 8153SOL    HW136095   2.812   2.348   6.400  0.7309 -0.4981  2.3281
 8153SOL    HW236096   2.893   2.392   6.279 -0.7125  1.7209  2.2975
 8154SOL     OW36097   2.838   3.394  12.594  0.2923 -0.4252  0.3169
 8154SOL    HW136098   2.866   3.432  12.677 -2.2068  1.3184  0.3325
 8154SOL    HW236099   2.918   3.408  12.544 -0.0093  1.3308  0.3378
 8155SOL     OW36100   2.138   3.365   3.717 -0.0215 -0.1948  0.3472
 8155SOL    HW136101   2.120   3.281   3.758  0.3322 -1.1232 -1.4114
 8155SOL    HW236102   2.054   3.368   3.671 -0.1039  0.5276  0.5473
 8156SOL     OW36103   3.587   1.564   4.149  0.4773  0.3659 -0.2306
 8156SOL    HW136104   3.542   1.642   4.114 -1.8286 -0.4268  1.0031
 8156SOL    HW236105   3.533   1.498   4.104 -1.5129  1.8415 -0.0443
 8157SOL     OW36106   3.493   0.840   3.436 -0.4724  0.1672  0.1496
 8157SOL    HW136107   3.468   0.900   3.366 -0.0454  0.6589  0.4192
 8157SOL    HW236108   3.408   0.806   3.466 -1.4227  2.7325  0.4131
 8158SOL     OW36109   2.412   2.973  11.752 -0.5544  0.0939  0.2701
 8158SOL    HW136110   2.502   3.001  11.769 -1.3046  2.6732  0.0212
 8158SOL    HW236111   2.399   2.908  11.820 -0.9017 -0.4903 -0.3546
 8159SOL     OW36112   1.979   1.752   7.447 -0.7698  0.0717 -0.1109
 8159SOL    HW136113   1.966   1.843   7.423 -1.0157 -0.3598 -1.5793
 8159SOL    HW236114   1.959   1.748   7.541  3.4461 -0.1155  0.7643
 8160SOL     OW36115   2.414   2.824   3.245 -0.1698 -0.1549 -0.3365
 8160SOL    HW136116   2.471   2.830   3.168 -0.8057  1.9227 -0.6370
 8160SOL    HW236117   2.400   2.916   3.267 -1.2611 -0.5912  0.7940
 8161SOL     OW36118   0.009   2.639   2.083  0.0811  0.2946 -0.2995
 8161SOL    HW136119   0.084   2.659   2.026  1.5135  1.7743  2.0868
 8161SOL    HW236120   4.708   2.726   2.101  1.5141  0.8738 -0.1895
 8162SOL     OW36121   1.317   0.193   6.539  0.0557  0.1103 -0.4892
 8162SOL    HW136122   1.353   0.228   6.457 -0.9582  1.3959 -0.3733
 8162SOL    HW236123   1.372   0.115   6.547  0.3895  0.3655 -0.2838
 8163SOL     OW36124   0.765   2.921   2.214 -0.4324  0.6657 -0.7173
 8163SOL    HW136125   0.858   2.908   2.194 -0.4311 -4.1328  2.3760
 8163SOL    HW236126   0.726   2.863   2.149  1.5688 -0.2459 -1.1007
 8164SOL     OW36127   2.423   4.572   5.765  0.1659  0.4704 -0.3481
 8164SOL    HW136128   2.389   4.645   5.714 -2.6561  0.2495  1.2175
 8164SOL    HW236129   2.470   4.617   5.835 -1.1585  0.7979  0.3379
 8165SOL     OW36130   2.030   1.867   6.409  0.7541  0.3863 -0.2064
 8165SOL    HW136131   2.086   1.827   6.342 -0.1204 -2.3679  0.7460
 8165SOL    HW236132   1.982   1.933   6.360  0.3459  0.7908  0.7333
 8166SOL     OW36133   0.627   1.007   5.349  0.2509 -0.0945 -0.1270
 8166SOL    HW136134   0.545   1.056   5.349 -0.7145 -1.7034  2.2563
 8166SOL    HW236135   0.648   0.989   5.258 -1.0112 -0.7130 -0.2902
 8167SOL     OW36136   4.558   1.987   3.309 -0.4553 -0.1061 -0.2863
 8167SOL    HW136137   4.608   1.921   3.358 -1.8645 -0.0604  1.2354
 8167SOL    HW236138   4.479   1.936   3.296 -0.7578 -0.3113  2.3162
 8168SOL     OW36139   1.955   2.714   2.354 -0.4214 -0.4897 -0.2224
 8168SOL    HW136140   1.911   2.630   2.340  0.0875 -0.6574 -0.8087
 8168SOL    HW236141   2.037   2.676   2.387 -0.0411 -0.4620 -1.1453
 8169SOL     OW36142   1.405   1.413   6.586  0.4762 -0.2082 -0.3056
 8169SOL    HW136143   1.424   1.334   6.535 -0.1646  0.7153 -1.9820
 8169SOL    HW236144   1.420   1.482   6.521 -0.8997  0.9614  0.6265
 8170SOL     OW36145   2.697   4.469   9.439 -0.1578 -0.0535 -0.2810
 8170SOL    HW136146   2.743   4.392   9.406  0.9336  0.1325  0.7880
 8170SOL    HW236147   2.608   4.459   9.406 -0.4731  1.3778  0.1221
 8171SOL     OW36148   3.550   2.875  13.781 -0.2815  0.5231 -0.2277
 8171SOL    HW136149   3.597   2.890  13.699  2.0125  0.0377  0.9706
 8171SOL    HW236150   3.469   2.919  13.756 -2.4444 -2.9454  0.6317
 8172SOL     OW36151   3.463   4.055   7.796 -0.1624 -0.3127 -0.0027
 8172SOL    HW136152   3.408   4.020   7.726 -1.3577  1.1010  0.2259
 8172SOL    HW236153   3.550   4.056   7.757 -0.1646 -0.9209 -0.0264
 8173SOL     OW36154   1.488   1.459  17.455 -0.0953  0.0131  0.1999
 8173SOL    HW136155   1.551   1.387  17.462 -2.0901 -1.8313 -0.8629
 8173SOL    HW236156   1.491   1.474  17.361 -0.4710  0.8053  0.3176
 8174SOL     OW36157   0.651   0.194   4.900 -0.0002 -0.1632 -0.1146
 8174SOL    HW136158   0.673   0.265   4.961  1.3720 -0.9854  0.3556
 8174SOL    HW236159   0.576   0.149   4.938  1.2673 -2.3578 -0.2037
 8175SOL     OW36160   2.781   1.770   6.673  0.1986  0.4452 -0.4068
 8175SOL    HW136161   2.721   1.821   6.728 -0.4562  1.6363 -2.2492
 8175SOL    HW236162   2.836   1.843   6.646  0.7075 -0.2794 -1.3122
 8176SOL     OW36163   2.393   3.072   6.678 -0.0775 -0.3675 -0.2006
 8176SOL    HW136164   2.403   3.156   6.633 -2.3704 -1.2609 -2.3647
 8176SOL    HW236165   2.392   3.013   6.603 -0.0970 -0.8276  0.1651
 8177SOL     OW36166   4.699   1.303   5.718  0.4538  0.1947  0.3688
 8177SOL    HW136167   0.058   1.298   5.734  0.5691 -1.7435 -1.0786
 8177SOL    HW236168   4.663   1.237   5.777  2.3283  0.5661  1.9682
 8178SOL     OW36169   3.995   4.619   7.188  0.1707  0.0902 -0.0421
 8178SOL    HW136170   4.008   4.665   7.104  2.6087 -0.1455  0.1972
 8178SOL    HW236171   3.980   4.527   7.166 -0.2016  0.2604 -0.5119
 8179SOL     OW36172   2.344   2.971   2.315 -0.4940  0.7531 -0.0377
 8179SOL    HW136173   2.313   2.947   2.228 -2.6137  0.9126  0.6742
 8179SOL    HW236174   2.260   3.002   2.347  0.7319  2.4382  1.5210
 8180SOL     OW36175   1.730   2.004   7.841  0.0876 -0.0115 -0.1095
 8180SOL    HW136176   1.754   2.036   7.928 -0.0704 -0.0940 -0.0354
 8180SOL    HW236177   1.638   2.030   7.840  0.5068  1.2317 -5.3816
 8181SOL     OW36178   0.801   2.096   8.918  0.1519 -0.1729 -0.3425
 8181SOL    HW136179   0.870   2.055   8.970  0.4815  0.6605 -0.1337
 8181SOL    HW236180   0.725   2.068   8.969 -1.0561  1.0694 -1.4566
 8182SOL     OW36181   3.636   0.009   1.762  0.6155  0.2887  0.2104
 8182SOL    HW136182   3.641   4.656   1.726 -1.3587  0.2864 -0.0649
 8182SOL    HW236183   3.580   0.059   1.702 -0.0961 -0.1251  0.5285
 8183SOL     OW36184   1.503   1.915  12.445  0.6207  0.0089 -0.5136
 8183SOL    HW136185   1.418   1.873  12.451  1.1667 -1.2317 -1.4499
 8183SOL    HW236186   1.477   2.005  12.427 -3.2902 -0.9135  0.5479
 8184SOL     OW36187   3.242   3.382   6.293 -0.6853 -0.1792  0.4184
 8184SOL    HW136188   3.272   3.394   6.383  0.2464  1.0588 -0.0528
 8184SOL    HW236189   3.312   3.327   6.258 -0.5820  0.7025 -0.7814
 8185SOL     OW36190   3.278   3.212  17.710  0.1751 -0.3049  0.1506
 8185SOL    HW136191   3.314   3.276  17.648  2.2164 -0.1541  1.4838
 8185SOL    HW236192   3.360   3.202   0.017 -0.4242 -0.8118  1.0774
 8186SOL     OW36193   2.864   2.535   1.733 -0.1289 -0.3656  0.0020
 8186SOL    HW136194   2.842   2.470   1.666  1.7661 -1.0161  0.0000
 8186SOL    HW236195   2.798   2.515   1.800  1.1192 -1.4141  0.9387
 8187SOL     OW36196   3.351   1.416  12.611 -0.6086 -0.5755  0.1308
 8187SOL    HW136197   3.362   1.321  12.617 -0.7857 -0.5388  0.9545
 8187SOL    HW236198   3.389   1.441  12.695 -0.1003 -1.5361  0.1858
 8188SOL     OW36199   1.924   3.736  11.600 -0.2648  0.0250 -0.7848
 8188SOL    HW136200   1.934   3.749  11.505 -0.7586 -2.0629 -1.1211
 8188SOL    HW236201   2.013   3.707  11.622 -0.1984  0.6557 -0.2418
 8189SOL     OW36202   0.308   4.393   4.765  0.5668  0.1682 -0.6834
 8189SOL    HW136203   0.325   4.462   4.830  2.9450 -3.3069  2.3468
 8189SOL    HW236204   0.340   4.442   4.689  0.2911  1.8369  0.2633
 8190SOL     OW36205   4.283   2.841   9.349  0.2107  0.1949 -0.0201
 8190SOL    HW136206   4.206   2.875   9.303  0.3398  0.7338  0.1703
 8190SOL    HW236207   4.311   2.766   9.296 -2.1660  0.5992 -1.8727
 8191SOL     OW36208   0.888   0.003   3.788 -0.0521  0.6962 -0.2572
 8191SOL    HW136209   0.833   4.666   3.818 -0.1183  1.9230  2.6285
 8191SOL    HW236210   0.919   4.705   3.704  4.3193 -1.2795  2.1184
 8192SOL     OW36211   2.270   3.801   1.587 -1.0087 -0.4026 -0.0560
 8192SOL    HW136212   2.302   3.890   1.576  1.2315 -0.8197  3.1838
 8192SOL    HW236213   2.350   3.753   1.569 -0.6231  0.7720 -1.4901
 8193SOL     OW36214   2.436   2.572  17.644 -0.4247 -0.0442  0.0028
 8193SOL    HW136215   2.438   2.657  17.600 -2.6636 -0.2915 -0.5961
 8193SOL    HW236216   2.523   2.568  17.683  0.9313 -1.3822 -3.1584
 8194SOL     OW36217   1.782   0.020  11.105  0.1743 -0.1706 -0.3763
 8194SOL    HW136218   1.713   0.031  11.170 -1.1458 -1.0884 -1.6274
 8194SOL    HW236219   1.794   0.107  11.069 -1.7537  0.4048  0.3880
 8195SOL     OW36220   2.388   0.763  10.101 -0.1778  0.4825 -0.1371
 8195SOL    HW136221   2.378   0.846  10.148 -0.7560  1.2584 -1.6505
 8195SOL    HW236222   2.477   0.735  10.124 -0.3765  0.1509  0.2537
 8196SOL     OW36223   1.123   4.242   7.459  0.3621  0.2213 -0.1028
 8196SOL    HW136224   1.081   4.293   7.527 -0.0864  1.6739 -1.4835
 8196SOL    HW236225   1.214   4.238   7.489  0.5800  2.4577 -0.5165
 8197SOL     OW36226   2.234   4.538  14.368  0.1136  0.2384  0.3700
 8197SOL    HW136227   2.176   4.511  14.298 -0.7427 -1.3950  1.6998
 8197SOL    HW236228   2.208   4.488  14.446  3.4715 -0.1323  1.2665
 8198SOL     OW36229   0.997   3.292   5.949 -0.0536  0.1874 -0.1328
 8198SOL    HW136230   1.042   3.225   5.897 -0.0001 -1.5035  2.1126
 8198SOL    HW236231   0.935   3.306   5.877 -1.6759  1.9503  1.5951
 8199SOL     OW36232   3.508   2.327   9.904 -0.4440 -0.2181  0.4507
 8199SOL    HW136233   3.508   2.405   9.958  2.2517  0.3535 -0.3572
 8199SOL    HW236234   3.450   2.349   9.831 -0.8679  1.0058  1.1677
 8200SOL     OW36235   2.153   1.030   5.469  0.0721  0.6431 -0.3387
 8200SOL    HW136236   2.125   1.049   5.379 -0.0338  1.0120 -0.2280
 8200SOL    HW236237   2.209   1.106   5.487 -0.3609  0.9023 -0.0770
 8201SOL     OW36238   3.892   1.803   5.946  0.6379 -0.0348 -0.2684
 8201SOL    HW136239   3.836   1.879   5.929  1.7898  0.8297 -0.2101
 8201SOL    HW236240   3.947   1.810   5.868 -1.3745  1.1288 -1.6009
 8202SOL     OW36241   3.713   2.063   8.851 -0.1357  0.0094 -0.0382
 8202SOL    HW136242   3.689   2.008   8.776 -1.5152 -0.4724  0.7519
 8202SOL    HW236243   3.729   2.148   8.812 -2.3477 -0.3917 -1.8319
 8203SOL     OW36244   0.485   2.067   5.682  0.6571  0.4794 -0.4210
 8203SOL    HW136245   0.545   2.077   5.608 -0.1470  1.5851 -0.9184
 8203SOL    HW236246   0.453   1.977   5.675 -2.3958  1.3088  2.6120
 8204SOL     OW36247   1.511   3.554  13.827 -0.2393 -0.0190  0.3838
 8204SOL    HW136248   1.594   3.506  13.822  0.4436  1.3962 -2.0788
 8204SOL    HW236249   1.464   3.515  13.753 -1.1260  0.6901  0.5761
 8205SOL     OW36250   0.581   0.064  11.026 -0.4961 -0.2851  0.5130
 8205SOL    HW136251   0.518   0.131  11.053 -1.2460 -0.4923 -0.6655
 8205SOL    HW236252   0.570   0.078  10.931 -3.1448 -2.3291  0.5117
 8206SOL     OW36253   2.080   3.055  16.699  0.3769  0.2670 -0.4255
 8206SOL    HW136254   1.985   3.056  16.693  0.2832  0.5888  1.2066
 8206SOL    HW236255   2.095   3.149  16.703  0.9367  0.1577  0.0292
 8207SOL     OW36256   2.949   3.443   1.875 -0.2665  0.1937 -0.0358
 8207SOL    HW136257   2.991   3.362   1.904  0.2937  0.6907  0.5311
 8207SOL    HW236258   3.004   3.458   1.799  0.0900 -1.5009 -0.1170
 8208SOL     OW36259   2.018   0.055   8.671 -0.0866  0.2686  0.4646
 8208SOL    HW136260   2.042   0.074   8.762  1.7434 -1.4681  0.3550
 8208SOL    HW236261   2.008   0.136   8.621 -0.6226  0.9294  1.6415
 8209SOL     OW36262   2.720   4.354  10.566  0.3160  0.3812  0.4019
 8209SOL    HW136263   2.696   4.446  10.571  0.5019  0.4040  0.8941
 8209SOL    HW236264   2.667   4.316  10.636 -0.0883 -1.3979 -0.8699
 8210SOL     OW36265   3.536   1.363  11.402 -0.5825 -0.5454  0.8333
 8210SOL    HW136266   3.513   1.288  11.348 -0.2547 -0.0437 -0.0077
 8210SOL    HW236267   3.630   1.345  11.401 -0.5239 -0.1346 -1.3301
 8211SOL     OW36268   2.355   0.569   7.771 -0.2264 -0.4313 -0.8757
 8211SOL    HW136269   2.396   0.620   7.841  1.8249 -0.0354 -2.3538
 8211SOL    HW236270   2.382   0.480   7.793  1.2681  0.7926  2.3235
 8212SOL     OW36271   3.536   1.362  13.709 -0.4204 -0.3463  0.2598
 8212SOL    HW136272   3.613   1.316  13.677 -0.9011 -1.6486  0.9581
 8212SOL    HW236273   3.552   1.369  13.803 -1.5673 -0.2909  0.4580
 8213SOL     OW36274   2.228   4.700   3.165  0.1070 -0.3891  0.1630
 8213SOL    HW136275   2.137   4.672   3.176 -0.0556 -0.0572 -0.3369
 8213SOL    HW236276   2.217   0.023   3.090 -1.9626  0.1738  0.9108
 8214SOL     OW36277   0.711   2.280   1.564  0.3663 -0.0611 -0.3260
 8214SOL    HW136278   0.628   2.234   1.574  0.0364  1.1410  2.4738
 8214SOL    HW236279   0.768   2.216   1.521 -1.9075 -2.0328 -0.3913
 8215SOL     OW36280   4.335   1.837   3.319 -1.0564 -0.2464 -0.6705
 8215SOL    HW136281   4.346   1.742   3.317 -0.9097 -0.2950  1.6641
 8215SOL    HW236282   4.259   1.846   3.377 -0.5732  1.1608 -0.2524
 8216SOL     OW36283   2.208   2.603  11.360 -0.7488  0.5788  0.0305
 8216SOL    HW136284   2.140   2.652  11.407 -1.0687  2.4406 -2.4181
 8216SOL    HW236285   2.283   2.604  11.419  0.0901  0.0200 -1.0459
 8217SOL     OW36286   1.447   2.954   3.405 -0.1343 -0.2391  0.4676
 8217SOL    HW136287   1.469   3.043   3.376 -0.5266 -0.4943 -0.5999
 8217SOL    HW236288   1.443   2.912   3.320  2.4623 -2.5121  1.4727
 8218SOL     OW36289   2.901   3.046   3.040 -0.3705 -0.7226  0.4810
 8218SOL    HW136290   2.991   3.071   3.018  0.1289 -1.3543  1.8162
 8218SOL    HW236291   2.862   3.126   3.003 -3.2080 -2.0734  0.6093
 8219SOL     OW36292   0.884   1.454   9.193 -0.4975 -0.3073 -0.0363
 8219SOL    HW136293   0.833   1.521   9.148 -1.8089 -0.8354  0.6683
 8219SOL    HW236294   0.935   1.511   9.251 -1.5661  0.5836  0.0183
 8220SOL     OW36295   3.014   3.399  10.707  0.2531 -0.5825 -0.3367
 8220SOL    HW136296   3.059   3.476  10.671  3.8989 -2.8675 -0.6730
 8220SOL    HW236297   2.926   3.413  10.671 -0.9977  2.1642  3.7052
 8221SOL     OW36298   1.519   2.912   8.603 -0.3627  0.3708  0.0825
 8221SOL    HW136299   1.460   2.941   8.534 -1.1765  1.7747  1.3833
 8221SOL    HW236300   1.607   2.912   8.564 -0.6105 -1.7901 -0.4735
 8222SOL     OW36301   3.714   1.011   3.449  0.7796 -0.1437 -0.1614
 8222SOL    HW136302   3.626   0.975   3.447  1.3798 -1.5856 -0.7871
 8222SOL    HW236303   3.748   0.986   3.363 -1.0387  0.6976 -1.1132
 8223SOL     OW36304   2.504   1.387  16.572 -0.1609  0.5257 -0.3842
 8223SOL    HW136305   2.561   1.358  16.501 -2.0199 -0.9089 -1.2995
 8223SOL    HW236306   2.424   1.411  16.525  0.7164  1.0786 -1.5800
 8224SOL     OW36307   1.066   0.091   1.977 -0.0419 -0.4941  0.0720
 8224SOL    HW136308   1.033   0.009   1.939 -0.3278 -0.9037  1.1761
 8224SOL    HW236309   1.010   0.146   1.923 -0.0182 -0.4327  0.1103
 8225SOL     OW36310   3.333   0.923  12.314 -0.1917 -0.0879  0.1954
 8225SOL    HW136311   3.401   0.989  12.303 -0.3440 -0.2686 -1.8206
 8225SOL    HW236312   3.353   0.863  12.242  0.7358  1.1581 -0.5998
 8226SOL     OW36313   1.241   1.645   8.064 -0.1987  0.1297 -0.4055
 8226SOL    HW136314   1.187   1.676   7.991 -2.2006 -2.1682  0.1079
 8226SOL    HW236315   1.316   1.702   8.047 -0.7649  0.8735 -0.3935
 8227SOL     OW36316   4.010   1.783   8.083  0.2720  0.0704 -0.2018
 8227SOL    HW136317   3.982   1.734   8.006 -2.4233 -0.8709  1.3746
 8227SOL    HW236318   4.102   1.756   8.093  0.3507  0.3062 -0.2920
 8228SOL     OW36319   2.239   1.321   7.059 -0.2392  0.2231  0.2290
 8228SOL    HW136320   2.288   1.380   7.116 -1.8330 -1.4734  3.4033
 8228SOL    HW236321   2.261   1.234   7.094 -2.1058 -0.5344 -0.5003
 8229SOL     OW36322   2.532   1.916   8.988 -0.4316  0.5308  0.1131
 8229SOL    HW136323   2.524   1.859   9.065 -1.0056  3.3605  2.1853
 8229SOL    HW236324   2.459   1.978   8.997 -0.4197  0.2365  2.3979
 8230SOL     OW36325   1.315   0.370   5.304 -0.8368 -0.3199 -0.0735
 8230SOL    HW136326   1.315   0.465   5.315  0.4931 -0.7414  3.6028
 8230SOL    HW236327   1.398   0.348   5.347 -1.4381  0.5005  1.4952
 8231SOL     OW36328   4.171   1.244   8.454  0.5425 -0.1686  0.6856
 8231SOL    HW136329   4.158   1.154   8.484 -1.3725 -0.5214 -1.1973
 8231SOL    HW236330   4.148   1.302   8.526 -1.2782 -0.1479  0.0795
 8232SOL     OW36331   0.301   0.262  12.705  0.3497  0.3236  0.0947
 8232SOL    HW136332   0.341   0.344  12.675 -1.8238  1.9373  1.6553
 8232SOL    HW236333   0.229   0.252  12.642  0.9905  1.1330 -0.7765
 8233SOL     OW36334   3.374   1.908  11.578  0.4139 -0.2895  0.1006
 8233SOL    HW136335   3.438   1.845  11.612  2.0924  1.0069 -0.6502
 8233SOL    HW236336   3.360   1.960  11.657 -0.8417 -0.8074  0.2141
 8234SOL     OW36337   1.200   4.083   1.715  0.2130 -0.1699 -0.6608
 8234SOL    HW136338   1.110   4.053   1.700 -0.5777 -0.2046  4.2117
 8234SOL    HW236339   1.209   4.139   1.638 -2.4489  0.4036 -0.5727
 8235SOL     OW36340   1.108   0.469   8.519 -0.6895  0.1490  0.4120
 8235SOL    HW136341   1.086   0.562   8.510 -0.9756 -0.0889 -1.3395
 8235SOL    HW236342   1.203   0.467   8.529 -0.8479  0.1530  1.8784
 8236SOL     OW36343   0.070   3.136  10.400 -0.2039 -0.4255 -0.2070
 8236SOL    HW136344   0.086   3.208  10.462  1.3430  0.4229 -1.5940
 8236SOL    HW236345   4.712   3.155  10.392 -0.1932 -0.9876 -1.5604
 8237SOL     OW36346   0.442   3.854   8.705  0.1793  0.2079 -0.5482
 8237SOL    HW136347   0.444   3.941   8.745  0.4029 -0.2987  0.5255
 8237SOL    HW236348   0.519   3.814   8.745 -0.1323  0.0043 -0.1594
 8238SOL     OW36349   2.526   4.679  13.893  0.1015  0.2644 -0.0250
 8238SOL    HW136350   2.613   4.718  13.902  0.9873 -1.6342 -0.2850
 8238SOL    HW236351   2.550   4.587  13.886 -0.1187  0.0151  2.5634
 8239SOL     OW36352   2.391   0.882   5.484 -0.0445 -0.0388  0.0075
 8239SOL    HW136353   2.454   0.942   5.523  0.3155  0.0417 -0.7077
 8239SOL    HW236354   2.318   0.942   5.470  1.1188  1.3550 -0.0928
 8240SOL     OW36355   0.601   3.765  10.244  0.4945  0.2948 -0.1623
 8240SOL    HW136356   0.670   3.699  10.246 -0.0384 -0.2857 -1.2635
 8240SOL    HW236357   0.571   3.761  10.153 -0.0048  0.0903  0.0133
 8241SOL     OW36358   0.142   3.087   3.378 -0.2660  0.3329  0.1769
 8241SOL    HW136359   0.179   3.176   3.376  2.9282 -0.9825  1.0145
 8241SOL    HW236360   0.113   3.066   3.289  0.6908 -3.5034  0.8116
 8242SOL     OW36361   3.605   0.767   9.232 -0.0329  0.1419 -0.4019
 8242SOL    HW136362   3.586   0.717   9.311  2.0026 -1.1867 -0.7577
 8242SOL    HW236363   3.631   0.850   9.271 -1.2311  0.8092 -1.0272
 8243SOL     OW36364   3.869   3.073   2.074 -0.3712  0.7147 -0.0888
 8243SOL    HW136365   3.814   3.000   2.047  0.6344 -0.0851  0.0048
 8243SOL    HW236366   3.910   3.027   2.148  0.0309 -2.3029 -2.1912
 8244SOL     OW36367   0.433   2.329   7.737  0.1796  0.4795 -0.3643
 8244SOL    HW136368   0.432   2.288   7.651 -2.9574 -0.5613  0.1899
 8244SOL    HW236369   0.506   2.288   7.783 -0.5825  0.7383  1.0788
 8245SOL     OW36370   0.765   4.047   8.951  0.3547  0.1926  0.1747
 8245SOL    HW136371   0.730   4.018   9.035 -0.7004 -1.7238 -0.9288
 8245SOL    HW236372   0.845   4.095   8.975  0.8064 -0.2176 -0.4798
 8246SOL     OW36373   4.565   1.962   8.760  0.1233  0.0482 -0.1261
 8246SOL    HW136374   4.515   2.036   8.796  1.9528  0.3035  1.9243
 8246SOL    HW236375   4.630   2.010   8.709 -0.1411 -1.3713 -1.7609
 8247SOL     OW36376   3.444   1.380   7.093 -0.6566 -0.1262  0.6075
 8247SOL    HW136377   3.419   1.329   7.170 -0.4693 -0.6514  0.3204
 8247SOL    HW236378   3.441   1.315   7.022  0.2552 -0.4086  0.8301
 8248SOL     OW36379   2.875   0.674  17.302  0.2954 -0.7048  0.4852
 8248SOL    HW136380   2.828   0.647  17.223 -2.2457  1.1602  1.3688
 8248SOL    HW236381   2.812   0.739  17.332  1.8092  0.8189  0.3512
 8249SOL     OW36382   2.280   2.680  12.367 -0.6350 -0.2707  0.5005
 8249SOL    HW136383   2.330   2.601  12.347 -0.3243  0.2841 -0.9139
 8249SOL    HW236384   2.206   2.628  12.399 -0.2418 -0.3845  1.2324
 8250SOL     OW36385   1.686   4.115   0.927  0.3388  0.2243  0.5066
 8250SOL    HW136386   1.762   4.096   0.872  0.1004 -0.2380  0.3356
 8250SOL    HW236387   1.711   4.205   0.944 -2.7490  1.3155 -0.7058
 8251SOL     OW36388   3.869   3.841   5.985  0.6022 -0.5951  0.4877
 8251SOL    HW136389   3.952   3.834   5.938 -0.2343 -1.4105 -0.8717
 8251SOL    HW236390   3.845   3.930   5.959  2.0234 -0.7690 -1.4155
 8252SOL     OW36391   0.711   1.617   4.909 -0.3152 -0.1272 -0.1935
 8252SOL    HW136392   0.646   1.592   4.844 -1.4514  0.6392  0.6528
 8252SOL    HW236393   0.751   1.685   4.855  0.0155 -0.3104 -0.1808
 8253SOL     OW36394   1.543   2.915  17.280 -0.1918  0.6847  0.1505
 8253SOL    HW136395   1.524   2.836  17.331  0.4789 -0.4871 -1.4199
 8253SOL    HW236396   1.461   2.919  17.230 -0.4069 -1.8724  0.3069
 8254SOL     OW36397   1.349   2.682   8.652  0.3173  0.2139  0.4767
 8254SOL    HW136398   1.388   2.599   8.678  0.3281 -0.2641 -1.0737
 8254SOL    HW236399   1.431   2.733   8.648 -0.2714  1.2134  1.0911
 8255SOL     OW36400   4.579   3.550   9.781 -0.0764  0.3767  0.4940
 8255SOL    HW136401   4.491   3.518   9.801  0.5745 -1.9610 -0.3949
 8255SOL    HW236402   4.555   3.629   9.733 -1.4421  0.1668  0.8339
 8256SOL     OW36403   1.239   1.288   2.227 -0.3376  0.0999 -0.3401
 8256SOL    HW136404   1.169   1.354   2.219 -0.3802 -0.1082 -1.7575
 8256SOL    HW236405   1.201   1.224   2.166  0.6934 -0.9327  0.1069
 8257SOL     OW36406   3.354   0.817  14.616  0.4410  0.1007 -0.0148
 8257SOL    HW136407   3.302   0.772  14.549  0.3002  0.1320  0.0740
 8257SOL    HW236408   3.442   0.807  14.579  0.6153  0.8385  0.2076
 8258SOL     OW36409   4.451   4.658   3.899  0.0717 -0.1267 -0.0200
 8258SOL    HW136410   4.486   4.701   3.977  0.9725 -1.3787  0.2676
 8258SOL    HW236411   4.524   4.620   3.850  0.0405 -1.3922  0.8889
 8259SOL     OW36412   1.453   0.455   7.586  0.5520  0.0141 -0.8577
 8259SOL    HW136413   1.436   0.376   7.535  2.5279  1.1561 -3.2683
 8259SOL    HW236414   1.521   0.419   7.643 -0.8599  0.8194  1.3493
 8260SOL     OW36415   2.946   0.787  12.367  0.2181 -0.5877 -0.8542
 8260SOL    HW136416   2.852   0.791  12.349  0.0718 -0.4638 -0.0978
 8260SOL    HW236417   2.945   0.710  12.424  1.8534  0.9447  1.2242
 8261SOL     OW36418   2.763   4.222   9.341  0.2204 -0.0722  0.5857
 8261SOL    HW136419   2.734   4.141   9.384  0.7956 -1.0636 -0.8756
 8261SOL    HW236420   2.846   4.193   9.303 -0.6362 -0.2174 -1.1977
 8262SOL     OW36421   2.634   0.621  16.132 -0.0623 -0.1550 -0.1559
 8262SOL    HW136422   2.716   0.573  16.122  0.5082  1.0754 -1.3047
 8262SOL    HW236423   2.658   0.713  16.118  1.3346 -0.4276  0.4508
 8263SOL     OW36424   1.489   2.263   2.310 -0.5048 -0.0594 -0.4567
 8263SOL    HW136425   1.543   2.184   2.303 -0.6734 -0.2314  0.1227
 8263SOL    HW236426   1.409   2.219   2.340  0.6385  0.0466  2.7125
 8264SOL     OW36427   1.840   1.611   6.449  0.3160 -0.1219  0.4703
 8264SOL    HW136428   1.911   1.676   6.451  0.8256 -0.6745  0.3372
 8264SOL    HW236429   1.776   1.658   6.396  1.1162 -0.9392 -1.2384
 8265SOL     OW36430   4.629   2.154   3.935  0.7508 -0.6564 -0.4502
 8265SOL    HW136431   4.618   2.069   3.978 -1.0515 -0.8300 -1.2544
 8265SOL    HW236432   4.703   2.190   3.984 -0.3344  0.0228  0.7089
 8266SOL     OW36433   1.668   4.367  15.443  0.2165 -0.9039 -0.2100
 8266SOL    HW136434   1.738   4.432  15.450 -1.6555  0.9955  1.0438
 8266SOL    HW236435   1.618   4.394  15.520  2.1565  2.0765  0.0221
 8267SOL     OW36436   1.443   0.178   8.119  0.0956 -0.2931 -0.3268
 8267SOL    HW136437   1.460   0.188   8.213 -4.4229  0.0101  0.4591
 8267SOL    HW236438   1.511   0.125   8.078  0.5313  0.2429 -0.3008
 8268SOL     OW36439   2.555   3.754   2.049 -0.7385 -0.3413  0.5458
 8268SOL    HW136440   2.465   3.721   2.042 -0.7706 -0.0703 -0.2932
 8268SOL    HW236441   2.570   3.803   1.969  1.2179  0.8164  1.6272
 8269SOL     OW36442   4.163   0.867   4.538  0.9188 -0.3295 -0.1627
 8269SOL    HW136443   4.104   0.792   4.547  0.2833 -0.1363 -2.7656
 8269SOL    HW236444   4.108   0.943   4.556  0.2138 -0.5672 -1.2889
 8270SOL     OW36445   3.008   0.832   4.759 -0.8608 -0.2546  0.2193
 8270SOL    HW136446   3.094   0.831   4.717 -1.4416 -2.2513 -0.9372
 8270SOL    HW236447   3.022   0.771   4.831 -0.6663  0.4281  0.7609
 8271SOL     OW36448   0.342   4.365   1.655  0.6187  0.8924 -0.2724
 8271SOL    HW136449   0.377   4.285   1.615 -0.7999  0.5219 -0.7989
 8271SOL    HW236450   0.289   4.404   1.585 -2.0434 -0.3205  1.0382
 8272SOL     OW36451   0.705   2.792  12.377  0.4722  0.0035 -0.0679
 8272SOL    HW136452   0.769   2.835  12.320 -1.7841 -1.3127 -3.6278
 8272SOL    HW236453   0.724   2.825  12.464  2.2445  0.3333 -0.5827
 8273SOL     OW36454   0.023   1.371   8.184  0.5416  0.3811  0.1129
 8273SOL    HW136455   0.017   1.403   8.094  0.7839 -1.6710 -0.6352
 8273SOL    HW236456   0.068   1.287   8.172 -1.5833 -0.6639 -0.5642
 8274SOL     OW36457   4.224   1.901   7.770  0.1286 -0.3005 -0.1118
 8274SOL    HW136458   4.302   1.956   7.773  0.4160 -0.7364  0.3414
 8274SOL    HW236459   4.268   1.821   7.741  0.3451  0.3507 -1.6155
 8275SOL     OW36460   4.020   2.102  13.480  0.1495 -0.2540 -0.6740
 8275SOL    HW136461   4.111   2.086  13.504  0.7947  2.7806 -1.1638
 8275SOL    HW236462   4.028   2.129  13.389  0.1457 -1.9544 -1.1894
 8276SOL     OW36463   0.750   3.171   7.485 -0.0413  0.4589 -0.5039
 8276SOL    HW136464   0.800   3.250   7.506  3.3423 -1.4896 -1.2283
 8276SOL    HW236465   0.667   3.189   7.530 -0.0014 -0.1192 -0.1931
 8277SOL     OW36466   0.657   4.546   5.185 -0.0764 -0.2217  0.1225
 8277SOL    HW136467   0.701   4.629   5.202 -0.3751 -0.5417  2.4353
 8277SOL    HW236468   0.563   4.555   5.201 -0.3276 -0.5653 -1.1302
 8278SOL     OW36469   4.127   0.943   7.702  0.4930  0.2239  0.5468
 8278SOL    HW136470   4.035   0.955   7.678  0.7917 -0.1129 -0.7767
 8278SOL    HW236471   4.153   0.917   7.613 -1.1881 -0.0113  0.1305
 8279SOL     OW36472   4.124   0.721   2.338 -0.1866 -0.1075 -0.1288
 8279SOL    HW136473   4.123   0.812   2.309 -1.1352 -0.5694 -1.5208
 8279SOL    HW236474   4.117   0.741   2.431 -2.3732 -1.5988  0.0219
 8280SOL     OW36475   4.275   4.220   3.742 -0.1509 -0.3929 -0.1099
 8280SOL    HW136476   4.251   4.288   3.804  0.9881  0.9236 -1.1106
 8280SOL    HW236477   4.234   4.248   3.660  3.1617  0.1170 -1.5844
 8281SOL     OW36478   3.849   3.128   8.104 -0.1944  0.1529 -0.7981
 8281SOL    HW136479   3.764   3.090   8.080 -0.3846  1.3296 -1.9372
 8281SOL    HW236480   3.904   3.082   8.041 -0.8040 -1.0058 -0.5010
 8282SOL     OW36481   1.620   2.145  16.981 -0.3941  0.4750 -0.2447
 8282SOL    HW136482   1.539   2.157  16.932  0.5384 -0.7449 -2.0951
 8282SOL    HW236483   1.613   2.229  17.027 -1.5669 -0.4244  1.2046
 8283SOL     OW36484   1.756   3.935   0.611 -0.0341 -0.1807  0.2916
 8283SOL    HW136485   1.728   3.845   0.592  1.0986 -0.9604  2.2407
 8283SOL    HW236486   1.748   3.934   0.707 -2.8047 -0.5945  0.0471
 8284SOL     OW36487   0.340   0.075   9.400  0.3153 -0.1462  0.7671
 8284SOL    HW136488   0.245   0.069   9.412  0.1975  2.2802  1.1141
 8284SOL    HW236489   0.354   0.006   9.465  0.1226 -1.0257 -0.1250
 8285SOL     OW36490   4.283   2.454   2.144 -0.3278 -0.2837 -0.7231
 8285SOL    HW136491   4.311   2.531   2.194  1.7026 -0.0299 -2.2432
 8285SOL    HW236492   4.360   2.435   2.090 -0.6245  2.0173 -1.9332
 8286SOL     OW36493   0.005   4.671   2.142  0.1993  0.4810 -0.0872
 8286SOL    HW136494   4.671   4.604   2.143 -0.9178  1.6284 -0.6944
 8286SOL    HW236495   0.001   4.683   2.237 -1.3468  0.9902 -0.2208
 8287SOL     OW36496   2.462   0.356  11.045  0.0352  0.3442 -0.2426
 8287SOL    HW136497   2.422   0.373  11.130  0.0617  2.2351 -0.5874
 8287SOL    HW236498   2.419   0.426  10.995 -1.7681 -2.9086 -3.1799
 8288SOL     OW36499   4.080   4.281   9.513 -0.5056  0.3783  0.0681
 8288SOL    HW136500   4.077   4.370   9.479 -1.9080  0.8063  1.3176
 8288SOL    HW236501   4.025   4.290   9.591  2.3524  2.1286  1.8449
 8289SOL     OW36502   3.941   1.771   4.034 -0.4166 -0.4666 -0.7324
 8289SOL    HW136503   4.036   1.758   4.027 -0.4491 -0.1897 -1.6442
 8289SOL    HW236504   3.949   1.866   4.043 -0.6514 -0.2654 -2.7866
 8290SOL     OW36505   0.165   3.012   2.884 -0.3247  0.1726 -0.0645
 8290SOL    HW136506   0.128   3.069   2.817  0.3510  1.6752  0.8597
 8290SOL    HW236507   0.250   3.055   2.871  1.4389 -3.0601  0.6148
 8291SOL     OW36508   0.204   2.435   8.938 -0.8736  0.2030 -0.5558
 8291SOL    HW136509   0.284   2.439   8.886 -0.0637 -0.1005  0.6577
 8291SOL    HW236510   0.140   2.382   8.891 -1.6692  0.0133  0.7303
 8292SOL     OW36511   3.962   1.969   6.932 -0.1377 -0.2579 -0.2452
 8292SOL    HW136512   4.016   2.005   6.861 -0.6121 -0.6859 -0.8253
 8292SOL    HW236513   3.910   2.043   6.963 -0.5547 -1.2013  1.3035
 8293SOL     OW36514   1.297   3.110   6.932 -0.2648 -0.0119 -0.0106
 8293SOL    HW136515   1.290   3.181   6.996 -1.5173  0.3464 -0.5490
 8293SOL    HW236516   1.248   3.150   6.860  1.0783  3.1217  0.8024
 8294SOL     OW36517   3.450   2.995  15.158 -0.0377  0.2106 -0.5801
 8294SOL    HW136518   3.394   3.070  15.175  0.5401  0.9991 -2.1566
 8294SOL    HW236519   3.478   2.968  15.246 -0.1259 -2.0043 -1.2236
 8295SOL     OW36520   4.608   4.262   0.257 -0.4839  0.0588  0.4050
 8295SOL    HW136521   4.619   4.273   0.352 -1.4573  1.5785  0.3359
 8295SOL    HW236522   4.515   4.238   0.259 -0.6613  0.7340 -0.0637
 8296SOL     OW36523   2.269   0.687   0.770  0.3596 -0.1104 -0.0414
 8296SOL    HW136524   2.175   0.707   0.771  0.2306 -0.7376  0.6448
 8296SOL    HW236525   2.270   0.608   0.825  1.6873 -1.3503 -1.8283
 8297SOL     OW36526   3.049   0.814  10.743  0.5419  0.1135  0.0229
 8297SOL    HW136527   3.085   0.867  10.672 -0.2308 -0.6275 -0.9083
 8297SOL    HW236528   3.035   0.889  10.801 -1.2516 -1.6391  1.8361
 8298SOL     OW36529   1.781   2.817   6.698  0.4710  0.0541  0.1829
 8298SOL    HW136530   1.799   2.728   6.667 -1.3353 -0.0410 -0.6250
 8298SOL    HW236531   1.868   2.856   6.696  0.9344 -0.8584  2.3471
 8299SOL     OW36532   2.837   2.227   3.025 -0.6327 -0.4214  0.0408
 8299SOL    HW136533   2.831   2.296   3.092 -1.3152 -0.1687 -0.2873
 8299SOL    HW236534   2.745   2.202   3.018 -1.3972  2.5042 -0.1920
 8300SOL     OW36535   0.958   3.019   9.217 -0.0257  0.8735 -0.3719
 8300SOL    HW136536   0.939   2.926   9.209  0.6713  0.8864 -2.2464
 8300SOL    HW236537   0.999   3.007   9.302 -0.3186  1.1310 -0.1934
 8301SOL     OW36538   2.333   0.842  15.523 -0.1610  0.1726 -0.3155
 8301SOL    HW136539   2.322   0.748  15.507 -0.8996  0.2173 -0.0593
 8301SOL    HW236540   2.428   0.841  15.534 -0.1924  0.2524 -0.0544
 8302SOL     OW36541   2.803   3.515   1.448  0.0278 -0.1777 -0.1578
 8302SOL    HW136542   2.810   3.571   1.371 -2.3712  1.1301  0.5918
 8302SOL    HW236543   2.710   3.500   1.434 -0.3854 -0.1023  2.5916
 8303SOL     OW36544   4.157   2.854  10.402  0.1276  0.3962  0.1869
 8303SOL    HW136545   4.194   2.800  10.472 -3.3847 -1.9661  0.2187
 8303SOL    HW236546   4.108   2.787  10.354 -3.3273  1.5784  2.1255
 8304SOL     OW36547   2.674   3.746   8.723 -0.0712  0.4180  0.2313
 8304SOL    HW136548   2.579   3.746   8.710 -0.2025 -1.6784  1.0899
 8304SOL    HW236549   2.707   3.810   8.660  1.6426 -0.9749 -0.2962
 8305SOL     OW36550   2.720   4.004   3.921  0.0383 -0.0383  0.0322
 8305SOL    HW136551   2.754   4.015   3.832  2.7450  2.1756  1.3541
 8305SOL    HW236552   2.628   3.983   3.906  0.4416 -0.1902 -2.2395
 8306SOL     OW36553   1.615   3.870   4.834  0.2551  0.1262  0.3589
 8306SOL    HW136554   1.573   3.918   4.762  3.8401  0.3532 -1.5598
 8306SOL    HW236555   1.702   3.851   4.799  0.7207 -0.9483  2.1126
 8307SOL     OW36556   0.738   0.227   6.376  0.4696 -0.9959  0.2135
 8307SOL    HW136557   0.738   0.133   6.358  1.7894 -1.1446  1.0113
 8307SOL    HW236558   0.707   0.222   6.466  1.2086  1.2580  0.5966
 8308SOL     OW36559   3.243   3.531   8.923 -0.2987  0.2610 -0.8056
 8308SOL    HW136560   3.322   3.584   8.930 -0.5002  0.4596 -0.0949
 8308SOL    HW236561   3.268   3.468   8.855  2.7854 -0.0408  0.6136
 8309SOL     OW36562   0.221   3.663   9.065 -0.5794  0.1590 -0.8488
 8309SOL    HW136563   0.278   3.733   9.034  1.0399 -1.1988 -0.9570
 8309SOL    HW236564   0.158   3.708   9.119  0.0138 -0.2900  0.2227
 8310SOL     OW36565   4.409   3.273   6.546  0.2753  0.3047  0.8272
 8310SOL    HW136566   4.323   3.306   6.571 -1.0237 -0.6457 -2.3966
 8310SOL    HW236567   4.412   3.178   6.536 -0.9858  0.5851 -2.2954
 8311SOL     OW36568   4.054   4.330  11.647  0.1024  0.1447 -0.8092
 8311SOL    HW136569   3.994   4.285  11.587 -2.1234 -0.5116  1.9448
 8311SOL    HW236570   4.003   4.407  11.672 -2.7558 -2.5529  1.6996
 8312SOL     OW36571   1.544   4.471   8.629 -0.1713  0.0862 -0.4078
 8312SOL    HW136572   1.624   4.419   8.622 -0.3811 -0.3916  0.6659
 8312SOL    HW236573   1.560   4.548   8.683  1.7750 -1.1887  0.8270
 8313SOL     OW36574   1.330   3.015   2.847  0.3690 -0.2906 -0.2562
 8313SOL    HW136575   1.339   3.084   2.781 -1.5248  1.5668  1.4080
 8313SOL    HW236576   1.317   3.063   2.929  2.0745 -0.6320  0.1993
 8314SOL     OW36577   1.340   0.006  11.868  0.3629 -0.2706 -0.0001
 8314SOL    HW136578   1.310   4.682  11.799  0.8426 -0.4108 -0.0847
 8314SOL    HW236579   1.323   4.692  11.947 -1.3880  1.5923  0.7953
 8315SOL     OW36580   3.456   4.142  13.686  0.1765  0.0601  0.3034
 8315SOL    HW136581   3.551   4.136  13.677  0.1176 -0.0098 -0.2764
 8315SOL    HW236582   3.443   4.105  13.773 -0.0652 -2.2028 -0.6847
 8316SOL     OW36583   3.402   4.256   1.892 -0.2939  0.4843  0.3610
 8316SOL    HW136584   3.389   4.339   1.937  1.0792  0.1733  1.3410
 8316SOL    HW236585   3.351   4.193   1.944 -1.2261 -0.4959 -1.7323
 8317SOL     OW36586   2.739   1.899   9.390  0.1289  0.1395  0.3887
 8317SOL    HW136587   2.795   1.873   9.317 -0.7837  0.0852 -0.2796
 8317SOL    HW236588   2.679   1.955   9.342 -1.3028 -1.4818  0.3013
 8318SOL     OW36589   2.588   3.336  14.712  0.0622  0.0119 -0.1187
 8318SOL    HW136590   2.606   3.264  14.773 -0.0590 -0.4994 -0.6866
 8318SOL    HW236591   2.569   3.290  14.630 -1.4004 -0.7417  0.6297
 8319SOL     OW36592   4.157   3.790   1.598  0.0976 -0.3361 -0.0646
 8319SOL    HW136593   4.071   3.785   1.639  0.6170  0.1661  1.0972
 8319SOL    HW236594   4.171   3.712   1.545 -2.1137  0.1882 -1.3941
 8320SOL     OW36595   4.282   2.357   7.308 -0.2459  0.5032  0.6175
 8320SOL    HW136596   4.225   2.300   7.359 -1.3394 -0.6403 -1.8620
 8320SOL    HW236597   4.275   2.313   7.223 -2.3603  3.1468 -0.5533
 8321SOL     OW36598   4.679   3.475   4.662 -0.4587 -0.5476 -0.3409
 8321SOL    HW136599   4.664   3.385   4.691  2.0314 -0.9027 -0.1144
 8321SOL    HW236600   0.008   3.510   4.723 -0.4102 -3.0390  1.0446
 8322SOL     OW36601   4.029   3.751   4.799 -0.4310 -0.0886  0.5723
 8322SOL    HW136602   3.989   3.738   4.713  1.8132  0.3870 -0.5459
 8322SOL    HW236603   4.056   3.661   4.818 -1.7225 -0.5814  0.0681
 8323SOL     OW36604   3.359   4.457   1.202 -0.1419 -0.0205  0.4328
 8323SOL    HW136605   3.383   4.457   1.109 -0.5587  4.1837  0.3216
 8323SOL    HW236606   3.268   4.427   1.205 -0.7791  1.9945  1.1945
 8324SOL     OW36607   3.742   2.407   0.045  0.5519 -0.2786  0.4077
 8324SOL    HW136608   3.801   2.453  17.725  0.1793  0.5394  0.6734
 8324SOL    HW236609   3.656   2.436   0.015  1.3656  1.6816 -0.0433
 8325SOL     OW36610   2.858   1.432   6.966 -0.4226  0.4239 -0.2347
 8325SOL    HW136611   2.838   1.511   7.018 -1.5731 -0.4656  0.6765
 8325SOL    HW236612   2.777   1.383   6.973  0.3680 -0.8746 -0.2355
 8326SOL     OW36613   2.731   0.365   7.245  0.0099 -0.0264 -0.0520
 8326SOL    HW136614   2.803   0.314   7.207 -0.2660 -1.8148  1.7818
 8326SOL    HW236615   2.663   0.350   7.180 -1.8113  0.6239  1.6766
 8327SOL     OW36616   3.285   3.324   7.185  0.0173  0.0491  0.0685
 8327SOL    HW136617   3.247   3.360   7.104  0.3039  0.8674  0.3001
 8327SOL    HW236618   3.312   3.237   7.157  0.7671  0.3011  0.0046
 8328SOL     OW36619   2.119   2.621   4.155 -0.5198 -0.0046 -0.0998
 8328SOL    HW136620   2.083   2.602   4.068  0.7724  0.2355 -0.6920
 8328SOL    HW236621   2.145   2.533   4.184 -2.1464 -0.9820 -1.5636
 8329SOL     OW36622   3.319   4.031   4.669  0.0274  0.4470  0.6496
 8329SOL    HW136623   3.317   3.979   4.589 -1.3844  0.0669  0.9278
 8329SOL    HW236624   3.411   4.022   4.692  1.3046  2.1105 -3.8655
 8330SOL     OW36625   4.115   2.354   6.566  0.1924  0.4245 -0.5161
 8330SOL    HW136626   4.090   2.382   6.478 -2.3523  1.4977  0.5527
 8330SOL    HW236627   4.208   2.336   6.552  0.0331  0.2127 -1.3482
 8331SOL     OW36628   4.632   2.758  16.056 -0.1937  0.5148 -0.2881
 8331SOL    HW136629   4.599   2.719  16.137  0.1344  0.0294 -0.3875
 8331SOL    HW236630   4.660   2.684  16.001  1.5702  2.2414 -1.7075
 8332SOL     OW36631   0.864   0.395   2.129  0.0976  0.0319 -0.1919
 8332SOL    HW136632   0.827   0.310   2.151  0.6763  0.6571  3.1508
 8332SOL    HW236633   0.839   0.406   2.037 -2.1540 -2.2733  0.1514
 8333SOL     OW36634   2.635   3.612  12.490  0.5440 -0.5707 -0.3690
 8333SOL    HW136635   2.608   3.698  12.458  0.4934 -0.8033 -0.9458
 8333SOL    HW236636   2.654   3.624  12.583 -0.0347  0.2913 -0.3519
 8334SOL     OW36637   0.159   2.888   5.632 -0.1660 -0.8391  0.3026
 8334SOL    HW136638   0.082   2.939   5.659 -0.0866 -0.6056  0.0777
 8334SOL    HW236639   0.120   2.803   5.610 -1.3638 -0.3495  0.4957
 8335SOL     OW36640   3.581   0.156   6.080  0.2230 -0.3919 -0.0117
 8335SOL    HW136641   3.618   0.096   6.015  1.8269  2.4586 -1.7134
 8335SOL    HW236642   3.502   0.173   6.028 -0.3992 -1.6889  0.5185
 8336SOL     OW36643   2.172   2.338   4.168  0.5258  0.4264 -0.1398
 8336SOL    HW136644   2.255   2.324   4.214 -1.5944  1.1616  3.9477
 8336SOL    HW236645   2.110   2.290   4.222  1.2152 -1.5522 -1.1094
 8337SOL     OW36646   3.500   2.505   5.245 -0.1880  0.5179  0.6081
 8337SOL    HW136647   3.497   2.541   5.333 -1.1826  0.1261  0.7374
 8337SOL    HW236648   3.408   2.522   5.225  0.2043  0.3763 -1.3068
 8338SOL     OW36649   0.550   2.390   1.309 -0.1028 -0.1189  0.6904
 8338SOL    HW136650   0.558   2.451   1.382  0.0982  1.0296 -0.2882
 8338SOL    HW236651   0.471   2.423   1.265 -1.7975 -1.2529  2.8319
 8339SOL     OW36652   4.041   0.350   5.587 -0.1288  0.4785  0.7112
 8339SOL    HW136653   3.992   0.430   5.568  1.5360  1.8903  2.2585
 8339SOL    HW236654   3.978   0.299   5.638  0.1197 -0.1450  0.3946
 8340SOL     OW36655   4.006   2.029  14.615  0.3207  0.0980 -0.2026
 8340SOL    HW136656   4.067   2.093  14.578 -0.1219  0.4597 -0.3140
 8340SOL    HW236657   3.990   2.077  14.696 -0.3873  1.6191 -1.2348
 8341SOL     OW36658   3.276   2.814   7.096  0.0047 -0.2373  0.8425
 8341SOL    HW136659   3.255   2.761   7.173  2.8847 -0.4187  1.4791
 8341SOL    HW236660   3.217   2.768   7.036  0.4633 -0.2708  0.4218
 8342SOL     OW36661   4.709   3.187   1.589  0.8484 -0.0205  0.0925
 8342SOL    HW136662   4.673   3.271   1.561  1.2773  0.4094  0.8309
 8342SOL    HW236663   4.630   3.133   1.588  0.4697  0.5495 -1.1321
 8343SOL     OW36664   2.636   0.805   8.335  0.0536  0.0569  0.5808
 8343SOL    HW136665   2.669   0.814   8.245 -0.9781 -0.0906  0.1830
 8343SOL    HW236666   2.716   0.774   8.378 -1.2218 -2.0095  1.4216
 8344SOL     OW36667   2.555   3.250   8.991 -0.5934 -0.2063 -0.5429
 8344SOL    HW136668   2.499   3.312   9.037  2.6406  0.6257  2.3012
 8344SOL    HW236669   2.503   3.169   8.993  2.7216 -2.2785  2.2471
 8345SOL     OW36670   4.650   2.464  12.377 -0.1246 -0.5437  0.4988
 8345SOL    HW136671   4.621   2.454  12.468 -1.8933 -1.0681 -0.1162
 8345SOL    HW236672   4.585   2.410  12.333 -2.1056  1.3037  1.1406
 8346SOL     OW36673   2.483   3.429   8.456 -0.0480 -0.2241 -0.4328
 8346SOL    HW136674   2.403   3.381   8.433 -0.0440 -2.0969  3.4510
 8346SOL    HW236675   2.540   3.354   8.440 -0.8481 -0.9083 -0.0406
 8347SOL     OW36676   0.043   0.671   8.863 -0.3093  0.6062  0.0091
 8347SOL    HW136677   0.089   0.611   8.803 -0.7007 -1.6251  1.9793
 8347SOL    HW236678   0.028   0.750   8.810  0.4397  0.3201 -0.6347
 8348SOL     OW36679   1.107   2.754  12.194 -0.1987  0.3635 -0.1286
 8348SOL    HW136680   1.066   2.755  12.108  1.0693  0.0608 -0.7332
 8348SOL    HW236681   1.041   2.713  12.250 -1.5612  1.7692 -0.7332
 8349SOL     OW36682   3.359   3.079  10.979 -0.5084  0.1738 -0.2924
 8349SOL    HW136683   3.320   2.997  11.010  0.6558 -0.0620  0.5721
 8349SOL    HW236684   3.420   3.102  11.050 -0.3726 -0.0433 -0.3372
 8350SOL     OW36685   1.957   3.485   5.009 -0.4398 -0.1900  0.0759
 8350SOL    HW136686   1.994   3.507   5.094 -2.1243  1.9464  0.2610
 8350SOL    HW236687   1.965   3.570   4.964  1.9938 -1.1652 -1.3136
 8351SOL     OW36688   0.446   1.710   5.982 -0.1082 -0.5197  0.1530
 8351SOL    HW136689   0.449   1.614   5.974  1.8560 -0.2471 -2.3063
 8351SOL    HW236690   0.356   1.728   5.956 -1.2368 -5.2470  0.8008
 8352SOL     OW36691   4.279   3.789   9.661 -0.3095 -0.8060  0.1475
 8352SOL    HW136692   4.355   3.733   9.643  0.4103 -1.0940  3.9747
 8352SOL    HW236693   4.210   3.723   9.669  1.0520 -2.2866 -0.4010
 8353SOL     OW36694   3.329   0.569   4.523  0.3697 -0.0639 -0.1554
 8353SOL    HW136695   3.338   0.616   4.606 -2.3519  2.1570 -1.1054
 8353SOL    HW236696   3.236   0.546   4.525  0.3394  0.1715  0.9314
 8354SOL     OW36697   2.354   3.130  12.399  0.0431  0.1055 -0.9309
 8354SOL    HW136698   2.380   3.141  12.308 -0.8935  1.2267 -1.0641
 8354SOL    HW236699   2.428   3.173  12.443  0.1279 -0.3953 -0.5838
 8355SOL     OW36700   2.613   1.000   0.940  0.1177  0.0632 -0.0769
 8355SOL    HW136701   2.640   0.937   0.874  0.5132  0.3153 -0.1529
 8355SOL    HW236702   2.644   1.083   0.904  0.8313 -0.2643 -0.2076
 8356SOL     OW36703   3.510   3.028   7.370 -0.1846 -0.5660 -0.5003
 8356SOL    HW136704   3.486   3.119   7.385 -0.2066 -0.7862  0.7723
 8356SOL    HW236705   3.606   3.025   7.367 -0.1461 -0.0351  0.2700
 8357SOL     OW36706   3.508   2.243   2.225  0.3015 -0.3277 -0.8467
 8357SOL    HW136707   3.525   2.162   2.273 -0.1779 -0.2288 -0.5040
 8357SOL    HW236708   3.553   2.235   2.141 -0.2049  3.2065 -1.4571
 8358SOL     OW36709   2.877   0.772   1.347 -0.0980 -0.1075 -0.1404
 8358SOL    HW136710   2.834   0.839   1.400 -0.7236  0.4702 -1.3552
 8358SOL    HW236711   2.817   0.700   1.329  0.5457 -0.2399 -1.7432
 8359SOL     OW36712   1.658   0.731   1.413  0.3053 -0.0179 -0.3313
 8359SOL    HW136713   1.751   0.727   1.391  0.1982 -2.4355 -0.3591
 8359SOL    HW236714   1.681   0.754   1.503  2.3378  0.7593 -1.0420
 8360SOL     OW36715   3.518   4.233   1.220 -0.0632 -0.4226  0.7837
 8360SOL    HW136716   3.456   4.300   1.250 -0.2308 -0.5984  0.8327
 8360SOL    HW236717   3.584   4.294   1.189 -0.1921 -0.8323 -0.3010
 8361SOL     OW36718   0.937   2.583   6.245 -0.0879 -0.6476 -0.3392
 8361SOL    HW136719   0.922   2.612   6.155 -2.3356  2.5708  1.0692
 8361SOL    HW236720   0.876   2.643   6.290 -0.4897  0.4087 -2.3207
 8362SOL     OW36721   1.120   2.933   8.600 -0.0510 -0.1123 -0.2166
 8362SOL    HW136722   1.043   2.990   8.589  0.2069  0.6099  1.6311
 8362SOL    HW236723   1.084   2.845   8.598 -0.8255  0.2536 -2.4175
 8363SOL     OW36724   2.468   0.359   5.198  0.2898  0.6516  0.1576
 8363SOL    HW136725   2.547   0.365   5.145  0.2758 -0.6950 -0.0113
 8363SOL    HW236726   2.514   0.336   5.278 -0.3859 -0.5310  0.1965
 8364SOL     OW36727   3.550   1.674   9.299 -0.0134  0.6520  0.2080
 8364SOL    HW136728   3.464   1.672   9.341 -0.4727 -2.5602 -0.9141
 8364SOL    HW236729   3.540   1.759   9.256  0.6347 -0.6745 -2.5107
 8365SOL     OW36730   3.738   4.307   2.678 -0.1298  0.1571 -0.9735
 8365SOL    HW136731   3.816   4.359   2.696  0.4302 -1.1868  0.3826
 8365SOL    HW236732   3.768   4.251   2.606  1.6090  0.5598 -0.5514
 8366SOL     OW36733   3.902   0.341   3.483 -0.4170  0.0158  0.5855
 8366SOL    HW136734   3.991   0.366   3.458 -0.3924 -0.3778  0.2722
 8366SOL    HW236735   3.874   0.422   3.525  2.2151  1.9838 -1.3815
 8367SOL     OW36736   2.273   4.511   9.130 -0.5215 -0.0979  0.0823
 8367SOL    HW136737   2.209   4.577   9.104 -0.0031  0.5579  0.4521
 8367SOL    HW236738   2.351   4.564   9.112 -0.0450 -1.5525 -2.1278
 8368SOL     OW36739   2.154   4.494   6.413  0.0693 -0.1129  0.2095
 8368SOL    HW136740   2.078   4.548   6.391  1.0112  1.1144 -0.0361
 8368SOL    HW236741   2.221   4.560   6.432 -0.7590  0.0257  2.6288
 8369SOL     OW36742   4.246   2.650   7.093 -0.3899 -0.6510  0.4022
 8369SOL    HW136743   4.284   2.734   7.122  0.6794 -0.7416 -0.7538
 8369SOL    HW236744   4.225   2.612   7.179  0.2214  2.0107  1.7431
 8370SOL     OW36745   2.011   2.411   2.525  0.4117  0.2930 -0.2609
 8370SOL    HW136746   2.046   2.480   2.469  0.2364  2.2586  2.0982
 8370SOL    HW236747   2.084   2.414   2.587  0.2199  1.2023 -0.0902
 8371SOL     OW36748   2.962   1.081  15.619 -0.8175  0.1593 -0.2026
 8371SOL    HW136749   2.995   1.049  15.535 -1.5890 -1.1763 -0.0093
 8371SOL    HW236750   3.031   1.144  15.637 -0.9491  0.4219 -0.5976
 8372SOL     OW36751   1.474   1.039   1.250 -0.4924 -0.1103 -0.0316
 8372SOL    HW136752   1.472   0.952   1.212  3.5277  0.1104 -0.7298
 8372SOL    HW236753   1.502   1.081   1.169 -1.5375 -1.1687 -0.9398
 8373SOL     OW36754   2.042   2.896   9.639  0.2812  0.1040 -0.0854
 8373SOL    HW136755   2.035   2.967   9.702  2.1581 -0.2815  0.5415
 8373SOL    HW236756   2.019   2.821   9.694  1.4554  0.6713  1.1535
 8374SOL     OW36757   0.826   3.889   5.452 -0.2157  0.0154  0.1760
 8374SOL    HW136758   0.804   3.892   5.545  0.3923  0.4815  0.3003
 8374SOL    HW236759   0.757   3.826   5.432 -0.8538  0.4066  1.1552
 8375SOL     OW36760   3.493   0.619   2.217  0.6247  0.4831  0.2569
 8375SOL    HW136761   3.472   0.712   2.213  1.7388  0.7385  0.3076
 8375SOL    HW236762   3.422   0.585   2.163  0.6492  0.6883  0.0979
 8376SOL     OW36763   2.723   2.829   8.051 -0.9582 -0.3605 -0.0842
 8376SOL    HW136764   2.759   2.745   8.025  0.2599 -0.4393  1.8527
 8376SOL    HW236765   2.783   2.892   8.011  2.1762 -1.5434  2.8445
 8377SOL     OW36766   0.034   0.510   4.593 -0.0362 -0.2822 -0.0304
 8377SOL    HW136767   4.711   0.579   4.625  0.0738 -0.9758  1.6722
 8377SOL    HW236768   0.002   0.427   4.628 -0.8449  0.3069  0.6097
 8378SOL     OW36769   3.849   1.497   6.831  0.0308  0.1927 -0.2803
 8378SOL    HW136770   3.846   1.469   6.922  2.7884 -3.2886 -1.2572
 8378SOL    HW236771   3.905   1.574   6.842 -1.5200  1.1296  1.1029
 8379SOL     OW36772   3.127   0.421   3.039  0.0878  0.3371 -0.3435
 8379SOL    HW136773   3.149   0.391   3.127 -0.0194 -1.3585 -0.8907
 8379SOL    HW236774   3.124   0.333   3.002  0.8468 -0.3683  1.2888
 8380SOL     OW36775   0.452   3.216  13.049 -0.5354  0.4627  0.6351
 8380SOL    HW136776   0.498   3.144  13.006 -1.0313  0.4019  0.2100
 8380SOL    HW236777   0.486   3.204  13.138 -0.3243  1.1765  0.6502
 8381SOL     OW36778   1.649   2.180   7.528 -0.0576  0.3928  0.2662
 8381SOL    HW136779   1.580   2.174   7.462  1.5700  0.2097 -1.4006
 8381SOL    HW236780   1.606   2.139   7.604 -2.1405  0.1403 -1.0529
 8382SOL     OW36781   4.040   0.703   6.957 -0.8507  0.0144  0.0338
 8382SOL    HW136782   4.030   0.713   7.051 -0.1232 -2.2533  0.3681
 8382SOL    HW236783   4.135   0.704   6.965 -0.9853  3.6364  1.0497
 8383SOL     OW36784   2.394   2.148  10.643  0.3960  0.3513  0.4622
 8383SOL    HW136785   2.334   2.081  10.675 -1.5456  2.1636  0.6586
 8383SOL    HW236786   2.440   2.165  10.725  1.4645  1.2736 -0.3262
 8384SOL     OW36787   2.408   3.953   2.197  0.6520 -0.2214 -0.1807
 8384SOL    HW136788   2.352   3.877   2.182  2.3378 -1.7346  1.3054
 8384SOL    HW236789   2.485   3.899   2.216 -0.4492 -1.8140 -0.2677
 8385SOL     OW36790   3.595   4.719  17.110 -0.3702  0.3513  0.2273
 8385SOL    HW136791   3.582   0.072  17.076 -1.0161 -1.2459 -3.6595
 8385SOL    HW236792   3.684   4.699  17.079 -0.0387  1.1404  0.6572
 8386SOL     OW36793   1.193   4.257   8.713  0.0356 -0.0468 -0.7132
 8386SOL    HW136794   1.191   4.350   8.694  1.3473 -0.0678 -0.9226
 8386SOL    HW236795   1.113   4.230   8.667 -0.1039 -1.3254  0.2724
 8387SOL     OW36796   2.953   3.942   5.982 -0.1327 -0.6146  0.3761
 8387SOL    HW136797   2.947   3.956   5.887 -0.2624  0.4593  0.5527
 8387SOL    HW236798   3.008   4.015   6.009  1.7574 -1.9653  0.2535
 8388SOL     OW36799   1.056   1.469   7.539 -0.0722 -0.2703 -0.2857
 8388SOL    HW136800   1.068   1.554   7.498  2.1943 -0.0283  0.9446
 8388SOL    HW236801   1.112   1.478   7.616  2.9854  2.3387 -2.8279
 8389SOL     OW36802   4.660   2.357   2.629  0.7179 -0.2647  0.1116
 8389SOL    HW136803   4.601   2.340   2.703  0.8343  1.1521  0.5241
 8389SOL    HW236804   4.669   2.449   2.651 -0.8552  0.1511 -0.9637
 8390SOL     OW36805   3.001   1.284   2.536  0.4188  0.1079  0.3420
 8390SOL    HW136806   3.040   1.368   2.514  0.3686  0.4782  1.6889
 8390SOL    HW236807   2.915   1.312   2.568  1.6157  1.3083  2.4750
 8391SOL     OW36808   2.256   4.581  11.843 -0.0525  0.1723  0.3695
 8391SOL    HW136809   2.170   4.623  11.843  0.1592  0.6020 -1.0846
 8391SOL    HW236810   2.261   4.534  11.760 -0.8917  1.9990 -0.7203
 8392SOL     OW36811   0.642   1.973   4.336  0.6494  0.2500  0.2035
 8392SOL    HW136812   0.612   2.057   4.301  1.7355  0.7498  0.4634
 8392SOL    HW236813   0.644   1.922   4.255 -0.0333 -0.5790  0.7107
 8393SOL     OW36814   1.272   2.989  12.524  0.2310  0.3933  0.1892
 8393SOL    HW136815   1.326   3.067  12.511  4.2013 -2.0556  2.1139
 8393SOL    HW236816   1.321   2.926  12.472  1.4621  1.8627 -0.4345
 8394SOL     OW36817   3.449   1.756   4.377  0.6592  0.4565 -0.0933
 8394SOL    HW136818   3.375   1.703   4.346 -0.8809  1.2570  2.2573
 8394SOL    HW236819   3.468   1.801   4.294  0.6253 -0.5232 -0.6363
 8395SOL     OW36820   3.931   0.931   0.045  0.7351  0.3564 -0.5090
 8395SOL    HW136821   3.856   0.972   0.087  0.6094 -1.5418  1.0996
 8395SOL    HW236822   3.904   0.839   0.036  0.5785  0.3197  0.3331
 8396SOL     OW36823   3.144   1.347  10.660 -0.1257 -0.0808 -0.4995
 8396SOL    HW136824   3.191   1.273  10.698 -0.6694 -1.3907 -2.3652
 8396SOL    HW236825   3.089   1.371  10.735  2.3496 -1.3015  1.6939
 8397SOL     OW36826   3.419   2.763   4.284  0.0256  0.7067 -0.4360
 8397SOL    HW136827   3.353   2.723   4.342  1.6313 -0.0941  0.8478
 8397SOL    HW236828   3.430   2.854   4.313  2.4098 -0.0274  1.0329
 8398SOL     OW36829   0.875   0.008   6.527  0.1222  0.3281 -0.4269
 8398SOL    HW136830   0.816   0.018   6.601 -0.8981  0.2823 -1.2327
 8398SOL    HW236831   0.946   0.071   6.542 -1.2273  1.7587 -0.0548
 8399SOL     OW36832   4.511   3.943  16.672  0.6213 -0.6100  0.5167
 8399SOL    HW136833   4.442   3.878  16.687  1.2564 -1.3941  0.0265
 8399SOL    HW236834   4.493   4.010  16.738 -1.8886 -1.0876  0.3496
 8400SOL     OW36835   1.933   4.390  12.269  0.0564 -0.0489 -0.4028
 8400SOL    HW136836   1.899   4.334  12.339 -1.9268  1.7137  0.0406
 8400SOL    HW236837   1.980   4.454  12.322 -0.5416 -1.1178  1.4274
 8401SOL     OW36838   1.171   2.170   3.025  0.5842  0.0928 -0.0063
 8401SOL    HW136839   1.114   2.117   2.970 -0.7051  1.1982  0.2627
 8401SOL    HW236840   1.215   2.229   2.963  1.3334  0.5190  0.9269
 8402SOL     OW36841   2.630   2.736   3.862  0.7558 -0.3931  0.3816
 8402SOL    HW136842   2.558   2.732   3.799  0.1511 -0.7794  1.0938
 8402SOL    HW236843   2.693   2.682   3.814  0.2440 -1.4213  0.8688
 8403SOL     OW36844   0.104   3.655   7.075  0.0164  0.1000 -0.0795
 8403SOL    HW136845   0.009   3.665   7.065  0.1005  1.2220  0.2110
 8403SOL    HW236846   0.129   3.607   6.996  1.4975  1.6951 -0.5632
 8404SOL     OW36847   4.358   2.252   6.228  0.0298  0.0967 -0.1455
 8404SOL    HW136848   4.439   2.264   6.177  0.0754  0.6586  0.0674
 8404SOL    HW236849   4.330   2.169   6.189 -0.0816 -0.5957  1.4037
 8405SOL     OW36850   3.851   2.218   6.716 -0.3371 -0.3131 -0.2981
 8405SOL    HW136851   3.777   2.157   6.717  0.3359 -1.1501 -1.1365
 8405SOL    HW236852   3.843   2.263   6.800 -3.0001  0.6051 -1.0374
 8406SOL     OW36853   0.006   1.963   1.988 -0.2839 -0.3071  0.4827
 8406SOL    HW136854   0.055   1.900   1.935 -0.4908  1.2709 -1.6252
 8406SOL    HW236855   4.651   1.958   1.955  0.5660 -0.6806 -1.7851
 8407SOL     OW36856   1.242   3.319   1.984 -0.1605 -0.0649 -0.0444
 8407SOL    HW136857   1.314   3.262   2.010 -0.9312  0.2842  2.9004
 8407SOL    HW236858   1.293   3.384   1.937  0.7533 -1.2359 -0.6568
 8408SOL     OW36859   4.342   3.206   3.788 -0.1807  0.1342  0.0757
 8408SOL    HW136860   4.300   3.236   3.869 -2.3193 -0.4353 -0.8311
 8408SOL    HW236861   4.292   3.127   3.769 -1.0466  0.3855  1.2676
 8409SOL     OW36862   0.334   0.773   0.653 -0.3568  0.0076 -0.1367
 8409SOL    HW136863   0.249   0.785   0.695 -0.2782 -2.1260  0.6298
 8409SOL    HW236864   0.342   0.680   0.633  0.3346 -0.1297  0.7868
 8410SOL     OW36865   3.699   4.368   3.290  0.0202 -0.3906  0.2639
 8410SOL    HW136866   3.716   4.368   3.196 -0.6973  0.7384  0.1280
 8410SOL    HW236867   3.670   4.284   3.325 -1.3371 -0.6180 -1.4119
 8411SOL     OW36868   4.578   2.996   2.804  0.1776  0.1322  0.1791
 8411SOL    HW136869   4.504   3.048   2.774  0.5991  0.6735  0.0780
 8411SOL    HW236870   4.660   3.033   2.771  1.0221 -1.5462  0.4031
 8412SOL     OW36871   0.155   1.788   5.098  0.1204 -0.4977  0.3193
 8412SOL    HW136872   0.130   1.878   5.077  1.7852 -0.1153 -0.0488
 8412SOL    HW236873   0.165   1.749   5.011 -0.6535  0.5937 -0.2609
 8413SOL     OW36874   1.133   2.534   6.584 -0.2975 -0.2527 -0.1303
 8413SOL    HW136875   1.154   2.507   6.674  0.0577  0.1308 -0.0995
 8413SOL    HW236876   1.074   2.468   6.548 -1.4689  0.3958  0.6120
 8414SOL     OW36877   0.547   3.230   8.760  0.7801  0.0745 -0.8915
 8414SOL    HW136878   0.475   3.288   8.784 -0.9273 -1.4687 -2.3700
 8414SOL    HW236879   0.542   3.255   8.668 -0.6461  1.5342 -0.4061
 8415SOL     OW36880   4.467   0.808  16.891  0.2500 -0.1223  0.4237
 8415SOL    HW136881   4.466   0.858  16.973 -2.8928  2.0325 -0.9271
 8415SOL    HW236882   4.558   0.814  16.863  0.0732  0.8692  0.0398
 8416SOL     OW36883   2.846   1.801  12.894  0.3082  0.0607 -0.0096
 8416SOL    HW136884   2.847   1.889  12.932  0.2257  0.0260  0.0730
 8416SOL    HW236885   2.752   1.790  12.883  0.5745 -1.4035 -0.8466
 8417SOL     OW36886   4.674   2.487  13.554  0.3242 -0.2106  0.1717
 8417SOL    HW136887   0.026   2.467  13.585 -0.0480 -1.4339  0.4312
 8417SOL    HW236888   4.619   2.476  13.632 -1.2548 -0.1091 -0.9225
 8418SOL     OW36889   4.171   3.504   8.900 -0.2137  0.2441 -0.4490
 8418SOL    HW136890   4.089   3.520   8.853 -0.0290 -0.2003 -0.9215
 8418SOL    HW236891   4.221   3.459   8.832  0.3488  0.4708 -0.1870
 8419SOL     OW36892   3.382   3.878   4.393  0.3400 -0.4049 -0.5226
 8419SOL    HW136893   3.471   3.846   4.379 -0.0065 -0.8296 -1.7349
 8419SOL    HW236894   3.357   3.919   4.310 -1.2232 -0.3809 -0.0286
 8420SOL     OW36895   2.631   0.225  10.892 -0.3804  0.3105 -0.7567
 8420SOL    HW136896   2.620   0.130  10.889  2.7748 -0.0418 -0.9878
 8420SOL    HW236897   2.579   0.250  10.968  0.8226  1.6421 -0.3609
 8421SOL     OW36898   3.119   2.806   2.549  0.7741 -0.1250  0.0970
 8421SOL    HW136899   3.157   2.720   2.570  2.4725  0.8399  0.9965
 8421SOL    HW236900   3.169   2.826   2.470  0.1901 -0.6991 -0.4218
 8422SOL     OW36901   0.852   1.299  16.674 -0.1758 -0.1741 -0.1785
 8422SOL    HW136902   0.888   1.385  16.651 -1.5045  0.6233  0.6881
 8422SOL    HW236903   0.926   1.246  16.645 -0.5570 -1.9535  2.0623
 8423SOL     OW36904   0.558   0.902  11.450  0.1296 -0.3368  0.0539
 8423SOL    HW136905   0.517   0.935  11.530  0.5044  1.0538 -0.3334
 8423SOL    HW236906   0.578   0.813  11.478 -0.4998  0.1436  2.0463
 8424SOL     OW36907   0.635   1.334   4.692  0.5955  0.0835 -0.0078
 8424SOL    HW136908   0.539   1.335   4.698  0.7100  1.8133  1.3662
 8424SOL    HW236909   0.666   1.252   4.730 -1.1854 -1.1500 -1.1893
 8425SOL     OW36910   3.566   2.540   7.469  0.6561  0.2992 -0.0218
 8425SOL    HW136911   3.621   2.522   7.545 -0.1597  0.2265  0.5491
 8425SOL    HW236912   3.631   2.586   7.416  0.0074  1.8989  0.5548
 8426SOL     OW36913   3.298   0.759  13.990  0.1533 -0.0395 -0.0932
 8426SOL    HW136914   3.244   0.838  13.987 -0.1593 -0.3667 -2.7731
 8426SOL    HW236915   3.239   0.690  13.960 -1.8030  0.3935  2.7392
 8427SOL     OW36916   2.496   3.304   0.796  0.1576 -0.1561 -0.0681
 8427SOL    HW136917   2.474   3.221   0.839  0.0325  1.4386  2.9390
 8427SOL    HW236918   2.584   3.312   0.830 -1.1120  1.8564  2.6882
 8428SOL     OW36919   3.881   4.265  10.919 -0.3710  0.7426 -0.2821
 8428SOL    HW136920   3.864   4.326  10.991  1.3716 -0.2598  0.9828
 8428SOL    HW236921   3.805   4.207  10.916 -0.4620  0.9927 -2.3311
 8429SOL     OW36922   2.628   2.425  12.484 -0.3169 -0.2066  0.0423
 8429SOL    HW136923   2.536   2.425  12.455 -0.6650  1.5387  1.1579
 8429SOL    HW236924   2.674   2.362  12.429 -0.6452 -0.1824 -0.2640
 8430SOL     OW36925   4.608   2.681  11.426 -0.0448  0.3569 -0.1013
 8430SOL    HW136926   4.641   2.755  11.477  2.8162 -0.1750 -1.1874
 8430SOL    HW236927   4.532   2.654  11.477 -0.0885  1.2001  0.2850
 8431SOL     OW36928   2.952   0.159   3.184  0.0152 -0.0870  0.6657
 8431SOL    HW136929   2.868   0.204   3.192 -0.6111 -0.6586 -2.9890
 8431SOL    HW236930   2.951   0.111   3.267  0.6885 -0.5488  0.4010
 8432SOL     OW36931   2.971   3.304  13.378 -0.1719  0.9393  0.2835
 8432SOL    HW136932   3.057   3.292  13.418 -0.5305  2.7237  1.5624
 8432SOL    HW236933   2.939   3.388  13.411  0.6537  1.5415 -0.4414
 8433SOL     OW36934   0.407   4.194   6.992 -0.3635 -0.0784  0.3132
 8433SOL    HW136935   0.460   4.259   7.038 -0.1365 -1.3744  1.9246
 8433SOL    HW236936   0.322   4.225   7.025 -0.3498 -0.6738  0.9097
 8434SOL     OW36937   0.244   1.742   4.508 -0.4742 -0.1464 -0.0520
 8434SOL    HW136938   0.235   1.809   4.441  0.3343  0.3398  0.3275
 8434SOL    HW236939   0.170   1.686   4.484 -0.7903  1.0069 -1.7733
 8435SOL     OW36940   2.041   1.854   8.357  0.1634 -0.5110 -0.3303
 8435SOL    HW136941   2.074   1.848   8.447 -1.9157  1.0613  0.5545
 8435SOL    HW236942   2.026   1.948   8.346 -0.4783 -0.7427 -1.4570
 8436SOL     OW36943   2.766   4.491   8.618 -0.3018  0.6908  0.0068
 8436SOL    HW136944   2.822   4.565   8.593  0.3705  0.6110  1.2893
 8436SOL    HW236945   2.736   4.459   8.533  0.4330 -0.4045  0.1544
 8437SOL     OW36946   2.915   1.724   5.118 -0.3883 -0.2714  0.4010
 8437SOL    HW136947   2.995   1.756   5.160  0.8553  0.9363 -2.8825
 8437SOL    HW236948   2.938   1.743   5.027  3.4602 -0.9458  1.2535
 8438SOL     OW36949   1.371   2.143  16.881 -0.2566  0.4340 -0.4898
 8438SOL    HW136950   1.286   2.132  16.840 -0.2077  1.5682 -0.8916
 8438SOL    HW236951   1.350   2.081  16.951  0.9889  1.1611  0.5515
 8439SOL     OW36952   4.389   1.441   5.163  0.3226 -0.2515  0.1663
 8439SOL    HW136953   4.294   1.442   5.163  0.3233  0.1734  0.9580
 8439SOL    HW236954   4.400   1.397   5.248  1.1295  0.6241  0.5248
 8440SOL     OW36955   1.059   4.612   2.952  0.0969  0.2290  0.1091
 8440SOL    HW136956   1.031   4.584   3.039  1.4572  1.2341  0.8832
 8440SOL    HW236957   1.033   4.535   2.902 -0.8400  1.2315 -0.9473
 8441SOL     OW36958   1.351   2.770   9.239 -0.1223 -0.3904  0.1266
 8441SOL    HW136959   1.430   2.790   9.289 -0.2748  0.6581 -0.0674
 8441SOL    HW236960   1.315   2.698   9.291 -1.9077 -0.6275 -1.4182
 8442SOL     OW36961   2.263   3.599   3.663 -0.0812  0.5751 -0.1399
 8442SOL    HW136962   2.354   3.575   3.641 -0.4372 -2.0515  1.2474
 8442SOL    HW236963   2.227   3.511   3.667  0.8753  0.2310  0.8378
 8443SOL     OW36964   0.466   0.633   5.269 -0.1443 -0.5166 -0.0805
 8443SOL    HW136965   0.556   0.623   5.237  0.1623 -0.2571  0.7001
 8443SOL    HW236966   0.465   0.717   5.316 -0.5994 -0.5233 -0.0807
 8444SOL     OW36967   0.683   0.676  10.203 -0.4315  0.0618  0.2221
 8444SOL    HW136968   0.738   0.719  10.138  2.9731 -1.8348  1.8831
 8444SOL    HW236969   0.755   0.656  10.263 -0.1351 -0.5011 -0.3247
 8445SOL     OW36970   2.181   4.078  10.060  0.0958  0.2153 -0.0907
 8445SOL    HW136971   2.088   4.076  10.082 -0.0282  0.2901 -0.5940
 8445SOL    HW236972   2.208   4.017  10.128  0.1947  1.4510  0.9652
 8446SOL     OW36973   3.787   3.331  12.615 -0.4263  0.3348  0.4148
 8446SOL    HW136974   3.868   3.359  12.658 -0.1156 -0.3090  0.2431
 8446SOL    HW236975   3.741   3.415  12.611  0.0530  0.5011 -1.3805
 8447SOL     OW36976   2.501   4.556   7.980  0.2279 -0.4566 -0.3183
 8447SOL    HW136977   2.549   4.482   8.017 -0.4554  0.6644  2.8883
 8447SOL    HW236978   2.484   4.619   8.051 -1.2530 -0.7227 -0.4420
 8448SOL     OW36979   0.016   3.709   6.650 -0.0642 -0.6495 -0.0338
 8448SOL    HW136980   0.017   3.676   6.561 -1.7647 -0.6366 -0.0432
 8448SOL    HW236981   4.657   3.720   6.660 -0.1148 -1.1458  0.0165
 8449SOL     OW36982   3.991   0.674   7.249  0.0176 -0.0975 -0.1210
 8449SOL    HW136983   3.984   0.673   7.345 -0.5028  1.0951 -0.1537
 8449SOL    HW236984   4.006   0.579   7.252  0.8256  0.0057 -1.2174
 8450SOL     OW36985   3.748   3.941   7.184  0.2676 -0.0557  0.1481
 8450SOL    HW136986   3.754   4.015   7.123  0.4783  1.6828  2.2908
 8450SOL    HW236987   3.839   3.911   7.190  0.5578  0.7116 -0.4004
 8451SOL     OW36988   0.403   3.387   9.566 -0.4491 -0.2069 -0.1501
 8451SOL    HW136989   0.361   3.302   9.578 -1.1020  0.2358  0.6655
 8451SOL    HW236990   0.437   3.381   9.477  1.4051  0.3771  0.5279
 8452SOL     OW36991   2.356   4.499  17.236  0.0463 -0.3627 -0.4955
 8452SOL    HW136992   2.369   4.556  17.160 -0.6435  1.4987  0.8079
 8452SOL    HW236993   2.416   4.430  17.206 -0.6966 -0.4315 -1.8277
 8453SOL     OW36994   2.474   0.196   6.163 -0.4366 -0.3560  0.7051
 8453SOL    HW136995   2.453   0.170   6.073 -1.1502  0.4747  0.6396
 8453SOL    HW236996   2.429   0.280   6.154  2.6981  1.2654  0.3043
 8454SOL     OW36997   0.621   3.408   6.514  0.1067 -0.1481  0.5154
 8454SOL    HW136998   0.537   3.433   6.475  0.4777  0.0383 -0.1764
 8454SOL    HW236999   0.667   3.492   6.510 -1.1751  0.5823  1.3512
 8455SOL     OW37000   0.377   3.101  14.191  0.0824  0.0865 -0.3857
 8455SOL    HW137001   0.361   3.132  14.280  0.2816 -1.1801  0.0945
 8455SOL    HW237002   0.395   3.008  14.204  0.6743  0.4990  1.7156
 8456SOL     OW37003   1.203   1.001   0.359  0.1504 -0.4074  0.1753
 8456SOL    HW137004   1.249   0.927   0.319  0.2809  0.7141 -1.7290
 8456SOL    HW237005   1.198   1.050   0.277 -1.0317 -0.2310  0.3565
 8457SOL     OW37006   3.513   1.073  16.873 -0.2845 -0.1410  0.1258
 8457SOL    HW137007   3.460   1.071  16.793  0.1664  1.0523 -0.2052
 8457SOL    HW237008   3.595   1.028  16.855  0.6969  0.6893  2.5225
 8458SOL     OW37009   4.430   1.984  16.263  0.3957 -0.4156  0.3199
 8458SOL    HW137010   4.473   1.902  16.239 -0.3871 -0.7950  0.2300
 8458SOL    HW237011   4.371   1.953  16.332 -1.1768  0.2438 -0.7260
 8459SOL     OW37012   2.710   0.323  13.996  0.3244  0.2772  0.1493
 8459SOL    HW137013   2.634   0.336  13.939  1.1310  0.6417 -0.8272
 8459SOL    HW237014   2.674   0.271  14.068 -3.7456  2.2489 -0.4679
 8460SOL     OW37015   0.955   2.636   6.893  0.7195  0.3491 -0.4191
 8460SOL    HW137016   0.981   2.723   6.860 -0.2185  0.2102 -1.5430
 8460SOL    HW237017   1.030   2.579   6.874 -0.0843 -1.5968  2.3732
 8461SOL     OW37018   0.948   2.215  17.408  0.1658  0.6005 -0.2084
 8461SOL    HW137019   0.883   2.286  17.413 -0.9882 -0.4253 -0.6598
 8461SOL    HW237020   1.029   2.262  17.431  0.7745 -1.2996  1.5248
 8462SOL     OW37021   3.795   1.002   5.273 -0.4988 -0.4636  0.1441
 8462SOL    HW137022   3.839   0.923   5.243  2.5683  1.3942 -0.2469
 8462SOL    HW237023   3.787   0.981   5.366  0.9801  0.8127  0.5548
 8463SOL     OW37024   0.257   3.433   7.957 -0.4746  0.0321  0.1246
 8463SOL    HW137025   0.192   3.401   7.894  0.2188 -2.1503  0.5044
 8463SOL    HW237026   0.235   3.525   7.943  2.6272  0.3903 -2.3034
 8464SOL     OW37027   0.297   3.639   8.649 -0.5157 -0.1654 -0.2084
 8464SOL    HW137028   0.336   3.719   8.682  0.7022  0.3037 -2.8550
 8464SOL    HW237029   0.337   3.582   8.714 -0.7441  0.4896  0.5060
 8465SOL     OW37030   0.551   3.840  14.463 -0.0213 -0.0051  0.2593
 8465SOL    HW137031   0.590   3.768  14.513  0.4133 -0.4028 -0.6425
 8465SOL    HW237032   0.557   3.905  14.533 -0.3991 -0.5176  0.7643
 8466SOL     OW37033   3.745   2.423   8.928  0.0111  0.3973  0.0846
 8466SOL    HW137034   3.741   2.358   8.857  1.4804  2.6407 -2.0514
 8466SOL    HW237035   3.713   2.500   8.881  0.0504  1.3105  1.5592
 8467SOL     OW37036   3.720   3.186   2.801  0.0286  0.4584  0.7366
 8467SOL    HW137037   3.638   3.219   2.764 -0.7028 -0.9826  1.0564
 8467SOL    HW237038   3.691   3.113   2.855  0.0038 -1.3599 -1.7229
 8468SOL     OW37039   1.822   1.646  10.166  0.1100  0.5023 -0.0615
 8468SOL    HW137040   1.747   1.696  10.198 -0.9277 -1.4769  0.6078
 8468SOL    HW237041   1.788   1.642  10.077 -1.0751 -0.1208  0.4186
 8469SOL     OW37042   4.203   2.197   9.576  0.1934 -0.4543 -0.2984
 8469SOL    HW137043   4.185   2.285   9.609 -1.9685 -0.3940 -1.6171
 8469SOL    HW237044   4.294   2.182   9.599 -0.2877 -2.6239  0.1910
 8470SOL     OW37045   0.547   4.043   5.581  0.0767 -0.0042  0.2445
 8470SOL    HW137046   0.462   4.069   5.617 -0.0986 -0.2015 -0.0270
 8470SOL    HW237047   0.550   3.951   5.607 -2.3332 -0.9518 -2.8601
 8471SOL     OW37048   1.363   4.349   5.636 -0.2700 -0.5133 -0.1029
 8471SOL    HW137049   1.397   4.260   5.625  1.2813  0.3626 -2.4010
 8471SOL    HW237050   1.306   4.349   5.713 -1.7966 -1.6683 -1.2211
 8472SOL     OW37051   3.716   0.013  15.647 -0.1645 -0.2427 -0.1835
 8472SOL    HW137052   3.696   0.009  15.741 -1.1860  0.0125 -0.3901
 8472SOL    HW237053   3.675   0.092  15.612  0.8975  0.1511 -0.5547
 8473SOL     OW37054   1.412   3.185   5.890 -0.1981  0.1339 -0.7163
 8473SOL    HW137055   1.491   3.213   5.844  0.3959 -2.1618 -1.0885
 8473SOL    HW237056   1.451   3.124   5.953  0.2408 -1.3013 -2.3765
 8474SOL     OW37057   0.501   2.288   6.701  0.0484 -0.4175  0.2065
 8474SOL    HW137058   0.479   2.195   6.706 -0.5863 -0.3487 -1.3659
 8474SOL    HW237059   0.564   2.289   6.772 -1.8659  0.3628  1.8720
 8475SOL     OW37060   3.395   4.371   5.960 -0.1397  0.3063  0.2779
 8475SOL    HW137061   3.326   4.432   5.987 -2.1243 -0.4508 -3.0948
 8475SOL    HW237062   3.465   4.414   6.011  0.1786  1.2341 -0.9328
 8476SOL     OW37063   4.391   0.199   6.245  0.4526  0.6248 -0.2010
 8476SOL    HW137064   4.353   0.266   6.301  1.0201  1.1080 -0.3999
 8476SOL    HW237065   4.313   0.149   6.219 -1.8990  3.6041  1.1377
 8477SOL     OW37066   0.557   2.080   7.199  0.2268  0.3939  0.3178
 8477SOL    HW137067   0.586   2.075   7.290  0.6597  2.2664  0.2793
 8477SOL    HW237068   0.576   2.170   7.173 -0.3905  0.6363  0.6965
 8478SOL     OW37069   3.270   1.687   0.745  0.0725  0.2351 -0.0001
 8478SOL    HW137070   3.327   1.764   0.739 -0.5948  0.7631  0.4537
 8478SOL    HW237071   3.192   1.729   0.782  2.1457  1.9726  2.4095
 8479SOL     OW37072   0.050   3.861   0.528 -0.4496  0.4024  0.0207
 8479SOL    HW137073   4.722   3.849   0.457 -0.9954 -0.9525  0.7437
 8479SOL    HW237074   0.004   3.921   0.587 -1.3155 -0.2060 -0.0266
 8480SOL     OW37075   1.051   1.941  10.350 -0.3533  0.4950  0.1703
 8480SOL    HW137076   0.969   1.980  10.380 -1.5266 -0.4618 -1.7639
 8480SOL    HW237077   1.116   2.011  10.354  0.8088 -0.4460 -2.3005
 8481SOL     OW37078   0.333   0.432   5.389 -0.1859 -0.0023 -0.1706
 8481SOL    HW137079   0.384   0.501   5.346 -0.0269 -0.6353 -0.9910
 8481SOL    HW237080   0.252   0.481   5.407  0.5863  1.2812 -0.1623
 8482SOL     OW37081   0.839   4.167   4.653 -0.0803 -0.2217  0.2304
 8482SOL    HW137082   0.886   4.129   4.579  0.2732  1.2653 -0.3238
 8482SOL    HW237083   0.763   4.109   4.644  0.2607 -0.6600  0.1708
 8483SOL     OW37084   3.007   3.704  16.892  0.0238 -0.3213 -0.3934
 8483SOL    HW137085   2.971   3.775  16.839 -0.8537 -0.7277 -0.3391
 8483SOL    HW237086   3.053   3.760  16.954  0.9800 -1.9523  0.3744
 8484SOL     OW37087   0.151   2.509   4.080 -0.5329  0.1089 -0.3177
 8484SOL    HW137088   0.119   2.589   4.038  2.0941  0.9933 -0.6020
 8484SOL    HW237089   0.147   2.553   4.165  3.1967 -0.4671  0.1213
 8485SOL     OW37090   1.931   0.220   7.295 -0.0551  0.6252 -0.4577
 8485SOL    HW137091   1.966   0.305   7.321  0.2374 -0.7486  3.6811
 8485SOL    HW237092   1.838   0.245   7.297 -0.2868 -0.2850  0.1575
 8486SOL     OW37093   2.167   2.927   5.816  0.7046  0.3755  0.1653
 8486SOL    HW137094   2.217   2.846   5.824  1.8666  1.2411  1.6663
 8486SOL    HW237095   2.143   2.931   5.723 -0.6738 -1.0673  0.4688
 8487SOL     OW37096   0.668   1.967   6.480  0.3708 -0.4147 -0.1916
 8487SOL    HW137097   0.604   1.952   6.550 -1.1943 -1.3086 -1.8043
 8487SOL    HW237098   0.612   1.967   6.402 -1.1113 -0.9140  0.8584
 8488SOL     OW37099   3.674   3.957  16.077  0.5323 -0.0311 -0.0010
 8488SOL    HW137100   3.728   3.954  15.999 -0.4399 -1.4227 -0.6283
 8488SOL    HW237101   3.674   4.052  16.079  1.1978  0.0008 -1.9877
 8489SOL     OW37102   1.509   1.100   5.471  0.5221  0.1433  0.0331
 8489SOL    HW137103   1.582   1.136   5.521 -0.2848  1.7694  0.0314
 8489SOL    HW237104   1.450   1.064   5.537  0.2772 -0.7384 -0.6741
 8490SOL     OW37105   3.950   1.953   8.955  0.2871 -0.0734 -0.3867
 8490SOL    HW137106   3.966   1.886   8.889 -3.3340  1.6059 -2.9674
 8490SOL    HW237107   3.869   1.996   8.928 -0.5587 -0.9341  0.7759
 8491SOL     OW37108   1.345   1.860   1.369  0.3854 -0.0213 -0.1848
 8491SOL    HW137109   1.387   1.945   1.366 -1.6542  0.9351 -1.5918
 8491SOL    HW237110   1.317   1.836   1.281 -0.3003  1.3472 -0.3436
 8492SOL     OW37111   4.390   2.607   9.252  0.4793 -0.2437 -0.4326
 8492SOL    HW137112   4.369   2.540   9.317 -0.0599 -1.6810 -2.0597
 8492SOL    HW237113   4.481   2.586   9.228  0.7964 -1.5459  1.9033
 8493SOL     OW37114   3.303   4.236   3.720  0.5487  0.0239  0.1238
 8493SOL    HW137115   3.272   4.298   3.653  0.5457 -0.5943 -0.4443
 8493SOL    HW237116   3.260   4.270   3.799  0.6076 -0.8103  0.5068
 8494SOL     OW37117   2.555   0.337  14.618 -0.5498  0.4082 -0.5689
 8494SOL    HW137118   2.498   0.362  14.691  1.0989  0.5146  0.6728
 8494SOL    HW237119   2.497   0.340  14.542  1.0909 -1.7782 -1.8915
 8495SOL     OW37120   4.511   2.678   4.724  0.0664  0.0862 -0.6093
 8495SOL    HW137121   4.453   2.750   4.749 -0.9308 -0.6960 -0.6418
 8495SOL    HW237122   4.501   2.635   4.809  0.9800  0.1812 -0.4519
 8496SOL     OW37123   1.712   0.299  13.353  0.1584  0.3092 -0.3311
 8496SOL    HW137124   1.780   0.259  13.407 -0.6122 -0.7417 -0.1453
 8496SOL    HW237125   1.673   0.220  13.316 -0.3011  0.7333 -0.7455
 8497SOL     OW37126   1.674   4.405  12.539 -0.4156  0.4294  0.1281
 8497SOL    HW137127   1.690   4.315  12.570 -1.7034 -0.0610 -0.5907
 8497SOL    HW237128   1.651   4.387  12.448  2.4543  1.8397 -0.8415
 8498SOL     OW37129   0.551   1.612   2.982 -0.1347 -0.1934 -0.1841
 8498SOL    HW137130   0.476   1.610   3.040  0.4429  0.9396  0.6048
 8498SOL    HW237131   0.519   1.688   2.933 -0.3116  0.0869  0.3734
 8499SOL     OW37132   4.534   1.146   9.045 -0.3823 -0.2927  0.0930
 8499SOL    HW137133   4.619   1.187   9.061 -0.7791 -0.7165  3.3732
 8499SOL    HW237134   4.515   1.121   9.135 -1.8089 -0.1066 -0.1647
 8500SOL     OW37135   3.387   1.369   2.427  0.7052  0.0382 -0.0361
 8500SOL    HW137136   3.356   1.383   2.337  0.4550  1.0534  0.2167
 8500SOL    HW237137   3.401   1.461   2.447 -1.2343  0.4731 -0.7048
 8501SOL     OW37138   0.798   2.082  10.331  0.0990 -0.1108 -0.0868
 8501SOL    HW137139   0.723   2.063  10.275 -0.7698  2.6055  0.1469
 8501SOL    HW237140   0.760   2.160  10.371  2.1559  1.0907 -0.4709
 8502SOL     OW37141   0.898   3.615   5.254  0.4420 -0.0842 -0.3111
 8502SOL    HW137142   0.929   3.611   5.164  1.2054  1.7205 -0.1304
 8502SOL    HW237143   0.925   3.529   5.288 -0.4124 -0.0112  0.5801
 8503SOL     OW37144   2.076   1.875   9.019 -0.3523  0.6223  0.5725
 8503SOL    HW137145   1.988   1.886   9.055 -0.5659 -0.0752  0.2550
 8503SOL    HW237146   2.073   1.941   8.950 -0.7711 -0.2753 -0.2754
 8504SOL     OW37147   3.538   4.412   6.320  0.1216 -0.1304  0.0983
 8504SOL    HW137148   3.505   4.501   6.327 -1.5301 -0.8625  1.7120
 8504SOL    HW237149   3.582   4.426   6.237 -0.3243 -0.0722 -0.1306
 8505SOL     OW37150   1.415   0.938  11.038  0.6376 -0.1218 -0.2007
 8505SOL    HW137151   1.354   1.011  11.022  1.4663  0.1086 -2.3360
 8505SOL    HW237152   1.398   0.890  10.957  0.5560  0.9987 -0.8594
 8506SOL     OW37153   2.238   0.790  14.024  0.2687  0.6281 -0.2274
 8506SOL    HW137154   2.263   0.810  14.115  0.9914 -1.4658  0.0244
 8506SOL    HW237155   2.280   0.863  13.979 -1.6401  1.6023 -0.4610
 8507SOL     OW37156   2.449   1.640   8.321 -0.4183 -0.1147  0.3124
 8507SOL    HW137157   2.427   1.643   8.414 -1.7698 -0.3412 -0.0015
 8507SOL    HW237158   2.371   1.679   8.281 -2.0108 -2.6499  0.9013
 8508SOL     OW37159   3.399   2.272   2.926 -0.8189  0.2253 -0.5334
 8508SOL    HW137160   3.489   2.303   2.919 -1.1381  1.2532 -0.2015
 8508SOL    HW237161   3.379   2.298   3.016 -2.4268 -0.4250 -0.6992
 8509SOL     OW37162   3.293   2.906   3.180  0.3764 -0.6575 -0.2861
 8509SOL    HW137163   3.362   2.949   3.230  0.7130 -2.8069  1.0980
 8509SOL    HW237164   3.225   2.919   3.246 -0.6086 -2.2591 -0.9818
 8510SOL     OW37165   3.793   1.518   6.294 -0.3485  0.0290 -0.2447
 8510SOL    HW137166   3.774   1.431   6.329  1.0852  0.2890  1.2042
 8510SOL    HW237167   3.785   1.570   6.374  2.9767  0.0892  0.0695
 8511SOL     OW37168   2.366   4.587   8.649 -0.3040  0.1103  0.0579
 8511SOL    HW137169   2.350   4.640   8.728 -2.7342  0.3207 -0.5690
 8511SOL    HW237170   2.395   4.515   8.704 -0.0241  0.8691  0.9118
 8512SOL     OW37171   1.059   2.599   2.325 -0.2917  0.0660  0.1036
 8512SOL    HW137172   1.061   2.652   2.405  0.6229  0.5093 -0.2194
 8512SOL    HW237173   1.080   2.517   2.370 -3.0355 -0.2385  0.8315
 8513SOL     OW37174   3.762   0.919   8.225 -0.2726  0.0627  0.1323
 8513SOL    HW137175   3.744   0.865   8.301  1.5555 -0.4184  0.2304
 8513SOL    HW237176   3.815   0.867   8.164 -0.4939 -1.5066  1.3145
 8514SOL     OW37177   0.202   1.072  16.133  0.3664 -0.9963 -0.4286
 8514SOL    HW137178   0.241   0.993  16.096  0.2474 -0.1967 -2.2616
 8514SOL    HW237179   0.217   1.130  16.058  0.2925 -0.6270 -0.1570
 8515SOL     OW37180   2.824   0.024   2.537 -0.2229  0.5770  0.4450
 8515SOL    HW137181   2.745   0.070   2.566 -0.4819  0.2660  0.2320
 8515SOL    HW237182   2.841   4.692   2.603 -0.3690  0.5428  0.4469
 8516SOL     OW37183   3.915   4.350   9.752  0.0940 -0.6398 -0.6199
 8516SOL    HW137184   3.825   4.318   9.748 -0.6392  1.3443  0.3608
 8516SOL    HW237185   3.906   4.444   9.737 -1.2068 -1.0185 -2.2538
 8517SOL     OW37186   1.937   1.466   2.907 -0.1505 -1.3138 -0.2652
 8517SOL    HW137187   1.846   1.465   2.938 -0.2966  0.5520 -0.6367
 8517SOL    HW237188   1.988   1.411   2.966 -2.0217 -0.5685  2.0273
 8518SOL     OW37189   1.658   0.222   7.669  0.1069 -0.2945 -0.2422
 8518SOL    HW137190   1.687   0.312   7.685  0.8053 -0.4092 -0.8742
 8518SOL    HW237191   1.637   0.180   7.752  0.1732 -0.2506 -0.2032
 8519SOL     OW37192   3.062   2.544   3.180 -0.4052  0.0664  0.1889
 8519SOL    HW137193   3.110   2.596   3.116 -1.1822 -0.0874 -0.5234
 8519SOL    HW237194   3.097   2.582   3.260 -1.5498  0.7285  0.3710
 8520SOL     OW37195   1.975   0.897   4.219  0.4147  0.1863  0.6053
 8520SOL    HW137196   2.070   0.911   4.210  0.4238 -0.4921 -0.3577
 8520SOL    HW237197   1.974   0.810   4.257  1.3355 -0.3256 -0.5119
 8521SOL     OW37198   2.420   0.325   4.240 -0.2241  0.0782  0.5224
 8521SOL    HW137199   2.325   0.325   4.234 -0.1045  0.7039 -1.5430
 8521SOL    HW237200   2.434   0.336   4.334 -1.6606  0.7585  0.6477
 8522SOL     OW37201   0.221   2.272   9.601 -0.3566 -0.0428 -0.1067
 8522SOL    HW137202   0.246   2.349   9.653 -4.0524  1.4088 -0.4583
 8522SOL    HW237203   0.130   2.300   9.588 -0.0123 -0.1935 -2.8189
 8523SOL     OW37204   2.637   1.930  14.847 -0.1998  0.5660  0.8166
 8523SOL    HW137205   2.685   2.012  14.847  2.5591 -1.0501 -0.6772
 8523SOL    HW237206   2.703   1.861  14.841 -0.9816 -0.0905 -0.3230
 8524SOL     OW37207   4.021   3.680   3.877 -0.6755  0.0262  0.0229
 8524SOL    HW137208   3.976   3.727   3.806 -0.0285 -0.2837 -0.5890
 8524SOL    HW237209   3.938   3.647   3.913  0.3326  0.1246  2.4198
 8525SOL     OW37210   2.989   4.265   1.963  0.4594  0.2541  0.1839
 8525SOL    HW137211   2.937   4.185   1.964 -1.3936  1.4329 -0.5168
 8525SOL    HW237212   2.922   4.333   1.966 -1.5982 -1.6915 -2.1267
 8526SOL     OW37213   3.711   1.081  12.408  0.2702  0.2039  0.0116
 8526SOL    HW137214   3.786   1.108  12.356 -0.5493  0.0668 -1.2479
 8526SOL    HW237215   3.646   1.111  12.344 -0.3264 -0.2103  0.4209
 8527SOL     OW37216   0.916   2.291  17.141 -0.1447 -0.0066 -0.0302
 8527SOL    HW137217   0.924   2.265  17.232  1.1256  2.5883  0.5895
 8527SOL    HW237218   0.988   2.242  17.102 -0.1590 -0.3832  0.4197
 8528SOL     OW37219   0.622   0.450   4.369 -0.6619  0.0799 -0.1759
 8528SOL    HW137220   0.613   0.386   4.298 -1.9216  0.2771 -0.1947
 8528SOL    HW237221   0.545   0.428   4.422  0.3723 -0.1492  1.2267
 8529SOL     OW37222   2.222   2.140   6.963  0.8672  0.0071  0.4541
 8529SOL    HW137223   2.164   2.067   6.985  0.9117  0.3014  1.5606
 8529SOL    HW237224   2.205   2.196   7.039 -1.6758 -0.0386 -0.0807
 8530SOL     OW37225   2.808   2.086   6.235 -0.3335  0.2880 -0.3731
 8530SOL    HW137226   2.852   2.165   6.267  0.1605  0.0941 -0.5649
 8530SOL    HW237227   2.797   2.033   6.314  0.6118  1.9259  0.8657
 8531SOL     OW37228   1.846   2.053  17.525 -0.0899  0.1640  0.3978
 8531SOL    HW137229   1.831   1.967  17.488 -1.5055  0.6180 -0.0746
 8531SOL    HW237230   1.800   2.098  17.454  0.3703 -0.1419 -0.0874
 8532SOL     OW37231   3.648   1.778   8.363  0.4247 -0.2074 -0.1271
 8532SOL    HW137232   3.553   1.778   8.355  0.3083 -1.1124  1.0721
 8532SOL    HW237233   3.668   1.684   8.359 -1.3732 -0.5482 -1.0539
 8533SOL     OW37234   1.401   4.568   2.102  0.3827  0.1551  0.0945
 8533SOL    HW137235   1.330   4.609   2.152 -0.4947 -0.1218 -0.9177
 8533SOL    HW237236   1.451   4.520   2.168  1.4455  2.5239  1.0004
 8534SOL     OW37237   0.006   3.498  10.230 -0.0757 -0.1215  0.1715
 8534SOL    HW137238   0.043   3.534  10.149  0.5566 -1.2382 -0.0395
 8534SOL    HW237239   0.033   3.407  10.217  2.5348  0.7939 -0.8515
 8535SOL     OW37240   3.284   2.559  11.671 -0.4096  0.3907 -0.4400
 8535SOL    HW137241   3.269   2.465  11.681 -0.0936  0.6386  2.1792
 8535SOL    HW237242   3.238   2.576  11.753 -2.5057 -1.1490 -1.2560
 8536SOL     OW37243   3.005   1.987   0.175 -0.2396  0.0302 -0.4024
 8536SOL    HW137244   2.928   1.940   0.142 -0.4235 -1.4136  2.0419
 8536SOL    HW237245   2.977   2.074   0.202 -0.2534  0.2611 -1.1618
 8537SOL     OW37246   4.094   3.088   6.342  0.3686  0.2398  0.2367
 8537SOL    HW137247   4.112   3.133   6.424 -0.6837  0.2058  0.4829
 8537SOL    HW237248   4.084   2.997   6.367  0.8771  0.6042  1.7687
 8538SOL     OW37249   2.964   1.569   6.478  0.1987 -0.4932  0.0607
 8538SOL    HW137250   2.882   1.521   6.462  0.4505 -0.9733  0.2102
 8538SOL    HW237251   2.944   1.605   6.565 -0.6633 -1.0074  0.0833
 8539SOL     OW37252   1.042   3.081   8.068 -0.2837 -0.2781 -0.1313
 8539SOL    HW137253   1.003   3.125   7.993  2.2703  0.1426 -1.2036
 8539SOL    HW237254   1.085   3.157   8.106 -1.3692  0.3567 -0.1621
 8540SOL     OW37255   1.865   3.781   1.945 -0.2132 -0.6505  0.2021
 8540SOL    HW137256   1.953   3.805   1.917 -0.3170 -2.3757 -1.5736
 8540SOL    HW237257   1.837   3.866   1.979 -0.1689 -0.0302 -1.3239
 8541SOL     OW37258   1.555   3.778   1.979  0.0500  0.6300  0.9668
 8541SOL    HW137259   1.516   3.844   1.922 -1.3087  0.5634  1.8120
 8541SOL    HW237260   1.644   3.773   1.944 -0.6021  2.0431 -0.8613
 8542SOL     OW37261   1.654   3.263   4.963 -0.0028  0.8538  0.0414
 8542SOL    HW137262   1.569   3.222   4.946  1.0422 -1.3012  0.0461
 8542SOL    HW237263   1.619   3.352   4.957  0.7666  1.0382 -1.5383
 8543SOL     OW37264   3.740   0.730   3.012 -0.2972 -0.0017  0.4730
 8543SOL    HW137265   3.706   0.737   2.923  1.8746 -0.9930 -0.4452
 8543SOL    HW237266   3.801   0.658   2.991  0.2526  0.6630 -0.2062
 8544SOL     OW37267   4.670   0.367   4.147  0.6913  0.3593 -0.3057
 8544SOL    HW137268   4.667   0.389   4.054 -1.8816 -1.6342 -0.6975
 8544SOL    HW237269   4.728   0.433   4.185 -1.2381  0.1405  2.9508
 8545SOL     OW37270   3.095   4.140  15.203  0.2286 -0.1326 -0.5843
 8545SOL    HW137271   3.123   4.061  15.249 -0.8175  0.8798  1.7890
 8545SOL    HW237272   3.052   4.097  15.129  1.6149 -1.1822 -0.7967
 8546SOL     OW37273   0.003   2.776   4.603  0.5874 -0.3002 -0.3800
 8546SOL    HW137274   4.682   2.800   4.530 -1.3311  1.0239  1.5299
 8546SOL    HW237275   4.677   2.717   4.648  1.0042  1.8300  2.9634
 8547SOL     OW37276   0.894   3.210  15.601  0.4265  0.2799 -0.0768
 8547SOL    HW137277   0.900   3.135  15.660 -3.4480 -0.3579 -0.5151
 8547SOL    HW237278   0.801   3.231  15.602  0.5831  0.9003  1.4467
 8548SOL     OW37279   0.680   0.727   1.251 -0.2512  0.1826  0.2157
 8548SOL    HW137280   0.750   0.757   1.193 -1.0851 -0.9491 -1.3852
 8548SOL    HW237281   0.697   0.791   1.320  1.5329 -0.7164  0.5921
 8549SOL     OW37282   4.614   0.566   0.440  0.0396  0.1968 -0.3880
 8549SOL    HW137283   4.572   0.519   0.513  2.7773  2.8401  2.8930
 8549SOL    HW237284   4.564   0.647   0.438 -2.2240 -1.1636  0.7079
 8550SOL     OW37285   0.360   0.843   1.611  0.0739  0.6089  0.4317
 8550SOL    HW137286   0.370   0.926   1.565 -0.5150 -0.1675 -1.0738
 8550SOL    HW237287   0.266   0.828   1.605 -0.2918  2.4406  1.4587
 8551SOL     OW37288   1.893   3.605   8.133  0.1032  0.2316  0.0106
 8551SOL    HW137289   1.912   3.622   8.041 -0.2457  1.7836  0.2155
 8551SOL    HW237290   1.799   3.626   8.139  0.5078  2.2203 -0.4963
 8552SOL     OW37291   4.527   2.063   2.941 -0.3732 -0.5224 -0.1370
 8552SOL    HW137292   4.583   1.993   2.906 -1.0463  0.1847 -2.5860
 8552SOL    HW237293   4.455   2.015   2.984  0.9188 -0.6896  1.8558
 8553SOL     OW37294   3.578   2.210   4.244 -0.1845 -0.0466 -0.2971
 8553SOL    HW137295   3.565   2.302   4.220 -0.1425 -0.0256 -0.2397
 8553SOL    HW237296   3.486   2.185   4.239 -0.1133  0.0711 -1.9482
 8554SOL     OW37297   0.049   2.747   3.242 -0.3665  0.1643 -0.5407
 8554SOL    HW137298   0.120   2.686   3.262 -2.0744 -1.6184 -0.0285
 8554SOL    HW237299   4.735   2.697   3.177  0.5206 -1.5015  0.0719
 8555SOL     OW37300   2.977   4.295  12.029 -0.2450  0.1079 -0.5685
 8555SOL    HW137301   2.968   4.375  11.976 -0.6337  0.2902 -0.2326
 8555SOL    HW237302   2.891   4.292  12.072  0.6485  0.1649  1.2202
 8556SOL     OW37303   0.484   0.230   4.677  0.0610 -0.1251 -0.5987
 8556SOL    HW137304   0.391   0.226   4.701  0.3007 -2.3925  0.0269
 8556SOL    HW237305   0.529   0.243   4.760  0.3636  0.1654 -0.8115
 8557SOL     OW37306   3.492   1.812   0.466 -0.1541  0.2430 -0.1086
 8557SOL    HW137307   3.498   1.758   0.387 -2.1867 -1.1907  0.7315
 8557SOL    HW237308   3.458   1.894   0.429  0.8409  2.3018  3.5953
 8558SOL     OW37309   4.627   2.868   7.809  0.4215 -0.2789 -0.0868
 8558SOL    HW137310   4.687   2.904   7.744  1.1064  0.7489  1.1273
 8558SOL    HW237311   4.593   2.950   7.845 -0.5473 -1.5248  1.8113
 8559SOL     OW37312   4.165   3.781   4.465  0.4020 -0.0174 -0.1814
 8559SOL    HW137313   4.178   3.696   4.507 -1.9466 -0.0194  0.5014
 8559SOL    HW237314   4.242   3.791   4.408  0.9886  0.3559  0.6565
 8560SOL     OW37315   4.707   4.386   9.720  0.1689  0.1402 -0.2589
 8560SOL    HW137316   4.735   4.477   9.731 -0.3587  0.0222  2.0472
 8560SOL    HW237317   4.642   4.391   9.650 -0.4127 -0.7549  0.2245
 8561SOL     OW37318   2.370   0.466  17.697 -0.3116  0.2373 -0.1952
 8561SOL    HW137319   2.444   0.467  17.637  0.3851 -0.4468  0.6485
 8561SOL    HW237320   2.365   0.374  17.724 -0.5748 -0.2716 -1.9871
 8562SOL     OW37321   3.227   3.793  17.576 -0.2797 -0.4977  0.4414
 8562SOL    HW137322   3.140   3.823  17.549  0.0791  3.2983  3.5255
 8562SOL    HW237323   3.221   3.804  17.671 -1.4661 -0.7299  0.3970
 8563SOL     OW37324   3.430   0.361  10.344  0.3950 -0.0517 -0.4167
 8563SOL    HW137325   3.451   0.268  10.346 -0.8227 -0.3029  0.2589
 8563SOL    HW237326   3.391   0.378  10.430  0.8483 -0.8714 -0.0544
 8564SOL     OW37327   1.411   1.620  12.470  0.2787  0.4077 -0.4500
 8564SOL    HW137328   1.347   1.570  12.521  1.3100 -2.1950 -1.6692
 8564SOL    HW237329   1.485   1.646  12.526 -0.0693 -0.9412  0.6257
 8565SOL     OW37330   4.230   0.081   8.732 -0.1589  0.1232  0.0485
 8565SOL    HW137331   4.136   0.098   8.740 -0.3786 -1.2894  0.4084
 8565SOL    HW237332   4.260   0.101   8.821 -1.6452 -0.1146  0.6008
 8566SOL     OW37333   1.156   1.266   6.581 -0.2640  0.2858 -0.5032
 8566SOL    HW137334   1.242   1.309   6.583  0.8791 -1.8540 -3.2553
 8566SOL    HW237335   1.104   1.334   6.537  1.2191  2.7191  1.4433
 8567SOL     OW37336   1.297   4.605   5.308  0.2176 -0.7787 -0.0550
 8567SOL    HW137337   1.210   4.629   5.275 -0.0612 -1.5566  0.1071
 8567SOL    HW237338   1.307   4.511   5.293  1.0055 -0.4400 -1.5834
 8568SOL     OW37339   4.609   2.484  14.457 -0.1875 -0.3982 -0.5830
 8568SOL    HW137340   4.611   2.396  14.496  0.9074  0.4280  1.1881
 8568SOL    HW237341   4.539   2.480  14.391 -1.8753  2.3629  1.0576
 8569SOL     OW37342   2.967   2.559   9.495 -0.2851  0.3246  0.3287
 8569SOL    HW137343   2.922   2.592   9.418 -0.4850 -1.0826 -0.1600
 8569SOL    HW237344   3.052   2.539   9.456  1.3168  2.9097  2.5108
 8570SOL     OW37345   1.404   0.888   5.337  0.7409 -0.4839 -0.0114
 8570SOL    HW137346   1.427   0.970   5.382  2.2514 -1.6413  1.3008
 8570SOL    HW237347   1.438   0.890   5.248  0.0866 -1.9724 -0.2852
 8571SOL     OW37348   0.063   3.237   4.739  0.1736 -0.3310  0.4909
 8571SOL    HW137349   0.137   3.291   4.713  0.0483  0.8780  2.6492
 8571SOL    HW237350   0.053   3.255   4.832  2.0889  3.2509  0.0076
 8572SOL     OW37351   3.003   2.795   9.635 -0.2886  0.0572 -0.0340
 8572SOL    HW137352   2.995   2.711   9.589  1.6383 -0.4797  0.6208
 8572SOL    HW237353   3.090   2.804   9.673 -0.4913 -1.3387  0.7338
 8573SOL     OW37354   4.393   4.728  13.999  0.0794  0.1060  0.3519
 8573SOL    HW137355   4.414   4.709  13.907  0.1819 -0.4766  0.5011
 8573SOL    HW237356   4.479   0.025  14.024 -0.6260  3.1920 -1.1711
 8574SOL     OW37357   0.641   0.692  14.463  0.2644  0.3284 -0.1049
 8574SOL    HW137358   0.672   0.608  14.496 -0.2517 -0.2362 -1.0746
 8574SOL    HW237359   0.599   0.722  14.544 -0.2054  2.8382 -1.2716
 8575SOL     OW37360   3.272   1.153   9.215  0.2534 -0.8052  0.1788
 8575SOL    HW137361   3.314   1.152   9.301 -0.0526  0.9916  0.3418
 8575SOL    HW237362   3.183   1.130   9.243 -0.3206  0.2580 -0.8102
 8576SOL     OW37363   4.175   1.979  11.966 -0.0276 -0.2796  0.7094
 8576SOL    HW137364   4.129   2.063  11.965 -2.5698 -1.6424  3.6470
 8576SOL    HW237365   4.175   1.950  12.057  0.4494 -0.1020  0.7652
 8577SOL     OW37366   2.558   1.377  10.967  0.0690  0.2013  0.2803
 8577SOL    HW137367   2.632   1.399  10.911  0.7162 -1.0074  0.6785
 8577SOL    HW237368   2.539   1.464  11.002 -0.5234  0.6509 -1.1612
 8578SOL     OW37369   4.551   2.441   7.146 -0.2729  0.1359  0.4948
 8578SOL    HW137370   4.479   2.391   7.108 -0.6143 -0.3440  1.7772
 8578SOL    HW237371   4.518   2.455   7.235  1.9315 -2.3666  1.7011
 8579SOL     OW37372   3.662   3.742   6.194  0.1083  0.5253  0.3736
 8579SOL    HW137373   3.698   3.775   6.277  2.1908  1.9210 -1.1001
 8579SOL    HW237374   3.738   3.752   6.138  0.7941 -1.1069  1.0250
 8580SOL     OW37375   1.817   0.531   9.139  0.1033 -0.0979  0.4145
 8580SOL    HW137376   1.726   0.533   9.111 -0.3740 -0.6615  1.9094
 8580SOL    HW237377   1.860   0.528   9.053 -3.6354  0.2794 -1.4746
 8581SOL     OW37378   0.715   4.629   7.147  0.1366  0.6506 -0.0186
 8581SOL    HW137379   0.713   4.700   7.083 -1.0475  2.2508  1.7769
 8581SOL    HW237380   0.717   4.687   7.223  0.4076  0.4446  0.1344
 8582SOL     OW37381   2.027   1.976  14.946  0.4362  0.3143  0.1402
 8582SOL    HW137382   2.061   1.900  14.899 -1.2435  0.1096 -0.7595
 8582SOL    HW237383   2.049   1.959  15.037  0.2963  4.8847  1.0660
 8583SOL     OW37384   4.537   1.919   6.486  0.0411 -0.4750 -0.4398
 8583SOL    HW137385   4.547   2.012   6.463 -0.4835  0.2290  2.1672
 8583SOL    HW237386   4.627   1.888   6.480  0.2044  0.2041 -1.5459
 8584SOL     OW37387   2.850   0.970   7.183  0.5675  0.4448  0.2233
 8584SOL    HW137388   2.808   0.997   7.264 -1.7273  0.2828 -0.9124
 8584SOL    HW237389   2.787   0.909   7.145 -0.6478  1.8850 -0.0671
 8585SOL     OW37390   4.288   4.245   7.582  0.2147 -0.0748 -0.2187
 8585SOL    HW137391   4.330   4.164   7.610 -0.6342  0.1119  1.6020
 8585SOL    HW237392   4.290   4.237   7.486 -2.3254 -2.2807 -0.0930
 8586SOL     OW37393   3.222   1.878  14.756 -0.1629  0.1292  0.2502
 8586SOL    HW137394   3.140   1.855  14.713 -0.4882 -1.4523  1.7108
 8586SOL    HW237395   3.195   1.934  14.829 -0.9422  1.7783 -1.2996
 8587SOL     OW37396   0.222   3.415   9.835 -0.1383  0.1843  0.2486
 8587SOL    HW137397   0.264   3.468   9.767  1.0687 -0.2108  0.6818
 8587SOL    HW237398   0.159   3.474   9.875 -0.7741 -0.1083 -0.3300
 8588SOL     OW37399   4.401   3.681   3.045  0.4504 -0.1030 -0.2139
 8588SOL    HW137400   4.478   3.735   3.058  0.6449 -0.4156 -0.0700
 8588SOL    HW237401   4.366   3.679   3.134  1.1776  1.1023  0.0907
 8589SOL     OW37402   3.877   2.106   3.730  0.4173 -0.4709 -0.6739
 8589SOL    HW137403   3.829   2.078   3.652 -2.0254  3.3724 -0.5820
 8589SOL    HW237404   3.962   2.131   3.695  0.5050 -2.5819 -1.9785
 8590SOL     OW37405   2.779   4.538   2.059  0.1538  0.1476  0.1547
 8590SOL    HW137406   2.758   4.574   1.973 -2.5014 -0.5551  0.5099
 8590SOL    HW237407   2.797   4.613   2.116  2.4111  0.8097 -1.4291
 8591SOL     OW37408   3.600   2.054   7.056 -0.0985 -0.3425 -0.1616
 8591SOL    HW137409   3.577   2.008   6.975  1.8068  0.3419 -1.0717
 8591SOL    HW237410   3.529   2.041   7.119  0.9555  0.7742  1.2653
 8592SOL     OW37411   3.963   3.562   5.351 -0.2277 -0.1153 -0.0620
 8592SOL    HW137412   4.027   3.513   5.297 -0.8475 -0.0329 -0.8720
 8592SOL    HW237413   3.881   3.527   5.318 -0.1141  1.2013 -1.7445
 8593SOL     OW37414   2.479   2.611  15.500 -0.2259  0.0023  0.2547
 8593SOL    HW137415   2.391   2.584  15.470 -0.1732 -0.0340  0.1307
 8593SOL    HW237416   2.516   2.528  15.532 -2.5422 -0.3764  2.0002
 8594SOL     OW37417   2.862   3.516   6.548  0.2085  0.3459 -0.0100
 8594SOL    HW137418   2.928   3.576   6.513  1.1029  0.0417  1.1434
 8594SOL    HW237419   2.880   3.434   6.503  1.3626  1.0343 -0.8270
 8595SOL     OW37420   2.250   2.717  15.143  0.4143  0.9409  0.5502
 8595SOL    HW137421   2.312   2.761  15.202  1.7018 -0.2792  0.1129
 8595SOL    HW237422   2.260   2.767  15.062  1.2219 -0.1333 -0.0187
 8596SOL     OW37423   3.880   3.594   4.196  0.0020  0.3319  0.1039
 8596SOL    HW137424   3.913   3.681   4.216  2.3970 -0.1639 -1.8284
 8596SOL    HW237425   3.831   3.604   4.114 -0.1567 -1.0704  0.0136
 8597SOL     OW37426   2.629   3.773   7.040 -0.7887  0.6430 -0.2894
 8597SOL    HW137427   2.543   3.749   7.076 -0.2008  0.6079  1.0965
 8597SOL    HW237428   2.607   3.769   6.947  2.7391  1.3220 -1.1557
 8598SOL     OW37429   4.525   1.885  13.011 -0.2233 -0.3056 -0.4272
 8598SOL    HW137430   4.474   1.905  12.932 -1.7053  3.1268  1.4176
 8598SOL    HW237431   4.582   1.961  13.015  0.5962 -0.9735  0.4304
 8599SOL     OW37432   2.926   3.728   1.003  0.4837  0.4065  0.1866
 8599SOL    HW137433   2.932   3.638   1.034 -0.8701  0.8212  1.6367
 8599SOL    HW237434   2.855   3.711   0.941 -2.0490 -1.2610  3.5693
 8600SOL     OW37435   1.305   0.721  16.621 -0.1287  0.5039 -0.5014
 8600SOL    HW137436   1.289   0.649  16.682 -1.8931  0.2238 -1.2944
 8600SOL    HW237437   1.309   0.675  16.537 -1.3166 -0.9221  0.2372
 8601SOL     OW37438   0.855   4.482  15.806  0.9127  0.0728 -0.0737
 8601SOL    HW137439   0.799   4.549  15.769 -1.6301 -2.3790 -0.6502
 8601SOL    HW237440   0.803   4.447  15.879 -1.0938  1.3864 -0.8933
 8602SOL     OW37441   0.480   2.739   9.252 -0.0218 -0.2811 -0.2168
 8602SOL    HW137442   0.409   2.679   9.229 -1.3955  1.0820  0.4853
 8602SOL    HW237443   0.512   2.754   9.163 -0.3701 -0.5294 -0.3844
 8603SOL     OW37444   3.522   1.039   2.964  0.5013 -0.6012  0.7106
 8603SOL    HW137445   3.490   0.985   2.892  1.5110 -0.9669  0.5437
 8603SOL    HW237446   3.470   1.011   3.040 -1.1965  2.7484  0.7930
 8604SOL     OW37447   3.722   3.163   7.727  0.9750 -0.6515  0.2121
 8604SOL    HW137448   3.628   3.180   7.730  1.1794  0.3195  1.2476
 8604SOL    HW237449   3.727   3.082   7.676 -0.2725 -1.0911  0.7930
 8605SOL     OW37450   4.392   0.570  14.738 -0.8876 -0.2381 -0.3383
 8605SOL    HW137451   4.454   0.506  14.703 -1.2900 -2.0265  2.2053
 8605SOL    HW237452   4.458   0.636  14.759  0.8682 -1.0911 -3.2324
 8606SOL     OW37453   1.413   3.109  15.645 -0.0579 -0.0264  0.0689
 8606SOL    HW137454   1.450   3.167  15.579 -0.0177 -3.6274 -3.0728
 8606SOL    HW237455   1.320   3.132  15.653  0.3474  1.5619  0.1381
 8607SOL     OW37456   0.104   4.551   4.567  0.1647 -0.3751  0.2410
 8607SOL    HW137457   0.087   4.516   4.654  3.8187 -0.3382  0.9520
 8607SOL    HW237458   0.050   4.499   4.506  0.9400  1.3488 -1.9272
 8608SOL     OW37459   4.132   2.624   4.554 -0.1849  0.4409 -0.3935
 8608SOL    HW137460   4.058   2.565   4.537  0.7807  0.1138 -3.4058
 8608SOL    HW237461   4.093   2.709   4.574 -0.4491 -0.0153  1.0403
 8609SOL     OW37462   4.651   2.428  16.133  0.2414 -0.1131 -0.3995
 8609SOL    HW137463   4.730   2.429  16.080 -0.1583 -0.5287 -0.9977
 8609SOL    HW237464   4.576   2.437  16.074 -2.4144 -0.2976  2.8820
 8610SOL     OW37465   0.378   1.828   8.935 -0.3232  0.3013  0.1259
 8610SOL    HW137466   0.346   1.791   9.018 -1.0780 -1.4210 -0.9315
 8610SOL    HW237467   0.407   1.744   8.899  0.5275  0.7784 -0.2797
 8611SOL     OW37468   2.394   3.118   1.702  0.1508 -0.7087 -0.3708
 8611SOL    HW137469   2.311   3.117   1.750  1.6040  0.5093  2.1586
 8611SOL    HW237470   2.450   3.061   1.755  2.9476 -0.3144 -2.8752
 8612SOL     OW37471   3.791   0.605   7.778  0.3095 -0.4828  0.4108
 8612SOL    HW137472   3.713   0.581   7.727  1.2384 -1.9084 -0.3289
 8612SOL    HW237473   3.753   0.570   7.859 -1.5545  1.0344  0.1997
 8613SOL     OW37474   0.183   3.965   8.429  0.0830  0.2696  0.0048
 8613SOL    HW137475   0.162   3.977   8.521  1.0998 -0.4689  0.3400
 8613SOL    HW237476   0.194   4.053   8.393  1.3573 -0.3915 -1.2204
 8614SOL     OW37477   2.153   4.670  14.110 -0.1232 -0.4905  0.1011
 8614SOL    HW137478   2.060   4.682  14.130 -0.3803 -2.0383 -0.1819
 8614SOL    HW237479   2.149   4.575  14.115  2.5484 -0.7119 -2.1399
 8615SOL     OW37480   3.945   2.612   6.562 -0.1932 -0.0437  0.0237
 8615SOL    HW137481   3.950   2.554   6.637 -0.8145  1.9550  1.6066
 8615SOL    HW237482   3.896   2.685   6.599  0.3856  1.1777 -1.6114
 8616SOL     OW37483   2.371   2.856   6.464  0.2624 -0.0564 -0.3834
 8616SOL    HW137484   2.319   2.829   6.389  0.1016  2.9732 -1.3655
 8616SOL    HW237485   2.377   2.780   6.521  1.2965 -0.3125 -0.8311
 8617SOL     OW37486   2.513   3.737   1.483  0.2281 -0.2333 -0.4704
 8617SOL    HW137487   2.598   3.779   1.466 -0.1565  1.0573  0.8368
 8617SOL    HW237488   2.513   3.651   1.441 -1.8699 -1.1750  1.4981
 8618SOL     OW37489   4.131   2.278   4.296  0.0976  0.2703 -0.0488
 8618SOL    HW137490   4.084   2.195   4.285  0.6165  0.1237 -1.1864
 8618SOL    HW237491   4.205   2.255   4.352 -1.7103  0.9285  2.5749
 8619SOL     OW37492   4.065   3.094  16.568 -0.1269 -0.1663 -0.3003
 8619SOL    HW137493   3.976   3.070  16.594 -0.9885  2.3258 -0.9797
 8619SOL    HW237494   4.055   3.080  16.473  0.8830 -0.3145 -0.3822
 8620SOL     OW37495   2.133   0.301   8.123  0.2778 -0.1684  0.2271
 8620SOL    HW137496   2.184   0.381   8.134 -1.6683  1.0535  0.1793
 8620SOL    HW237497   2.056   0.325   8.072 -1.5731 -2.6036  1.8516
 8621SOL     OW37498   3.265   3.446  13.303  0.3774 -0.0802 -0.7894
 8621SOL    HW137499   3.275   3.535  13.338  0.7452  0.6319 -2.6509
 8621SOL    HW237500   3.198   3.452  13.234 -0.8094 -2.2187  0.1802
 8622SOL     OW37501   0.425   2.761   8.665  0.2116  0.3243 -0.0545
 8622SOL    HW137502   0.482   2.717   8.602  1.5751 -0.1133  1.4932
 8622SOL    HW237503   0.435   2.854   8.643 -4.6058  0.4584 -1.8109
 8623SOL     OW37504   2.520   4.101   5.487 -0.5802 -0.0699 -0.1269
 8623SOL    HW137505   2.556   4.074   5.572  1.9637  1.7667 -0.6118
 8623SOL    HW237506   2.493   4.192   5.492  0.9641  0.2291  3.6230
 8624SOL     OW37507   2.399   0.911   8.963  0.0846  0.4750 -0.9095
 8624SOL    HW137508   2.318   0.912   9.013 -0.1216  0.4543 -1.2442
 8624SOL    HW237509   2.432   0.825   8.990 -0.2763  0.4139 -0.6625
 8625SOL     OW37510   0.116   3.042   5.901 -0.5285 -0.0319  0.8131
 8625SOL    HW137511   0.139   3.134   5.889 -1.7692 -0.0155 -1.5337
 8625SOL    HW237512   0.154   2.986   5.833  0.8079 -0.1642  1.6729
 8626SOL     OW37513   2.167   1.572   1.700 -0.4224  0.1169 -0.9213
 8626SOL    HW137514   2.206   1.493   1.737 -2.2103  0.7588  2.3063
 8626SOL    HW237515   2.221   1.642   1.737  0.4885 -0.8143 -0.4891
 8627SOL     OW37516   3.758   3.504   1.541  0.2428 -0.0162 -0.3000
 8627SOL    HW137517   3.768   3.585   1.590 -0.4698  1.6721 -2.9269
 8627SOL    HW237518   3.667   3.481   1.557  0.7116 -1.5491  0.1236
 8628SOL     OW37519   2.058   3.757  15.291  0.1919 -0.4742  0.0458
 8628SOL    HW137520   2.146   3.793  15.305 -0.4987  0.9778  0.5715
 8628SOL    HW237521   2.004   3.830  15.320  0.4111 -0.0296 -0.6505
 8629SOL     OW37522   1.260   1.578   2.297  0.1552 -0.2840  0.1053
 8629SOL    HW137523   1.344   1.533   2.300  0.1777 -0.2518 -0.0396
 8629SOL    HW237524   1.264   1.607   2.389  1.1771 -1.4272  0.4207
 8630SOL     OW37525   2.999   0.349   0.610 -0.0433 -0.4009  0.1886
 8630SOL    HW137526   2.907   0.353   0.583 -0.3019 -0.8841  0.9950
 8630SOL    HW237527   3.023   0.442   0.603 -0.4881 -0.3336 -0.4429
 8631SOL     OW37528   3.408   3.404   9.440 -0.4277  0.3360  1.0718
 8631SOL    HW137529   3.487   3.441   9.400 -2.2523  1.4707 -1.5209
 8631SOL    HW237530   3.440   3.349   9.511 -0.4748 -1.0524  0.0061
 8632SOL     OW37531   2.532   1.891  15.118 -0.9511 -0.5850  0.0100
 8632SOL    HW137532   2.582   1.918  15.041 -0.9612  1.0499  0.5843
 8632SOL    HW237533   2.504   1.977  15.147 -3.4308 -0.4938 -2.7202
 8633SOL     OW37534   4.147   1.193   6.399  0.1363  0.7135  0.3909
 8633SOL    HW137535   4.124   1.281   6.428  1.0177  0.6506  1.2518
 8633SOL    HW237536   4.144   1.138   6.477 -1.7696  0.2273 -0.0185
 8634SOL     OW37537   3.848   2.294   9.263 -0.3511  0.2381 -0.3167
 8634SOL    HW137538   3.927   2.331   9.302  0.2356 -0.7883 -0.5285
 8634SOL    HW237539   3.852   2.204   9.294 -0.8829  0.0724 -0.7251
 8635SOL     OW37540   0.276   1.296   2.150  0.3471  0.7699 -0.0519
 8635SOL    HW137541   0.321   1.263   2.227 -0.3349  0.6068  0.2745
 8635SOL    HW237542   0.247   1.211   2.116 -0.0123 -0.4185  3.2738
 8636SOL     OW37543   1.366   4.697   3.828  0.0110  0.1905  0.0340
 8636SOL    HW137544   1.279   4.712   3.864  1.1552  2.9678  1.6258
 8636SOL    HW237545   1.362   4.603   3.812  0.4214  0.3096 -0.8237
 8637SOL     OW37546   1.233   2.465  17.165  0.3911 -0.7305 -0.3483
 8637SOL    HW137547   1.322   2.497  17.151 -0.1115  0.6374 -0.4028
 8637SOL    HW237548   1.188   2.490  17.084  3.8898  1.0489 -1.7330
 8638SOL     OW37549   4.331   3.390   9.563  0.0819 -0.1216  0.8328
 8638SOL    HW137550   4.367   3.473   9.530  0.9206 -1.6196 -2.0008
 8638SOL    HW237551   4.257   3.380   9.503  0.1507 -0.4537  0.8042
 8639SOL     OW37552   0.402   3.094  14.474 -0.3989 -0.1667 -0.0998
 8639SOL    HW137553   0.350   3.173  14.491  1.5743  1.2311 -0.5655
 8639SOL    HW237554   0.383   3.042  14.553  2.4113 -0.4152  0.4229
 8640SOL     OW37555   4.434   2.325   8.892 -0.0142 -0.0828 -0.1872
 8640SOL    HW137556   4.469   2.271   8.964 -3.0177 -2.5860 -0.5619
 8640SOL    HW237557   4.354   2.275   8.877  0.0914 -0.3854  0.2568
 8641SOL     OW37558   1.794   2.830   6.074 -0.0821  0.2150 -0.0051
 8641SOL    HW137559   1.793   2.777   5.995 -1.0099 -0.6630  0.6056
 8641SOL    HW237560   1.749   2.777   6.140  0.9627 -0.0806  0.4748
 8642SOL     OW37561   3.862   4.390   4.545  0.3418 -0.0881 -0.7802
 8642SOL    HW137562   3.818   4.339   4.613 -0.7939  0.6690 -0.9248
 8642SOL    HW237563   3.949   4.352   4.542 -0.1903 -1.4285  1.2274
 8643SOL     OW37564   1.313   0.584   5.756  0.6226  0.2118  0.8175
 8643SOL    HW137565   1.235   0.530   5.767  0.5022 -0.1467 -1.8813
 8643SOL    HW237566   1.371   0.519   5.717 -0.0651 -0.8916  1.6256
 8644SOL     OW37567   2.656   0.234  13.557  0.5480  0.0061 -0.1925
 8644SOL    HW137568   2.649   0.139  13.554  1.3580  0.0053 -2.1271
 8644SOL    HW237569   2.630   0.240  13.649  0.9926  1.7487 -0.1863
 8645SOL     OW37570   4.214   0.585  16.533 -0.1718  0.1329 -0.2765
 8645SOL    HW137571   4.240   0.614  16.621 -0.5564 -2.4810  0.6881
 8645SOL    HW237572   4.119   0.595  16.548 -0.4092 -4.1207  0.8381
 8646SOL     OW37573   2.754   2.804  17.162  0.4657 -0.1877  0.1766
 8646SOL    HW137574   2.687   2.758  17.211  0.2483  0.9755  0.9857
 8646SOL    HW237575   2.700   2.875  17.128  0.2132 -0.0014  0.9666
 8647SOL     OW37576   3.355   1.456   4.070 -0.4521  0.2015  0.2088
 8647SOL    HW137577   3.277   1.462   4.015  0.5142 -0.2837 -1.1844
 8647SOL    HW237578   3.309   1.430   4.150 -2.5772 -0.1694 -1.1266
 8648SOL     OW37579   1.220   3.592  15.904 -0.1981 -0.2573 -0.0914
 8648SOL    HW137580   1.257   3.677  15.879 -0.5845  0.1935  0.8883
 8648SOL    HW237581   1.255   3.540  15.832  0.7085 -0.4517  0.4889
 8649SOL     OW37582   1.667   2.304   8.084  0.0432 -0.3417  0.2932
 8649SOL    HW137583   1.692   2.212   8.082 -0.1773 -0.3857 -0.4355
 8649SOL    HW237584   1.754   2.344   8.089 -1.4509  2.8643  0.5687
 8650SOL     OW37585   1.732   1.580   7.203 -0.0834 -0.6059  0.4224
 8650SOL    HW137586   1.812   1.592   7.255 -0.3274  1.4660  0.3098
 8650SOL    HW237587   1.773   1.549   7.122 -0.7778 -1.3268  0.3528
 8651SOL     OW37588   0.306   3.295   7.635 -0.1558  0.0634  0.0268
 8651SOL    HW137589   0.305   3.199   7.633  1.8068  0.0816 -2.1115
 8651SOL    HW237590   0.242   3.314   7.703  1.5916 -0.0044  1.7020
 8652SOL     OW37591   3.170   1.622   8.134  0.0845 -0.1906 -0.5134
 8652SOL    HW137592   3.076   1.640   8.129  0.5994  2.7881  0.5308
 8652SOL    HW237593   3.175   1.527   8.126  2.0372 -0.0974 -0.5074
 8653SOL     OW37594   4.563   1.751  10.720  0.4215  0.1971 -0.2315
 8653SOL    HW137595   4.563   1.846  10.704 -1.4930  0.2509  0.0773
 8653SOL    HW237596   4.520   1.761  10.805 -1.3854  0.0936 -1.1436
 8654SOL     OW37597   1.194   2.259   8.880  0.0941 -0.1395 -0.1979
 8654SOL    HW137598   1.151   2.224   8.958  0.1735 -3.6642 -1.7252
 8654SOL    HW237599   1.282   2.223   8.883 -0.3414 -1.2486 -0.8242
 8655SOL     OW37600   4.173   3.867  11.601  0.6767  0.4404 -0.3118
 8655SOL    HW137601   4.171   3.846  11.508 -1.1769  1.1586 -0.4368
 8655SOL    HW237602   4.107   3.936  11.606 -0.0131 -0.3199  1.1085
 8656SOL     OW37603   3.369   2.131   8.929 -0.4296 -0.0166  0.3282
 8656SOL    HW137604   3.351   2.221   8.954 -0.7367 -0.4610  1.6855
 8656SOL    HW237605   3.315   2.075   8.985  0.3165  0.1504  1.2131
 8657SOL     OW37606   2.602   0.415   9.874 -0.4157 -0.1109  0.3269
 8657SOL    HW137607   2.563   0.412   9.961  2.2052 -1.7774  1.4622
 8657SOL    HW237608   2.625   0.323   9.862 -0.6169 -0.3923  2.1644
 8658SOL     OW37609   1.443   0.804  11.690 -0.6341 -0.3194 -0.0825
 8658SOL    HW137610   1.438   0.763  11.777 -1.1025 -1.1446 -0.5000
 8658SOL    HW237611   1.409   0.892  11.706  2.6435  1.2497 -1.7915
 8659SOL     OW37612   3.403   3.697  10.773  0.1098 -0.5200 -0.0809
 8659SOL    HW137613   3.436   3.621  10.821  0.4348 -1.5885 -1.9882
 8659SOL    HW237614   3.332   3.652  10.726  1.6661 -1.7221 -1.2993
 8660SOL     OW37615   1.106   0.633   3.270  0.1800 -0.1644 -0.2079
 8660SOL    HW137616   1.049   0.570   3.313  0.9862  0.1788  1.3597
 8660SOL    HW237617   1.061   0.662   3.191  1.4801  1.0529 -0.5144
 8661SOL     OW37618   2.427   1.221   4.221  0.2601  0.2019  0.2631
 8661SOL    HW137619   2.513   1.189   4.193 -0.0486 -0.5654  0.1753
 8661SOL    HW237620   2.451   1.313   4.216 -2.0700  0.7081 -1.5567
 8662SOL     OW37621   2.589   1.747  15.352  0.4068  0.1919 -0.0788
 8662SOL    HW137622   2.615   1.769  15.263  1.5805 -0.2803  0.1459
 8662SOL    HW237623   2.665   1.693  15.372  0.1512 -0.0198  0.3325
 8663SOL     OW37624   3.566   1.851   6.043 -0.0546 -0.2472  0.2601
 8663SOL    HW137625   3.472   1.830   6.040 -0.3962  1.5129 -0.9399
 8663SOL    HW237626   3.597   1.761   6.027  0.5220  0.1032 -0.5906
 8664SOL     OW37627   1.972   1.985   1.615  0.0881  0.2323  0.0854
 8664SOL    HW137628   1.915   1.908   1.616 -0.6221  0.7493 -1.5252
 8664SOL    HW237629   1.918   2.050   1.661  0.2672  0.1525  0.4134
 8665SOL     OW37630   2.879   0.125   5.175 -0.1168  0.1499  0.0458
 8665SOL    HW137631   2.904   0.127   5.082  1.2778 -0.1554  0.4135
 8665SOL    HW237632   2.945   0.186   5.209  1.7105 -1.3268 -0.8617
 8666SOL     OW37633   0.989   1.444   2.301 -0.3070 -0.3604  0.4188
 8666SOL    HW137634   1.049   1.453   2.375  0.3304 -0.5403 -0.0736
 8666SOL    HW237635   0.906   1.454   2.348  0.8408  4.0859  1.4798
 8667SOL     OW37636   3.812   3.022   7.125  0.4034 -0.7990  0.0682
 8667SOL    HW137637   3.729   2.991   7.089 -1.1900  0.8777  2.2560
 8667SOL    HW237638   3.875   2.971   7.075  1.1350 -1.2080  1.4060
 8668SOL     OW37639   1.554   0.615   3.366  0.1656 -0.0981 -0.4095
 8668SOL    HW137640   1.464   0.641   3.386  0.0539 -1.6944  1.2113
 8668SOL    HW237641   1.603   0.693   3.394  1.6291 -1.1017 -0.1459
 8669SOL     OW37642   1.412   0.206   9.201 -0.5569  0.0648 -0.1569
 8669SOL    HW137643   1.375   0.179   9.285 -1.7388 -2.3523 -1.4633
 8669SOL    HW237644   1.450   0.292   9.221 -0.6310 -0.2768  1.4492
 8670SOL     OW37645   2.372   4.259   7.469  0.1768  0.3634  0.1809
 8670SOL    HW137646   2.378   4.351   7.443 -2.8075  0.5221  0.0581
 8670SOL    HW237647   2.435   4.251   7.541 -1.0231  0.6553  1.2789
 8671SOL     OW37648   3.443   0.613   8.332  0.3973 -0.0017  0.2838
 8671SOL    HW137649   3.380   0.585   8.398  0.5383  3.5476  1.8971
 8671SOL    HW237650   3.523   0.571   8.366 -0.2757 -2.1358 -0.7289
 8672SOL     OW37651   4.654   1.191   7.519  0.5209 -0.1501 -0.0937
 8672SOL    HW137652   4.559   1.198   7.509  0.4938  1.3416  1.2778
 8672SOL    HW237653   4.674   1.106   7.479  0.4036  0.0521 -0.5851
 8673SOL     OW37654   1.127   2.931   6.702 -0.2519 -0.2597  0.3943
 8673SOL    HW137655   1.163   3.019   6.693  0.1624 -0.2699  1.9298
 8673SOL    HW237656   1.049   2.958   6.752 -1.0009  0.1501 -0.9768
 8674SOL     OW37657   2.545   0.356  10.158 -0.0166 -0.0482  0.3950
 8674SOL    HW137658   2.582   0.268  10.168 -0.7261 -0.3892  0.0367
 8674SOL    HW237659   2.482   0.350  10.229 -0.9795 -1.5686 -0.5850
 8675SOL     OW37660   3.770   4.145  11.217 -0.4050  0.0693 -0.0972
 8675SOL    HW137661   3.793   4.189  11.298 -1.0287  0.3518 -0.0728
 8675SOL    HW237662   3.836   4.076  11.222 -2.1566 -1.3440  3.1601
 8676SOL     OW37663   4.030   0.371   9.160 -0.4752 -0.1446  0.5823
 8676SOL    HW137664   4.076   0.290   9.181 -2.2392 -1.3477 -0.1533
 8676SOL    HW237665   4.043   0.378   9.066 -0.4061  0.9334  0.6742
 8677SOL     OW37666   3.269   0.146   3.715  0.5308 -0.2519 -0.1951
 8677SOL    HW137667   3.301   0.168   3.627  1.7793 -1.3858 -0.0238
 8677SOL    HW237668   3.304   0.057   3.721 -1.6853 -1.1259 -0.5930
 8678SOL     OW37669   1.446   1.256  14.738  0.0319 -0.3275 -0.0576
 8678SOL    HW137670   1.415   1.330  14.791  1.3952  0.8383 -0.8690
 8678SOL    HW237671   1.408   1.175  14.771 -0.1723 -0.5889 -0.9362
 8679SOL     OW37672   3.851   1.804   3.112 -0.1042  0.3279 -0.5617
 8679SOL    HW137673   3.805   1.751   3.177 -1.7454  1.4911 -0.7588
 8679SOL    HW237674   3.894   1.733   3.065 -0.3950 -0.4239  0.3083
 8680SOL     OW37675   1.616   0.419   6.529 -0.0714 -0.6382  1.0200
 8680SOL    HW137676   1.639   0.414   6.436 -0.7029 -0.9316  0.8817
 8680SOL    HW237677   1.686   0.364   6.564 -2.4942 -4.4790 -0.1385
 8681SOL     OW37678   1.974   3.947   4.566 -0.3066  0.1549  0.1123
 8681SOL    HW137679   1.981   4.008   4.640 -1.0215  0.4973 -0.1037
 8681SOL    HW237680   1.935   4.008   4.503  0.0682  1.5320  1.2039
 8682SOL     OW37681   0.240   4.405   8.068  0.0455 -0.3090 -0.4426
 8682SOL    HW137682   0.227   4.499   8.081 -0.1871 -0.5629  1.1427
 8682SOL    HW237683   0.149   4.381   8.053 -0.2317  0.5811 -0.2095
 8683SOL     OW37684   1.037   2.733   9.193 -0.0059 -0.1685  0.4085
 8683SOL    HW137685   1.102   2.727   9.122 -0.9739 -0.6281 -0.4491
 8683SOL    HW237686   0.996   2.650   9.166 -0.8992 -0.6192  3.2003
 8684SOL     OW37687   0.099   2.905   4.818 -0.1200  0.7780 -0.0807
 8684SOL    HW137688   0.020   2.957   4.831 -0.2741  0.4282  0.3402
 8684SOL    HW237689   0.064   2.868   4.737 -1.9195 -0.9530  1.5000
 8685SOL     OW37690   2.224   2.678   6.013 -0.1656  0.2538 -0.0587
 8685SOL    HW137691   2.319   2.684   6.015 -0.2245  1.0006  0.5075
 8685SOL    HW237692   2.201   2.663   5.921  1.7341 -0.3612 -0.4230
 8686SOL     OW37693   4.048   1.331   1.851  0.1353  0.5169 -0.3217
 8686SOL    HW137694   3.982   1.263   1.864 -0.6338  1.2152 -0.5589
 8686SOL    HW237695   3.985   1.402   1.839 -0.3175 -0.1534 -1.9187
 8687SOL     OW37696   4.184   0.027  12.561  0.1808  0.1249  0.2777
 8687SOL    HW137697   4.276   0.030  12.535  0.6285 -0.6799  1.7258
 8687SOL    HW237698   4.190   4.718  12.646 -0.4574  2.1876  1.3946
 8688SOL     OW37699   3.627   3.011   4.957 -0.1545  0.5649  0.0935
 8688SOL    HW137700   3.561   3.031   5.024 -0.0342 -2.2643  1.0359
 8688SOL    HW237701   3.647   2.919   4.975 -2.3006  0.5930  2.6220
 8689SOL     OW37702   2.781   2.095   5.705 -0.0015  0.3083 -0.2125
 8689SOL    HW137703   2.795   2.093   5.800  0.8159 -0.0039 -0.3373
 8689SOL    HW237704   2.686   2.089   5.698 -0.0232  0.9410 -0.5155
 8690SOL     OW37705   3.284   1.738   2.983  0.0182 -0.6216 -0.1619
 8690SOL    HW137706   3.268   1.653   3.024 -0.6763 -0.1728  0.4899
 8690SOL    HW237707   3.357   1.772   3.034 -1.7280  1.7293  0.7711
 8691SOL     OW37708   3.912   0.835   8.704 -0.1526  0.1726 -0.1623
 8691SOL    HW137709   3.941   0.906   8.762 -1.4954 -1.3954  2.4534
 8691SOL    HW237710   3.975   0.763   8.709 -1.9622 -1.4566 -0.5395
 8692SOL     OW37711   0.246   1.286   0.510 -0.4822 -0.2417  0.4583
 8692SOL    HW137712   0.326   1.286   0.562 -0.9095  0.9249  1.1107
 8692SOL    HW237713   0.226   1.195   0.531  1.2216 -1.7061 -4.3046
 8693SOL     OW37714   2.936   2.225   9.173 -0.2393  0.2350 -0.2692
 8693SOL    HW137715   2.938   2.237   9.268  1.2049 -0.9392 -0.1457
 8693SOL    HW237716   2.979   2.303   9.137  1.2079 -0.1749  0.5614
 8694SOL     OW37717   0.031   3.425   3.597  0.3800 -0.3409  0.0224
 8694SOL    HW137718   0.107   3.390   3.551  2.4054 -0.3726  3.4583
 8694SOL    HW237719   4.721   3.344   3.618 -1.0821  0.6040  0.5146
 8695SOL     OW37720   3.714   0.547  15.147  0.5565  0.3123 -0.4572
 8695SOL    HW137721   3.729   0.456  15.123 -2.9937 -0.4552  0.1619
 8695SOL    HW237722   3.657   0.579  15.077  0.7445  0.2855 -0.6207
 8696SOL     OW37723   3.691   3.536   2.737  0.3463  0.1759  0.8941
 8696SOL    HW137724   3.745   3.548   2.660 -1.3847 -1.6349 -0.6046
 8696SOL    HW237725   3.692   3.618   2.786 -0.1901  0.1692  0.9206
 8697SOL     OW37726   3.323   2.560   1.590 -0.1358 -0.0129 -0.4876
 8697SOL    HW137727   3.303   2.642   1.544 -1.6915  0.1778  0.5148
 8697SOL    HW237728   3.265   2.496   1.549  0.0128 -0.6072  0.2477
 8698SOL     OW37729   2.261   4.213   4.780 -1.2399  0.0724  0.6164
 8698SOL    HW137730   2.265   4.200   4.875 -2.4100 -1.0282  0.5132
 8698SOL    HW237731   2.297   4.301   4.766  0.0799 -1.0581 -3.2475
 8699SOL     OW37732   2.837   2.875   8.968 -0.2353  0.1279 -0.7961
 8699SOL    HW137733   2.880   2.793   8.991 -1.6127 -0.8033 -1.5846
 8699SOL    HW237734   2.775   2.887   9.040  0.2051 -0.3473 -0.3436
 8700SOL     OW37735   1.695   3.707   5.743 -0.1748  0.1310  0.4719
 8700SOL    HW137736   1.627   3.677   5.803  1.1895 -1.5180  1.2106
 8700SOL    HW237737   1.760   3.643   5.773 -1.3874 -2.2456 -1.9325
 8701SOL     OW37738   1.203   1.403   8.471  0.2997 -0.0423 -0.2687
 8701SOL    HW137739   1.290   1.366   8.456  0.5158  0.3120  0.1259
 8701SOL    HW237740   1.173   1.448   8.393  2.1350 -0.4673 -1.2171
 8702SOL     OW37741   1.216   1.660   1.726 -0.1038 -0.2239 -0.0307
 8702SOL    HW137742   1.246   1.747   1.701 -1.5016  0.6332  1.2705
 8702SOL    HW237743   1.256   1.606   1.658  0.3803  0.1544 -0.0397
 8703SOL     OW37744   4.314   0.514   6.131  0.5098  0.1928  0.2174
 8703SOL    HW137745   4.405   0.502   6.159  0.3196  2.8316  1.9287
 8703SOL    HW237746   4.310   0.607   6.109  0.9056  0.7187  2.3823
 8704SOL     OW37747   2.419   4.313  10.440  0.7196  0.2715 -0.3506
 8704SOL    HW137748   2.415   4.400  10.399  1.8376  0.8827  0.8513
 8704SOL    HW237749   2.473   4.336  10.515  0.5700 -1.3783  0.2597
 8705SOL     OW37750   1.724   2.547  13.896 -0.6127 -0.2872 -0.2341
 8705SOL    HW137751   1.658   2.500  13.947 -1.3401  0.4349 -0.5034
 8705SOL    HW237752   1.762   2.600  13.966 -0.9785 -0.6410  0.2259
 8706SOL     OW37753   0.712   3.589   8.120 -0.5444 -0.2481 -0.0094
 8706SOL    HW137754   0.681   3.617   8.206  1.4129  0.2847  0.5260
 8706SOL    HW237755   0.656   3.512   8.104  1.7788 -1.7838 -0.8437
 8707SOL     OW37756   0.712   1.616   9.059  0.1484 -0.0195  0.3100
 8707SOL    HW137757   0.766   1.665   8.998  1.4040 -2.4091 -0.4976
 8707SOL    HW237758   0.701   1.687   9.123  2.2360 -0.5808  1.2763
 8708SOL     OW37759   4.347   2.521   4.424  0.1757  0.3508 -0.5198
 8708SOL    HW137760   4.283   2.544   4.491  0.8738  1.4825 -0.2415
 8708SOL    HW237761   4.291   2.515   4.347  0.0934  0.0875 -0.4412
 8709SOL     OW37762   4.713   4.598  15.540  0.1778 -0.0243  0.2552
 8709SOL    HW137763   0.017   4.541  15.474  1.3357 -0.6516  1.4844
 8709SOL    HW237764   0.054   4.640  15.579 -0.8005  0.0050  2.1588
 8710SOL     OW37765   1.466   0.748   7.625 -0.0849  0.4001 -0.0334
 8710SOL    HW137766   1.464   0.653   7.617 -1.0298  0.4186  0.0175
 8710SOL    HW237767   1.384   0.766   7.580  0.4887 -1.9795 -1.9912
 8711SOL     OW37768   0.824   1.542   9.820  0.0157  0.0759  0.1361
 8711SOL    HW137769   0.901   1.581   9.861 -1.1936  1.4660  1.0626
 8711SOL    HW237770   0.811   1.608   9.752  0.8026 -0.4362 -0.5003
 8712SOL     OW37771   4.464   4.394   1.594  0.1121 -0.4001 -0.1749
 8712SOL    HW137772   4.394   4.331   1.613  1.2562 -1.2336  1.3043
 8712SOL    HW237773   4.487   4.420   1.683  1.4549 -0.2886 -0.5421
 8713SOL     OW37774   0.844   2.443  16.911 -0.2402 -0.5119 -0.4958
 8713SOL    HW137775   0.856   2.419  17.003 -1.8268  0.4263 -0.0418
 8713SOL    HW237776   0.926   2.490  16.895 -0.6834  0.5935  0.4521
 8714SOL     OW37777   1.621   1.989   6.931  0.9897  0.6562 -0.2147
 8714SOL    HW137778   1.626   2.074   6.887  0.0444  1.4790  1.2844
 8714SOL    HW237779   1.529   1.988   6.956  0.3786  1.3508 -2.4283
 8715SOL     OW37780   2.212   3.636  15.054  0.1952 -0.0954  0.1850
 8715SOL    HW137781   2.301   3.670  15.045  1.4447 -3.0499  1.7155
 8715SOL    HW237782   2.179   3.677  15.134  1.7318  1.7782 -0.1449
 8716SOL     OW37783   3.903   4.329   6.618  0.8092 -0.1035 -0.1680
 8716SOL    HW137784   3.961   4.405   6.626 -0.4162  0.8980 -0.7240
 8716SOL    HW237785   3.823   4.356   6.573 -0.4692 -1.3986  1.3516
 8717SOL     OW37786   4.467   1.639   2.165 -0.0939  0.0742 -0.6289
 8717SOL    HW137787   4.391   1.687   2.199 -0.0239 -1.4376  1.6369
 8717SOL    HW237788   4.453   1.549   2.192 -0.0446  0.7978  1.8388
 8718SOL     OW37789   2.023   0.617   3.688  0.2176  0.1265  0.0352
 8718SOL    HW137790   1.998   0.526   3.673 -0.5035  0.2465  0.5113
 8718SOL    HW237791   2.007   0.641   3.779  0.0758 -2.9619  0.8163
 8719SOL     OW37792   2.558   3.987   5.762  0.4699  1.1919 -0.6979
 8719SOL    HW137793   2.527   3.902   5.731  3.4715 -0.3876  0.6612
 8719SOL    HW237794   2.523   3.993   5.851  1.7074  0.2293 -0.1451
 8720SOL     OW37795   2.903   1.675  17.564 -0.0350  0.4613  0.5042
 8720SOL    HW137796   2.934   1.600  17.616  0.2595  0.5392  0.4414
 8720SOL    HW237797   2.988   1.701  17.529 -0.3596  0.8400 -0.0050
 8721SOL     OW37798   1.288   0.526   9.420 -0.4883 -0.6744  0.5307
 8721SOL    HW137799   1.359   0.504   9.480 -0.7326 -1.5140  0.5209
 8721SOL    HW237800   1.213   0.499   9.473  1.0916 -0.3587  2.9017
 8722SOL     OW37801   1.204   3.636   4.764  0.6514  0.0509  0.2117
 8722SOL    HW137802   1.230   3.722   4.731 -3.0033  1.4842  1.1387
 8722SOL    HW237803   1.250   3.637   4.847 -0.4669 -0.3700  0.8337
 8723SOL     OW37804   3.080   3.244  13.719 -0.4215  0.0194  0.3340
 8723SOL    HW137805   3.134   3.276  13.647 -0.2186 -1.3624 -0.1290
 8723SOL    HW237806   3.040   3.168  13.677 -0.0550  0.0545 -0.0847
 8724SOL     OW37807   3.824   3.768  10.078  0.0515  0.3110 -0.3473
 8724SOL    HW137808   3.859   3.818  10.004 -1.1806  1.6028 -0.0574
 8724SOL    HW237809   3.731   3.779  10.095 -0.0909  0.8700 -1.4608
 8725SOL     OW37810   3.099   4.323   7.384  0.2878 -0.2635 -0.2286
 8725SOL    HW137811   3.080   4.407   7.343 -0.3411 -0.0910  0.4188
 8725SOL    HW237812   3.193   4.317   7.367  0.3658  0.3966 -0.0416
 8726SOL     OW37813   1.812   4.141  15.568  0.2020 -0.6972 -0.4557
 8726SOL    HW137814   1.789   4.172  15.656  1.4878  1.8160 -0.9867
 8726SOL    HW237815   1.778   4.213  15.514  1.4152 -0.1363 -0.4736
 8727SOL     OW37816   3.042   1.041  10.890  0.2005  0.1056 -0.1231
 8727SOL    HW137817   3.048   1.086  10.974 -0.7715  2.1591 -1.1560
 8727SOL    HW237818   3.124   1.077  10.854 -1.7582  2.5277 -2.1330
 8728SOL     OW37819   1.883   4.215   3.795 -0.0924  0.9372 -0.5976
 8728SOL    HW137820   1.964   4.251   3.759  0.2462  0.7576 -0.0242
 8728SOL    HW237821   1.876   4.260   3.879 -2.5678  2.1158 -1.4351
 8729SOL     OW37822   3.880   2.107   7.485  0.0538 -0.0396 -0.0301
 8729SOL    HW137823   3.858   2.067   7.401 -0.0861  0.5851 -0.2974
 8729SOL    HW237824   3.905   2.029   7.534 -0.3867 -0.6157 -0.7244
 8730SOL     OW37825   2.556   0.503  17.128 -0.1988 -0.1332  0.4029
 8730SOL    HW137826   2.650   0.490  17.117 -0.1967 -1.2212  1.6943
 8730SOL    HW237827   2.520   0.418  17.154  0.9497 -0.2647  1.6040
 8731SOL     OW37828   4.314   3.481   1.454 -0.2458  0.1441  0.3192
 8731SOL    HW137829   4.231   3.511   1.492 -0.0086 -1.0333  1.7598
 8731SOL    HW237830   4.288   3.389   1.445 -0.1982 -0.0435  2.1379
 8732SOL     OW37831   3.207   4.696  12.757  0.0020  0.2690 -0.3388
 8732SOL    HW137832   3.267   4.709  12.683 -0.9132 -2.2863 -1.5231
 8732SOL    HW237833   3.211   4.601  12.767  0.0159  0.5291  1.9483
 8733SOL     OW37834   2.983   0.304   1.439 -0.2377 -0.8052  0.0579
 8733SOL    HW137835   3.040   0.228   1.444  0.7852  0.0346  1.2228
 8733SOL    HW237836   3.023   0.354   1.368 -0.4059 -1.2575 -0.3567
 8734SOL     OW37837   3.846   3.004  11.376 -0.4263  0.0116 -0.0639
 8734SOL    HW137838   3.894   3.024  11.296  0.3598 -0.7628  0.2248
 8734SOL    HW237839   3.759   3.010  11.336 -0.4607  1.0643  0.1615
 8735SOL     OW37840   4.592   3.764   9.593  0.3915 -0.0976  0.1059
 8735SOL    HW137841   4.669   3.750   9.537 -0.0509  1.2925 -0.8660
 8735SOL    HW237842   4.596   3.859   9.605  1.8154 -0.0261 -0.8739
 8736SOL     OW37843   3.809   3.402   5.651 -0.0907 -0.2867 -0.1592
 8736SOL    HW137844   3.883   3.426   5.707  0.2179  0.4076 -0.8606
 8736SOL    HW237845   3.805   3.481   5.597  0.4064  0.3889  0.8018
 8737SOL     OW37846   2.457   1.900   2.012  0.1875  0.3837 -0.2063
 8737SOL    HW137847   2.417   1.959   1.948 -0.6141  1.2351  1.0890
 8737SOL    HW237848   2.527   1.951   2.051 -0.5577  2.5603 -1.7218
 8738SOL     OW37849   0.253   2.239   7.308  0.3438 -0.1046 -0.0425
 8738SOL    HW137850   0.164   2.212   7.332 -0.9278  3.0442 -1.2186
 8738SOL    HW237851   0.237   2.316   7.253 -1.6243 -2.3200 -2.5841
 8739SOL     OW37852   4.570   0.202   7.666 -0.7775 -0.1822 -0.3531
 8739SOL    HW137853   4.511   0.227   7.737 -1.2266  2.1298 -1.5202
 8739SOL    HW237854   4.546   0.110   7.661 -0.0230 -0.3699 -0.4920
 8740SOL     OW37855   1.655   2.959   5.547  0.0072  0.0479 -0.5369
 8740SOL    HW137856   1.605   3.025   5.498 -0.3012 -2.2071 -3.2537
 8740SOL    HW237857   1.651   2.883   5.490 -0.9216  0.3389 -0.8517
 8741SOL     OW37858   4.360   1.762   7.221  0.8925 -0.1709  0.0632
 8741SOL    HW137859   4.340   1.670   7.233 -0.5333  0.0299 -0.7903
 8741SOL    HW237860   4.449   1.762   7.257  0.7877  4.1344  0.3028
 8742SOL     OW37861   4.395   0.336  11.405 -0.2209 -0.4135 -0.1770
 8742SOL    HW137862   4.376   0.383  11.323  1.2572  1.0630  0.3312
 8742SOL    HW237863   4.413   0.245  11.383  0.4802 -0.3951  0.3233
 8743SOL     OW37864   2.379   3.238   5.025  0.3047 -0.1022  0.0824
 8743SOL    HW137865   2.320   3.275   5.091 -0.4199 -1.5745  0.2586
 8743SOL    HW237866   2.401   3.153   5.061  0.1145 -1.1558 -2.2789
 8744SOL     OW37867   0.001   2.373   4.912 -0.5670  0.1722  0.7547
 8744SOL    HW137868   0.028   2.309   4.846 -1.0419  1.6948 -0.9042
 8744SOL    HW237869   0.080   2.378   4.967  0.2113 -2.3397 -0.1374
 8745SOL     OW37870   0.390   4.511  16.288 -0.1687  0.6883  0.2429
 8745SOL    HW137871   0.394   4.446  16.358  2.9477 -2.2103 -2.6138
 8745SOL    HW237872   0.415   4.461  16.210 -1.1992  0.8411 -0.1906
 8746SOL     OW37873   3.794   4.553   4.900  0.0431 -0.1596  0.6348
 8746SOL    HW137874   3.741   4.535   4.823  0.4699  1.4683 -0.0318
 8746SOL    HW237875   3.880   4.557   4.857 -0.4046 -0.8691 -0.3194
 8747SOL     OW37876   2.389   0.038   7.030 -0.3456 -0.1893  0.3178
 8747SOL    HW137877   2.326   0.086   7.084  0.5206  0.4189  0.7907
 8747SOL    HW237878   2.442   4.729   7.096 -1.4549 -1.5072  0.3260
 8748SOL     OW37879   2.761   1.430  10.799  0.2310  0.1958  0.2357
 8748SOL    HW137880   2.845   1.472  10.818 -0.0749  0.5705  0.7843
 8748SOL    HW237881   2.720   1.491  10.737  0.3432 -0.3823 -0.4047
 8749SOL     OW37882   2.232   3.161  10.833  0.3418  0.4052 -0.2252
 8749SOL    HW137883   2.275   3.118  10.908 -0.1591 -3.3813 -2.1182
 8749SOL    HW237884   2.271   3.248  10.837 -0.7614  0.9804 -1.9121
 8750SOL     OW37885   2.078   4.267   2.849  0.0833 -0.5521  0.3811
 8750SOL    HW137886   2.145   4.328   2.817 -0.0623  0.5405  2.1950
 8750SOL    HW237887   2.121   4.189   2.813  2.2046 -0.6257  3.1489
 8751SOL     OW37888   4.462   1.798   2.998  0.4243 -0.5555  0.3256
 8751SOL    HW137889   4.541   1.805   3.052 -0.2408  1.1392  1.0724
 8751SOL    HW237890   4.500   1.743   2.929  3.1941  0.1285  1.3131
 8752SOL     OW37891   3.338   0.335   1.551  0.4816  0.4007 -0.3703
 8752SOL    HW137892   3.370   0.262   1.499  1.6805  1.3034 -0.9051
 8752SOL    HW237893   3.348   0.302   1.640 -0.9108  1.2936  0.1204
 8753SOL     OW37894   0.801   2.568  15.134 -0.2881 -0.0498  0.0214
 8753SOL    HW137895   0.886   2.552  15.176  0.8500  1.2166 -1.7885
 8753SOL    HW237896   0.817   2.533  15.046  3.1713 -0.9241  0.9905
 8754SOL     OW37897   2.004   2.705  11.544  0.0962  0.4791  0.0203
 8754SOL    HW137898   1.949   2.775  11.509  0.4211  0.6468 -0.1622
 8754SOL    HW237899   2.021   2.744  11.630 -1.0647 -0.5703  0.7151
 8755SOL     OW37900   2.209   3.753   8.059 -0.4501  0.0226  0.4493
 8755SOL    HW137901   2.303   3.764   8.076 -0.8221  0.8526  1.9464
 8755SOL    HW237902   2.206   3.686   7.991  2.4795  1.8873 -1.5435
 8756SOL     OW37903   2.081   4.349   3.253  0.2309 -0.3593 -0.5034
 8756SOL    HW137904   2.091   4.270   3.200  1.9724 -0.4891  0.0199
 8756SOL    HW237905   2.163   4.342   3.302  0.8524 -0.4363 -1.5755
 8757SOL     OW37906   2.461   0.836   8.653 -0.4112 -0.3939 -0.1252
 8757SOL    HW137907   2.495   0.752   8.683  0.7184  0.3458  0.6964
 8757SOL    HW237908   2.544   0.883   8.664 -0.3663  0.1406 -2.9025
 8758SOL     OW37909   3.498   2.186   2.595  0.4830  0.0380 -0.3149
 8758SOL    HW137910   3.504   2.161   2.687 -2.5629  1.2670  0.1960
 8758SOL    HW237911   3.437   2.122   2.558  1.7851 -0.5535 -1.4764
 8759SOL     OW37912   2.109   4.369   4.589  0.2014 -0.3145 -0.5251
 8759SOL    HW137913   2.170   4.316   4.640  0.2041 -0.3506 -0.5662
 8759SOL    HW237914   2.162   4.407   4.519  0.0759 -0.0657 -0.4864
 8760SOL     OW37915   0.943   3.552   7.980 -0.0288 -0.3532  0.5385
 8760SOL    HW137916   0.911   3.612   7.912 -1.1313  0.2134  1.5627
 8760SOL    HW237917   0.889   3.568   8.057 -1.1929  0.5036 -0.4490
 8761SOL     OW37918   0.729   0.828   6.641  0.0436 -0.4090  0.3314
 8761SOL    HW137919   0.809   0.873   6.667  0.7757 -1.4972 -0.0073
 8761SOL    HW237920   0.689   0.899   6.591 -1.4741 -1.1972  0.4309
 8762SOL     OW37921   0.776   0.052  16.710  0.0432 -0.0715 -0.2428
 8762SOL    HW137922   0.869   0.076  16.710 -0.4187  1.7247 -0.7423
 8762SOL    HW237923   0.788   4.694  16.725 -2.5716 -0.4262 -0.2962
 8763SOL     OW37924   2.074   3.660   8.448  0.2472  0.4259  0.1516
 8763SOL    HW137925   1.986   3.632   8.474  0.0979 -1.5458 -2.4611
 8763SOL    HW237926   2.043   3.741   8.406 -0.8867  0.8204  1.7529
 8764SOL     OW37927   3.085   0.527   2.348  0.0723  0.5398 -0.5300
 8764SOL    HW137928   3.118   0.577   2.274  1.1333  0.7599  0.0884
 8764SOL    HW237929   2.999   0.569   2.342  0.4420  1.6872  1.9926
 8765SOL     OW37930   0.703   2.833   2.464  0.6953  0.5723 -0.4664
 8765SOL    HW137931   0.678   2.876   2.382 -0.2514 -0.8646 -0.9213
 8765SOL    HW237932   0.655   2.883   2.530  0.2002 -1.4060  0.6635
 8766SOL     OW37933   2.958   4.325   7.893  0.3433 -0.0107 -0.2360
 8766SOL    HW137934   2.986   4.287   7.810  1.6537  1.0190 -0.2763
 8766SOL    HW237935   3.044   4.348   7.928  0.5705 -0.6489 -0.3852
 8767SOL     OW37936   1.330   0.830   6.176  1.0998 -0.2579  0.2402
 8767SOL    HW137937   1.332   0.763   6.108  1.1958 -1.2040  1.1798
 8767SOL    HW237938   1.268   0.894   6.140  0.6696 -1.2461 -0.7897
 8768SOL     OW37939   1.159   4.500  15.848  0.1370  0.1227  0.2081
 8768SOL    HW137940   1.078   4.510  15.798 -0.6943 -0.0615  1.5240
 8768SOL    HW237941   1.120   4.490  15.935 -0.0381  0.3139  0.1515
 8769SOL     OW37942   0.001   2.540   5.357 -0.1221 -0.0626  0.8730
 8769SOL    HW137943   0.009   2.576   5.445  0.9853  0.6691  0.4750
 8769SOL    HW237944   0.074   2.478   5.363  0.2182  0.2930  0.4546
 8770SOL     OW37945   1.474   1.408   4.356  0.3529  0.5834  0.2486
 8770SOL    HW137946   1.529   1.331   4.372  2.5956  2.3671  1.0580
 8770SOL    HW237947   1.474   1.450   4.442 -1.5870  0.0833  0.4901
 8771SOL     OW37948   3.820   3.144   5.485 -0.7762 -0.1812  0.5257
 8771SOL    HW137949   3.880   3.164   5.413  0.9949  0.8530  2.2788
 8771SOL    HW237950   3.836   3.221   5.539 -0.6920 -0.4984  0.9594
 8772SOL     OW37951   1.935   0.144   6.933  0.5288  0.2954 -0.0296
 8772SOL    HW137952   1.961   0.063   6.977  0.0154  0.0828 -0.1105
 8772SOL    HW237953   1.956   0.119   6.843 -1.1368  2.8312 -1.1120
 8773SOL     OW37954   2.122   4.005   4.030  0.1613  0.1188  0.3693
 8773SOL    HW137955   2.164   3.931   3.986 -1.7812 -1.0447  0.4842
 8773SOL    HW237956   2.040   4.003   3.981 -0.5543 -0.6119  1.6120
 8774SOL     OW37957   3.070   4.317   3.899 -0.9908  0.5989 -0.1302
 8774SOL    HW137958   2.997   4.303   3.959 -0.2010 -0.4852  0.5690
 8774SOL    HW237959   3.138   4.303   3.965 -1.8319 -0.4574  0.5124
 8775SOL     OW37960   1.827   3.698   4.699 -0.1137  0.0517 -0.4022
 8775SOL    HW137961   1.895   3.713   4.764  0.2752 -0.6362 -0.6488
 8775SOL    HW237962   1.866   3.757   4.634  0.2137 -1.0836 -1.2426
 8776SOL     OW37963   3.914   3.195  13.433 -0.6635 -0.2679 -0.7652
 8776SOL    HW137964   3.992   3.189  13.377  1.6532 -1.0556  2.4997
 8776SOL    HW237965   3.840   3.219  13.378 -1.0452 -0.1688 -0.2098
 8777SOL     OW37966   4.321   2.500  11.266 -0.0272  0.1037 -0.2110
 8777SOL    HW137967   4.363   2.433  11.320 -0.8192 -1.4069 -1.4609
 8777SOL    HW237968   4.230   2.472  11.260  0.5871 -1.6696 -1.2623
 8778SOL     OW37969   0.027   3.613   8.602  0.0152 -0.2150  0.0493
 8778SOL    HW137970   0.024   3.683   8.667  0.6339 -0.1745  0.0365
 8778SOL    HW237971   0.118   3.587   8.615 -0.3998 -2.0350 -0.7127
 8779SOL     OW37972   4.019   1.651   3.488  0.2104 -0.3484  0.1984
 8779SOL    HW137973   3.966   1.663   3.567 -1.1842  0.2779 -0.8113
 8779SOL    HW237974   4.047   1.740   3.468  1.2577 -0.8380 -0.4896
 8780SOL     OW37975   1.195   3.225  15.921 -0.4647 -0.1853  0.0763
 8780SOL    HW137976   1.287   3.226  15.945 -0.6493 -1.7527  0.8805
 8780SOL    HW237977   1.159   3.293  15.977  0.0911 -0.1288  0.3623
 8781SOL     OW37978   0.589   4.643   5.651  0.0201  0.1855  0.4257
 8781SOL    HW137979   0.661   4.582   5.669  0.3710 -0.0466 -1.7889
 8781SOL    HW237980   0.558   4.655   5.741 -0.6127 -0.6921  0.3190
 8782SOL     OW37981   2.173   2.811   6.250 -0.7186  0.2344 -0.3777
 8782SOL    HW137982   2.118   2.880   6.216  1.1713  2.7141  1.5668
 8782SOL    HW237983   2.200   2.772   6.167  0.3269  2.8944 -1.2648
 8783SOL     OW37984   1.854   0.098  11.418  0.2054  0.4675 -0.3046
 8783SOL    HW137985   1.768   0.126  11.389 -0.7747 -0.5437  1.6441
 8783SOL    HW237986   1.907   0.127  11.343  2.1231 -1.9400  0.1135
 8784SOL     OW37987   3.402   2.343  13.264  0.1629 -0.3487 -0.3878
 8784SOL    HW137988   3.364   2.262  13.229 -2.2190 -0.2838  2.0333
 8784SOL    HW237989   3.397   2.398  13.187 -0.6804  0.2270  0.0789
 8785SOL     OW37990   1.766   1.108   9.959  0.5128  0.4213 -0.0841
 8785SOL    HW137991   1.758   1.123  10.053 -1.0649  3.9716 -0.7745
 8785SOL    HW237992   1.781   1.195   9.920  1.4334 -0.6333 -2.0888
 8786SOL     OW37993   3.088   1.027   3.265 -0.0281 -0.3730 -0.5147
 8786SOL    HW137994   3.040   0.951   3.233 -0.5363 -0.0612 -0.4858
 8786SOL    HW237995   3.047   1.038   3.350 -1.2203 -0.3290 -1.1047
 8787SOL     OW37996   2.331   3.450   7.511  0.6420  0.7208 -0.1658
 8787SOL    HW137997   2.262   3.385   7.500 -0.4604  1.7295  0.7891
 8787SOL    HW237998   2.365   3.441   7.600 -1.0329  1.7950  0.5810
 8788SOL     OW37999   1.148   1.835   9.748 -0.3378  0.7528  0.5842
 8788SOL    HW138000   1.113   1.910   9.797 -0.9982 -0.3655  1.8111
 8788SOL    HW238001   1.121   1.764   9.805 -0.3884 -0.6353 -1.1753
 8789SOL     OW38002   1.951   0.650   7.280  0.3309 -0.4285  0.1296
 8789SOL    HW138003   1.940   0.623   7.371 -1.1846  3.0259  0.9612
 8789SOL    HW238004   1.871   0.608   7.246 -0.0533 -0.2858  0.8687
 8790SOL     OW38005   0.621   1.850   6.117  0.4228  0.0998 -0.1147
 8790SOL    HW138006   0.702   1.807   6.089  0.2600  0.4438 -1.1251
 8790SOL    HW238007   0.554   1.799   6.074 -1.6902  2.5328  0.2624
 8791SOL     OW38008   3.767   3.282  15.312  0.3453 -0.1479  0.2816
 8791SOL    HW138009   3.777   3.223  15.238 -0.5173 -2.7756  2.2512
 8791SOL    HW238010   3.812   3.358  15.273  1.1295 -0.0959  1.2817
 8792SOL     OW38011   1.201   0.825   7.545  0.3031  0.7471 -0.2761
 8792SOL    HW138012   1.157   0.823   7.460 -1.5412  2.5043  0.6315
 8792SOL    HW238013   1.175   0.908   7.586  0.3279  0.2281  0.7881
 8793SOL     OW38014   0.262   0.256   5.212  0.4038  0.2632  0.6955
 8793SOL    HW138015   0.255   0.176   5.264 -0.3548  1.3575  2.2831
 8793SOL    HW238016   0.269   0.333   5.269 -1.0687 -0.5771  1.9887
 8794SOL     OW38017   2.558   1.946   5.028 -0.3561 -0.5227 -0.1720
 8794SOL    HW138018   2.490   1.970   5.091 -0.5173 -3.3694  0.7496
 8794SOL    HW238019   2.502   1.875   4.997 -1.9402 -0.2288  2.0499
 8795SOL     OW38020   1.287   3.588  10.927  0.6488  0.2622  1.0926
 8795SOL    HW138021   1.325   3.507  10.961 -0.5937 -0.8648 -0.2087
 8795SOL    HW238022   1.361   3.641  10.898  1.9429 -2.6516 -1.0182
 8796SOL     OW38023   2.466   4.311   0.171 -0.2239 -0.1246 -0.6937
 8796SOL    HW138024   2.484   4.235   0.226  0.8817  0.0783 -0.7749
 8796SOL    HW238025   2.375   4.333   0.192  0.8894  3.1008  0.7574
 8797SOL     OW38026   4.520   3.756  13.927 -0.0580 -0.2319  0.2130
 8797SOL    HW138027   4.445   3.756  13.988 -1.6831 -0.6179 -1.7975
 8797SOL    HW238028   4.530   3.850  13.915 -0.6229 -0.3457 -1.0658
 8798SOL     OW38029   2.674   3.417   6.157 -0.1735  0.0891  0.2288
 8798SOL    HW138030   2.734   3.343   6.148  0.6373  0.7301  0.3505
 8798SOL    HW238031   2.727   3.483   6.202 -0.1957 -0.1157  0.5579
 8799SOL     OW38032   3.927   0.625  15.691 -0.1424  0.6894 -0.2273
 8799SOL    HW138033   3.959   0.589  15.774 -0.6599  1.0050  0.1069
 8799SOL    HW238034   3.989   0.687  15.653 -1.3988  2.7667  1.1113
 8800SOL     OW38035   3.727   4.250  15.526  0.2475 -0.4138  0.1705
 8800SOL    HW138036   3.700   4.251  15.434 -0.6118 -1.5782  0.4103
 8800SOL    HW238037   3.694   4.334  15.556 -0.7978 -0.8098  0.1073
 8801SOL     OW38038   2.201   3.214  11.351 -0.2241  0.3395 -0.3819
 8801SOL    HW138039   2.106   3.212  11.365 -0.2217  2.3112 -0.1522
 8801SOL    HW238040   2.231   3.251  11.434 -3.8059 -0.3103  1.1735
 8802SOL     OW38041   0.778   1.698   9.600 -0.8731  0.0939 -0.3348
 8802SOL    HW138042   0.705   1.741   9.645 -1.2359 -0.5907 -0.2617
 8802SOL    HW238043   0.824   1.769   9.555 -0.1750 -1.1098 -1.5482
 8803SOL     OW38044   2.782   3.929   8.172 -0.4185  0.0476 -0.6138
 8803SOL    HW138045   2.704   3.944   8.119 -2.1773 -2.5536  1.2619
 8803SOL    HW238046   2.852   3.942   8.107  1.5344  2.2257  1.9021
 8804SOL     OW38047   0.701   0.471   5.474 -0.6037 -0.0796 -0.3104
 8804SOL    HW138048   0.645   0.413   5.423 -1.2816  0.2150  0.1062
 8804SOL    HW238049   0.748   0.509   5.399  0.9486 -0.0596  0.6629
 8805SOL     OW38050   0.787   3.244   2.122 -0.3291  0.4595 -0.2038
 8805SOL    HW138051   0.865   3.247   2.067 -0.9385  2.9368 -0.9211
 8805SOL    HW238052   0.766   3.151   2.114 -0.1493  0.2050  2.2188
 8806SOL     OW38053   2.070   1.627   1.443  0.6907 -0.0168 -0.3570
 8806SOL    HW138054   2.111   1.603   1.526 -0.4375  1.4598  0.6150
 8806SOL    HW238055   2.137   1.683   1.404  1.5639 -0.0332  1.1296
 8807SOL     OW38056   4.579   4.125  15.183 -0.1115 -0.4863 -0.0384
 8807SOL    HW138057   4.544   4.151  15.097  1.3921  0.6882 -0.3042
 8807SOL    HW238058   4.594   4.032  15.164  2.8191 -0.4579  2.0506
 8808SOL     OW38059   3.560   3.712  16.845 -0.3679 -0.1293 -0.0529
 8808SOL    HW138060   3.533   3.620  16.848  0.6563 -0.4205  0.0671
 8808SOL    HW238061   3.566   3.733  16.752 -1.1015  0.4819  0.0330
 8809SOL     OW38062   1.836   3.195   6.938  0.4607 -0.0648  0.7529
 8809SOL    HW138063   1.747   3.206   6.972  0.2048  0.6773 -0.1400
 8809SOL    HW238064   1.822   3.167   6.848  1.2927 -0.7854  0.8571
 8810SOL     OW38065   0.210   2.572   1.444  0.2954 -0.7448 -0.0064
 8810SOL    HW138066   0.126   2.608   1.473 -1.0761 -1.7574 -2.7230
 8810SOL    HW238067   0.188   2.493   1.394 -2.0236 -1.2909  1.8348
 8811SOL     OW38068   3.000   1.609   2.062 -0.1612 -0.2601 -0.1474
 8811SOL    HW138069   2.957   1.646   2.140 -0.5786 -0.5221 -0.2516
 8811SOL    HW238070   3.077   1.562   2.095 -0.1182  1.1565  1.7657
 8812SOL     OW38071   0.102   4.422  15.377  0.0484  0.3692 -1.1212
 8812SOL    HW138072   0.190   4.393  15.402 -0.3606  2.1040  2.3363
 8812SOL    HW238073   0.122   4.444  15.286  1.8102 -0.8150 -1.0153
 8813SOL     OW38074   2.561   4.306   5.948  0.3506 -0.0424 -0.3674
 8813SOL    HW138075   2.484   4.359   5.928  2.4079  2.3654 -1.8984
 8813SOL    HW238076   2.530   4.215   5.946 -2.7288  1.0018  1.9725
 8814SOL     OW38077   1.902   0.346   3.671  0.1435 -0.4953  0.1106
 8814SOL    HW138078   1.864   0.289   3.738  1.1717  0.7520  1.7489
 8814SOL    HW238079   1.870   0.299   3.594 -1.1302 -0.5151  0.6541
 8815SOL     OW38080   1.532   0.125  14.192 -0.1145 -0.4388  0.1545
 8815SOL    HW138081   1.524   0.079  14.275  0.5115 -2.6201 -0.9826
 8815SOL    HW238082   1.583   0.059  14.145 -0.7893 -0.7588 -0.1235
 8816SOL     OW38083   3.639   2.165  13.325  0.4144 -0.9047  0.0523
 8816SOL    HW138084   3.569   2.214  13.281  0.1463 -0.9636  0.4166
 8816SOL    HW238085   3.714   2.215  13.293 -0.8380 -0.3664 -2.0488
 8817SOL     OW38086   0.050   3.122   9.400  0.3304  0.0485 -0.0776
 8817SOL    HW138087   0.017   3.033   9.406  3.3137 -1.0908 -0.5877
 8817SOL    HW238088   4.704   3.171   9.390 -0.1046 -0.9373 -1.2842
 8818SOL     OW38089   4.220   1.183  14.583 -0.0596  0.3459 -0.0113
 8818SOL    HW138090   4.238   1.112  14.521  2.4832 -0.3462  1.5181
 8818SOL    HW238091   4.295   1.238  14.561  0.0027 -1.0542 -3.2334
 8819SOL     OW38092   1.602   0.728   5.480  0.3344  0.8651  0.5434
 8819SOL    HW138093   1.533   0.783   5.443 -0.5235 -0.2020  0.5511
 8819SOL    HW238094   1.579   0.734   5.573 -0.6361  0.7091  0.3145
 8820SOL     OW38095   1.061   4.641   6.787 -0.1377 -0.8157  0.3943
 8820SOL    HW138096   1.103   4.710   6.838  1.4570 -0.7675 -0.9925
 8820SOL    HW238097   1.119   4.566   6.803 -0.3091 -1.0576 -0.1232
 8821SOL     OW38098   4.148   3.479   5.168  0.1748 -0.1944 -0.0978
 8821SOL    HW138099   4.129   3.508   5.078  1.4516 -0.2330 -0.3825
 8821SOL    HW238100   4.217   3.415   5.153  0.3025  0.2062 -1.2432
 8822SOL     OW38101   4.694   0.150   6.601 -0.0495  0.4700 -0.1853
 8822SOL    HW138102   4.703   0.192   6.687  0.7932 -0.3607  0.1308
 8822SOL    HW238103   0.047   0.115   6.587 -0.9327 -1.2960 -1.2623
 8823SOL     OW38104   2.114   1.890   6.954 -0.0311  0.3281 -0.1997
 8823SOL    HW138105   2.023   1.863   6.955 -1.0377  3.8186  1.0813
 8823SOL    HW238106   2.139   1.869   6.864  0.7586 -0.5129  0.2133
 8824SOL     OW38107   3.413   1.372  12.199  0.0172 -0.1440 -0.2222
 8824SOL    HW138108   3.422   1.450  12.144 -0.7778 -0.0295 -0.1892
 8824SOL    HW238109   3.317   1.372  12.195 -0.0489  0.7182  1.2285
 8825SOL     OW38110   1.050   2.708   4.546 -0.4568  0.4519 -0.0986
 8825SOL    HW138111   1.045   2.754   4.630  2.3477  1.6889 -0.5941
 8825SOL    HW238112   1.042   2.616   4.570  0.8688  0.0298 -1.3377
 8826SOL     OW38113   3.020   3.428  16.990  0.4938  0.2647  0.7263
 8826SOL    HW138114   3.030   3.510  16.942  1.3600 -0.1668  0.1599
 8826SOL    HW238115   3.075   3.438  17.067 -1.0740  2.5331  1.5327
 8827SOL     OW38116   4.400   0.315   7.841  0.1908 -0.2017 -0.8442
 8827SOL    HW138117   4.319   0.267   7.857  0.1447 -0.1639 -0.9599
 8827SOL    HW238118   4.383   0.391   7.897 -2.2538 -1.0496 -0.4393
 8828SOL     OW38119   0.223   3.906   5.777  0.2098 -0.3771 -0.1818
 8828SOL    HW138120   0.266   3.821   5.780 -0.5666 -0.7703 -0.2800
 8828SOL    HW238121   0.195   3.903   5.868  0.6227  0.2823 -0.0296
 8829SOL     OW38122   3.363   1.092   4.741  0.7114 -0.3795  0.0480
 8829SOL    HW138123   3.419   1.048   4.806 -1.3053 -0.9989  1.3575
 8829SOL    HW238124   3.372   1.183   4.768 -0.0617 -0.2217 -0.2388
 8830SOL     OW38125   0.577   4.626   3.044  0.9999  0.2152 -0.0813
 8830SOL    HW138126   0.498   4.680   3.033  1.1343  0.8670  2.3306
 8830SOL    HW238127   0.637   4.675   2.988  0.0586  3.4884  1.7395
 8831SOL     OW38128   0.974   2.388   2.563  0.1810 -0.4465  0.2099
 8831SOL    HW138129   0.883   2.362   2.554 -0.7369  2.9194 -0.4286
 8831SOL    HW238130   0.968   2.453   2.633 -0.3426  1.5397 -1.6800
 8832SOL     OW38131   4.513   2.424   7.708 -0.7578 -0.2617 -0.3413
 8832SOL    HW138132   4.481   2.491   7.769  1.6592  0.6688 -0.0925
 8832SOL    HW238133   4.607   2.416   7.727 -1.2443  0.9646  2.6277
 8833SOL     OW38134   4.320   0.468   6.877  0.2769 -0.0233 -0.3315
 8833SOL    HW138135   4.385   0.408   6.912 -0.6231  0.5164  2.3409
 8833SOL    HW238136   4.325   0.544   6.936 -1.2417  2.2161 -3.0359
 8834SOL     OW38137   4.403   3.590   8.668 -0.3907  0.2320  0.7012
 8834SOL    HW138138   4.315   3.580   8.629 -0.0047 -1.5827  0.2709
 8834SOL    HW238139   4.457   3.535   8.612 -0.6740 -1.3494  1.9786
 8835SOL     OW38140   0.200   0.049   2.022 -0.6445 -0.2512  0.0439
 8835SOL    HW138141   0.127   0.010   2.071  0.2736 -1.7510  0.1917
 8835SOL    HW238142   0.262   4.714   2.039 -0.4164  0.2419  1.2501
 8836SOL     OW38143   2.800   0.930   2.277  0.2613  0.1693  0.2249
 8836SOL    HW138144   2.802   0.945   2.183 -1.7660  0.8114  0.2715
 8836SOL    HW238145   2.869   0.987   2.311  0.2101 -0.1341  0.8333
 8837SOL     OW38146   3.531   2.825   6.254 -0.1061 -0.3958 -0.1395
 8837SOL    HW138147   3.476   2.785   6.321  1.1208  0.6824  1.5117
 8837SOL    HW238148   3.544   2.749   6.196 -0.4359 -0.5593  0.0023
 8838SOL     OW38149   4.141   4.296   4.508  0.3612 -0.1276  0.1850
 8838SOL    HW138150   4.185   4.339   4.582 -2.5035  0.1841  1.7145
 8838SOL    HW238151   4.135   4.206   4.538 -1.9889  0.1160  0.4994
 8839SOL     OW38152   1.328   1.492  14.855  0.8511  0.3388  0.2240
 8839SOL    HW138153   1.237   1.499  14.824  0.7856  0.3316  0.4180
 8839SOL    HW238154   1.339   1.587  14.861 -3.4956  0.8300  0.2817
 8840SOL     OW38155   1.775   0.775   3.499  0.4569  0.3999  0.3817
 8840SOL    HW138156   1.771   0.742   3.589  1.9771 -1.7066 -0.3313
 8840SOL    HW238157   1.782   0.868   3.521 -0.2901  0.1375  1.7274
 8841SOL     OW38158   1.224   3.856   3.312 -0.7829 -0.3677 -0.1664
 8841SOL    HW138159   1.274   3.807   3.378  0.2870 -0.3473 -0.9512
 8841SOL    HW238160   1.273   3.834   3.232 -1.8104 -2.8329 -0.1395
 8842SOL     OW38161   1.455   1.838   5.655  0.4686 -0.7868  0.2830
 8842SOL    HW138162   1.379   1.879   5.696  0.9928 -1.6098  2.1351
 8842SOL    HW238163   1.434   1.745   5.667 -1.2652 -0.2390  1.4902
 8843SOL     OW38164   2.110   2.199   6.487  0.4289  0.0849  0.2005
 8843SOL    HW138165   2.177   2.206   6.555  0.1873  0.2742  0.4196
 8843SOL    HW238166   2.115   2.104   6.473 -0.7340  0.3080 -1.7502
 8844SOL     OW38167   0.482   2.392   5.228  0.4660 -0.4056 -0.4603
 8844SOL    HW138168   0.426   2.315   5.219 -0.1401 -0.3096  2.6161
 8844SOL    HW238169   0.417   2.454   5.195 -0.5860 -1.2355  0.0570
 8845SOL     OW38170   0.649   4.732   8.366  0.8299 -0.0805  0.1003
 8845SOL    HW138171   0.602   4.701   8.288  1.2752 -0.8884  0.1547
 8845SOL    HW238172   0.710   0.060   8.329  3.2480 -2.5819 -0.2682
 8846SOL     OW38173   0.538   2.585   4.900  0.1219  0.1157  0.2018
 8846SOL    HW138174   0.516   2.676   4.881  0.8668 -0.1617 -2.0328
 8846SOL    HW238175   0.634   2.580   4.896  0.0864 -0.7022  0.3954
 8847SOL     OW38176   3.927   3.686  14.098  0.2467  0.2735  0.4058
 8847SOL    HW138177   3.846   3.669  14.146 -0.8333  1.8646 -0.8520
 8847SOL    HW238178   3.898   3.745  14.028 -0.1562  0.0607  0.3905
 8848SOL     OW38179   0.109   3.867   9.879 -0.3383  0.2354 -0.4358
 8848SOL    HW138180   0.051   3.913   9.818 -1.1997 -1.0600 -0.5856
 8848SOL    HW238181   0.125   3.944   9.933  0.3266 -1.0390  1.1856
 8849SOL     OW38182   3.048   2.763   1.777  0.0026 -0.1432 -0.1357
 8849SOL    HW138183   2.993   2.697   1.734 -1.5853  1.1659 -0.1190
 8849SOL    HW238184   2.977   2.809   1.820  0.0101 -0.4810  0.2408
 8850SOL     OW38185   4.193   4.432  11.947 -0.6237 -0.1566 -0.1597
 8850SOL    HW138186   4.250   4.420  11.871 -0.9210 -1.3367 -0.1837
 8850SOL    HW238187   4.120   4.470  11.899 -0.3318 -1.7257 -1.8103
 8851SOL     OW38188   3.650   0.501  11.316 -0.1960  0.0959  0.7569
 8851SOL    HW138189   3.561   0.523  11.288  0.1680  1.4243  0.6249
 8851SOL    HW238190   3.701   0.568  11.271 -1.7600  0.2177 -0.8423
 8852SOL     OW38191   3.767   0.030   9.116  0.3860 -0.3061  0.2824
 8852SOL    HW138192   3.782   4.675   9.085  3.0441  0.0690  0.4613
 8852SOL    HW238193   3.762   0.021   9.211 -1.7720 -0.1863  0.1780
 8853SOL     OW38194   4.447   3.711   3.724 -0.0500 -0.2196  0.1992
 8853SOL    HW138195   4.512   3.681   3.660  0.2031 -0.0513  0.3785
 8853SOL    HW238196   4.503   3.745   3.793 -0.0539 -0.7313  0.4456
 8854SOL     OW38197   1.918   3.261   4.853 -0.1632  0.2636  0.0612
 8854SOL    HW138198   1.917   3.335   4.913  0.0558  1.8534 -1.8815
 8854SOL    HW238199   1.854   3.201   4.891  0.9225 -0.1687  1.2232
 8855SOL     OW38200   1.499   4.011  16.445 -0.0944  0.5039  0.0881
 8855SOL    HW138201   1.538   4.094  16.418 -1.5479  1.1816  0.1109
 8855SOL    HW238202   1.412   4.024  16.408 -0.7685 -0.1609  1.4201
 8856SOL     OW38203   0.874   0.144   6.041 -0.3694 -0.0825 -0.3907
 8856SOL    HW138204   0.930   0.116   5.969  0.3997 -1.9253  0.9379
 8856SOL    HW238205   0.935   0.174   6.108 -0.7681 -2.8110  1.1947
 8857SOL     OW38206   4.585   3.534  15.926 -0.7218  0.8563 -0.1813
 8857SOL    HW138207   4.516   3.601  15.924 -0.0658  1.5330 -0.2682
 8857SOL    HW238208   4.647   3.567  15.991  0.5076 -1.1008 -0.3547
 8858SOL     OW38209   2.883   4.121   4.843  0.1007  0.3763 -0.1404
 8858SOL    HW138210   2.900   4.082   4.928 -4.4358 -0.6838  0.2834
 8858SOL    HW238211   2.968   4.118   4.799  0.0737  0.9799 -0.2334
 8859SOL     OW38212   1.862   3.464   4.437  0.1795 -0.5571  0.9058
 8859SOL    HW138213   1.834   3.486   4.526 -1.0344  1.9875 -0.1097
 8859SOL    HW238214   1.933   3.527   4.422  0.7571 -2.2026 -3.2127
 8860SOL     OW38215   2.409   3.154   4.171 -0.0046  0.5427  0.0911
 8860SOL    HW138216   2.469   3.220   4.135  0.3377 -0.3881 -1.0272
 8860SOL    HW238217   2.441   3.071   4.137 -0.5379  0.2037  0.4273
 8861SOL     OW38218   2.649   3.053  11.869 -0.7085 -0.1391  0.1009
 8861SOL    HW138219   2.631   3.032  11.960  3.7931  0.9967  1.2389
 8861SOL    HW238220   2.745   3.053  11.868 -0.7097 -0.0819 -0.4297
 8862SOL     OW38221   1.128   1.983   9.501  0.3799  0.4365  0.3511
 8862SOL    HW138222   1.130   1.925   9.578  0.9827 -1.4025 -1.0429
 8862SOL    HW238223   1.035   1.996   9.482  0.3678 -0.8684 -0.5160
 8863SOL     OW38224   1.420   1.138   7.151 -0.0347 -0.5997  0.2462
 8863SOL    HW138225   1.482   1.189   7.100  1.4543  0.5358  3.1859
 8863SOL    HW238226   1.363   1.204   7.191  0.9596  0.8229 -0.7430
 8864SOL     OW38227   1.113   0.934   3.922  0.3728 -0.8353  0.8132
 8864SOL    HW138228   1.164   0.858   3.894 -0.3058 -0.0225 -2.6383
 8864SOL    HW238229   1.153   1.002   3.869 -3.1969 -0.1711 -1.0565
 8865SOL     OW38230   4.038   2.294   7.132  0.2723 -0.4493  0.3248
 8865SOL    HW138231   4.058   2.216   7.183  2.4524  0.0131  0.1794
 8865SOL    HW238232   4.028   2.367   7.193  0.8843 -0.8143  0.8634
 8866SOL     OW38233   1.037   4.628  11.790  0.1289 -0.1964  0.4006
 8866SOL    HW138234   1.061   4.548  11.838 -2.1580 -1.5097 -0.6158
 8866SOL    HW238235   1.006   4.592  11.708  0.9048  3.9216 -1.6952
 8867SOL     OW38236   4.499   2.939   6.944 -0.4025  0.4065  0.0638
 8867SOL    HW138237   4.594   2.941   6.940 -0.4482 -1.4181 -2.0262
 8867SOL    HW238238   4.472   3.023   6.907  3.7408  0.6595 -2.2657
 8868SOL     OW38239   0.831   0.877   2.043  0.1990  0.2188  0.1402
 8868SOL    HW138240   0.774   0.954   2.045  1.5030  1.2219 -1.7209
 8868SOL    HW238241   0.795   0.828   1.968 -2.5472  0.3445  1.3439
 8869SOL     OW38242   0.677   2.357   6.156  0.3455  0.3540  0.7134
 8869SOL    HW138243   0.679   2.347   6.251 -3.0287  1.9666  0.9741
 8869SOL    HW238244   0.683   2.271   6.116 -2.1335  0.1221  0.7991
 8870SOL     OW38245   0.689   0.217   6.663 -0.4833 -0.8649  0.4854
 8870SOL    HW138246   0.759   0.281   6.676 -1.7592  0.3431  1.4260
 8870SOL    HW238247   0.625   0.249   6.726 -1.8887 -0.7028 -1.0259
 8871SOL     OW38248   4.098   2.780   7.323  0.5675 -0.1813 -0.3901
 8871SOL    HW138249   4.060   2.797   7.410 -0.8648  2.3684 -1.5335
 8871SOL    HW238250   4.187   2.815   7.330  1.2390 -1.4276 -2.5328
 8872SOL     OW38251   3.304   3.225   3.967  0.4396 -0.1602 -0.3658
 8872SOL    HW138252   3.326   3.141   4.007  2.8582  1.6845  2.1568
 8872SOL    HW238253   3.260   3.202   3.885  0.8440 -0.6243 -0.4505
 8873SOL     OW38254   1.351   4.729   1.885  0.4201  0.5239  0.4937
 8873SOL    HW138255   1.384   4.676   1.957  1.0883  2.6584  1.7884
 8873SOL    HW238256   1.257   4.720   1.877  0.7741 -0.3168 -2.7447
 8874SOL     OW38257   3.353   4.308   7.484 -0.2575 -0.0068  0.1329
 8874SOL    HW138258   3.362   4.361   7.405  3.9832  0.0521  0.6461
 8874SOL    HW238259   3.380   4.221   7.456 -1.5181 -0.2019 -0.4520
 8875SOL     OW38260   0.376   3.255   2.018  0.5953  0.0833  0.1588
 8875SOL    HW138261   0.360   3.251   2.112  1.4622 -1.2454  0.2552
 8875SOL    HW238262   0.394   3.348   2.009 -0.9180  0.2213 -1.4387
 8876SOL     OW38263   3.859   3.838   8.345  0.0661  0.0283  0.6403
 8876SOL    HW138264   3.831   3.908   8.405  1.7350  1.6081 -0.4014
 8876SOL    HW238265   3.791   3.780   8.380  2.1086 -1.5562  1.9920
 8877SOL     OW38266   2.139   0.182   5.756  0.6999  0.4284 -0.1036
 8877SOL    HW138267   2.065   0.124   5.777  0.6575  0.8253  0.8561
 8877SOL    HW238268   2.095   0.265   5.775  2.0515  1.5578 -1.8480
 8878SOL     OW38269   3.877   3.800   6.925 -0.1160  1.0984  0.3037
 8878SOL    HW138270   3.911   3.746   6.997  1.6204 -1.2989 -2.3079
 8878SOL    HW238271   3.876   3.730   6.860 -4.3376  0.2206  1.3617
 8879SOL     OW38272   1.375   2.292   2.055  0.3183 -0.2031  0.5602
 8879SOL    HW138273   1.419   2.221   2.010  1.9187  2.1673 -1.5957
 8879SOL    HW238274   1.422   2.298   2.138 -1.0420  1.0306  1.2440
 8880SOL     OW38275   0.765   0.207  14.983  0.4951 -0.2826  0.2140
 8880SOL    HW138276   0.745   0.113  14.989  1.1956 -0.4497 -0.0539
 8880SOL    HW238277   0.729   0.234  15.068 -2.3259  2.2692 -1.8303
 8881SOL     OW38278   2.678   2.806   4.945  0.2423 -0.3758  0.2893
 8881SOL    HW138279   2.621   2.806   4.868 -0.7156 -2.4913  0.9933
 8881SOL    HW238280   2.727   2.724   4.941 -0.9102 -0.9738 -1.3523
 8882SOL     OW38281   1.876   0.999   1.204  0.0488 -0.7212 -0.4308
 8882SOL    HW138282   1.877   1.053   1.283 -1.8583 -0.1172 -0.8183
 8882SOL    HW238283   1.880   0.914   1.246  2.4423 -0.1761  0.4464
 8883SOL     OW38284   2.546   4.231   7.653  0.2865 -0.0856  0.0249
 8883SOL    HW138285   2.629   4.188   7.675  0.8259  0.4832 -0.8664
 8883SOL    HW238286   2.491   4.159   7.684  0.8932 -0.0304  1.2374
 8884SOL     OW38287   4.534   0.047   2.480 -0.2732  0.1377  0.4057
 8884SOL    HW138288   4.528   0.040   2.575 -0.6011  0.1182  0.3833
 8884SOL    HW238289   4.618   0.089   2.463 -1.7434  2.9192  0.0299
 8885SOL     OW38290   3.214   2.480   5.186  0.2072 -0.3135 -0.5610
 8885SOL    HW138291   3.177   2.452   5.270 -0.0453 -2.2234 -1.3015
 8885SOL    HW238292   3.154   2.552   5.169  0.8145 -0.0948 -1.7022
 8886SOL     OW38293   1.505   2.497   6.648  0.6058  0.2673  0.0274
 8886SOL    HW138294   1.445   2.423   6.642  0.1753  0.5657  0.7540
 8886SOL    HW238295   1.448   2.566   6.680  0.1086  0.3681 -1.0655
 8887SOL     OW38296   1.295   1.628   5.067 -0.3436  0.1528  0.1855
 8887SOL    HW138297   1.380   1.623   5.024 -0.2253  0.7987  0.3517
 8887SOL    HW238298   1.288   1.721   5.090  1.0746  0.4517 -0.6451
 8888SOL     OW38299   4.304   2.806   4.854  0.0488 -0.4294  0.5777
 8888SOL    HW138300   4.236   2.859   4.810 -0.8640 -2.9316 -1.0414
 8888SOL    HW238301   4.251   2.760   4.918 -1.4899 -0.8812 -1.0087
 8889SOL     OW38302   2.100   3.923   5.226  0.0810 -0.5750  0.2161
 8889SOL    HW138303   2.140   3.993   5.277  0.5637 -1.0078  0.4299
 8889SOL    HW238304   2.061   3.871   5.296 -0.7802  1.5575  1.3167
 8890SOL     OW38305   1.586   1.189   0.401 -0.3548 -0.1088  0.0706
 8890SOL    HW138306   1.636   1.127   0.348 -0.1701 -1.0276  1.3055
 8890SOL    HW238307   1.502   1.191   0.356 -0.3469 -3.3375 -0.1308
 8891SOL     OW38308   4.004   4.233   4.006  0.2379  0.6008  0.1922
 8891SOL    HW138309   3.922   4.227   4.055 -0.4953 -0.3042 -1.1355
 8891SOL    HW238310   3.989   4.168   3.937 -0.0164 -0.0780  0.8829
 8892SOL     OW38311   0.934   1.640  14.534  0.4602 -0.1289  0.7998
 8892SOL    HW138312   0.914   1.688  14.454  1.1350 -0.0767  0.6636
 8892SOL    HW238313   0.911   1.702  14.603  1.3510  0.6461  0.3875
 8893SOL     OW38314   2.017   2.054   3.515 -0.2252  0.0334  0.2779
 8893SOL    HW138315   1.968   1.973   3.528 -0.4282 -0.1475 -1.5806
 8893SOL    HW238316   2.104   2.036   3.549  0.4599  1.7216 -0.5723
 8894SOL     OW38317   4.000   3.224   3.688 -0.3229 -0.2515 -0.1133
 8894SOL    HW138318   4.007   3.238   3.594 -3.5805  0.8412 -0.1719
 8894SOL    HW238319   4.051   3.145   3.706  1.7228  1.9782  4.0593
 8895SOL     OW38320   4.191   4.529   3.795 -0.1017 -0.2145 -0.4177
 8895SOL    HW138321   4.233   4.522   3.709 -0.2635  1.8193 -0.6566
 8895SOL    HW238322   4.260   4.558   3.854 -1.0908  0.3251  0.4902
 8896SOL     OW38323   2.457   2.889   4.328  0.0877 -0.3425 -0.8939
 8896SOL    HW138324   2.470   2.980   4.304 -0.6922 -0.3888 -1.5006
 8896SOL    HW238325   2.519   2.875   4.399 -0.5766  2.5643  0.2592
 8897SOL     OW38326   0.327   3.360  14.496  0.3531  0.4465 -0.0136
 8897SOL    HW138327   0.278   3.412  14.560  1.0967  1.5399 -0.3489
 8897SOL    HW238328   0.331   3.426  14.427 -0.3325  0.6911  0.1749
 8898SOL     OW38329   0.805   4.594  11.360  0.0829 -0.7117  0.3144
 8898SOL    HW138330   0.743   4.521  11.364 -0.5736 -0.0392  2.1241
 8898SOL    HW238331   0.751   4.665  11.328  0.3259 -0.1667  1.1252
 8899SOL     OW38332   0.264   3.067   8.568  0.3079 -0.1305  0.0457
 8899SOL    HW138333   0.307   3.152   8.565 -0.1131  0.0716 -0.2621
 8899SOL    HW238334   0.293   3.033   8.653  2.9624  2.7127  0.2536
 8900SOL     OW38335   2.851   2.100  10.477  0.6405 -0.2001  0.0107
 8900SOL    HW138336   2.757   2.094  10.457  0.4215  1.4926  0.6012
 8900SOL    HW238337   2.856   2.030  10.542 -2.6930  1.3092  1.8653
 8901SOL     OW38338   1.483   0.918   4.145  0.2343 -0.0145  0.2832
 8901SOL    HW138339   1.467   0.865   4.223 -0.9945 -0.8263 -0.5173
 8901SOL    HW238340   1.579   0.927   4.148  0.2208  0.1402  0.2614
 8902SOL     OW38341   0.489   1.216   6.618 -0.4144  0.1351 -0.5188
 8902SOL    HW138342   0.569   1.222   6.670  1.3527  0.8529 -3.3714
 8902SOL    HW238343   0.501   1.282   6.551 -2.3489  2.3625  1.3443
 8903SOL     OW38344   3.262   4.269   2.605  0.0811  0.4848 -0.1488
 8903SOL    HW138345   3.203   4.301   2.673 -0.7504  0.8249 -1.0236
 8903SOL    HW238346   3.346   4.266   2.651  0.8825  1.7005 -1.5422
 8904SOL     OW38347   4.148   3.978  15.730 -0.2270  0.3105 -0.5224
 8904SOL    HW138348   4.222   4.036  15.710 -1.1190  1.1438 -1.4559
 8904SOL    HW238349   4.170   3.938  15.814 -0.7211  0.2826 -0.4051
 8905SOL     OW38350   4.162   3.312  16.914 -0.4765 -0.0523  0.1723
 8905SOL    HW138351   4.183   3.239  16.856 -1.0111 -1.9743  2.4007
 8905SOL    HW238352   4.205   3.293  16.997 -2.2133  0.5327  1.2129
 8906SOL     OW38353   1.090   2.796   6.455 -1.0589 -0.5691  0.1160
 8906SOL    HW138354   1.128   2.841   6.530  0.7443 -2.0193  0.0840
 8906SOL    HW238355   1.124   2.707   6.465  1.8055  0.6091  1.1179
 8907SOL     OW38356   1.629   4.623   3.729 -0.5919  0.4688  0.1095
 8907SOL    HW138357   1.610   4.713   3.700 -2.8690  0.4280  1.4648
 8907SOL    HW238358   1.545   4.603   3.772 -0.4723 -1.7595 -0.7285
 8908SOL     OW38359   1.145   0.040   2.725  0.0384  0.4452 -0.4460
 8908SOL    HW138360   1.062   0.011   2.687 -0.3747  3.3904 -1.8268
 8908SOL    HW238361   1.130   4.720   2.801 -2.3737  2.6307  0.6950
 8909SOL     OW38362   0.943   4.308   3.991  0.1731 -0.3156  0.0029
 8909SOL    HW138363   0.948   4.272   3.902 -1.2633  1.1099 -0.6641
 8909SOL    HW238364   0.982   4.232   4.035  0.0766  0.0672  0.7498
 8910SOL     OW38365   0.117   1.390   7.276  0.5124 -0.7649  0.4517
 8910SOL    HW138366   0.030   1.363   7.247  0.8624  2.6778 -3.6755
 8910SOL    HW238367   0.113   1.407   7.371 -1.2979 -1.3438  0.4645
 8911SOL     OW38368   4.221   1.936   2.808  0.2693 -0.6124 -0.1376
 8911SOL    HW138369   4.205   1.868   2.873 -0.9083  0.2143  0.4167
 8911SOL    HW238370   4.285   1.895   2.749  0.2205 -1.6046  0.5071
 8912SOL     OW38371   1.953   0.665   9.873 -0.1713  0.3831  0.0891
 8912SOL    HW138372   1.929   0.624   9.790  1.8349  1.4343 -0.9990
 8912SOL    HW238373   1.886   0.734   9.879  0.1223  0.6392  0.4050
 8913SOL     OW38374   0.284   1.845   5.671 -0.4024  0.1531  0.4880
 8913SOL    HW138375   0.210   1.860   5.612 -1.9145  1.8977  2.8153
 8913SOL    HW238376   0.310   1.756   5.648  3.2171  1.4235 -0.3100
 8914SOL     OW38377   4.208   2.152   8.878  0.4056 -0.4719  0.2313
 8914SOL    HW138378   4.149   2.078   8.865 -1.7397  1.2669  0.1533
 8914SOL    HW238379   4.143   2.216   8.907 -0.7685 -1.4137 -0.3383
 8915SOL     OW38380   0.611   1.391   7.098 -0.3268  0.5061 -0.3587
 8915SOL    HW138381   0.546   1.370   7.165 -0.7425 -2.2388 -1.6518
 8915SOL    HW238382   0.596   1.485   7.084 -1.5895  0.1988 -1.1013
 8916SOL     OW38383   2.011   2.112   8.410 -0.8108 -0.4573  0.1085
 8916SOL    HW138384   2.045   2.192   8.372 -1.7883  0.3135  0.8403
 8916SOL    HW238385   2.018   2.144   8.500  1.8465 -0.2082 -0.2130
 8917SOL     OW38386   1.961   1.063  17.538 -0.4816  0.0527  0.2890
 8917SOL    HW138387   1.975   1.003  17.611  1.0284  1.3531  1.0404
 8917SOL    HW238388   1.869   1.090  17.543 -0.1508  1.2828 -0.2769
 8918SOL     OW38389   2.776   2.636   8.739 -0.3231  0.7999 -0.3157
 8918SOL    HW138390   2.817   2.559   8.779 -2.7557 -0.3340 -0.0551
 8918SOL    HW238391   2.835   2.706   8.769  0.8112 -0.6125  0.7676
 8919SOL     OW38392   1.974   2.819  11.821  0.2541 -0.1886  0.1425
 8919SOL    HW138393   1.885   2.818  11.855 -0.2001  3.4311 -0.9213
 8919SOL    HW238394   1.993   2.913  11.814  1.2188 -0.3106  1.0901
 8920SOL     OW38395   3.251   1.317   3.632  0.1376 -0.0954  0.6514
 8920SOL    HW138396   3.243   1.356   3.545 -1.8578 -0.5420  0.6407
 8920SOL    HW238397   3.271   1.227   3.606  1.6008  0.0684  1.2193
 8921SOL     OW38398   1.281   3.919  12.377 -0.4334 -0.3379 -0.0563
 8921SOL    HW138399   1.376   3.929  12.371 -0.4327 -0.4716 -0.2774
 8921SOL    HW238400   1.274   3.883  12.465 -1.6427  4.2136  1.6768
 8922SOL     OW38401   0.698   2.416   6.496 -0.1907 -0.2074  0.5218
 8922SOL    HW138402   0.620   2.365   6.476 -0.1250 -0.5539  1.1460
 8922SOL    HW238403   0.670   2.476   6.566  2.2934  1.9984 -0.4098
 8923SOL     OW38404   2.017   4.498   2.995 -0.4870  0.5805  0.3764
 8923SOL    HW138405   2.055   4.448   3.067 -0.5975  1.7391  1.2395
 8923SOL    HW238406   2.016   4.447   2.914  0.1465  0.8852  0.1716
 8924SOL     OW38407   1.711   3.574   6.468  0.0660 -0.2767  0.7292
 8924SOL    HW138408   1.796   3.533   6.484 -0.1500 -0.6308  0.9836
 8924SOL    HW238409   1.688   3.514   6.396  0.2458 -0.0794  0.5064
 8925SOL     OW38410   3.717   2.492   7.723  0.2821 -0.4961 -0.3698
 8925SOL    HW138411   3.802   2.491   7.678  0.6789  2.2241  0.3428
 8925SOL    HW238412   3.699   2.398   7.712 -4.8472  0.6810 -1.8800
 8926SOL     OW38413   1.048   0.601  12.217 -0.3197 -0.5954  0.3090
 8926SOL    HW138414   1.000   0.684  12.214  0.0402 -0.4742 -2.1512
 8926SOL    HW238415   1.106   0.613  12.142  1.9150 -0.3620  2.0723
 8927SOL     OW38416   4.426   1.264   4.345  0.1126  0.0512  0.5752
 8927SOL    HW138417   4.427   1.281   4.439 -0.4396 -2.7798  1.0921
 8927SOL    HW238418   4.419   1.169   4.341  0.1802  0.0613  0.1864
 8928SOL     OW38419   1.838   0.962  17.045  0.3376  0.2922  0.3288
 8928SOL    HW138420   1.830   1.039  16.988  1.4838  0.6177  0.6135
 8928SOL    HW238421   1.850   0.892  16.981 -2.0142 -0.2393  0.4356
 8929SOL     OW38422   2.465   3.929   8.577  0.2938  0.0406 -0.2713
 8929SOL    HW138423   2.475   4.024   8.585  0.2772 -0.0544  0.8658
 8929SOL    HW238424   2.416   3.933   8.495  0.6091  0.9389 -0.4251
 8930SOL     OW38425   3.709   0.303   7.714 -0.0239  0.3128  0.3106
 8930SOL    HW138426   3.705   0.316   7.620  5.3216  1.3145  0.2683
 8930SOL    HW238427   3.789   0.251   7.716 -0.9530 -1.1121 -0.1620
 8931SOL     OW38428   1.054   2.488  15.002  0.3687 -0.1809  0.0600
 8931SOL    HW138429   1.029   2.416  14.944  0.0485  0.3002 -0.3991
 8931SOL    HW238430   1.117   2.524  14.940  0.8344  2.1914  1.9233
 8932SOL     OW38431   3.953   1.894   7.671 -0.5101 -0.2565 -0.9177
 8932SOL    HW138432   3.938   1.814   7.722 -1.0520  1.1515  1.1463
 8932SOL    HW238433   4.048   1.886   7.663 -0.3485  1.6183 -0.9145
 8933SOL     OW38434   1.494   0.725   5.936  0.3126  0.7144 -0.2086
 8933SOL    HW138435   1.545   0.663   5.884  1.7260  1.9598 -0.3268
 8933SOL    HW238436   1.409   0.703   5.899  1.5341 -1.6443 -1.6154
 8934SOL     OW38437   0.017   1.142   8.659  0.3498  0.0482 -0.1584
 8934SOL    HW138438   0.095   1.193   8.639  1.5598 -1.5943  0.3884
 8934SOL    HW238439   4.703   1.208   8.709  2.7397  1.6841  0.0326
 8935SOL     OW38440   3.905   0.562   5.482  0.1605  0.4414  0.1609
 8935SOL    HW138441   3.967   0.635   5.475  2.7137 -1.8792 -1.3725
 8935SOL    HW238442   3.916   0.508   5.403 -1.8900  2.8421 -1.7283
 8936SOL     OW38443   0.337   2.534   6.465  0.1552 -0.7606 -0.1027
 8936SOL    HW138444   0.279   2.463   6.493  0.5801 -0.9493  0.2980
 8936SOL    HW238445   0.401   2.501   6.402  1.2310 -2.5785  1.9470
 8937SOL     OW38446   3.142   2.293  13.723 -0.3501  0.3804  0.1493
 8937SOL    HW138447   3.217   2.327  13.674  0.8546 -0.9107  1.0727
 8937SOL    HW238448   3.183   2.208  13.740  0.4968  0.9828  1.1303
 8938SOL     OW38449   1.865   3.173   8.609  0.4640  0.3726 -0.0892
 8938SOL    HW138450   1.864   3.110   8.537  0.7423  1.2484 -0.8560
 8938SOL    HW238451   1.858   3.110   8.681 -2.5421  0.0885 -0.6549
 8939SOL     OW38452   0.232   4.416  10.093  0.3050 -0.3487  0.3119
 8939SOL    HW138453   0.172   4.491  10.086  0.4471 -0.1461  1.3092
 8939SOL    HW238454   0.256   4.419  10.185  3.4153  1.3683 -0.5794
 8940SOL     OW38455   2.006   2.156   4.964  0.2529  0.0839  0.4065
 8940SOL    HW138456   1.947   2.180   5.035  0.0830 -2.4154  1.0814
 8940SOL    HW238457   2.016   2.240   4.919 -1.0515  1.3053  2.4114
 8941SOL     OW38458   0.060   3.608   9.925  0.1619  0.0816 -0.2921
 8941SOL    HW138459   4.727   3.584   9.862 -0.2953 -0.1822  0.2989
 8941SOL    HW238460   0.072   3.702   9.910  0.3189  0.4241  1.9567
 8942SOL     OW38461   3.622   3.463  16.205  0.3921 -0.2010 -0.2649
 8942SOL    HW138462   3.683   3.390  16.195  1.8114  1.0250 -0.5892
 8942SOL    HW238463   3.558   3.420  16.261 -0.1425  0.4191 -0.3904
 8943SOL     OW38464   2.751   0.702   1.064 -0.4377  0.4239  0.1081
 8943SOL    HW138465   2.757   0.647   1.142 -1.7999 -0.1740 -0.2123
 8943SOL    HW238466   2.695   0.660   0.999 -0.1514  0.3120 -0.0657
 8944SOL     OW38467   1.153   3.316   8.373  0.3011  0.1168 -0.6812
 8944SOL    HW138468   1.221   3.383   8.367  2.0723 -1.6915 -0.6085
 8944SOL    HW238469   1.177   3.248   8.437 -0.6909 -0.3158 -0.7630
 8945SOL     OW38470   2.165   0.125  15.636 -0.0552  0.1241 -0.7329
 8945SOL    HW138471   2.257   0.144  15.618 -0.2518  1.5825 -0.1935
 8945SOL    HW238472   2.148   0.084  15.551 -2.5021 -0.0676 -0.1512
 8946SOL     OW38473   0.452   0.699   2.116 -0.3507  0.2688  0.7026
 8946SOL    HW138474   0.461   0.656   2.030 -1.4027  0.0141  0.7201
 8946SOL    HW238475   0.364   0.733   2.098 -0.3109 -0.3434 -0.7044
 8947SOL     OW38476   3.934   3.317   1.679  0.2010 -0.2963 -0.1061
 8947SOL    HW138477   3.865   3.340   1.617  2.7269  3.3229 -1.5263
 8947SOL    HW238478   3.886   3.257   1.737 -0.0976 -0.2233 -0.2752
 8948SOL     OW38479   3.650   2.357   2.849  0.1400 -0.2017  0.7052
 8948SOL    HW138480   3.705   2.279   2.851 -2.4909 -2.0292  0.5205
 8948SOL    HW238481   3.688   2.408   2.777  0.0929 -0.6304  0.3797
 8949SOL     OW38482   2.744   1.612   7.570 -0.4633  0.6753 -0.3447
 8949SOL    HW138483   2.681   1.541   7.579 -0.0357  0.4168  0.5466
 8949SOL    HW238484   2.830   1.571   7.579 -1.3823 -0.5530  2.8487
 8950SOL     OW38485   0.517   1.133  13.096 -0.5618  0.4045 -0.0850
 8950SOL    HW138486   0.551   1.185  13.023 -0.9921  0.4035 -0.2819
 8950SOL    HW238487   0.592   1.120  13.155 -1.3876  1.3753  1.1660
 8951SOL     OW38488   0.726   0.147   2.193  0.6506 -0.0158  0.3958
 8951SOL    HW138489   0.752   0.106   2.275 -0.9756 -0.8591  0.5003
 8951SOL    HW238490   0.721   0.071   2.134  0.5061  1.4542 -1.5109
 8952SOL     OW38491   4.723   2.583  10.042 -1.0547 -0.5273 -0.2087
 8952SOL    HW138492   4.645   2.612   9.994  0.9802  0.4123 -2.9668
 8952SOL    HW238493   4.699   2.498  10.078 -0.0418 -1.0788 -0.8418
 8953SOL     OW38494   0.060   0.707   3.422  0.2732 -0.5622  0.6562
 8953SOL    HW138495   0.104   0.690   3.505 -1.4672 -2.5679  1.1565
 8953SOL    HW238496   0.048   0.802   3.412 -3.1882 -1.1076 -0.1087
 8954SOL     OW38497   2.792   1.173   1.890  0.1589 -0.0251 -0.2440
 8954SOL    HW138498   2.832   1.260   1.879  1.8433 -0.6319  1.0732
 8954SOL    HW238499   2.707   1.186   1.850  0.4976 -1.6379 -1.4802
 8955SOL     OW38500   3.338   0.354   7.162 -0.0979  0.4773 -0.1623
 8955SOL    HW138501   3.425   0.360   7.122  0.8659  0.1874  1.8774
 8955SOL    HW238502   3.285   0.378   7.086  0.8699  5.4888  0.7249
 8956SOL     OW38503   4.658   0.124   3.797  0.4497 -0.1063  0.2116
 8956SOL    HW138504   4.601   0.200   3.809  0.2098 -0.5206  1.6268
 8956SOL    HW238505   4.642   0.107   3.704  0.0683 -0.3099  0.3157
 8957SOL     OW38506   3.198   1.996   3.042  0.0910  0.1433 -0.6640
 8957SOL    HW138507   3.254   2.062   3.001 -0.7419  0.3132 -1.5300
 8957SOL    HW238508   3.238   1.914   3.014 -1.1531 -0.8476  0.4587
 8958SOL     OW38509   2.694   2.775   5.808 -0.1428  0.1054  0.7287
 8958SOL    HW138510   2.680   2.859   5.763 -1.3071  0.3546  1.5298
 8958SOL    HW238511   2.789   2.775   5.802 -0.0204 -0.1025  2.6454
 8959SOL     OW38512   1.594   3.326   6.987  0.4252 -0.4948 -0.8237
 8959SOL    HW138513   1.633   3.391   6.928  0.7265 -0.8313 -0.9946
 8959SOL    HW238514   1.504   3.329   6.954 -0.6690 -0.6247  2.1964
 8960SOL     OW38515   0.865   0.085   3.329  0.2409  0.0766  0.3980
 8960SOL    HW138516   0.921   0.010   3.311  1.6922  1.0329  0.8604
 8960SOL    HW238517   0.860   0.143   3.253 -3.2389  1.1939  1.4455
 8961SOL     OW38518   3.591   3.423   4.651  0.1401 -0.5123  0.1890
 8961SOL    HW138519   3.541   3.413   4.570  1.4236 -0.6794 -0.5777
 8961SOL    HW238520   3.521   3.424   4.716 -0.8380 -1.4325 -0.8454
 8962SOL     OW38521   4.308   3.714   7.114  0.9937 -0.3692 -0.1037
 8962SOL    HW138522   4.317   3.660   7.193 -1.0694 -3.3728 -1.9481
 8962SOL    HW238523   4.213   3.729   7.122  1.0014 -0.5417  0.3330
 8963SOL     OW38524   0.307   1.006   4.670  0.0611 -0.4065  0.2334
 8963SOL    HW138525   0.358   1.066   4.726  0.8406  0.0556 -0.9624
 8963SOL    HW238526   0.370   1.003   4.597 -0.0194 -0.8978  0.1859
 8964SOL     OW38527   0.838   2.797   6.439  0.4630 -0.0056  0.1987
 8964SOL    HW138528   0.806   2.791   6.529 -1.6707  0.1797 -0.5400
 8964SOL    HW238529   0.933   2.796   6.448  0.6501  1.3595 -1.6789
 8965SOL     OW38530   2.220   0.735   1.223  0.0228  0.1763  0.6714
 8965SOL    HW138531   2.307   0.725   1.184  0.3835  1.6699  1.0817
 8965SOL    HW238532   2.171   0.703   1.147 -0.9269  3.9007 -0.2703
 8966SOL     OW38533   2.128   1.325   3.071  0.1500  0.1643 -0.0239
 8966SOL    HW138534   2.204   1.344   3.125  0.5619  2.2070 -1.3043
 8966SOL    HW238535   2.067   1.289   3.135  2.1884 -0.8590  1.3502
 8967SOL     OW38536   2.668   3.503  16.563 -0.2843 -0.1634  0.3321
 8967SOL    HW138537   2.742   3.493  16.504 -0.3666  0.2015  0.1642
 8967SOL    HW238538   2.697   3.569  16.627 -1.2165  1.4386 -0.8778
 8968SOL     OW38539   1.862   3.888   2.668  0.3314  0.1446  0.2785
 8968SOL    HW138540   1.802   3.835   2.615  1.4413  0.2123 -1.0298
 8968SOL    HW238541   1.870   3.974   2.626 -1.3072  0.4631  0.6074
 8969SOL     OW38542   3.083   1.539   2.494  0.2180 -0.2665  0.2985
 8969SOL    HW138543   3.133   1.620   2.511  0.9419 -0.6673  0.0893
 8969SOL    HW238544   3.019   1.552   2.564 -0.2090 -0.9836  0.0371
 8970SOL     OW38545   4.034   2.296   8.166  0.1281  0.0300  0.2450
 8970SOL    HW138546   4.020   2.282   8.073 -0.2327 -0.1910  0.3298
 8970SOL    HW238547   4.060   2.388   8.158  4.4124 -1.2712 -0.8083
 8971SOL     OW38548   3.120   3.456   3.447 -0.8022 -0.5883 -0.1800
 8971SOL    HW138549   3.187   3.519   3.419 -0.9857 -1.7951 -3.2754
 8971SOL    HW238550   3.094   3.417   3.364  0.7901 -2.3004  0.1300
 8972SOL     OW38551   1.103   2.720   2.581 -0.2150  0.2738  0.2059
 8972SOL    HW138552   1.038   2.747   2.646 -0.8700 -2.5693  0.7423
 8972SOL    HW238553   1.175   2.716   2.644  0.5726  1.1788 -0.6428
 8973SOL     OW38554   2.812   3.535   5.277  0.3606 -1.0139  0.2923
 8973SOL    HW138555   2.815   3.592   5.200  0.8291 -2.5926 -0.8514
 8973SOL    HW238556   2.727   3.492   5.261  0.4554 -1.7906  1.8654
 8974SOL     OW38557   0.182   3.499  13.257  0.4144  0.5380 -0.0428
 8974SOL    HW138558   0.127   3.567  13.218 -2.1635 -1.1703  0.6499
 8974SOL    HW238559   0.159   3.524  13.346  0.2745  0.7014 -0.1248
 8975SOL     OW38560   0.153   2.973   1.620  0.7281  0.5259 -0.1157
 8975SOL    HW138561   0.101   3.050   1.597 -0.7033  0.1403  1.8599
 8975SOL    HW238562   0.189   3.005   1.702 -1.3822  1.3380  0.4972
 8976SOL     OW38563   2.964   2.412   3.620 -0.3482  0.1851 -0.1374
 8976SOL    HW138564   3.009   2.455   3.548 -0.1372 -0.5857 -0.4692
 8976SOL    HW238565   3.020   2.334   3.613 -0.6780 -0.0231 -0.4447
 8977SOL     OW38566   4.354   1.503   7.272  0.3494  0.0322 -0.2886
 8977SOL    HW138567   4.430   1.453   7.301  0.7408  1.8797  1.8242
 8977SOL    HW238568   4.291   1.432   7.284 -0.6967  0.7664 -1.4106
 8978SOL     OW38569   0.249   2.060   6.506  0.7273  0.0009  0.3945
 8978SOL    HW138570   0.210   1.979   6.475 -1.7287  0.8090  1.4173
 8978SOL    HW238571   0.299   2.037   6.584  1.4460  2.4941  0.6812
 8979SOL     OW38572   3.514   3.214  13.598 -0.0282  0.1321  0.3365
 8979SOL    HW138573   3.575   3.251  13.661  0.5441  0.8248 -0.6283
 8979SOL    HW238574   3.568   3.145  13.559  0.8940  0.1559  1.5688
 8980SOL     OW38575   3.032   0.627   1.532  0.6509 -0.0444  0.0071
 8980SOL    HW138576   2.984   0.685   1.472 -1.1787 -1.7209 -0.1569
 8980SOL    HW238577   3.102   0.584   1.483  0.0044 -0.6888 -0.3577
 8981SOL     OW38578   3.636   4.631   3.653  0.3822 -0.6663 -0.1406
 8981SOL    HW138579   3.632   4.552   3.707  0.9053  1.2853  2.7384
 8981SOL    HW238580   3.731   4.644   3.648  0.1535  1.2498  0.7216
 8982SOL     OW38581   0.362   2.881   4.278 -0.0584 -0.0737 -0.3737
 8982SOL    HW138582   0.361   2.794   4.317 -0.6279 -0.2020 -0.6743
 8982SOL    HW238583   0.454   2.904   4.289  0.2664  0.1884 -3.6275
 8983SOL     OW38584   2.122   3.334  15.980  0.0535  0.3999 -0.4269
 8983SOL    HW138585   2.081   3.300  16.060 -0.9790 -0.9360 -1.5036
 8983SOL    HW238586   2.197   3.275  15.985 -0.8398 -0.6051  1.2674
 8984SOL     OW38587   3.547   4.018   6.947 -0.1662  0.1692 -0.1365
 8984SOL    HW138588   3.527   4.065   6.866 -1.1778  2.2793  1.3411
 8984SOL    HW238589   3.641   4.035   6.955 -0.0988  0.5952 -1.8775
 8985SOL     OW38590   3.148   0.755  12.136 -0.2594 -0.4751 -0.3394
 8985SOL    HW138591   3.090   0.691  12.095  0.0943  0.6094 -2.5207
 8985SOL    HW238592   3.105   0.774  12.220  0.8533  2.2897 -0.3858
 8986SOL     OW38593   0.317   1.089   8.326 -0.0583 -0.2460  0.4585
 8986SOL    HW138594   0.349   1.068   8.238  0.2492  0.9750  0.2822
 8986SOL    HW238595   0.294   1.181   8.316 -3.1784 -0.7632  2.9451
 8987SOL     OW38596   2.940   3.834   6.843 -0.4978 -0.4157 -0.1812
 8987SOL    HW138597   2.961   3.742   6.860 -1.1980 -0.6827 -0.7464
 8987SOL    HW238598   2.966   3.841   6.751  1.2571  0.9488  0.4215
 8988SOL     OW38599   3.691   3.115   5.801 -0.2137 -0.3907 -0.2859
 8988SOL    HW138600   3.631   3.155   5.739  0.3260  0.0105 -0.5487
 8988SOL    HW238601   3.636   3.049   5.842 -2.0826  1.0872 -0.4532
 8989SOL     OW38602   3.138   2.761   5.503 -0.1322  0.4361  0.5777
 8989SOL    HW138603   3.208   2.710   5.544  1.0674  1.2451 -0.4619
 8989SOL    HW238604   3.071   2.731   5.565 -0.4461 -3.7716 -1.8290
 8990SOL     OW38605   4.673   3.282  11.589 -0.0284 -0.5251 -0.1279
 8990SOL    HW138606   4.640   3.224  11.520  0.2357 -3.1036  1.9213
 8990SOL    HW238607   4.665   3.215  11.657  1.9971 -1.1064 -0.4770
 8991SOL     OW38608   0.948   4.229  15.857 -0.6782  0.3162 -0.9135
 8991SOL    HW138609   0.909   4.199  15.775 -1.1683 -2.2732  0.2782
 8991SOL    HW238610   0.908   4.316  15.861 -0.9053  0.1079  1.2429
 8992SOL     OW38611   2.368   2.027  13.857 -0.4625 -0.5250 -0.5843
 8992SOL    HW138612   2.274   2.014  13.867 -0.8389  1.8377 -1.1179
 8992SOL    HW238613   2.401   2.044  13.945 -1.3644 -1.8993  0.0163
 8993SOL     OW38614   4.053   2.386   2.775  0.4599  0.2648 -0.5279
 8993SOL    HW138615   4.086   2.473   2.797  1.4573 -0.3891  0.5873
 8993SOL    HW238616   3.980   2.406   2.717  0.0722 -0.4011 -0.2696
 8994SOL     OW38617   2.614   0.718   7.592 -0.6278  0.1088  0.4023
 8994SOL    HW138618   2.689   0.695   7.647  0.1287  1.4612 -0.0767
 8994SOL    HW238619   2.603   0.636   7.544 -3.7131  1.0871 -0.5675
 8995SOL     OW38620   2.016   3.484   2.708 -0.2010 -1.1438  0.1834
 8995SOL    HW138621   2.078   3.444   2.648 -0.7650 -1.3312 -0.2766
 8995SOL    HW238622   2.015   3.575   2.677  0.3910 -0.8365  1.0913
 8996SOL     OW38623   2.585   0.883   6.930  0.0054  0.2294 -0.0991
 8996SOL    HW138624   2.582   0.845   7.018 -0.9341  1.0720  0.2359
 8996SOL    HW238625   2.494   0.914   6.925  0.2307  0.5694 -2.0246
 8997SOL     OW38626   3.532   2.137   4.742 -0.2838  0.4616  0.0708
 8997SOL    HW138627   3.579   2.122   4.824  2.4165  0.9902 -1.3776
 8997SOL    HW238628   3.513   2.231   4.732  0.1527  0.8170  2.5907
 8998SOL     OW38629   1.397   0.125   9.706  0.0926  0.0948  0.2534
 8998SOL    HW138630   1.479   0.078   9.715  0.1980 -0.1699 -2.2610
 8998SOL    HW238631   1.373   0.148   9.796  0.4408 -1.8246  0.8128
 8999SOL     OW38632   1.978   3.085   7.316  0.7197  0.4128  0.6349
 8999SOL    HW138633   1.889   3.050   7.325  0.1456  1.3061 -1.4375
 8999SOL    HW238634   2.029   3.005   7.309  0.3927  0.2772 -0.1763
 9000SOL     OW38635   3.575   0.253   3.706  0.0839  0.0212  0.1341
 9000SOL    HW138636   3.653   0.198   3.714  0.9555  1.2254 -0.1654
 9000SOL    HW238637   3.513   0.208   3.763 -0.8850 -0.5161 -1.3529
 9001SOL     OW38638   2.459   4.513   3.938 -0.1044  0.4705 -0.5223
 9001SOL    HW138639   2.456   4.583   3.873 -1.4313 -0.3337 -1.3339
 9001SOL    HW238640   2.553   4.520   3.956  0.1721  0.9891 -2.2256
 9002SOL     OW38641   0.790   0.451  10.065 -0.3764 -0.1902  0.1317
 9002SOL    HW138642   0.846   0.497  10.002 -0.2325 -0.9787 -0.3103
 9002SOL    HW238643   0.706   0.471  10.024  0.5586 -1.1077 -2.2302
 9003SOL     OW38644   0.509   0.449   8.772  0.3037 -0.1132 -0.5726
 9003SOL    HW138645   0.499   0.408   8.686  1.2469 -1.3055 -0.1187
 9003SOL    HW238646   0.419   0.444   8.806  0.3293  2.2353 -0.1855
 9004SOL     OW38647   1.442   0.617  12.261 -0.1778 -0.4460  0.4928
 9004SOL    HW138648   1.434   0.585  12.171  0.4096  0.2841  0.1822
 9004SOL    HW238649   1.376   0.685  12.263  1.8808  1.5018  1.6857
 9005SOL     OW38650   1.601   0.277  10.402 -0.3287 -0.0608  0.2057
 9005SOL    HW138651   1.565   0.254  10.487 -0.4745  1.7262  0.6191
 9005SOL    HW238652   1.647   0.357  10.426  0.3507 -0.7221  1.1075
 9006SOL     OW38653   2.835   2.747   2.527 -0.1899  0.8396  0.5784
 9006SOL    HW138654   2.922   2.752   2.488  0.7959 -4.0281  2.2661
 9006SOL    HW238655   2.811   2.840   2.534  1.2792  1.2333  0.4053
 9007SOL     OW38656   3.224   3.878   0.092 -0.3140  0.0128  0.6744
 9007SOL    HW138657   3.295   3.942   0.094  1.3257 -1.8367  0.0838
 9007SOL    HW238658   3.148   3.937   0.094 -1.1131 -1.0370  1.3654
 9008SOL     OW38659   3.893   3.977  11.652 -0.7493 -0.0352  0.1577
 9008SOL    HW138660   3.815   4.032  11.655 -0.2137  0.9065 -2.5582
 9008SOL    HW238661   3.872   3.929  11.571 -1.9636 -0.4017  0.6956
 9009SOL     OW38662   3.203   3.669   9.528  0.2872  0.3375  0.1421
 9009SOL    HW138663   3.139   3.719   9.477 -0.0499  0.0533  0.2861
 9009SOL    HW238664   3.259   3.631   9.460 -1.2133  0.8275 -1.3472
 9010SOL     OW38665   2.911   2.926   4.159 -0.2011  0.0130  0.0706
 9010SOL    HW138666   2.915   2.839   4.197 -0.5886  0.5329  1.3047
 9010SOL    HW238667   2.894   2.988   4.230 -0.6171 -0.3064  0.2443
 9011SOL     OW38668   1.657   4.137  12.712  0.3862  0.5084  0.7520
 9011SOL    HW138669   1.683   4.164  12.800  2.2029 -1.0463  0.6932
 9011SOL    HW238670   1.724   4.069  12.703 -1.4771 -0.7876 -2.9791
 9012SOL     OW38671   1.070   4.629  16.437  0.0333 -0.1126  0.9585
 9012SOL    HW138672   1.108   4.647  16.351  1.9927 -0.6796  1.6990
 9012SOL    HW238673   1.125   4.686  16.490 -1.5669  0.8638  1.5401
 9013SOL     OW38674   1.140   3.227   7.539  0.4719 -0.3590 -0.1164
 9013SOL    HW138675   1.160   3.135   7.520 -1.1899 -1.1691  2.0901
 9013SOL    HW238676   1.202   3.283   7.492 -0.3066 -0.0521 -0.7686
 9014SOL     OW38677   1.782   2.307   1.511  0.1391 -0.2303  0.0374
 9014SOL    HW138678   1.836   2.292   1.588  1.2519  0.7026 -0.5538
 9014SOL    HW238679   1.823   2.267   1.434 -2.2896 -0.5940 -1.0587
 9015SOL     OW38680   2.300   1.035   1.927 -0.5030 -0.4673  0.1982
 9015SOL    HW138681   2.318   1.006   2.017 -0.9583  0.0807  0.4652
 9015SOL    HW238682   2.360   0.984   1.872  0.6352  0.5122  0.5237
 9016SOL     OW38683   1.959   1.715   5.647  0.3119 -0.1367 -0.2250
 9016SOL    HW138684   2.051   1.700   5.669  0.5587  0.7539 -0.6422
 9016SOL    HW238685   1.918   1.668   5.719 -0.2054 -0.5188 -0.7725
 9017SOL     OW38686   4.509   4.419   4.632  0.2622  0.1700 -0.1610
 9017SOL    HW138687   4.499   4.468   4.551 -0.3224 -2.2349 -1.5150
 9017SOL    HW238688   4.596   4.380   4.625  0.3722  0.3979 -0.0781
 9018SOL     OW38689   1.470   1.026   7.690 -0.5605 -0.5404 -0.4625
 9018SOL    HW138690   1.450   0.932   7.690 -0.1404 -0.6383  1.8868
 9018SOL    HW238691   1.523   1.022   7.611 -1.4847 -0.9692 -1.0565
 9019SOL     OW38692   3.417   1.041   8.023  0.2111  0.2620  0.0310
 9019SOL    HW138693   3.480   1.093   8.073  1.0806 -1.2319  0.4690
 9019SOL    HW238694   3.344   1.089   7.983 -1.7864 -1.5707  1.4677
 9020SOL     OW38695   2.700   2.523   6.804  0.1728 -0.2140  0.4398
 9020SOL    HW138696   2.646   2.601   6.791 -1.1323 -0.9567  1.4072
 9020SOL    HW238697   2.744   2.538   6.721  0.8561 -2.9813  0.3036
 9021SOL     OW38698   3.175   4.239   3.423 -0.5293  0.1850  0.0498
 9021SOL    HW138699   3.130   4.316   3.456  1.5443 -0.0650  3.4745
 9021SOL    HW238700   3.240   4.276   3.362 -1.8658  1.5851 -0.5256
 9022SOL     OW38701   0.374   2.143   4.836  0.0292 -0.2253  0.0509
 9022SOL    HW138702   0.418   2.206   4.778  1.6873 -0.4665  1.0346
 9022SOL    HW238703   0.436   2.070   4.832 -0.4070 -0.4995 -1.8963
 9023SOL     OW38704   4.550   4.526   5.339  0.0383 -0.7839  0.6422
 9023SOL    HW138705   4.626   4.476   5.310 -1.9166 -1.9360 -2.4580
 9023SOL    HW238706   4.590   4.595   5.391  1.3577 -1.2657  0.2480
 9024SOL     OW38707   1.386   3.775  13.881 -0.0838 -0.1045  0.2712
 9024SOL    HW138708   1.371   3.785  13.975 -1.3684  0.5971 -0.0093
 9024SOL    HW238709   1.448   3.703  13.870  0.8312  0.6184  0.6767
 9025SOL     OW38710   3.056   4.557   4.848  0.0757 -0.0558 -0.2992
 9025SOL    HW138711   2.976   4.521   4.886  1.2307 -0.7929  1.4493
 9025SOL    HW238712   3.080   4.483   4.793  0.2540 -0.6072  0.5166
 9026SOL     OW38713   0.919   0.861   5.938 -0.0826 -0.9374  0.5973
 9026SOL    HW138714   0.900   0.767   5.929 -0.3987 -0.8969  0.8400
 9026SOL    HW238715   1.014   0.861   5.926 -0.5220 -2.2929 -2.9911
 9027SOL     OW38716   2.802   3.734   3.504 -0.2838 -0.2706  0.3607
 9027SOL    HW138717   2.713   3.763   3.521 -0.3673  0.3721 -1.1337
 9027SOL    HW238718   2.852   3.790   3.563 -1.0759  0.7856  0.0338
 9028SOL     OW38719   2.239   4.240  14.683  0.1788 -0.1182 -0.0382
 9028SOL    HW138720   2.280   4.160  14.714  0.3279 -0.5995 -1.4804
 9028SOL    HW238721   2.171   4.205  14.625 -1.3240 -1.0104  2.2500
 9029SOL     OW38722   2.683   4.465   3.344  0.7328 -0.6288 -0.8213
 9029SOL    HW138723   2.753   4.522   3.313  0.9255 -0.0178  0.7144
 9029SOL    HW238724   2.611   4.501   3.291 -1.6000  1.0637  3.4804
 9030SOL     OW38725   4.293   4.310   7.965 -0.3112  0.5961 -0.1145
 9030SOL    HW138726   4.304   4.239   7.901  0.5103 -0.2143  0.9402
 9030SOL    HW238727   4.299   4.388   7.910  0.4340 -0.3629 -1.3880
 9031SOL     OW38728   0.002   0.443  15.474  0.1955  0.3642  0.4375
 9031SOL    HW138729   4.665   0.504  15.483  0.2900  0.2378  2.0102
 9031SOL    HW238730   4.705   0.357  15.503 -2.7939  1.3061 -0.1151
 9032SOL     OW38731   2.624   1.445   4.230  0.2298  0.2110  0.1064
 9032SOL    HW138732   2.672   1.468   4.150  0.7604 -1.0311  0.0759
 9032SOL    HW238733   2.668   1.505   4.290  1.6778  0.2255 -0.9614
 9033SOL     OW38734   4.205   1.195  17.007 -0.3837  0.4492  0.4595
 9033SOL    HW138735   4.252   1.157  17.081  1.4841  1.8677 -0.0163
 9033SOL    HW238736   4.229   1.288  17.010  2.0695 -0.1736 -0.1050
 9034SOL     OW38737   0.456   4.176   9.054  0.3490  0.0026  0.4573
 9034SOL    HW138738   0.387   4.200   9.116 -1.2310  0.1816 -1.3703
 9034SOL    HW238739   0.518   4.247   9.072  0.6998 -0.5367  1.3766
 9035SOL     OW38740   2.968   0.424   6.675 -0.1869 -0.1716 -0.3349
 9035SOL    HW138741   2.895   0.390   6.727 -0.3287  2.0123  0.9180
 9035SOL    HW238742   2.934   0.404   6.588 -1.7579 -0.2113  0.2755
 9036SOL     OW38743   4.622   2.190   9.890 -0.4731 -0.4165 -0.0460
 9036SOL    HW138744   4.699   2.137   9.906 -0.5366 -0.6377 -0.4733
 9036SOL    HW238745   4.565   2.123   9.853 -1.6593  0.4674  0.1451
 9037SOL     OW38746   2.523   3.853  16.874 -0.0533  0.9218 -0.3008
 9037SOL    HW138747   2.578   3.836  16.951 -1.7891 -0.3994  0.6520
 9037SOL    HW238748   2.542   3.776  16.821 -1.0557 -0.9583  2.0562
 9038SOL     OW38749   1.868   4.434   7.028 -0.0220 -0.0017  0.7992
 9038SOL    HW138750   1.878   4.528   7.010 -1.5199  0.0058  0.0044
 9038SOL    HW238751   1.891   4.391   6.946 -0.3048  1.0690  0.1552
 9039SOL     OW38752   4.128   1.071   8.674  0.1875 -0.1557 -0.4452
 9039SOL    HW138753   4.218   1.072   8.706 -0.4336 -0.9876  1.2994
 9039SOL    HW238754   4.083   1.050   8.755  0.3800  1.6139  0.1097
 9040SOL     OW38755   3.934   3.799   3.659  0.2031  0.3464  0.2228
 9040SOL    HW138756   3.977   3.879   3.632  1.7320 -0.4288  0.3868
 9040SOL    HW238757   3.992   3.731   3.625  0.4568  0.3393  0.6657
 9041SOL     OW38758   1.487   0.049   1.350 -0.1650 -0.3074 -0.4135
 9041SOL    HW138759   1.574   0.019   1.377 -1.1581  0.0542  3.1913
 9041SOL    HW238760   1.503   0.117   1.285 -1.4364  0.9429  0.6090
 9042SOL     OW38761   0.305   3.358   1.420 -0.2694  0.5323 -0.7008
 9042SOL    HW138762   0.261   3.300   1.358  0.8530 -0.3971 -0.6312
 9042SOL    HW238763   0.227   3.408   1.445 -0.6860 -0.2652 -0.4042
 9043SOL     OW38764   3.360   3.758   3.592  0.1157 -0.1049  0.0828
 9043SOL    HW138765   3.427   3.774   3.659  1.4490  0.4003 -1.3704
 9043SOL    HW238766   3.299   3.828   3.613 -0.8118 -0.9281  0.1351
 9044SOL     OW38767   2.908   3.191   2.435 -0.1338 -0.3230  0.4968
 9044SOL    HW138768   2.848   3.221   2.366  0.3531 -0.5801 -0.0344
 9044SOL    HW238769   2.972   3.261   2.443 -0.6877  0.3550 -1.0385
 9045SOL     OW38770   4.171   3.373   3.063  0.6072 -0.4645  0.1020
 9045SOL    HW138771   4.217   3.370   2.979 -0.0949  2.6791 -0.3973
 9045SOL    HW238772   4.245   3.397   3.120  1.7955 -2.8172 -0.4548
 9046SOL     OW38773   1.754   1.031   1.761 -0.1079 -0.3100 -0.4804
 9046SOL    HW138774   1.750   1.127   1.757  0.6889 -0.3224 -1.7421
 9046SOL    HW238775   1.844   1.035   1.795  0.0271 -0.6723 -0.8031
 9047SOL     OW38776   0.444   0.498   4.079 -0.2342 -0.2769 -0.0308
 9047SOL    HW138777   0.422   0.405   4.091  0.3538 -0.0587  2.6903
 9047SOL    HW238778   0.491   0.503   3.996  0.4121 -1.4136  0.2595
 9048SOL     OW38779   4.091   1.941  10.731  0.2062 -0.1332  0.5716
 9048SOL    HW138780   4.060   1.928  10.821 -0.6515 -0.0396  0.2852
 9048SOL    HW238781   4.030   1.882  10.688  0.7766 -0.1805 -0.1839
 9049SOL     OW38782   4.617   4.556   8.823 -0.6111 -0.9925  0.0443
 9049SOL    HW138783   4.606   4.651   8.822  0.6237 -0.8546 -1.5790
 9049SOL    HW238784   4.559   4.525   8.754  0.1726  0.5240 -1.2931
 9050SOL     OW38785   0.577   2.759  15.118 -0.9212  0.9633 -0.6750
 9050SOL    HW138786   0.644   2.691  15.118 -1.4181  0.4625 -1.7364
 9050SOL    HW238787   0.590   2.794  15.206 -0.5084  0.1972 -0.4329
 9051SOL     OW38788   0.619   2.554   8.197 -0.1405 -0.4078 -0.3617
 9051SOL    HW138789   0.607   2.607   8.119  0.0613 -0.5643 -0.4995
 9051SOL    HW238790   0.575   2.599   8.269 -1.2694  3.3386 -3.3981
 9052SOL     OW38791   3.132   2.566   7.501 -0.1578 -0.0970 -0.0219
 9052SOL    HW138792   3.066   2.630   7.473 -0.1237  0.2207  0.6177
 9052SOL    HW238793   3.202   2.625   7.529  1.0515 -1.2472 -0.6968
 9053SOL     OW38794   4.341   2.952  17.007  0.2421  0.2931 -0.4765
 9053SOL    HW138795   4.267   2.986  16.955  0.3767  0.4426 -0.5710
 9053SOL    HW238796   4.409   2.964  16.941  1.6263 -2.7607  0.4211
 9054SOL     OW38797   2.963   3.999  14.725 -0.7469 -0.4815 -0.4719
 9054SOL    HW138798   3.019   4.002  14.647  1.2540 -1.4948  0.9115
 9054SOL    HW238799   2.884   3.963  14.686 -1.6956  0.2569  0.7661
 9055SOL     OW38800   3.688   2.713   2.486  0.2459  0.1668 -0.1002
 9055SOL    HW138801   3.780   2.711   2.510  0.2387  0.9311  0.0082
 9055SOL    HW238802   3.671   2.625   2.452  0.1631 -0.3148  1.1903
 9056SOL     OW38803   1.722   0.069  12.969  0.6666  0.7550  0.2539
 9056SOL    HW138804   1.785   0.001  12.992  0.2772  0.4917  0.5466
 9056SOL    HW238805   1.684   0.083  13.056  0.4008 -0.5748  0.3482
 9057SOL     OW38806   1.620   0.559   0.376 -0.6670 -0.0582 -0.4450
 9057SOL    HW138807   1.543   0.582   0.428 -0.7506 -1.0701 -0.1326
 9057SOL    HW238808   1.688   0.600   0.429 -0.7521  0.0178 -0.3940
 9058SOL     OW38809   1.915   1.543   7.676 -0.0906 -0.0103 -0.2508
 9058SOL    HW138810   1.868   1.626   7.679 -1.5910 -1.0272  4.5090
 9058SOL    HW238811   1.883   1.501   7.756  2.1883 -0.5278  0.4021
 9059SOL     OW38812   0.749   3.531   4.576 -0.0475 -0.5528  0.1801
 9059SOL    HW138813   0.777   3.445   4.609  0.1127  0.1410  1.8259
 9059SOL    HW238814   0.798   3.529   4.493 -1.1480  0.3040 -0.4879
 9060SOL     OW38815   0.499   1.992   8.770  0.1163  0.9487  0.9743
 9060SOL    HW138816   0.450   1.922   8.812  2.1110 -0.6920  0.5265
 9060SOL    HW238817   0.488   2.057   8.840  0.4138 -0.8486  2.6758
 9061SOL     OW38818   1.734   3.248   7.648 -0.1110  0.3660 -0.6480
 9061SOL    HW138819   1.719   3.237   7.742 -1.6809  3.0498 -0.5476
 9061SOL    HW238820   1.689   3.332   7.634  0.3845  0.6599 -0.4631
 9062SOL     OW38821   1.193   1.518   4.173  0.2272 -0.2777  0.3258
 9062SOL    HW138822   1.182   1.554   4.261  0.1680  1.8069 -0.5327
 9062SOL    HW238823   1.109   1.549   4.139  0.5692  0.5139  0.2115
 9063SOL     OW38824   1.027   0.315   4.646 -0.2996 -0.3526 -0.5624
 9063SOL    HW138825   1.036   0.319   4.742 -0.8586 -0.1959 -0.5162
 9063SOL    HW238826   1.017   0.222   4.625 -1.9435 -0.2429 -0.2650
 9064SOL     OW38827   3.961   1.105  16.925  0.0966 -0.1528  0.2595
 9064SOL    HW138828   4.042   1.136  16.965  1.5017 -3.0898 -0.2938
 9064SOL    HW238829   3.977   1.127  16.833  0.5919  0.1755  0.4237
 9065SOL     OW38830   2.943   3.975   8.791  0.2345  0.3483  0.6418
 9065SOL    HW138831   2.951   3.884   8.762 -2.2019  0.3941 -0.1087
 9065SOL    HW238832   2.883   4.022   8.733 -0.9077 -0.1063  1.4711
 9066SOL     OW38833   2.689   2.569  10.307 -0.5856  0.0395  0.1990
 9066SOL    HW138834   2.746   2.507  10.354  0.0876  1.7407  1.6171
 9066SOL    HW238835   2.737   2.576  10.224 -0.8439 -0.8250 -0.0202
 9067SOL     OW38836   2.894   3.475   5.672  0.4221 -0.3899  0.2033
 9067SOL    HW138837   2.882   3.409   5.604 -1.3277 -2.5989  2.6283
 9067SOL    HW238838   2.890   3.418   5.749 -0.4576  0.4188  0.7576
 9068SOL     OW38839   2.428   1.136   1.111 -0.0969  0.8818  0.1377
 9068SOL    HW138840   2.482   1.076   1.060  1.7236  1.6117  1.2025
 9068SOL    HW238841   2.358   1.080   1.146  1.5545 -1.5386 -0.4967
 9069SOL     OW38842   0.476   0.159   2.856  0.7347 -0.5652 -0.7756
 9069SOL    HW138843   0.531   0.111   2.794  1.4615  0.1246 -0.6610
 9069SOL    HW238844   0.392   0.114   2.843  0.1153  0.5012 -0.4813
 9070SOL     OW38845   1.389   1.572   5.668  0.3212 -0.0030 -0.5706
 9070SOL    HW138846   1.395   1.555   5.574 -0.9694 -0.0266 -0.6559
 9070SOL    HW238847   1.297   1.554   5.688  0.3640  0.2757 -0.1297
 9071SOL     OW38848   1.057   0.499   7.537  0.8229 -0.2249  0.3957
 9071SOL    HW138849   1.061   0.518   7.631 -0.0208  0.9299  0.2087
 9071SOL    HW238850   1.149   0.502   7.511  0.7524 -1.3724  0.0362
 9072SOL     OW38851   0.095   3.716   9.423 -0.3829  0.1194 -0.2259
 9072SOL    HW138852   0.118   3.636   9.376 -2.6853  0.9725 -2.7630
 9072SOL    HW238853   0.133   3.696   9.509  0.6043  0.9742 -0.4556
 9073SOL     OW38854   4.544   1.171   9.583  0.2110  0.1253 -0.2580
 9073SOL    HW138855   4.551   1.143   9.675 -0.8974 -0.8365 -0.4617
 9073SOL    HW238856   4.548   1.085   9.541 -2.0119  0.2438 -0.6781
 9074SOL     OW38857   3.199   0.319  15.525  0.5161 -0.9582 -0.2516
 9074SOL    HW138858   3.285   0.277  15.530  2.0231  2.3066  1.1076
 9074SOL    HW238859   3.145   0.259  15.577 -0.6464  0.5412  0.2588
 9075SOL     OW38860   1.215   3.488   3.099 -0.0957  0.0443  0.2116
 9075SOL    HW138861   1.159   3.495   3.022  1.5825 -0.6114 -1.0918
 9075SOL    HW238862   1.280   3.548   3.062 -2.0692 -1.2540 -5.3128
 9076SOL     OW38863   4.153   1.341   7.023  0.0012 -0.0504 -0.5306
 9076SOL    HW138864   4.200   1.316   6.943  1.7646  1.0274  0.1624
 9076SOL    HW238865   4.073   1.290   7.022 -0.1865  0.2607 -1.2376
 9077SOL     OW38866   3.767   0.594   6.564 -0.1669 -0.6623  0.1064
 9077SOL    HW138867   3.801   0.640   6.641  0.5284  1.5650 -1.5537
 9077SOL    HW238868   3.678   0.568   6.588 -0.0960 -0.8664  0.1478
 9078SOL     OW38869   2.179   3.911   7.308  0.4043 -0.3610  0.5631
 9078SOL    HW138870   2.205   3.832   7.354  1.5436 -1.3520 -1.7916
 9078SOL    HW238871   2.153   3.867   7.227 -1.4101 -0.0215  0.9536
 9079SOL     OW38872   1.185   2.017   4.914  0.3208  0.6027  0.2877
 9079SOL    HW138873   1.094   2.038   4.935  0.2076 -0.9204  1.2761
 9079SOL    HW238874   1.172   1.962   4.836  0.5966  0.0042  0.6668
 9080SOL     OW38875   0.632   3.449   9.313  0.8924  0.0224 -0.4151
 9080SOL    HW138876   0.540   3.438   9.288  0.1355  1.6115  1.6270
 9080SOL    HW238877   0.652   3.356   9.303 -0.6516  0.0205 -3.5016
 9081SOL     OW38878   1.467   3.160   4.789  0.4882 -0.2531  0.0715
 9081SOL    HW138879   1.397   3.218   4.819  0.3605  0.2554 -1.2374
 9081SOL    HW238880   1.513   3.208   4.720 -1.6002  0.0753 -1.0819
 9082SOL     OW38881   1.906   0.533   0.776 -0.7079  0.6659  0.3910
 9082SOL    HW138882   1.853   0.456   0.757 -3.5820  2.3354  1.5745
 9082SOL    HW238883   1.967   0.522   0.703 -1.1611  0.1647  0.0826
 9083SOL     OW38884   1.068   4.219   5.141 -0.1329 -0.3928 -0.1502
 9083SOL    HW138885   1.134   4.150   5.149 -1.1162 -1.2115  0.9605
 9083SOL    HW238886   0.990   4.164   5.143 -1.2806  1.2613  0.5796
 9084SOL     OW38887   4.313   0.785   6.254 -0.3973 -0.2544  0.0449
 9084SOL    HW138888   4.246   0.797   6.321 -1.5753 -0.1752 -1.1501
 9084SOL    HW238889   4.396   0.770   6.300 -1.1993 -1.3679  1.1075
 9085SOL     OW38890   4.403   1.399   5.683 -0.0519 -0.3896  0.2945
 9085SOL    HW138891   4.411   1.312   5.722 -0.7939 -0.9757 -0.8519
 9085SOL    HW238892   4.490   1.438   5.691  0.2576 -0.8346 -0.9710
 9086SOL     OW38893   1.538   2.853   8.980 -0.0649 -0.1885  0.5073
 9086SOL    HW138894   1.490   2.890   8.906 -0.3173 -1.7848 -0.1253
 9086SOL    HW238895   1.545   2.920   9.048 -1.5436  1.9540 -1.4727
 9087SOL     OW38896   2.024   1.650   9.160  0.1409 -0.3501 -0.0089
 9087SOL    HW138897   2.058   1.719   9.102 -2.9526  0.8846 -0.3737
 9087SOL    HW238898   1.964   1.606   9.100 -0.4347  0.6126 -0.1503
 9088SOL     OW38899   1.408   4.183   7.474  0.1072 -0.1348 -0.1098
 9088SOL    HW138900   1.452   4.265   7.496 -1.3262  1.0958 -1.8182
 9088SOL    HW238901   1.426   4.177   7.380  1.2776  1.4434  0.0066
 9089SOL     OW38902   3.925   1.837  14.968  0.2439  0.0728 -0.0874
 9089SOL    HW138903   3.992   1.782  14.927  0.3658  0.9509 -1.0732
 9089SOL    HW238904   3.859   1.843  14.898 -1.7262 -0.3499  1.7634
 9090SOL     OW38905   2.127   4.221   8.718 -0.3995 -0.4854 -0.1736
 9090SOL    HW138906   2.144   4.165   8.794 -0.4449 -1.2570 -0.7270
 9090SOL    HW238907   2.094   4.147   8.667 -2.2156  0.4523 -0.3398
 9091SOL     OW38908   1.597   2.751   2.731  0.5162  0.3400  0.1452
 9091SOL    HW138909   1.580   2.771   2.639  0.7221 -1.2505 -0.2513
 9091SOL    HW238910   1.664   2.682   2.735  1.4889  1.2413 -0.5417
 9092SOL     OW38911   4.619   2.816   2.985  0.2796  0.0926  0.1489
 9092SOL    HW138912   4.595   2.881   2.919 -0.0949 -0.6848 -0.4694
 9092SOL    HW238913   4.532   2.802   3.020  0.5110  0.0612  0.7127
 9093SOL     OW38914   3.683   3.262  13.811  0.2944  0.3145  0.3225
 9093SOL    HW138915   3.650   3.198  13.874 -0.0729 -0.2187 -0.4013
 9093SOL    HW238916   3.763   3.219  13.781  0.5201  2.1708 -1.7760
 9094SOL     OW38917   1.347   0.852   0.175 -0.4695 -0.5283 -0.0265
 9094SOL    HW138918   1.310   0.764   0.174 -1.9396  0.0858  0.7084
 9094SOL    HW238919   1.438   0.834   0.151  1.2212  0.6202  5.3688
 9095SOL     OW38920   2.169   0.222  13.726 -0.3977 -0.2634  0.2246
 9095SOL    HW138921   2.226   0.146  13.719 -0.4196 -0.3596  1.1559
 9095SOL    HW238922   2.224   0.296  13.750 -0.1435 -0.5909  0.6321
 9096SOL     OW38923   2.464   1.084   4.478 -0.6812  0.0874  0.0667
 9096SOL    HW138924   2.431   1.128   4.399  2.6755  1.1003 -0.7641
 9096SOL    HW238925   2.558   1.103   4.479 -1.0477  1.9402 -0.6512
 9097SOL     OW38926   3.335   2.602   5.701 -0.3636  0.5248 -0.3273
 9097SOL    HW138927   3.276   2.541   5.745 -1.9722  3.7281  1.9404
 9097SOL    HW238928   3.334   2.675   5.763  2.3401  0.5421 -0.2728
 9098SOL     OW38929   4.300   0.849   7.440 -0.1517 -0.0676 -0.4409
 9098SOL    HW138930   4.301   0.910   7.366 -0.7584  1.3477  0.7081
 9098SOL    HW238931   4.247   0.777   7.406  1.0492 -1.3013  0.3192
 9099SOL     OW38932   0.254   2.843   9.050  0.0232 -0.0765  0.5189
 9099SOL    HW138933   0.172   2.829   9.004  1.2653 -0.7086 -1.4830
 9099SOL    HW238934   0.258   2.764   9.105 -0.2551  0.3639  1.1785
 9100SOL     OW38935   4.307   3.209  17.146  0.5079 -0.8011 -0.3546
 9100SOL    HW138936   4.319   3.119  17.116 -1.1529 -0.1570 -2.8593
 9100SOL    HW238937   4.398   3.239  17.136  0.0533  0.7591  0.2230
 9101SOL     OW38938   1.351   1.947   6.963  0.5460  0.0440  0.1285
 9101SOL    HW138939   1.391   1.867   6.998  2.5133  1.1823  0.4804
 9101SOL    HW238940   1.263   1.915   6.944  1.1137  0.1873 -2.7828
 9102SOL     OW38941   0.081   0.100   2.454  0.1577 -0.5387  0.1241
 9102SOL    HW138942   0.130   0.180   2.474 -0.5467  0.7298 -3.2912
 9102SOL    HW238943   0.151   0.037   2.435  0.1556 -0.5324  0.0948
 9103SOL     OW38944   2.103   1.155   4.352 -0.6036 -0.4474  0.0200
 9103SOL    HW138945   2.159   1.219   4.397  0.4896  0.5641 -2.7959
 9103SOL    HW238946   2.170   1.090   4.331 -0.3264 -0.4653  0.9541
 9104SOL     OW38947   2.627   1.113   2.588 -0.0174  0.5115  0.1370
 9104SOL    HW138948   2.664   1.189   2.634  1.6593 -0.2704  0.0756
 9104SOL    HW238949   2.695   1.048   2.603  1.1822  1.4005 -1.4733
 9105SOL     OW38950   2.832   3.190   0.234  0.0811 -0.4095 -0.3953
 9105SOL    HW138951   2.815   3.096   0.236 -0.4479 -0.3045 -0.1278
 9105SOL    HW238952   2.884   3.198   0.153  0.4802  1.2226  0.0197
 9106SOL     OW38953   2.739   3.685   7.474 -0.6989  0.0685 -0.2575
 9106SOL    HW138954   2.688   3.756   7.513 -1.7153  0.5108 -2.3742
 9106SOL    HW238955   2.685   3.612   7.504 -2.2923  1.0991 -0.5925
 9107SOL     OW38956   1.431   3.122   1.945  0.0421  0.7171 -0.0176
 9107SOL    HW138957   1.454   3.037   1.983 -0.4931  1.4433  1.9581
 9107SOL    HW238958   1.519   3.156   1.962 -0.1586  0.7242  1.0264
 9108SOL     OW38959   0.377   2.340  16.676 -0.3628  0.5605 -0.3950
 9108SOL    HW138960   0.465   2.372  16.694 -0.0451  0.2870 -1.4547
 9108SOL    HW238961   0.376   2.294  16.760 -0.4598 -0.1468 -0.7796
 9109SOL     OW38962   2.583   0.502   0.273  0.4544  0.0546 -0.1408
 9109SOL    HW138963   2.519   0.435   0.247  0.2189 -0.1602  0.9975
 9109SOL    HW238964   2.618   0.526   0.187  0.3972  1.8154  0.3313
 9110SOL     OW38965   1.702   3.341   8.351  0.3574 -0.2848 -0.1974
 9110SOL    HW138966   1.650   3.271   8.312 -0.3907 -0.2311  0.6973
 9110SOL    HW238967   1.708   3.310   8.442 -2.5565  3.3141  1.2090
 9111SOL     OW38968   1.944   4.704   1.996  0.2285  0.2054 -0.0349
 9111SOL    HW138969   1.925   0.036   2.061  1.3087  0.5617 -0.1037
 9111SOL    HW238970   2.025   4.732   1.954 -1.1438  1.9158 -1.5741
 9112SOL     OW38971   1.593   1.579   0.853  0.3743  0.4941 -0.1236
 9112SOL    HW138972   1.522   1.523   0.886  0.2722 -0.0137 -1.1932
 9112SOL    HW238973   1.602   1.557   0.761  0.1813  1.6003 -0.4110
 9113SOL     OW38974   0.586   3.037   9.033 -0.3175 -0.1314 -0.0925
 9113SOL    HW138975   0.625   3.002   8.952  1.9953  2.2509 -0.0135
 9113SOL    HW238976   0.499   3.069   9.007  1.0923  1.9352 -2.3150
 9114SOL     OW38977   2.143   0.496  11.968 -0.3314 -0.5041  0.1065
 9114SOL    HW138978   2.184   0.476  11.883 -1.8467  2.1708 -1.2860
 9114SOL    HW238979   2.152   0.409  12.006 -1.2797 -0.4957  0.3428
 9115SOL     OW38980   3.099   3.453   1.411 -0.4454 -0.0556 -0.5559
 9115SOL    HW138981   3.121   3.413   1.495 -1.4532 -1.3088 -0.8815
 9115SOL    HW238982   3.004   3.454   1.420 -0.5152  1.7871 -1.4795
 9116SOL     OW38983   1.155   3.698   2.539 -0.1906  0.2741  0.3012
 9116SOL    HW138984   1.237   3.691   2.490  0.3270  0.5585  1.1325
 9116SOL    HW238985   1.128   3.606   2.532  1.4591 -0.2997  1.6440
 9117SOL     OW38986   3.950   4.704   4.436 -1.0809  0.0556 -0.0605
 9117SOL    HW138987   3.939   4.725   4.343  1.9035 -2.1171 -0.8989
 9117SOL    HW238988   3.989   4.617   4.429  0.1596  0.6587 -0.4833
 9118SOL     OW38989   1.144   3.920   4.272  0.4632 -0.5440 -0.3586
 9118SOL    HW138990   1.165   3.832   4.302  2.7843  0.3827  0.7589
 9118SOL    HW238991   1.225   3.965   4.295 -0.0407 -0.5789  1.5137
 9119SOL     OW38992   3.049   2.443   5.400 -0.7110  0.6946 -0.4501
 9119SOL    HW138993   3.003   2.360   5.405 -2.5283  1.7083 -0.1776
 9119SOL    HW238994   2.977   2.505   5.410 -0.6301  0.2868  2.6042
 9120SOL     OW38995   0.019   3.085   2.132 -0.7038  0.0774 -0.1720
 9120SOL    HW138996   0.054   3.089   2.043  0.8684 -0.1763  0.4333
 9120SOL    HW238997   4.679   3.141   2.113  1.5431  2.7265 -1.2754
 9121SOL     OW38998   0.439   0.496   4.825 -0.1432  0.1850 -0.4636
 9121SOL    HW138999   0.378   0.448   4.769 -0.1973  0.8668 -0.9990
 9121SOL    HW239000   0.466   0.565   4.764  1.8489  0.3117  0.5635
 9122SOL     OW39001   1.460   4.393   4.122 -0.8836 -0.1623  0.0970
 9122SOL    HW139002   1.532   4.330   4.127 -1.7980 -1.1414  1.1004
 9122SOL    HW239003   1.402   4.359   4.054 -1.0874  0.4036 -0.0053
 9123SOL     OW39004   0.762   0.304   7.162  0.4137  0.4095 -0.1476
 9123SOL    HW139005   0.703   0.355   7.107 -0.4491  0.3241  0.6991
 9123SOL    HW239006   0.792   0.369   7.226  2.9708 -2.0984  1.2019
 9124SOL     OW39007   2.312   2.243   2.931 -0.2564 -0.3994 -0.1086
 9124SOL    HW139008   2.291   2.305   2.861 -0.2049 -0.9547 -0.6187
 9124SOL    HW239009   2.313   2.161   2.881 -2.6243  0.4616 -1.5485
 9125SOL     OW39010   3.880   4.053   8.509  0.1426  0.2823 -0.1838
 9125SOL    HW139011   3.808   4.116   8.497  0.2446  0.4503  0.0861
 9125SOL    HW239012   3.951   4.114   8.490  2.3441 -1.2839  3.0157
 9126SOL     OW39013   3.138   2.632   4.866 -0.1517 -0.2411 -0.2799
 9126SOL    HW139014   3.231   2.646   4.884 -0.4686 -0.2376  1.4189
 9126SOL    HW239015   3.097   2.646   4.951 -0.1953 -0.5790 -0.2423
 9127SOL     OW39016   3.060   3.350   4.028 -0.7736  0.0607 -0.0813
 9127SOL    HW139017   3.042   3.315   3.941 -1.0254 -1.2358  0.4864
 9127SOL    HW239018   3.151   3.325   4.043 -0.0938  1.1041 -2.4469
 9128SOL     OW39019   4.347   2.903   7.200 -0.5232  0.4127  0.4850
 9128SOL    HW139020   4.386   2.952   7.128 -0.0878 -0.0984  0.3814
 9128SOL    HW239021   4.423   2.900   7.257 -0.5253 -0.4043  0.4431
 9129SOL     OW39022   1.766   2.446   4.431  0.4014  0.0206 -0.5326
 9129SOL    HW139023   1.814   2.366   4.409  2.3509  0.8249  0.7135
 9129SOL    HW239024   1.741   2.473   4.342 -0.4025 -0.1737 -0.3583
 9130SOL     OW39025   2.580   3.828   7.672  0.0936  0.1265  0.8321
 9130SOL    HW139026   2.507   3.876   7.633 -0.0467 -0.0753  0.8483
 9130SOL    HW239027   2.631   3.893   7.720  1.3565 -0.8726  0.8669
 9131SOL     OW39028   2.802   2.424   5.936 -0.1128  0.3619 -0.1158
 9131SOL    HW139029   2.768   2.342   5.899 -0.2496 -0.4857  1.8948
 9131SOL    HW239030   2.818   2.469   5.853  0.1100  0.0622 -0.2342
 9132SOL     OW39031   0.937   1.701   8.936  0.1645  0.0578  0.1825
 9132SOL    HW139032   1.004   1.637   8.912  0.8182  0.8189 -0.0490
 9132SOL    HW239033   0.982   1.785   8.951 -1.8278  0.6973  2.6478
 9133SOL     OW39034   4.261   4.378   4.056 -0.2180 -0.3371 -0.0275
 9133SOL    HW139035   4.251   4.472   4.075  1.5856 -0.0829 -0.2473
 9133SOL    HW239036   4.169   4.357   4.047 -0.5404  0.4587  1.3091
 9134SOL     OW39037   3.492   1.912   3.671  0.6689  0.2732  0.2029
 9134SOL    HW139038   3.443   1.911   3.589  1.8133 -1.3641 -0.4455
 9134SOL    HW239039   3.466   1.836   3.722 -0.3293 -2.2456 -4.0387
 9135SOL     OW39040   2.181   1.522   4.034 -0.3852  0.2703  0.3643
 9135SOL    HW139041   2.175   1.519   4.129  3.3686  0.3180  0.5925
 9135SOL    HW239042   2.263   1.566   4.010 -1.2676  2.1673  0.8776
 9136SOL     OW39043   0.651   4.228   7.883  0.4139  1.0030 -0.4070
 9136SOL    HW139044   0.608   4.143   7.883  1.4596  0.4606 -2.2133
 9136SOL    HW239045   0.583   4.295   7.871 -0.2730  0.4584  0.4654
 9137SOL     OW39046   2.480   3.251   5.451  0.3544  0.0407  0.2113
 9137SOL    HW139047   2.455   3.273   5.541  1.3680 -0.6429  0.6637
 9137SOL    HW239048   2.505   3.160   5.466  0.5113  0.1108  0.3762
 9138SOL     OW39049   0.849   3.262   2.559  0.0374 -0.9670  0.3405
 9138SOL    HW139050   0.777   3.222   2.607 -0.0963 -1.0455  0.0769
 9138SOL    HW239051   0.924   3.207   2.581 -0.0729 -0.4651  1.9863
 9139SOL     OW39052   0.316   1.684   6.485  0.1421 -0.4642  0.3579
 9139SOL    HW139053   0.367   1.617   6.439 -0.1907 -1.1777  1.0285
 9139SOL    HW239054   0.367   1.691   6.566  0.7727 -0.3723 -0.0444
 9140SOL     OW39055   2.227   2.314   2.660  0.1330  0.5619  0.3473
 9140SOL    HW139056   2.243   2.237   2.606 -0.3617  0.4388  0.3688
 9140SOL    HW239057   2.303   2.370   2.642 -0.5660  1.5582  0.4689
 9141SOL     OW39058   0.623   2.902  11.588 -0.0145 -0.2109  0.2002
 9141SOL    HW139059   0.542   2.943  11.620  1.4950  2.1414  0.9608
 9141SOL    HW239060   0.586   2.856  11.513 -2.2744 -0.9698  1.7600
 9142SOL     OW39061   1.287   3.613   6.144 -0.1639 -0.9044  0.2360
 9142SOL    HW139062   1.212   3.621   6.085  0.2319 -0.5162 -0.2136
 9142SOL    HW239063   1.291   3.517   6.153  0.7175 -0.7298  1.7926
 9143SOL     OW39064   3.375   1.153  17.249 -0.1302 -0.4863 -0.0614
 9143SOL    HW139065   3.445   1.202  17.206 -0.2010  1.2473  1.7494
 9143SOL    HW239066   3.339   1.208  17.319 -1.5674 -0.4425 -0.8447
 9144SOL     OW39067   3.664   3.450   9.329  0.2662 -0.3067  0.1192
 9144SOL    HW139068   3.701   3.516   9.270  0.4003  0.6761  1.2908
 9144SOL    HW239069   3.720   3.458   9.406  0.8678  1.6223 -0.5003
 9145SOL     OW39070   2.426   4.515   3.197  0.2808 -0.4661 -0.8073
 9145SOL    HW139071   2.395   4.433   3.158  1.7741 -1.7167  0.6739
 9145SOL    HW239072   2.345   4.566   3.198  1.6480  1.6694  1.1701
 9146SOL     OW39073   2.110   2.067   8.021  0.0586 -0.1528  0.7661
 9146SOL    HW139074   2.041   2.121   7.982 -1.2494 -2.0057  0.4900
 9146SOL    HW239075   2.144   2.131   8.083  1.2666  0.6540 -0.7362
 9147SOL     OW39076   0.495   2.301  14.504 -0.0227  0.0824 -0.1476
 9147SOL    HW139077   0.461   2.350  14.429 -3.3568  1.0113  2.0261
 9147SOL    HW239078   0.529   2.220  14.467 -1.6299 -0.9692  0.6884
 9148SOL     OW39079   4.343   1.429   5.995  0.2693  0.4540  0.3306
 9148SOL    HW139080   4.287   1.392   6.062  0.8012 -1.0738 -0.0775
 9148SOL    HW239081   4.413   1.370   6.022 -0.4678 -0.9385 -0.7842
 9149SOL     OW39082   0.022   3.190   1.871  0.3086 -0.0093  0.1452
 9149SOL    HW139083   4.694   3.218   1.805 -2.1060 -2.0860  1.5779
 9149SOL    HW239084   0.047   3.278   1.897  1.6263 -0.1782 -0.5439
 9150SOL     OW39085   2.029   3.849   6.320  0.6051 -0.0691  0.0899
 9150SOL    HW139086   2.111   3.871   6.278  1.2221 -0.2458  1.1952
 9150SOL    HW239087   2.067   3.798   6.392 -1.1941  0.5603  1.4991
 9151SOL     OW39088   0.288   0.721   8.252 -0.1371 -0.5620 -0.4086
 9151SOL    HW139089   0.356   0.676   8.302  1.1333  1.0589 -0.6668
 9151SOL    HW239090   0.247   0.779   8.316  0.3220 -0.5453 -0.1275
 9152SOL     OW39091   4.441   0.708  16.145  0.2401  0.3953 -0.2497
 9152SOL    HW139092   4.506   0.672  16.085  0.5096 -2.4688  1.7254
 9152SOL    HW239093   4.365   0.671  16.101  1.3294 -0.5400 -1.3489
 9153SOL     OW39094   4.008   0.379   8.204 -1.1044 -0.0085  0.4700
 9153SOL    HW139095   3.976   0.415   8.288  0.7559  0.6111  0.9048
 9153SOL    HW239096   4.091   0.422   8.184 -1.6201 -0.0997 -1.7806
 9154SOL     OW39097   2.421   1.961  14.671  0.1627  0.3312 -0.7070
 9154SOL    HW139098   2.352   1.902  14.704  1.1104  1.3570  3.1494
 9154SOL    HW239099   2.492   1.951  14.734  0.8514 -1.7372 -1.8263
 9155SOL     OW39100   1.474   0.380   5.673 -0.4119  0.1418 -0.5433
 9155SOL    HW139101   1.525   0.356   5.750 -2.3237 -0.6983  0.4512
 9155SOL    HW239102   1.508   0.327   5.601  1.3434 -1.8849  1.7627
 9156SOL     OW39103   0.761   3.026   9.569 -0.6021  0.2787  0.3947
 9156SOL    HW139104   0.840   2.984   9.536 -0.2461  1.2507  0.0212
 9156SOL    HW239105   0.716   3.060   9.492  0.5445  2.6338  0.7585
 9157SOL     OW39106   1.500   1.834   1.611 -0.0025 -0.0030 -0.0780
 9157SOL    HW139107   1.447   1.838   1.532 -1.6995 -1.5177  1.0057
 9157SOL    HW239108   1.531   1.747   1.585  1.9926  0.2927  1.3281
 9158SOL     OW39109   3.433   2.671   3.127  0.0018  0.0396  0.5242
 9158SOL    HW139110   3.408   2.758   3.158 -0.7235 -1.2036  3.5130
 9158SOL    HW239111   3.402   2.618   3.201 -0.1630  1.8883  1.7914
 9159SOL     OW39112   3.482   0.304   7.870 -0.1490  0.0305  0.1764
 9159SOL    HW139113   3.564   0.314   7.822 -0.0496  1.4340  0.6541
 9159SOL    HW239114   3.422   0.296   7.796 -1.8237 -2.7292  1.8275
 9160SOL     OW39115   0.833   0.173  12.794  0.0400  0.3445 -0.2569
 9160SOL    HW139116   0.753   0.124  12.811 -0.4691  2.0363  2.1468
 9160SOL    HW239117   0.799   0.261  12.781 -3.0260 -0.8237 -0.1845
 9161SOL     OW39118   4.376   0.779  16.393  0.2770 -0.0079  0.1303
 9161SOL    HW139119   4.393   0.757  16.301  2.4403  0.4591  0.4167
 9161SOL    HW239120   4.329   0.701  16.421  2.0887 -1.0585  0.2722
 9162SOL     OW39121   1.691   1.899   8.912 -0.5947  0.2514 -0.1628
 9162SOL    HW139122   1.731   1.962   8.853  0.5977  0.4143  0.8138
 9162SOL    HW239123   1.703   1.949   8.993 -0.9483 -1.6097  1.0418
 9163SOL     OW39124   2.639   0.206  15.709  0.3085  0.1034 -0.1617
 9163SOL    HW139125   2.639   0.110  15.713 -1.1130  0.1206  0.0797
 9163SOL    HW239126   2.716   0.223  15.655  1.0584 -0.6854  0.6599
 9164SOL     OW39127   0.975   4.007   7.595  0.2206 -0.8484  0.8659
 9164SOL    HW139128   1.020   4.089   7.579  1.5307 -2.0276 -1.4164
 9164SOL    HW239129   0.960   4.006   7.690  3.5796  1.1400  1.4266
 9165SOL     OW39130   1.663   2.805  10.172  0.1016  0.3858 -0.4728
 9165SOL    HW139131   1.585   2.792  10.226 -0.0591 -0.4629 -0.9010
 9165SOL    HW239132   1.724   2.835  10.239  0.2503  0.6217 -0.7083
 9166SOL     OW39133   3.255   2.999   1.502 -0.4025  0.4542  0.3633
 9166SOL    HW139134   3.191   3.066   1.476  0.2359  1.2271  0.7571
 9166SOL    HW239135   3.195   2.925   1.503  0.5205 -0.3173 -1.0117
 9167SOL     OW39136   3.610   0.221   0.150 -0.6556  0.1619  0.1287
 9167SOL    HW139137   3.549   0.149   0.136 -0.5658  0.5795 -2.3142
 9167SOL    HW239138   3.686   0.188   0.102 -0.3662 -0.9471  1.3647
 9168SOL     OW39139   0.759   0.459  14.536 -0.6150  0.3029  0.1648
 9168SOL    HW139140   0.701   0.400  14.584  0.8996 -2.5793 -1.5417
 9168SOL    HW239141   0.846   0.419  14.534 -0.5448  0.3014  2.6910
 9169SOL     OW39142   2.092   4.720   9.518 -0.4199  0.2014  0.3601
 9169SOL    HW139143   2.130   4.642   9.559  1.3769  0.5176 -0.6806
 9169SOL    HW239144   2.103   0.050   9.588  1.2539  1.0894 -0.7337
 9170SOL     OW39145   2.323   3.168  15.339 -0.0879 -0.1168 -0.1484
 9170SOL    HW139146   2.410   3.203  15.359  0.6487 -1.7014 -0.5633
 9170SOL    HW239147   2.315   3.196  15.248 -1.7754  0.7164  0.2611
 9171SOL     OW39148   2.796   3.994   9.075 -0.3677  0.3419  0.1481
 9171SOL    HW139149   2.813   3.939   8.999 -0.4224 -1.9573  1.7975
 9171SOL    HW239150   2.817   3.930   9.143  1.7190  1.4910  0.5714
 9172SOL     OW39151   1.597   0.746   0.198 -0.5885 -0.0339  0.1404
 9172SOL    HW139152   1.595   0.665   0.248  0.0638 -0.0948  0.0666
 9172SOL    HW239153   1.631   0.718   0.113  2.0283 -0.7149  1.4096
 9173SOL     OW39154   1.381   1.259   7.825 -0.3145 -0.1260 -0.1560
 9173SOL    HW139155   1.289   1.250   7.849 -0.6158  1.8409 -0.5957
 9173SOL    HW239156   1.412   1.169   7.813 -1.3909  0.0684 -4.1867
 9174SOL     OW39157   1.753   2.880   4.178  0.0651  0.2928 -0.5977
 9174SOL    HW139158   1.695   2.945   4.138  0.2425  0.7361 -0.1396
 9174SOL    HW239159   1.810   2.844   4.110 -0.7692 -0.4524 -0.8987
 9175SOL     OW39160   2.268   0.076   4.689 -0.5957 -0.3226 -0.1571
 9175SOL    HW139161   2.222   0.070   4.773 -0.3131  1.0490  0.0917
 9175SOL    HW239162   2.194   0.071   4.629 -1.3475 -1.2904  0.8427
 9176SOL     OW39163   2.285   3.772   4.800  0.1411 -0.2007 -0.6079
 9176SOL    HW139164   2.262   3.751   4.890 -0.3134  1.0750 -0.4306
 9176SOL    HW239165   2.296   3.688   4.756  2.8437  0.1250 -0.5277
 9177SOL     OW39166   1.733   2.453   7.727  0.3700  0.9718  0.0268
 9177SOL    HW139167   1.764   2.479   7.640 -0.8791 -1.0756 -1.0355
 9177SOL    HW239168   1.645   2.439   7.691 -0.3185  0.1043  2.0261
 9178SOL     OW39169   2.373   0.073   5.057 -0.2083  0.5316  0.6347
 9178SOL    HW139170   2.373   0.169   5.064 -0.4633  0.6693 -1.1196
 9178SOL    HW239171   2.465   0.055   5.076 -0.2923  1.5759  1.9951
 9179SOL     OW39172   3.083   1.241   4.476 -0.0605 -0.0400 -0.1185
 9179SOL    HW139173   3.013   1.179   4.494  0.5238 -0.8807 -0.7537
 9179SOL    HW239174   3.071   1.299   4.551  0.4549 -0.1898  0.0749
 9180SOL     OW39175   3.610   2.039   6.749  0.0628  0.1340  0.0086
 9180SOL    HW139176   3.651   1.959   6.715 -0.6641  0.2246 -1.0552
 9180SOL    HW239177   3.520   2.008   6.739  0.9069 -2.3588  0.0910
 9181SOL     OW39178   2.093   3.059  15.695  0.0478 -0.0279 -0.1146
 9181SOL    HW139179   2.118   3.149  15.717 -2.5966  0.3685  1.2761
 9181SOL    HW239180   2.161   3.031  15.633  0.0161  0.1436 -0.2250
 9182SOL     OW39181   1.396   3.726   4.969  0.1359  0.0546 -0.4209
 9182SOL    HW139182   1.479   3.681   4.989 -0.4078  0.3380  2.3482
 9182SOL    HW239183   1.433   3.801   4.922  1.8440 -0.5501 -0.0541
 9183SOL     OW39184   3.188   4.464   6.286 -0.7436 -0.2896  0.0976
 9183SOL    HW139185   3.245   4.533   6.320  1.5461 -0.9515 -2.4650
 9183SOL    HW239186   3.168   4.496   6.198  1.6208  0.2849 -0.2416
 9184SOL     OW39187   3.509   4.236  11.215 -0.4479  0.3588 -0.2914
 9184SOL    HW139188   3.520   4.326  11.183 -0.3108  0.6892  0.6934
 9184SOL    HW239189   3.580   4.193  11.167  0.0174 -0.0423  0.7756
 9185SOL     OW39190   1.375   2.655   3.847 -0.4271  0.1747 -0.2950
 9185SOL    HW139191   1.290   2.699   3.848 -0.5519 -0.0761 -0.0552
 9185SOL    HW239192   1.423   2.699   3.777 -0.0874 -2.6209 -1.8187
 9186SOL     OW39193   3.578   1.660   4.605  0.2619 -0.4084  1.0946
 9186SOL    HW139194   3.661   1.649   4.557  1.1591 -0.8419  2.7534
 9186SOL    HW239195   3.518   1.691   4.537  0.2629  0.9938  1.7486
 9187SOL     OW39196   3.687   2.880   5.296  0.7724  0.2115 -0.2147
 9187SOL    HW139197   3.667   2.903   5.387  3.0647 -0.1211  0.3675
 9187SOL    HW239198   3.621   2.811   5.282  0.5398  0.9854 -2.8512
 9188SOL     OW39199   4.324   0.190   8.225 -0.4772 -0.2637  0.3488
 9188SOL    HW139200   4.350   0.282   8.226  0.1138 -0.4017 -1.3849
 9188SOL    HW239201   4.321   0.168   8.132  2.0524 -0.4489  0.3077
 9189SOL     OW39202   0.886   3.471   6.755 -0.4852 -0.5087  0.0103
 9189SOL    HW139203   0.959   3.526   6.782  0.3228 -2.0449  0.9564
 9189SOL    HW239204   0.829   3.481   6.830 -2.0828  3.4510 -1.7394
 9190SOL     OW39205   2.743   0.098   7.445  0.2475  0.7519  0.1262
 9190SOL    HW139206   2.755   0.171   7.384 -1.5660 -0.2890 -1.4668
 9190SOL    HW239207   2.665   0.122   7.494 -1.3346 -2.2364 -0.9503
 9191SOL     OW39208   0.181   0.765   6.236  0.4130  0.4141  0.3807
 9191SOL    HW139209   0.156   0.787   6.326  0.0307  1.3392  0.0367
 9191SOL    HW239210   0.277   0.762   6.235  0.3771 -0.4057 -0.3342
 9192SOL     OW39211   0.667   3.631   1.358 -0.9196 -0.1359  0.1003
 9192SOL    HW139212   0.720   3.557   1.388 -0.4658  0.0498 -0.2377
 9192SOL    HW239213   0.637   3.613   1.269 -0.7806 -1.9883  0.4414
 9193SOL     OW39214   0.194   3.812   6.367 -0.6054  0.4123 -0.2837
 9193SOL    HW139215   0.224   3.875   6.301 -2.1110  1.2333 -0.1992
 9193SOL    HW239216   0.100   3.808   6.349 -0.8397 -0.6521  1.1370
 9194SOL     OW39217   3.421   0.060   7.057  0.2016 -0.2257  0.1974
 9194SOL    HW139218   3.486   0.015   7.003  0.7496  1.8798 -0.9209
 9194SOL    HW239219   3.440   0.149   7.025 -0.1646 -0.6255 -1.1350
 9195SOL     OW39220   1.463   2.759   7.231 -0.0611  0.1970  0.1907
 9195SOL    HW139221   1.467   2.830   7.295 -1.7364  2.0107 -1.6752
 9195SOL    HW239222   1.506   2.692   7.283 -0.9903 -0.6467 -0.1244
 9196SOL     OW39223   4.556   0.170   8.536 -0.3840  0.0034  0.4873
 9196SOL    HW139224   4.568   0.131   8.622  0.3748 -1.8246 -0.4493
 9196SOL    HW239225   4.555   0.097   8.473  0.3223 -0.3522  0.8934
 9197SOL     OW39226   2.223   0.001  11.167  0.1910 -0.5831  0.4301
 9197SOL    HW139227   2.176   0.059  11.226 -0.9506 -0.8008 -0.2702
 9197SOL    HW239228   2.172   4.656  11.160  0.6741 -0.8667  0.1113
 9198SOL     OW39229   1.982   1.742   2.327 -0.3965  0.0488 -0.2312
 9198SOL    HW139230   1.999   1.834   2.347  0.5787 -0.4919  1.4121
 9198SOL    HW239231   2.003   1.709   2.415 -4.0006 -0.2000  0.5585
 9199SOL     OW39232   3.171   3.251   4.960 -0.1053  0.6930 -0.5451
 9199SOL    HW139233   3.107   3.322   4.967  1.7540  2.2570  0.7364
 9199SOL    HW239234   3.162   3.223   5.051  2.3634 -2.2795 -1.2095
 9200SOL     OW39235   1.667   0.245   1.222 -0.5972 -0.5089 -0.1027
 9200SOL    HW139236   1.698   0.289   1.143 -2.5118  0.5107 -0.3071
 9200SOL    HW239237   1.641   0.319   1.276 -1.6975  1.3244 -3.1198
 9201SOL     OW39238   2.039   0.553   0.542 -0.1751 -0.2461 -0.1646
 9201SOL    HW139239   2.022   0.589   0.455  0.7301 -0.5975 -0.4851
 9201SOL    HW239240   2.117   0.506   0.515  0.9788  1.6084 -0.0517
 9202SOL     OW39241   0.604   3.183   4.259 -0.0875  0.0227 -0.3211
 9202SOL    HW139242   0.572   3.223   4.340  3.2312  0.1392  0.9314
 9202SOL    HW239243   0.700   3.187   4.261 -0.1139  0.9227 -1.0074
 9203SOL     OW39244   0.270   0.946  10.955 -0.1508 -0.3771 -0.8196
 9203SOL    HW139245   0.350   0.997  10.944 -0.1258  0.0788  1.4413
 9203SOL    HW239246   0.238   0.985  11.037  1.8736  0.8609 -0.5986
 9204SOL     OW39247   3.115   4.158   5.266 -0.1064  0.1564  0.7968
 9204SOL    HW139248   3.058   4.081   5.267  1.5562 -1.0597  2.1291
 9204SOL    HW239249   3.117   4.173   5.361  0.7326 -0.4538  0.8803
 9205SOL     OW39250   2.736   2.130   6.645 -0.2642  0.0179 -0.3518
 9205SOL    HW139251   2.800   2.061   6.626 -2.9049 -2.4402 -0.3715
 9205SOL    HW239252   2.789   2.192   6.696  0.9859 -0.2346 -1.3373
 9206SOL     OW39253   2.060   2.140  14.623 -0.7210  0.5945 -0.3208
 9206SOL    HW139254   2.031   2.075  14.687  1.4220  0.6166  0.6814
 9206SOL    HW239255   1.983   2.146  14.566 -2.1730 -1.2273  1.4563
 9207SOL     OW39256   0.603   1.868   7.432  0.2648 -0.0024 -0.0360
 9207SOL    HW139257   0.543   1.857   7.358 -0.6234  1.5242  0.4603
 9207SOL    HW239258   0.572   1.800   7.491  0.8525 -0.4876 -0.2881
 9208SOL     OW39259   3.040   0.956   1.620 -0.2355  0.7351 -0.6022
 9208SOL    HW139260   3.082   1.010   1.554 -2.3470 -0.0488 -2.5999
 9208SOL    HW239261   3.106   0.896   1.655  0.9366  2.2064 -0.2914
 9209SOL     OW39262   1.912   4.440   1.871 -0.0164 -0.0556 -0.1252
 9209SOL    HW139263   1.997   4.424   1.831  0.3370 -0.0267  0.6226
 9209SOL    HW239264   1.921   4.529   1.906 -0.0208  0.0865 -0.4868
 9210SOL     OW39265   3.256   1.623  16.579 -0.0801 -0.8719  0.1864
 9210SOL    HW139266   3.344   1.651  16.553 -1.8619  2.1675 -2.5368
 9210SOL    HW239267   3.191   1.686  16.548 -1.1024 -1.3035  1.4783
 9211SOL     OW39268   2.981   4.619   0.650  0.2741  0.1056 -0.1271
 9211SOL    HW139269   2.913   4.567   0.692 -0.4022  1.5488  0.5543
 9211SOL    HW239270   3.044   4.554   0.619  0.8751  0.0111  1.2732
 9212SOL     OW39271   0.066   0.345   0.640  0.9007  0.3182 -0.8384
 9212SOL    HW139272   0.107   0.287   0.705  0.2891  1.0233  0.1540
 9212SOL    HW239273   4.734   0.284   0.610 -1.7266  2.8444  0.0647
 9213SOL     OW39274   2.146   2.790   8.602 -0.6425 -0.6637  0.3128
 9213SOL    HW139275   2.147   2.884   8.585  0.3535 -0.8747 -0.7781
 9213SOL    HW239276   2.236   2.774   8.571 -0.4495  0.1120  0.4765
 9214SOL     OW39277   2.853   4.175   3.724 -0.2449  0.1004 -0.3886
 9214SOL    HW139278   2.928   4.227   3.755 -0.4997 -0.0315  0.4533
 9214SOL    HW239279   2.800   4.248   3.691  0.7650  1.1870  0.4134
 9215SOL     OW39280   2.644   2.870   5.221  0.5773  0.3093  0.5247
 9215SOL    HW139281   2.642   2.780   5.255  2.5457  0.6682  1.5753
 9215SOL    HW239282   2.664   2.849   5.129 -2.2109 -2.0481  0.4739
 9216SOL     OW39283   0.699   4.467   6.005  0.7629 -0.2336  0.4317
 9216SOL    HW139284   0.742   4.459   5.920 -0.3128  1.1243 -0.2418
 9216SOL    HW239285   0.608   4.478   5.976  1.0231 -0.2492 -0.3841
 9217SOL     OW39286   1.377   2.451   5.124  0.0499 -0.6044  0.1307
 9217SOL    HW139287   1.362   2.377   5.182 -0.7319  0.2070  0.9733
 9217SOL    HW239288   1.300   2.505   5.145 -0.4008 -0.7183 -1.1650
 9218SOL     OW39289   3.999   1.055  14.641 -0.0718 -0.5398 -0.3248
 9218SOL    HW139290   4.076   1.109  14.623  0.2879  0.3787  3.8733
 9218SOL    HW239291   3.964   1.100  14.718  3.5848 -0.1294  1.0935
 9219SOL     OW39292   3.217   4.061   5.906 -0.1336  0.4347 -0.2589
 9219SOL    HW139293   3.297   4.110   5.890  1.2532 -1.9026 -0.5823
 9219SOL    HW239294   3.154   4.128   5.934 -0.3805 -0.9021  2.3474
 9220SOL     OW39295   1.223   3.337   0.450  0.0532  0.3083  0.0297
 9220SOL    HW139296   1.221   3.253   0.404 -1.5373  0.9557 -1.0805
 9220SOL    HW239297   1.245   3.398   0.381 -1.4023 -0.0818 -0.7870
 9221SOL     OW39298   2.341   4.316   8.264  0.0219  0.3056 -0.1767
 9221SOL    HW139299   2.400   4.391   8.268 -1.4819  1.4370  0.7859
 9221SOL    HW239300   2.354   4.285   8.353 -0.1328  0.1160 -0.2200
 9222SOL     OW39301   2.263   0.480  17.401  0.3891 -0.2707 -0.3703
 9222SOL    HW139302   2.203   0.553  17.386  1.9757  1.3102  0.9969
 9222SOL    HW239303   2.319   0.507  17.473 -1.2074 -0.3575  0.9225
 9223SOL     OW39304   3.950   1.302   5.060  0.6613 -0.6241 -0.1537
 9223SOL    HW139305   3.864   1.316   5.022  0.3543 -0.5315  0.5762
 9223SOL    HW239306   3.977   1.388   5.091  0.2863 -0.4137 -0.4157
 9224SOL     OW39307   2.650   1.069   7.645  0.4257 -0.3483 -0.2261
 9224SOL    HW139308   2.663   1.163   7.640 -1.9545  0.0436  0.8742
 9224SOL    HW239309   2.588   1.063   7.718  1.4832 -1.0309  0.6135
 9225SOL     OW39310   2.903   3.844   2.499  0.2248 -0.1020  0.0520
 9225SOL    HW139311   2.831   3.811   2.445 -0.8571  1.0156  0.7984
 9225SOL    HW239312   2.963   3.772   2.483  1.1687  0.5173  0.8041
 9226SOL     OW39313   1.684   4.440   7.229  0.1852  0.5821  0.3303
 9226SOL    HW139314   1.746   4.446   7.156  0.7515 -0.1072  0.7564
 9226SOL    HW239315   1.609   4.488   7.195  0.4523  2.2717  2.1140
 9227SOL     OW39316   0.443   1.585   2.383 -0.2533  0.1855  0.0014
 9227SOL    HW139317   0.369   1.553   2.434  0.8748 -2.9327 -0.3441
 9227SOL    HW239318   0.479   1.651   2.443  1.7806 -0.7773 -0.1542
 9228SOL     OW39319   4.211   3.185   5.926  0.3268 -0.3255 -0.1348
 9228SOL    HW139320   4.194   3.112   5.986 -0.9421 -1.7566 -2.2677
 9228SOL    HW239321   4.221   3.145   5.840 -0.1962  0.2599 -0.4619
 9229SOL     OW39322   2.677   2.414  11.424 -0.3567  0.3112  0.2098
 9229SOL    HW139323   2.638   2.480  11.482 -1.0770 -0.9187  1.1173
 9229SOL    HW239324   2.662   2.336  11.478  0.5668  0.4371  0.6584
 9230SOL     OW39325   0.825   3.835   4.588 -0.3620  0.1725  0.4944
 9230SOL    HW139326   0.736   3.865   4.606  0.1509 -0.2452  3.6641
 9230SOL    HW239327   0.819   3.751   4.634 -0.1445 -0.0856  0.0511
 9231SOL     OW39328   1.538   4.004  12.504 -0.3833 -0.8149 -0.0277
 9231SOL    HW139329   1.551   4.061  12.581 -0.7483 -1.6561  0.6569
 9231SOL    HW239330   1.607   4.033  12.445  0.5929  1.5338  2.2375
 9232SOL     OW39331   3.729   2.937   3.324  0.3086  0.4902  0.1040
 9232SOL    HW139332   3.753   2.904   3.237 -0.1372 -2.0327  0.9657
 9232SOL    HW239333   3.743   2.858   3.376  0.9263 -0.1766 -1.0713
 9233SOL     OW39334   3.414   2.002   9.402 -0.4690 -0.0857 -0.4937
 9233SOL    HW139335   3.413   1.945   9.325  0.0041 -0.9795  0.1635
 9233SOL    HW239336   3.339   1.971   9.453 -2.3666  4.8219 -0.3627
 9234SOL     OW39337   4.390   4.230   6.922  0.2021 -0.0664  0.3225
 9234SOL    HW139338   4.382   4.319   6.957  0.1894 -0.0194  0.2007
 9234SOL    HW239339   4.354   4.226   6.834  1.0527 -0.8425  0.0181
 9235SOL     OW39340   4.031   4.667   3.500 -0.0033  0.0065 -0.1421
 9235SOL    HW139341   3.946   4.705   3.519 -0.4913 -2.0803  1.8101
 9235SOL    HW239342   4.005   4.583   3.461 -0.8383 -0.7821  2.1603
 9236SOL     OW39343   2.623   4.683  16.094 -0.0541 -0.4768  0.0729
 9236SOL    HW139344   2.622   4.673  15.999 -0.4982  0.6910 -0.0420
 9236SOL    HW239345   2.648   0.040  16.089  0.0107 -0.5763 -1.3383
 9237SOL     OW39346   4.524   3.367   7.098 -0.1883  0.1029  0.3440
 9237SOL    HW139347   4.519   3.390   7.005  0.2665  0.3424  0.3777
 9237SOL    HW239348   4.599   3.308   7.097 -0.6501 -0.4601 -1.9685
 9238SOL     OW39349   0.673   4.435   1.796 -0.0001  0.1211  0.1761
 9238SOL    HW139350   0.727   4.362   1.825  0.3040  0.3200  0.1076
 9238SOL    HW239351   0.591   4.411   1.839  1.2955 -0.8621  2.0420
 9239SOL     OW39352   3.932   1.680  13.631 -0.1717  0.2820 -0.4898
 9239SOL    HW139353   4.027   1.681  13.613 -0.0440  1.1279  0.2733
 9239SOL    HW239354   3.896   1.599  13.595 -0.3523  0.0629  0.1846
 9240SOL     OW39355   3.033   2.134   4.150 -0.0487 -0.5447 -0.3592
 9240SOL    HW139356   2.987   2.088   4.221 -0.9102 -0.1965 -0.6886
 9240SOL    HW239357   2.957   2.150   4.095 -0.7746 -0.3527  0.6948
 9241SOL     OW39358   2.945   2.844   3.624 -0.6236  0.4332  0.1464
 9241SOL    HW139359   2.943   2.939   3.615  1.4287  0.3098 -1.4424
 9241SOL    HW239360   2.975   2.837   3.715  0.6038  1.7667 -0.1510
 9242SOL     OW39361   3.131   1.302   5.722 -0.1605  0.2024  0.5572
 9242SOL    HW139362   3.107   1.306   5.814 -1.1214 -1.6880  0.3812
 9242SOL    HW239363   3.226   1.312   5.729  0.0403 -1.1087 -0.2719
 9243SOL     OW39364   1.911   0.940   2.408  0.5590  0.1303  0.2717
 9243SOL    HW139365   1.901   0.853   2.447  1.5751 -0.8757 -1.7086
 9243SOL    HW239366   2.001   0.927   2.379  0.2727 -0.4618 -0.3574
 9244SOL     OW39367   3.274   4.615  17.131  0.8292 -0.0557  0.1304
 9244SOL    HW139368   3.217   4.644  17.060  1.0574  0.3973  0.1328
 9244SOL    HW239369   3.328   4.551  17.085  1.7568  0.3535  0.6490
 9245SOL     OW39370   1.631   1.225   4.444 -0.3946  0.7062  0.8031
 9245SOL    HW139371   1.713   1.204   4.400 -0.9517 -2.7307  1.4148
 9245SOL    HW239372   1.610   1.139   4.481  2.7706 -0.7705 -0.7868
 9246SOL     OW39373   3.422   0.317  12.935  0.5672  0.0641  0.1971
 9246SOL    HW139374   3.334   0.303  12.900  0.2350  3.5308 -0.2645
 9246SOL    HW239375   3.464   0.242  12.893 -0.2127 -1.0418  1.3728
 9247SOL     OW39376   2.281   0.807   9.442  0.0885 -0.1721 -0.2989
 9247SOL    HW139377   2.376   0.799   9.437  0.0081 -0.5907 -1.2186
 9247SOL    HW239378   2.257   0.827   9.532  3.5381 -1.1609  0.8345
 9248SOL     OW39379   1.696   4.507   1.324 -0.1079  0.3698 -0.7880
 9248SOL    HW139380   1.703   4.576   1.389 -3.3599 -0.3721  0.3763
 9248SOL    HW239381   1.742   4.437   1.369  1.8082  0.8046 -2.1036
 9249SOL     OW39382   1.982   0.615   5.760  0.3818 -0.5492 -0.7789
 9249SOL    HW139383   1.965   0.662   5.842  0.8107 -1.5181 -0.1387
 9249SOL    HW239384   1.989   0.686   5.696 -0.0709  0.0785 -0.1343
 9250SOL     OW39385   2.262   0.063   6.258 -0.7633  0.2609  0.2677
 9250SOL    HW139386   2.303   0.038   6.341 -2.4512 -1.9366  0.4668
 9250SOL    HW239387   2.338   0.100   6.214  0.4185  0.9806  2.9186
 9251SOL     OW39388   2.704   4.172   2.327 -0.0832  0.0193 -0.7453
 9251SOL    HW139389   2.626   4.149   2.379  0.0416  0.1509 -0.5004
 9251SOL    HW239390   2.780   4.133   2.370 -1.3412 -1.3976  0.2063
 9252SOL     OW39391   0.666   3.306  11.558  0.5260  0.2346  0.8577
 9252SOL    HW139392   0.581   3.287  11.518  0.2777 -0.9107  1.9132
 9252SOL    HW239393   0.704   3.367  11.495  0.4206 -1.3732 -0.7732
 9253SOL     OW39394   2.169   3.190   8.097 -0.0061  0.3257  0.2474
 9253SOL    HW139395   2.253   3.215   8.136 -0.1060 -1.6147  1.7162
 9253SOL    HW239396   2.107   3.249   8.140  2.2489  1.4667  1.9536
 9254SOL     OW39397   3.065   0.954   7.440 -0.4235  0.1424 -0.2169
 9254SOL    HW139398   3.095   0.998   7.520 -0.2072  1.4899 -1.0370
 9254SOL    HW239399   2.972   0.957   7.460 -0.2434 -1.1381  0.8240
 9255SOL     OW39400   4.199   2.547   3.621  0.1720 -0.2337  0.2038
 9255SOL    HW139401   4.257   2.543   3.697 -0.1887  1.4392  0.5746
 9255SOL    HW239402   4.234   2.483   3.559  0.1294  0.7947 -0.8941
 9256SOL     OW39403   2.624   1.936   8.700 -0.1387 -0.2556  0.1602
 9256SOL    HW139404   2.686   1.866   8.719  1.0571  0.5091 -0.9647
 9256SOL    HW239405   2.578   1.944   8.784 -1.7760 -2.1284 -0.5536
 9257SOL     OW39406   1.028   2.718   3.051 -0.0973 -0.7179  0.2155
 9257SOL    HW139407   0.988   2.631   3.040  1.2109 -1.4874  1.5437
 9257SOL    HW239408   1.121   2.695   3.052  1.0069  4.0145  2.4116
 9258SOL     OW39409   3.642   3.971   1.987 -0.0343  0.4706 -0.4699
 9258SOL    HW139410   3.599   4.015   2.060 -0.6973 -1.6876  0.4401
 9258SOL    HW239411   3.688   4.032   1.929  0.7562 -0.0805 -0.4149
 9259SOL     OW39412   0.217   4.670   8.119 -0.1443 -0.6460 -0.1900
 9259SOL    HW139413   0.265   0.017   8.117 -2.7367  0.9376  2.4620
 9259SOL    HW239414   0.130   4.700   8.090  0.4935  2.2976  0.8567
 9260SOL     OW39415   3.358   1.706   8.331  0.4522  0.2090  0.0268
 9260SOL    HW139416   3.302   1.688   8.256  0.7058  2.1548 -0.6560
 9260SOL    HW239417   3.350   1.800   8.348  1.9672  0.2932  0.3269
 9261SOL     OW39418   0.999   4.659  13.129 -0.1806  0.0509 -0.4632
 9261SOL    HW139419   1.078   4.644  13.077  0.2436  2.1801 -0.4143
 9261SOL    HW239420   0.954   4.575  13.122 -0.0533  0.1593 -2.4973
 9262SOL     OW39421   1.303   3.236  10.076 -0.3097 -0.2399  0.2463
 9262SOL    HW139422   1.270   3.172  10.138  0.2341  0.1796  0.9684
 9262SOL    HW239423   1.330   3.166  10.015 -0.3256 -0.3409  0.3553
 9263SOL     OW39424   2.065   2.750   3.033 -0.0490  0.2515  0.3004
 9263SOL    HW139425   1.995   2.691   3.062 -0.0028  1.2981  2.5382
 9263SOL    HW239426   2.128   2.680   3.018 -2.2633 -1.4943 -0.9721
 9264SOL     OW39427   1.072   1.530  14.763 -0.5715  0.2054 -0.3876
 9264SOL    HW139428   1.007   1.526  14.692 -1.2760 -0.9712  0.3219
 9264SOL    HW239429   1.010   1.525  14.836 -1.6018  0.5550 -1.2461
 9265SOL     OW39430   4.211   1.638  13.556  0.7415  0.8827 -0.6626
 9265SOL    HW139431   4.228   1.544  13.556 -0.7400  0.6160  3.5105
 9265SOL    HW239432   4.295   1.676  13.533  1.8894 -0.0829  1.8822
 9266SOL     OW39433   1.839   4.660   5.978 -0.0020 -0.2871  0.2103
 9266SOL    HW139434   1.870   4.641   5.889  0.2133 -0.5274  0.3391
 9266SOL    HW239435   1.743   4.668   5.974 -0.0904 -0.5758  1.7822
 9267SOL     OW39436   3.409   2.598   2.167 -0.1635 -0.2371  0.6520
 9267SOL    HW139437   3.423   2.527   2.104 -0.3729  0.6238 -0.3697
 9267SOL    HW239438   3.340   2.554   2.218 -0.8404  0.7447  0.5810
 9268SOL     OW39439   3.242   3.229   7.454  0.0130 -0.1390 -0.0157
 9268SOL    HW139440   3.161   3.278   7.466  0.5815  0.7314  0.2708
 9268SOL    HW239441   3.266   3.254   7.365 -3.0787  1.1032 -0.4827
 9269SOL     OW39442   2.769   0.920   7.468 -0.2346  0.4227 -0.2389
 9269SOL    HW139443   2.709   0.981   7.511  1.7816  1.7005  0.7544
 9269SOL    HW239444   2.738   0.834   7.495 -0.7857  1.3310  1.9730
 9270SOL     OW39445   4.369   1.210  12.542 -0.5303 -0.1608 -0.2406
 9270SOL    HW139446   4.356   1.189  12.450 -2.1191  2.4182 -0.6141
 9270SOL    HW239447   4.420   1.137  12.577  0.7159  1.3679  1.1030
 9271SOL     OW39448   0.113   4.240   9.107 -0.3103  0.6990 -0.4387
 9271SOL    HW139449   0.053   4.185   9.057  0.5380 -0.4671 -0.1625
 9271SOL    HW239450   0.050   4.308   9.132 -1.5476  0.3749 -2.6475
 9272SOL     OW39451   1.960   4.183  11.522 -0.0072 -0.6021  0.5172
 9272SOL    HW139452   1.902   4.147  11.589  0.9036 -1.3906  0.8704
 9272SOL    HW239453   1.939   4.127  11.447  2.2857 -0.8630  0.0680
 9273SOL     OW39454   3.569   0.214   8.921  0.2952 -0.4769 -0.3418
 9273SOL    HW139455   3.601   0.220   9.011 -0.1576  0.8014 -0.2651
 9273SOL    HW239456   3.568   0.118   8.920  0.6209 -0.4856  0.0666
 9274SOL     OW39457   0.770   3.827  17.147  0.6431  0.3097  0.6424
 9274SOL    HW139458   0.743   3.762  17.082  0.8368 -0.4260  1.2963
 9274SOL    HW239459   0.730   3.909  17.120  1.5291  0.6257  0.2747
 9275SOL     OW39460   2.774   1.702   5.525  0.3279 -0.0892  0.0196
 9275SOL    HW139461   2.816   1.787   5.525 -1.5879  0.8605  0.6903
 9275SOL    HW239462   2.853   1.655   5.551  1.0524  1.0260 -0.2197
 9276SOL     OW39463   1.464   3.402  13.562 -0.3272 -0.4516 -0.0840
 9276SOL    HW139464   1.496   3.448  13.484  0.3854  1.1616  1.1781
 9276SOL    HW239465   1.371   3.426  13.563  0.0871  1.1234  0.1838
 9277SOL     OW39466   3.930   0.722   7.505 -0.5384 -0.3628 -0.5503
 9277SOL    HW139467   3.835   0.731   7.514 -0.5952 -0.6032 -0.9239
 9277SOL    HW239468   3.948   0.633   7.537 -0.5465 -0.8826 -2.0002
 9278SOL     OW39469   1.485   3.995   1.842  0.3455 -0.5380  0.1293
 9278SOL    HW139470   1.435   3.990   1.760  1.1412 -1.8046 -0.2760
 9278SOL    HW239471   1.493   4.086   1.872  0.4677 -0.2233 -0.8365
 9279SOL     OW39472   1.125   2.560   3.948  0.2703  0.4006 -0.2451
 9279SOL    HW139473   1.075   2.611   3.884 -1.1388 -0.4992  0.1132
 9279SOL    HW239474   1.159   2.487   3.897 -1.3851 -1.0407  0.6824
 9280SOL     OW39475   0.373   3.173  15.754  0.0480  0.2809  1.0393
 9280SOL    HW139476   0.457   3.131  15.772 -0.3753 -1.1192 -0.2508
 9280SOL    HW239477   0.371   3.241  15.822  2.7306  0.7682  0.6521
 9281SOL     OW39478   4.710   4.635   3.597  0.2007 -0.4710 -0.3645
 9281SOL    HW139479   4.714   4.564   3.660  0.0393  0.2673  0.4806
 9281SOL    HW239480   4.668   4.592   3.523 -0.2165 -1.7033  0.5983
 9282SOL     OW39481   0.911   3.854   4.898  0.2816  0.2751  0.0966
 9282SOL    HW139482   0.992   3.888   4.860  1.2129 -0.0324  1.8474
 9282SOL    HW239483   0.857   3.933   4.902 -1.3498 -0.8548  0.6322
 9283SOL     OW39484   2.602   0.197  14.206  0.3370  0.0954  0.2304
 9283SOL    HW139485   2.595   0.192  14.302 -1.9050 -1.5578 -0.0169
 9283SOL    HW239486   2.520   0.165  14.169  0.9362 -2.0800  0.7752
 9284SOL     OW39487   1.304   0.265   2.745  0.1470  0.3414  0.1387
 9284SOL    HW139488   1.252   0.187   2.726 -0.6107  0.7160  0.6715
 9284SOL    HW239489   1.312   0.300   2.656  1.2025  0.7961  0.4149
 9285SOL     OW39490   0.232   1.477  17.158 -0.3105 -0.4277 -0.0569
 9285SOL    HW139491   0.223   1.499  17.251  0.2147 -2.0689  0.3839
 9285SOL    HW239492   0.155   1.520  17.121 -1.1061  0.3110  2.4649
 9286SOL     OW39493   1.359   2.866   7.927 -0.6176 -0.4321 -0.6556
 9286SOL    HW139494   1.306   2.818   7.864 -1.7457 -0.6490  0.4574
 9286SOL    HW239495   1.317   2.952   7.926 -0.7003 -0.4762 -0.9637
 9287SOL     OW39496   2.232   1.146  13.300 -0.0312 -0.5520  0.1609
 9287SOL    HW139497   2.290   1.151  13.376 -0.6488  1.7536  0.4842
 9287SOL    HW239498   2.273   1.216  13.250  1.1408 -0.7169  0.8883
 9288SOL     OW39499   4.646   3.167   6.595 -0.3771 -0.1141 -0.0876
 9288SOL    HW139500   4.574   3.228   6.611 -1.6846 -1.6049 -0.2518
 9288SOL    HW239501   4.635   3.169   6.500 -1.7129 -2.0907  0.0307
 9289SOL     OW39502   4.546   1.400   4.575 -0.2904  0.0484 -0.1619
 9289SOL    HW139503   4.530   1.492   4.554  2.9601  0.4733 -0.7839
 9289SOL    HW239504   4.499   1.398   4.659 -0.6031 -0.1507 -0.3426
 9290SOL     OW39505   4.591   0.424   8.699  0.2269 -0.0126 -0.0069
 9290SOL    HW139506   4.555   0.343   8.663  0.3019 -0.1407  0.2076
 9290SOL    HW239507   4.519   0.485   8.682  0.5812  0.4079  0.0022
 9291SOL     OW39508   0.620   3.303  15.598 -0.4378  0.7676 -0.2663
 9291SOL    HW139509   0.621   3.317  15.503 -3.0354 -2.3227 -0.7206
 9291SOL    HW239510   0.579   3.387  15.622  0.5001  1.1012  0.1618
 9292SOL     OW39511   2.521   0.094   4.013 -0.2343  0.0608 -0.3171
 9292SOL    HW139512   2.479   0.166   3.966  2.0874  1.4196 -0.3132
 9292SOL    HW239513   2.596   0.070   3.960  1.2786  1.5798  1.1057
 9293SOL     OW39514   0.976   0.502   6.935  0.5844 -0.3302  0.4943
 9293SOL    HW139515   0.932   0.582   6.964  1.7323  0.5124 -0.1205
 9293SOL    HW239516   0.961   0.506   6.841  0.2964  1.6771  0.6357
 9294SOL     OW39517   3.584   0.060   7.572  0.5059  0.0909  0.2528
 9294SOL    HW139518   3.609   0.151   7.557 -0.5873 -0.0513 -2.3711
 9294SOL    HW239519   3.553   0.038   7.484 -0.8990 -0.5129  0.8891
 9295SOL     OW39520   0.887   0.288   7.530  0.4745  0.6597 -0.3817
 9295SOL    HW139521   0.840   0.354   7.480 -2.1602 -0.7199  0.2284
 9295SOL    HW239522   0.960   0.336   7.569  0.8336 -0.5737  0.4688
 9296SOL     OW39523   3.486   2.812  15.663 -0.5990 -0.0632  0.0660
 9296SOL    HW139524   3.525   2.817  15.750 -0.0291 -1.3865 -0.1113
 9296SOL    HW239525   3.423   2.883  15.677 -1.5120 -0.8499 -0.0078
 9297SOL     OW39526   1.860   2.575   5.124 -0.1613  0.1150  0.1087
 9297SOL    HW139527   1.766   2.555   5.120 -0.0082 -0.6515  0.4166
 9297SOL    HW239528   1.860   2.666   5.095 -1.8368 -0.1037 -0.6030
 9298SOL     OW39529   1.420   2.451   5.673 -0.1379  0.0626 -0.2112
 9298SOL    HW139530   1.337   2.498   5.679 -0.5987 -0.6325 -1.2206
 9298SOL    HW239531   1.469   2.504   5.610  1.4016  0.4629  1.3129
 9299SOL     OW39532   3.553   0.034  11.708  0.0727 -0.5314  0.5365
 9299SOL    HW139533   3.528   0.115  11.663  1.4438  1.0570  2.6198
 9299SOL    HW239534   3.615   0.064  11.775  0.1215 -0.8642  0.6419
 9300SOL     OW39535   2.746   2.350  10.465  0.4762  0.0633 -0.6109
 9300SOL    HW139536   2.807   2.280  10.484  0.8220  0.5784  0.2082
 9300SOL    HW239537   2.668   2.311  10.426  0.2610  0.5262 -0.6498
 9301SOL     OW39538   3.025   3.609  15.163 -0.0489 -0.2875  0.4347
 9301SOL    HW139539   2.979   3.648  15.088  1.0143 -1.1977 -0.6707
 9301SOL    HW239540   3.094   3.673  15.178 -0.0976 -0.1080 -0.1013
 9302SOL     OW39541   0.359   3.558  14.287 -0.1194  0.6929  0.6414
 9302SOL    HW139542   0.447   3.537  14.255 -0.3368 -0.5566  0.8783
 9302SOL    HW239543   0.302   3.542  14.212 -0.9912  1.9423  1.0295
 9303SOL     OW39544   0.616   2.999  15.794  0.1508 -0.4881 -0.1163
 9303SOL    HW139545   0.562   2.928  15.829  0.8559 -0.5528  0.8689
 9303SOL    HW239546   0.594   2.987  15.702  1.9383  0.5469 -0.6732
 9304SOL     OW39547   1.521   2.365   6.040  0.0639 -0.1423  0.2153
 9304SOL    HW139548   1.450   2.396   5.983  0.4217  1.7533  0.7836
 9304SOL    HW239549   1.483   2.389   6.125  1.0880  3.0829 -0.2439
 9305SOL     OW39550   4.710   3.276   4.320  0.4511  0.2455  0.5893
 9305SOL    HW139551   4.642   3.212   4.300  1.4530 -0.4525 -0.6099
 9305SOL    HW239552   0.019   3.225   4.389 -3.5396 -1.3208  1.9649
 9306SOL     OW39553   4.269   0.388   7.341  0.1160  0.3995 -0.0875
 9306SOL    HW139554   4.330   0.407   7.412 -1.2620 -1.1935  1.5307
 9306SOL    HW239555   4.307   0.305   7.312 -0.9440  0.1405 -0.7333
 9307SOL     OW39556   4.581   0.883   8.215  0.2224 -0.1860  0.0336
 9307SOL    HW139557   4.643   0.914   8.149  1.4365 -2.0965  0.2817
 9307SOL    HW239558   4.607   0.930   8.295  0.4025 -2.7419  1.4851
 9308SOL     OW39559   0.188   2.478   3.618  0.1132  0.2293  0.0509
 9308SOL    HW139560   0.231   2.441   3.695  3.0840  0.2223 -1.6216
 9308SOL    HW239561   0.171   2.568   3.646 -0.3378  0.5266 -1.1329
 9309SOL     OW39562   2.664   0.505   7.934  0.2020 -0.3601  0.2233
 9309SOL    HW139563   2.644   0.577   7.874 -2.0473 -1.0232  0.1832
 9309SOL    HW239564   2.675   0.433   7.871 -0.3663 -1.1112  0.9964
 9310SOL     OW39565   4.642   2.131   7.184  0.0513  0.0933  0.0495
 9310SOL    HW139566   4.626   2.179   7.102  0.5075  0.3400  0.1053
 9310SOL    HW239567   4.632   2.189   7.259  1.5657  0.6200 -0.1583
 9311SOL     OW39568   3.110   2.447   6.643 -0.1230  0.2232 -0.5384
 9311SOL    HW139569   3.024   2.474   6.610 -0.6754 -0.4914  0.3040
 9311SOL    HW239570   3.163   2.484   6.573  1.9529 -0.8605  0.4638
 9312SOL     OW39571   4.216   1.681   2.615 -0.5070  0.1463 -0.4990
 9312SOL    HW139572   4.291   1.733   2.586  0.4037 -0.1558  1.3299
 9312SOL    HW239573   4.232   1.592   2.583  2.3912  0.3662  0.2883
 9313SOL     OW39574   2.176   4.667  15.385  0.2890  0.6510 -0.1086
 9313SOL    HW139575   2.094   4.630  15.350  1.6990 -0.7318 -1.9563
 9313SOL    HW239576   2.230   4.589  15.396 -1.6370 -0.5069  1.1753
 9314SOL     OW39577   1.653   0.226   5.825 -0.6347 -0.2575 -0.0892
 9314SOL    HW139578   1.611   0.195   5.905 -1.3446 -0.2145 -0.4410
 9314SOL    HW239579   1.605   0.166   5.768  0.9932 -0.6500 -1.0460
 9315SOL     OW39580   3.619   4.010   6.087  0.2234  0.6839 -0.0347
 9315SOL    HW139581   3.532   4.039   6.058  0.1288 -0.4860 -0.8983
 9315SOL    HW239582   3.608   3.915   6.087 -0.6478  0.7847  0.6243
 9316SOL     OW39583   0.150   0.673   9.096 -0.1149 -0.1652 -0.0339
 9316SOL    HW139584   0.161   0.586   9.135 -0.6174  0.5002  1.5614
 9316SOL    HW239585   0.125   0.646   9.008 -0.0287 -0.4731  0.0340
 9317SOL     OW39586   2.119   2.168   5.724  0.3827  0.3552  0.0137
 9317SOL    HW139587   2.052   2.100   5.714  1.9933 -1.2204 -0.0214
 9317SOL    HW239588   2.202   2.120   5.719  0.2819 -0.0219  2.0137
 9318SOL     OW39589   3.477   4.526   6.843 -0.1547 -0.0483  0.4206
 9318SOL    HW139590   3.404   4.464   6.842  0.2385 -0.5198  0.6026
 9318SOL    HW239591   3.448   4.590   6.778  2.1922 -1.4291 -1.9578
 9319SOL     OW39592   0.163   4.268   1.882  0.2336  0.2146  0.3442
 9319SOL    HW139593   0.155   4.185   1.835 -2.4214  1.4438 -1.3933
 9319SOL    HW239594   0.244   4.282   1.832 -0.3012  1.2149 -0.2416
 9320SOL     OW39595   3.908   3.366  14.149  0.4275  0.6858  0.7531
 9320SOL    HW139596   3.882   3.369  14.241 -0.2328  0.5552  0.5673
 9320SOL    HW239597   3.874   3.444  14.106 -0.4069  0.9966  1.9667
 9321SOL     OW39598   0.876   4.441   2.090 -0.4197 -0.2133 -0.8183
 9321SOL    HW139599   0.870   4.394   2.007  2.2022 -1.4939 -0.2933
 9321SOL    HW239600   0.898   4.359   2.136  0.3376 -0.3153 -1.3609
 9322SOL     OW39601   3.727   0.957   7.014  0.2306  0.2269  0.6735
 9322SOL    HW139602   3.675   0.901   6.957  1.9149  0.4193 -1.0595
 9322SOL    HW239603   3.744   1.031   6.956 -1.9525  0.1088 -0.0881
 9323SOL     OW39604   0.749   3.831   7.967  0.2003  0.0785  0.4191
 9323SOL    HW139605   0.805   3.795   7.898  0.7114  1.0437  0.3239
 9323SOL    HW239606   0.721   3.758   8.022 -0.9800  1.9190  2.2721
 9324SOL     OW39607   0.421   1.024   5.090  0.5899 -0.4303  0.1108
 9324SOL    HW139608   0.407   0.970   5.012 -1.4677  0.6378 -0.2575
 9324SOL    HW239609   0.377   1.107   5.074 -1.6798 -1.4590  1.0462
 9325SOL     OW39610   0.472   3.444   8.121 -0.6988 -0.0106  0.0274
 9325SOL    HW139611   0.439   3.471   8.206 -1.2795 -2.5426  0.5987
 9325SOL    HW239612   0.388   3.432   8.077 -0.6274  2.2055 -0.7403
 9326SOL     OW39613   0.002   4.009  16.955 -0.4760 -0.5478 -0.1956
 9326SOL    HW139614   0.035   4.092  16.990  0.0258 -1.2221  0.9322
 9326SOL    HW239615   4.644   4.030  16.954 -0.3382  0.0311 -1.2440
 9327SOL     OW39616   4.502   1.606   3.609 -0.2280  0.2584  0.1406
 9327SOL    HW139617   4.406   1.600   3.603 -0.1449  1.7054 -2.5368
 9327SOL    HW239618   4.518   1.558   3.691  0.6204 -0.3699 -0.3927
 9328SOL     OW39619   0.362   1.817   8.394 -0.0095 -0.6568  0.2400
 9328SOL    HW139620   0.293   1.778   8.449 -1.2023 -0.7563 -1.3267
 9328SOL    HW239621   0.350   1.784   8.305  1.3444 -2.1338  0.6061
 9329SOL     OW39622   0.087   4.093   8.165 -0.1930 -0.0175 -0.1771
 9329SOL    HW139623   0.169   4.082   8.116 -1.1402  0.5984 -1.9004
 9329SOL    HW239624   0.124   4.139   8.241  2.1111 -2.7649  0.3436
 9330SOL     OW39625   3.606   1.301   7.801  0.1284  0.1086 -0.0748
 9330SOL    HW139626   3.650   1.379   7.767 -2.1103  1.8618  1.0598
 9330SOL    HW239627   3.522   1.335   7.833  0.7546  1.4433  0.1443
 9331SOL     OW39628   0.920   1.176   1.502 -0.0595  0.2598 -0.0728
 9331SOL    HW139629   0.954   1.096   1.460  1.3842  1.6500 -1.5752
 9331SOL    HW239630   0.826   1.167   1.488 -0.1101  0.4881  0.1220
 9332SOL     OW39631   4.296   4.496   2.554  0.2808  0.3055  0.0583
 9332SOL    HW139632   4.340   4.449   2.484  0.1362 -0.6013  0.5767
 9332SOL    HW239633   4.351   4.474   2.629  0.9692 -2.2521 -1.2053
 9333SOL     OW39634   4.401   2.084   5.488 -0.4421  0.3552  0.0271
 9333SOL    HW139635   4.471   2.049   5.543 -1.3082  1.6240  1.8997
 9333SOL    HW239636   4.418   2.178   5.485 -0.6105  0.3260 -2.2095
 9334SOL     OW39637   3.902   4.718   8.024 -0.0043  0.1237 -0.0738
 9334SOL    HW139638   3.947   4.653   8.079 -1.0602  1.1382  1.9547
 9334SOL    HW239639   3.888   0.060   8.078  2.3163 -0.3679  1.2580
 9335SOL     OW39640   2.619   0.184   8.191  0.5588  0.0677  0.0646
 9335SOL    HW139641   2.700   0.169   8.239  0.5855  1.8208  0.5911
 9335SOL    HW239642   2.652   0.197   8.102 -0.8019  1.8793 -0.1902
 9336SOL     OW39643   4.551   3.709   7.013  0.1821 -0.5291 -0.2844
 9336SOL    HW139644   4.458   3.707   7.035 -0.6233  0.6217 -3.6215
 9336SOL    HW239645   4.546   3.636   6.952 -0.2900 -1.8874  1.3878
 9337SOL     OW39646   3.343   1.831   6.374 -0.2620  0.1057  0.1025
 9337SOL    HW139647   3.407   1.807   6.440  0.0446  0.4837 -0.0602
 9337SOL    HW239648   3.383   1.908   6.334 -0.4116  0.4005  0.5226
 9338SOL     OW39649   0.188   0.250  14.438  0.3970  0.1007 -0.0186
 9338SOL    HW139650   0.232   0.173  14.402 -0.9907 -1.0233  0.7144
 9338SOL    HW239651   0.238   0.320  14.396  1.2648 -1.7756 -2.1836
 9339SOL     OW39652   2.243   4.088   5.380 -0.2320  0.6040 -0.6129
 9339SOL    HW139653   2.233   4.183   5.371 -1.1574  0.8742  3.1906
 9339SOL    HW239654   2.325   4.081   5.430 -1.2609 -1.1689  0.8222
 9340SOL     OW39655   3.202   3.629   1.722  0.4064  0.1219 -0.0616
 9340SOL    HW139656   3.204   3.725   1.727  0.1712  0.1881 -1.0894
 9340SOL    HW239657   3.297   3.622   1.718  0.4163  0.1205  0.1761
 9341SOL     OW39658   2.178   0.649   3.128  0.4510  0.3251 -0.0214
 9341SOL    HW139659   2.103   0.635   3.187  1.3290  0.2073  1.0590
 9341SOL    HW239660   2.241   0.662   3.198  0.7802  1.7781 -0.5765
 9342SOL     OW39661   3.147   4.691  10.253 -0.5535 -0.1398 -0.0907
 9342SOL    HW139662   3.190   0.038  10.278 -2.0707  0.7291 -0.3655
 9342SOL    HW239663   3.140   4.709  10.160  0.6985  0.8864  0.0062
 9343SOL     OW39664   1.826   2.154  14.891 -0.2592  0.5472  0.0035
 9343SOL    HW139665   1.762   2.128  14.825  0.0547  3.0338 -1.3088
 9343SOL    HW239666   1.897   2.091  14.902  0.0447  0.8243 -0.3873
 9344SOL     OW39667   1.602   4.127  16.027  0.1059 -0.1576  0.0507
 9344SOL    HW139668   1.646   4.143  16.110 -0.0219  0.1652  0.0568
 9344SOL    HW239669   1.516   4.144  16.064 -0.1630 -0.2109 -0.5542
 9345SOL     OW39670   0.745   1.962   5.270 -0.3436 -0.1361  0.3604
 9345SOL    HW139671   0.800   2.039   5.266  0.5858 -0.8502 -0.8179
 9345SOL    HW239672   0.786   1.908   5.202  1.1843  0.5905  0.7272
 9346SOL     OW39673   3.870   1.879   5.279 -0.2517  0.9749 -0.3901
 9346SOL    HW139674   3.935   1.942   5.310 -0.7186  0.9756  0.6001
 9346SOL    HW239675   3.898   1.873   5.187 -2.9487 -0.5781 -1.0998
 9347SOL     OW39676   4.560   3.189   5.384 -0.0712 -0.3729  0.3874
 9347SOL    HW139677   4.478   3.226   5.418  0.3456  2.5030 -1.7308
 9347SOL    HW239678   4.571   3.237   5.302 -1.0678 -0.2092  0.3417
 9348SOL     OW39679   0.124   4.074  15.216 -0.4468  0.0655  0.0646
 9348SOL    HW139680   0.166   4.148  15.261 -2.7067  1.3541  0.0797
 9348SOL    HW239681   0.041   4.114  15.190 -0.9288 -0.0581  1.4255
 9349SOL     OW39682   0.735   0.901  14.020 -0.7359 -0.0326 -0.0392
 9349SOL    HW139683   0.820   0.927  14.055 -1.3260  1.9834 -0.1017
 9349SOL    HW239684   0.763   0.827  13.967 -0.3702 -1.1571  1.7193
 9350SOL     OW39685   1.148   0.308  12.536 -0.8233  0.1130  0.6559
 9350SOL    HW139686   1.145   0.244  12.607  1.9715 -1.0192 -0.2819
 9350SOL    HW239687   1.230   0.354  12.556  0.0872 -1.3033  0.1506
 9351SOL     OW39688   1.924   3.670   2.398 -0.4701 -0.4837  0.5714
 9351SOL    HW139689   1.894   3.586   2.362 -2.8517  1.3016 -1.5602
 9351SOL    HW239690   1.866   3.666   2.474  1.5023  2.5886  2.2490
 9352SOL     OW39691   2.288   3.397   2.592 -0.1455  0.3060 -0.0328
 9352SOL    HW139692   2.281   3.478   2.541  0.6297  0.5500  0.2468
 9352SOL    HW239693   2.377   3.385   2.624 -0.0652  0.4550 -0.1970
 9353SOL     OW39694   3.312   4.038   1.671 -0.2301 -0.3296  0.1827
 9353SOL    HW139695   3.265   4.008   1.593 -2.6892 -1.5782  2.1329
 9353SOL    HW239696   3.263   3.992   1.740  0.3114  0.6804  1.2313
 9354SOL     OW39697   4.069   4.171  15.477 -0.0077 -0.4629 -0.5660
 9354SOL    HW139698   4.150   4.153  15.430  1.3341  0.9861  1.1770
 9354SOL    HW239699   4.023   4.217  15.407  1.6706 -0.7982 -1.8761
 9355SOL     OW39700   2.938   2.192   7.377 -0.2919 -0.0483  0.4396
 9355SOL    HW139701   2.872   2.255   7.349  0.7220  1.5047  1.5391
 9355SOL    HW239702   2.985   2.233   7.450 -1.5414  4.7883 -1.4596
 9356SOL     OW39703   2.308   0.469   0.489  0.2151 -0.5228 -0.3804
 9356SOL    HW139704   2.355   0.423   0.420  0.3013  0.4061 -0.9292
 9356SOL    HW239705   2.343   0.434   0.571  0.2948 -0.5613 -0.4309
 9357SOL     OW39706   1.554   1.859   5.156 -0.1642 -0.4730  0.1875
 9357SOL    HW139707   1.459   1.868   5.148 -0.0471  0.5196 -0.0825
 9357SOL    HW239708   1.580   1.927   5.094 -1.3121 -0.4247 -0.2218
 9358SOL     OW39709   0.114   1.628   9.332 -0.7003  0.2533  0.2363
 9358SOL    HW139710   0.075   1.704   9.376  3.0026  1.3233  1.6316
 9358SOL    HW239711   0.197   1.620   9.379 -1.0418  1.2173  1.0089
 9359SOL     OW39712   1.040   4.107   1.389  0.3114 -0.0523 -0.0609
 9359SOL    HW139713   0.989   4.042   1.437 -1.3697  0.7225 -0.7999
 9359SOL    HW239714   0.970   4.143   1.335  0.1040 -1.0557 -0.4394
 9360SOL     OW39715   0.436   2.569  11.669  0.1139 -0.0955 -0.0812
 9360SOL    HW139716   0.456   2.604  11.756 -0.0496 -0.1720 -0.0124
 9360SOL    HW239717   0.385   2.644  11.638  1.1649  0.1831 -1.1132
 9361SOL     OW39718   1.292   2.899   1.639  0.0511  0.2693 -0.1935
 9361SOL    HW139719   1.353   2.921   1.568  2.9632  1.7506  2.7889
 9361SOL    HW239720   1.336   2.821   1.673 -1.2048 -0.0132  0.7828
 9362SOL     OW39721   3.454   0.014   7.327  0.4157  0.5708  0.3842
 9362SOL    HW139722   3.481   4.658   7.340  0.0460  0.2930 -0.8261
 9362SOL    HW239723   3.471   0.026   7.234  2.1554  0.1000  0.6423
 9363SOL     OW39724   4.180   3.689   6.667 -0.0758  0.0403 -0.0539
 9363SOL    HW139725   4.201   3.782   6.676  0.1447 -0.1215  1.0737
 9363SOL    HW239726   4.084   3.689   6.664  0.0412 -0.0091 -3.3589
 9364SOL     OW39727   4.189   2.479   9.615 -0.4542 -0.0774  0.1020
 9364SOL    HW139728   4.115   2.519   9.660 -1.1614  0.3677 -1.4722
 9364SOL    HW239729   4.256   2.547   9.623  0.6886 -0.9552 -2.0588
 9365SOL     OW39730   4.288   0.340   6.534 -0.0965  0.4416 -0.4043
 9365SOL    HW139731   4.338   0.412   6.573  0.2316 -0.6016  1.1011
 9365SOL    HW239732   4.215   0.386   6.493 -0.6250 -0.3026 -0.2902
 9366SOL     OW39733   0.498   2.873  13.501 -0.0796  0.0820  0.1255
 9366SOL    HW139734   0.411   2.884  13.539 -0.3985  2.2135 -1.2212
 9366SOL    HW239735   0.477   2.794  13.451 -0.1338 -0.3097  0.7677
 9367SOL     OW39736   4.293   4.161  12.002 -0.1846  0.7981 -0.4778
 9367SOL    HW139737   4.250   4.234  11.957 -2.8949 -0.2197  0.4629
 9367SOL    HW239738   4.249   4.088  11.959  0.1122  0.5817 -0.4122
 9368SOL     OW39739   0.265   1.404   9.185 -0.0274 -0.1175 -0.2186
 9368SOL    HW139740   0.263   1.499   9.183 -0.1875 -0.0740  2.1530
 9368SOL    HW239741   0.351   1.384   9.147 -0.6360  0.9282 -2.1239
 9369SOL     OW39742   1.427   2.673  17.034  0.4327 -0.4196 -0.8674
 9369SOL    HW139743   1.371   2.733  17.083  0.5999 -0.6411 -0.4048
 9369SOL    HW239744   1.511   2.715  17.054 -0.4661  1.5755 -1.3223
 9370SOL     OW39745   0.137   0.337   6.827 -0.1848 -0.6272 -0.6469
 9370SOL    HW139746   0.178   0.340   6.740  0.1735  0.3762 -0.4402
 9370SOL    HW239747   0.140   0.429   6.854  0.1766 -0.8075 -0.0788
 9371SOL     OW39748   2.958   1.145  10.088  0.6614  0.2117 -0.0568
 9371SOL    HW139749   3.015   1.139  10.012  1.2973 -0.3500  0.4572
 9371SOL    HW239750   2.926   1.235  10.084 -0.3198 -0.0878  0.8644
 9372SOL     OW39751   1.307   1.000   1.536 -0.0236 -0.5706  0.3012
 9372SOL    HW139752   1.343   0.918   1.501  0.6342 -1.2168  2.5088
 9372SOL    HW239753   1.263   1.035   1.458  1.3765 -1.0844 -0.7175
 9373SOL     OW39754   0.629   2.768  14.619 -0.1235  0.3191  0.1804
 9373SOL    HW139755   0.646   2.677  14.595  1.5921  0.8553 -0.6461
 9373SOL    HW239756   0.583   2.756  14.702 -1.7159  1.7568 -0.4877
 9374SOL     OW39757   2.974   1.934   4.944  0.1553 -0.0321  0.0796
 9374SOL    HW139758   2.907   1.919   4.877  0.1031 -0.8403  0.3123
 9374SOL    HW239759   2.963   2.027   4.964 -0.1747  0.0591 -0.5283
 9375SOL     OW39760   2.263   2.983   6.907  0.1295  0.4005 -0.2188
 9375SOL    HW139761   2.321   3.012   6.837 -0.7845  2.3575 -0.1635
 9375SOL    HW239762   2.207   2.930   6.849  1.2152 -0.9529 -0.0330
 9376SOL     OW39763   0.510   0.936   5.843  0.3639  0.2252  0.3263
 9376SOL    HW139764   0.541   0.951   5.932  0.4347 -1.0015  0.5138
 9376SOL    HW239765   0.509   1.020   5.798 -1.0204 -0.2517 -0.5361
 9377SOL     OW39766   4.396   4.575   1.421  0.5006 -0.0517 -0.3506
 9377SOL    HW139767   4.429   4.511   1.484  0.9492 -2.3069 -2.8776
 9377SOL    HW239768   4.352   4.636   1.479 -0.1027 -1.5912  0.8143
 9378SOL     OW39769   3.261   3.227  13.461 -0.1720 -0.2886 -0.8080
 9378SOL    HW139770   3.344   3.237  13.506  0.0679 -0.0474 -1.3047
 9378SOL    HW239771   3.271   3.296  13.395  1.5162  0.4655  0.2324
 9379SOL     OW39772   2.185   0.773   7.399  0.0926 -0.3217  0.0159
 9379SOL    HW139773   2.227   0.704   7.451  2.9739  0.1390 -1.7349
 9379SOL    HW239774   2.131   0.718   7.343  0.4199 -1.3214  0.6707
 9380SOL     OW39775   2.200   2.661   1.076 -0.3229 -0.0820  0.3205
 9380SOL    HW139776   2.113   2.691   1.050 -0.3876 -1.6054 -1.2359
 9380SOL    HW239777   2.250   2.676   0.995 -2.8529  1.8108 -0.8984
 9381SOL     OW39778   4.448   0.955   2.505  0.5253 -0.4515  0.1170
 9381SOL    HW139779   4.476   0.948   2.413 -1.6431  0.3223 -0.5947
 9381SOL    HW239780   4.490   0.877   2.543 -1.6552 -1.4491  0.4387
 9382SOL     OW39781   0.431   0.867   0.411 -0.3450 -0.0864  0.1574
 9382SOL    HW139782   0.404   0.841   0.500  0.7060 -0.6170  0.3160
 9382SOL    HW239783   0.506   0.921   0.433 -0.1311  0.3943 -1.7961
 9383SOL     OW39784   4.262   1.858   5.495  0.2581 -0.3501 -0.2064
 9383SOL    HW139785   4.268   1.817   5.581  1.1595 -0.1196 -0.1639
 9383SOL    HW239786   4.293   1.946   5.513  0.6542 -0.9138  1.8347
 9384SOL     OW39787   3.050   2.786   8.120 -0.2056  0.0805  0.2155
 9384SOL    HW139788   3.117   2.809   8.056 -0.9476 -0.7793 -0.8748
 9384SOL    HW239789   3.059   2.868   8.169 -0.3488  0.9322 -1.1516
 9385SOL     OW39790   2.399   0.048  17.358 -0.1280  0.3468 -0.3443
 9385SOL    HW139791   2.315   0.033  17.315  0.2129  1.2118 -1.3206
 9385SOL    HW239792   2.428   4.693  17.368 -0.6517  0.1951 -0.1823
 9386SOL     OW39793   3.840   0.937  10.326  0.6474 -0.2426 -0.1242
 9386SOL    HW139794   3.867   0.967  10.240  0.6423  1.6562  0.5350
 9386SOL    HW239795   3.836   0.841  10.330  0.8192 -0.2854 -1.2124
 9387SOL     OW39796   3.327   4.555  15.572  0.1641  0.4468 -0.2628
 9387SOL    HW139797   3.280   4.532  15.651  1.9703  1.5802  1.1490
 9387SOL    HW239798   3.278   4.507  15.505 -1.0910  1.6284 -0.1745
 9388SOL     OW39799   2.590   0.339   0.883 -0.1566  0.4521  0.0175
 9388SOL    HW139800   2.681   0.312   0.896  0.1848  2.3337  1.6860
 9388SOL    HW239801   2.542   0.266   0.922  1.3320 -0.8856 -0.6817
 9389SOL     OW39802   3.615   0.905   0.813 -0.0926  0.1678  0.4911
 9389SOL    HW139803   3.559   0.933   0.884 -0.5208  1.4683 -0.3686
 9389SOL    HW239804   3.547   0.874   0.753  1.2220 -0.1626 -0.8342
 9390SOL     OW39805   1.397   1.021  14.276 -0.2026 -0.2389 -0.3783
 9390SOL    HW139806   1.319   1.070  14.250 -0.3540 -0.5079 -0.4240
 9390SOL    HW239807   1.411   0.958  14.206  0.8688 -0.8785  0.4077
 9391SOL     OW39808   0.751   3.964  16.848 -0.1992 -0.3565  0.1576
 9391SOL    HW139809   0.795   3.966  16.763  0.0478 -0.7160  0.2775
 9391SOL    HW239810   0.669   4.006  16.823 -1.3903 -1.9477  1.4429
 9392SOL     OW39811   0.882   3.327   8.313  0.0898 -0.3412 -0.1336
 9392SOL    HW139812   0.974   3.342   8.335  0.8529 -1.8768 -2.1875
 9392SOL    HW239813   0.880   3.294   8.223 -1.7076  2.2127 -1.0005
 9393SOL     OW39814   3.637   0.516   4.985 -0.3505 -0.7122 -0.9079
 9393SOL    HW139815   3.629   0.434   5.034 -0.2320  0.9353  1.8683
 9393SOL    HW239816   3.567   0.489   4.925 -1.1256  0.0638 -0.3659
 9394SOL     OW39817   3.776   1.265   4.045  0.1943  0.3364 -0.3596
 9394SOL    HW139818   3.789   1.254   4.139 -0.5064  1.6420 -0.1111
 9394SOL    HW239819   3.811   1.352   4.028  1.0333  0.0659 -0.0220
 9395SOL     OW39820   0.187   4.388   7.475  0.7218 -0.0411 -0.1304
 9395SOL    HW139821   0.166   4.296   7.489  2.7111 -0.4194  0.4561
 9395SOL    HW239822   0.282   4.390   7.488  0.8734 -2.1866 -0.9193
 9396SOL     OW39823   1.564   1.385   3.747 -0.3399  0.1199 -0.2034
 9396SOL    HW139824   1.586   1.468   3.703  1.1260 -1.2735 -2.0913
 9396SOL    HW239825   1.592   1.315   3.688 -0.8457  0.1717 -0.5099
 9397SOL     OW39826   4.459   4.273   1.083 -0.1923  0.8086  0.4814
 9397SOL    HW139827   4.519   4.236   1.147  2.2583  1.9194 -1.1730
 9397SOL    HW239828   4.399   4.332   1.130 -0.5773  0.6963  0.1326
 9398SOL     OW39829   4.434   4.377   3.122  0.5882 -0.6037 -0.1943
 9398SOL    HW139830   4.393   4.293   3.142 -3.1993  0.7625 -2.1343
 9398SOL    HW239831   4.428   4.370   3.027 -2.5869 -0.6769  0.0200
 9399SOL     OW39832   3.273   2.676   1.903 -0.0316  0.6353 -0.1281
 9399SOL    HW139833   3.228   2.610   1.956  0.7503 -0.4631 -0.8392
 9399SOL    HW239834   3.196   2.696   1.849 -0.3104 -0.7600 -0.2567
 9400SOL     OW39835   0.571   0.826   8.110 -0.1800 -0.0561  0.5008
 9400SOL    HW139836   0.609   0.824   8.022 -0.0002 -2.2524  0.6276
 9400SOL    HW239837   0.529   0.740   8.108 -0.2736  0.0047 -0.2477
 9401SOL     OW39838   2.362   3.960   9.479 -0.0892  0.1088  0.0220
 9401SOL    HW139839   2.358   3.981   9.573 -0.3482  0.9882 -0.1874
 9401SOL    HW239840   2.273   3.927   9.471 -0.4667  0.6454  2.0091
 9402SOL     OW39841   3.862   4.657   3.100 -0.0098  0.0558  0.3203
 9402SOL    HW139842   3.864   0.014   3.126 -1.5718  0.2732 -0.3224
 9402SOL    HW239843   3.921   4.623   3.167 -2.1828  0.3700  2.3997
 9403SOL     OW39844   2.034   3.378  15.264 -0.0474  0.2668 -0.1282
 9403SOL    HW139845   2.089   3.379  15.186 -0.4478  1.9019 -0.3746
 9403SOL    HW239846   1.989   3.296  15.243  1.1169 -0.0859 -1.2536
 9404SOL     OW39847   4.660   1.996  15.170  0.8332 -0.7877  0.2119
 9404SOL    HW139848   4.724   1.954  15.113  2.9915  2.9611 -0.1768
 9404SOL    HW239849   4.623   1.925  15.222  1.3583 -1.0218  0.2580
 9405SOL     OW39850   3.325   2.836   5.851  0.2831  0.0619  0.0278
 9405SOL    HW139851   3.297   2.909   5.796  1.2772  0.9738  0.7245
 9405SOL    HW239852   3.288   2.872   5.931  1.5905  0.1836  0.5921
 9406SOL     OW39853   4.012   0.968   8.417 -0.0042  0.3415 -0.0176
 9406SOL    HW139854   4.034   0.960   8.510  1.4251 -0.1092 -0.3971
 9406SOL    HW239855   3.975   0.883   8.391 -2.1412  1.0072  0.8559
 9407SOL     OW39856   2.545   4.032   2.486  0.1003 -0.2836 -0.0251
 9407SOL    HW139857   2.474   3.972   2.461  0.3712 -0.7932  0.4057
 9407SOL    HW239858   2.611   3.969   2.516 -1.1360 -1.5516  0.0231
 9408SOL     OW39859   0.551   3.815   5.734  0.1787  0.1093 -0.1571
 9408SOL    HW139860   0.508   3.803   5.819  0.0911  0.5163 -0.1457
 9408SOL    HW239861   0.644   3.799   5.749  0.4600  0.6713 -1.2838
 9409SOL     OW39862   1.661   1.960  13.695  0.1795  0.3783 -0.4421
 9409SOL    HW139863   1.574   1.935  13.662 -0.4140 -0.3811  1.6720
 9409SOL    HW239864   1.698   1.873  13.709  0.3189  0.9242  2.5056
 9410SOL     OW39865   4.602   2.647  10.807  0.4255  0.3043  0.4890
 9410SOL    HW139866   4.653   2.574  10.843  0.0143 -0.7370 -1.0653
 9410SOL    HW239867   4.668   2.711  10.782  0.0404 -0.3053 -2.0921
 9411SOL     OW39868   3.166   0.548   5.423 -0.1945  0.5831  0.5698
 9411SOL    HW139869   3.082   0.525   5.383  0.7344 -2.6906  0.5052
 9411SOL    HW239870   3.190   0.608   5.352 -0.3044 -0.9367 -0.7491
 9412SOL     OW39871   1.622   4.513  11.311 -0.5153  0.0446 -0.0745
 9412SOL    HW139872   1.645   4.606  11.310  0.5608 -0.2775 -3.1298
 9412SOL    HW239873   1.583   4.511  11.399 -1.8069 -0.4716 -0.6648
 9413SOL     OW39874   2.470   0.629   9.082  0.4622  0.3272  0.2465
 9413SOL    HW139875   2.456   0.581   9.001 -0.7047  0.0085  0.6417
 9413SOL    HW239876   2.411   0.577   9.136 -1.4804  2.6817  0.3523
 9414SOL     OW39877   4.383   1.768   9.264 -0.1443 -0.5105 -0.3789
 9414SOL    HW139878   4.395   1.807   9.350 -2.0219 -2.2349  0.6496
 9414SOL    HW239879   4.373   1.848   9.213 -1.7255 -0.4038  0.0980
 9415SOL     OW39880   1.111   1.344   1.601 -0.1133  0.5243 -0.0887
 9415SOL    HW139881   1.048   1.290   1.553  0.7406  0.3205 -0.9683
 9415SOL    HW239882   1.070   1.430   1.591 -0.2972  0.1792 -2.2750
 9416SOL     OW39883   2.993   0.952   5.040 -0.0178  0.4281 -0.3089
 9416SOL    HW139884   3.025   0.876   4.991 -2.2800  1.3780 -3.2708
 9416SOL    HW239885   2.967   1.009   4.968  2.4940  0.2533 -1.3623
 9417SOL     OW39886   1.244   2.869   5.894 -0.2186  0.1809  0.6773
 9417SOL    HW139887   1.202   2.784   5.888  3.4176 -1.4974 -0.6793
 9417SOL    HW239888   1.334   2.843   5.874 -0.1191  0.7890  0.3122
 9418SOL     OW39889   0.187   3.166  13.507 -0.1741 -0.3293 -0.5349
 9418SOL    HW139890   0.210   3.083  13.464 -0.6763 -0.5598 -0.3631
 9418SOL    HW239891   0.251   3.224  13.466  0.7324 -1.9887 -1.5073
 9419SOL     OW39892   1.454   0.910  10.233 -0.0683 -0.1413 -0.2007
 9419SOL    HW139893   1.547   0.900  10.253 -0.4009  1.7420  2.2723
 9419SOL    HW239894   1.453   0.982  10.170  3.0060  0.2534  0.2052
 9420SOL     OW39895   1.465   4.013   2.873 -0.3674  0.0193  0.2725
 9420SOL    HW139896   1.488   3.928   2.835  0.9423  0.6752 -0.4000
 9420SOL    HW239897   1.533   4.021   2.941 -1.2955  3.5182  0.8027
 9421SOL     OW39898   2.150   2.241   5.983  0.4208 -0.1752 -0.3764
 9421SOL    HW139899   2.074   2.286   6.019  1.2149 -1.3827  2.8047
 9421SOL    HW239900   2.128   2.246   5.890 -1.0274 -2.8517 -0.1805
 9422SOL     OW39901   1.070   2.433   9.366  0.3242  0.2029  0.0858
 9422SOL    HW139902   1.149   2.472   9.327  1.1598  1.2568  2.8329
 9422SOL    HW239903   1.024   2.512   9.395  2.8318  1.7154 -0.0091
 9423SOL     OW39904   4.194   0.277  12.855  0.3422 -0.2520 -0.4587
 9423SOL    HW139905   4.101   0.256  12.860  0.5351 -1.3636 -1.7315
 9423SOL    HW239906   4.232   0.189  12.855 -0.3849 -0.5616  1.5648
 9424SOL     OW39907   1.169   2.776   7.674  0.1910  0.4906  0.5512
 9424SOL    HW139908   1.196   2.828   7.598 -1.6270  0.8408  0.1391
 9424SOL    HW239909   1.239   2.711   7.671 -0.2790 -0.0294  0.9133
 9425SOL     OW39910   1.701   0.795   1.678 -0.0376 -0.0215  0.2718
 9425SOL    HW139911   1.704   0.888   1.699 -1.6610  0.0285  0.2881
 9425SOL    HW239912   1.634   0.767   1.741 -0.7802  1.2002  0.0091
 9426SOL     OW39913   2.846   2.233   3.376 -0.5155 -0.0562 -0.0238
 9426SOL    HW139914   2.930   2.267   3.405 -1.0622 -0.5518  2.1532
 9426SOL    HW239915   2.825   2.303   3.315  1.4270 -1.2567 -2.0281
 9427SOL     OW39916   0.287   3.369  12.507  0.8998  0.5019  0.5669
 9427SOL    HW139917   0.353   3.420  12.555  2.2824 -0.3230 -0.4740
 9427SOL    HW239918   0.232   3.431  12.459  0.2276 -0.8079 -0.3498
 9428SOL     OW39919   0.747   2.370   4.942  0.1536  0.6633  0.1473
 9428SOL    HW139920   0.695   2.380   4.862  1.7979 -0.7130 -1.0818
 9428SOL    HW239921   0.713   2.286   4.973  4.0599 -1.5139 -1.5012
 9429SOL     OW39922   2.349   0.924   6.626 -0.0978 -0.4051  0.1683
 9429SOL    HW139923   2.389   1.010   6.613 -1.9685  0.2818 -1.0176
 9429SOL    HW239924   2.255   0.940   6.626 -0.4628 -2.6343  2.1088
 9430SOL     OW39925   1.330   0.192   9.456 -0.1754 -0.2133 -0.3232
 9430SOL    HW139926   1.269   0.264   9.470 -0.6391 -0.9622  1.4477
 9430SOL    HW239927   1.334   0.156   9.544  0.1992  0.7969  0.0781
 9431SOL     OW39928   1.822   0.612   2.454  0.0777  0.1195  0.2753
 9431SOL    HW139929   1.766   0.595   2.529  0.4405  1.6132  0.8775
 9431SOL    HW239930   1.763   0.656   2.393  1.0184  1.2113  0.1313
 9432SOL     OW39931   0.792   3.652   2.693  0.0702  0.2919  0.2128
 9432SOL    HW139932   0.751   3.669   2.778  0.4327 -0.4782  0.5460
 9432SOL    HW239933   0.869   3.710   2.697  0.6578 -0.5026  0.4981
 9433SOL     OW39934   2.026   2.622   4.705  0.0886 -0.5940 -0.0136
 9433SOL    HW139935   1.933   2.602   4.694  0.5826 -2.6814 -0.5112
 9433SOL    HW239936   2.037   2.680   4.630 -0.4769 -2.4849 -1.5588
 9434SOL     OW39937   4.296   0.904   8.198 -0.3662 -0.0948  0.0796
 9434SOL    HW139938   4.387   0.874   8.204 -0.9476 -1.7662  0.4576
 9434SOL    HW239939   4.266   0.889   8.287 -0.9104  0.3294 -0.0348
 9435SOL     OW39940   4.037   2.112   2.879 -0.3136  0.6944 -0.1273
 9435SOL    HW139941   4.054   2.187   2.822  2.0918  1.6568  1.8551
 9435SOL    HW239942   4.111   2.062   2.845 -0.2755  0.0774  0.8827
 9436SOL     OW39943   0.800   3.291   4.676  0.4095  0.5139  0.1363
 9436SOL    HW139944   0.797   3.196   4.661 -1.1470  0.5693  0.1117
 9436SOL    HW239945   0.894   3.303   4.683  0.3625  1.1732 -0.3554
 9437SOL     OW39946   2.512   0.079   0.930 -0.4986  0.4409  0.0563
 9437SOL    HW139947   2.502   0.087   0.835 -0.9908 -0.9066 -0.0125
 9437SOL    HW239948   2.572   0.005   0.938 -0.3852  0.7195  1.8708
 9438SOL     OW39949   2.704   4.382   8.364 -0.4438  0.2040 -0.0395
 9438SOL    HW139950   2.667   4.294   8.360  0.3337 -0.3391  4.4689
 9438SOL    HW239951   2.738   4.392   8.275  3.7432  0.7235  1.6075
 9439SOL     OW39952   4.398   4.004   8.110  0.0908 -0.3505 -0.5652
 9439SOL    HW139953   4.438   4.090   8.122  0.8011 -0.9072  1.0629
 9439SOL    HW239954   4.432   3.949   8.181  0.8681  0.9013  0.0342
 9440SOL     OW39955   3.365   4.579   8.221 -0.4394  0.7525  0.4029
 9440SOL    HW139956   3.342   4.646   8.156  0.9079  0.0254 -0.8370
 9440SOL    HW239957   3.457   4.557   8.204 -0.3359 -0.6055  2.7859
 9441SOL     OW39958   4.175   1.742   1.868  0.7521  0.1862  0.5016
 9441SOL    HW139959   4.226   1.763   1.790  1.0141  3.1295  1.4695
 9441SOL    HW239960   4.199   1.651   1.885  0.0421 -0.1970 -0.5559
 9442SOL     OW39961   0.092   3.257  11.991 -0.2761 -0.7808 -0.0777
 9442SOL    HW139962   0.173   3.249  11.941  0.6805  3.6240  0.7353
 9442SOL    HW239963   0.104   3.196  12.064  0.5711 -1.2163 -0.5848
 9443SOL     OW39964   4.004   1.677  11.166  0.2188 -0.1505 -0.2175
 9443SOL    HW139965   3.923   1.650  11.209  0.0011 -0.4804 -0.8382
 9443SOL    HW239966   4.077   1.624  11.196 -2.1160 -3.4856 -0.4692
 9444SOL     OW39967   4.449   2.228  14.352  0.4292 -0.0716  0.5454
 9444SOL    HW139968   4.385   2.189  14.292  0.8740  1.4183 -0.9198
 9444SOL    HW239969   4.460   2.160  14.418 -2.1977 -0.7760  0.2366
 9445SOL     OW39970   2.803   0.360   4.013 -0.0866 -0.1051  0.2766
 9445SOL    HW139971   2.890   0.400   4.020 -0.3509  0.8984 -2.0785
 9445SOL    HW239972   2.820   0.313   3.931  0.7372 -1.0887  1.0046
 9446SOL     OW39973   3.201   3.983   3.421 -0.3711 -0.6146 -0.1175
 9446SOL    HW139974   3.181   4.076   3.414 -1.5938 -0.9725 -1.2465
 9446SOL    HW239975   3.245   3.980   3.507  0.4937  0.5812 -0.5136
 9447SOL     OW39976   3.210   0.919   4.603 -0.0452  0.0268  0.1386
 9447SOL    HW139977   3.247   0.977   4.670  1.0630  0.5075 -0.8949
 9447SOL    HW239978   3.257   0.952   4.527  2.4493  3.1780  3.0661
 9448SOL     OW39979   0.648   3.629   2.446  0.5513 -0.1483  0.6286
 9448SOL    HW139980   0.717   3.641   2.511  1.2327  3.4427 -0.7297
 9448SOL    HW239981   0.678   3.554   2.395 -1.9696  0.3030 -1.4990
 9449SOL     OW39982   3.455   3.782   1.899  0.3880 -0.4024  0.5273
 9449SOL    HW139983   3.536   3.741   1.868  1.9234  2.9872 -0.0028
 9449SOL    HW239984   3.499   3.858   1.937  0.9047 -0.7446  0.6159
 9450SOL     OW39985   1.127   3.852  10.658 -0.7840  0.4232 -0.3711
 9450SOL    HW139986   1.072   3.783  10.620 -1.3520  0.2829  0.6925
 9450SOL    HW239987   1.206   3.799  10.673 -1.5043 -0.8240 -0.9788
 9451SOL     OW39988   3.323   3.883   7.584  0.2337  0.1174  0.1467
 9451SOL    HW139989   3.382   3.860   7.512  0.7056 -0.3989  0.6944
 9451SOL    HW239990   3.236   3.876   7.545  0.9165 -0.8499 -1.2079
 9452SOL     OW39991   1.065   1.995   1.969  0.2353 -0.1307 -0.8135
 9452SOL    HW139992   1.055   2.047   2.049 -0.5400 -1.8669  0.2240
 9452SOL    HW239993   1.146   1.948   1.989 -0.8529 -1.4714  0.4484
 9453SOL     OW39994   3.344   1.386   7.827 -0.1956 -0.2229 -0.2815
 9453SOL    HW139995   3.293   1.339   7.893 -0.1154  0.8959  0.5767
 9453SOL    HW239996   3.322   1.476   7.851  2.3833 -0.0281  1.3804
 9454SOL     OW39997   1.390   3.746   8.828 -0.0907 -0.6453  0.2838
 9454SOL    HW139998   1.376   3.831   8.870  2.4402  0.0316 -0.2153
 9454SOL    HW239999   1.469   3.764   8.778 -1.4814 -0.6574 -1.8824
 9455SOL     OW40000   3.877   0.164   3.203  0.6214 -0.1450 -0.1458
 9455SOL    HW140001   3.896   0.221   3.129 -2.1189 -1.8120 -2.1519
 9455SOL    HW240002   3.915   0.218   3.272 -3.2296 -1.1531  2.7973
 9456SOL     OW40003   3.594   3.907   2.400 -1.3412  0.1779 -0.4672
 9456SOL    HW140004   3.569   3.958   2.323 -0.8322  2.1173  0.6612
 9456SOL    HW240005   3.588   3.816   2.371  0.4181 -0.3782  0.9019
 9457SOL     OW40006   0.359   1.877  14.146  0.8505 -0.2755  0.4800
 9457SOL    HW140007   0.391   1.911  14.062  4.3778 -2.7889  0.8002
 9457SOL    HW240008   0.380   1.946  14.209  2.7899  0.0618 -0.5539
 9458SOL     OW40009   0.193   3.276  13.133  0.2873  0.5849  0.0868
 9458SOL    HW140010   0.280   3.294  13.098  0.4717 -0.7776 -0.1458
 9458SOL    HW240011   0.180   3.353  13.189  0.2072  0.4027  0.3143
 9459SOL     OW40012   2.588   0.630  13.140  0.4732  0.0472 -0.5715
 9459SOL    HW140013   2.574   0.670  13.226 -0.4881  1.1327 -1.2181
 9459SOL    HW240014   2.500   0.630  13.102  0.4975  0.2859 -0.6308
 9460SOL     OW40015   1.484   0.808   9.848  0.0186 -0.1368  0.1412
 9460SOL    HW140016   1.495   0.791   9.754 -1.0871 -0.3227  0.0408
 9460SOL    HW240017   1.575   0.794   9.871 -0.2050 -0.0858  1.0487
 9461SOL     OW40018   1.065   0.166   7.817 -0.3930 -0.4290 -0.8533
 9461SOL    HW140019   1.116   0.150   7.897  0.9693  1.3470 -1.3688
 9461SOL    HW240020   1.140   0.147   7.761 -1.1320 -3.4548 -0.7854
 9462SOL     OW40021   4.154   0.335   8.906  0.1014  0.1651 -0.3305
 9462SOL    HW140022   4.208   0.261   8.933 -0.1368  0.6352  1.4374
 9462SOL    HW240023   4.229   0.390   8.884  0.2849 -0.3871 -1.0940
 9463SOL     OW40024   0.845   2.509   4.608  0.5849  0.3342 -0.4264
 9463SOL    HW140025   0.799   2.559   4.541 -2.0656  0.2760  1.3433
 9463SOL    HW240026   0.832   2.567   4.684  0.1058 -1.1347  0.6036
 9464SOL     OW40027   3.069   0.216   4.190 -0.2176  0.3745  0.6035
 9464SOL    HW140028   3.061   0.136   4.137  1.6913  0.9321 -0.5666
 9464SOL    HW240029   2.979   0.223   4.219 -0.2738 -1.7620  0.9493
 9465SOL     OW40030   2.725   0.020   4.844  0.5825  0.2329 -0.1448
 9465SOL    HW140031   2.745   4.662   4.852 -0.0707  0.1475  0.5614
 9465SOL    HW240032   2.644   0.011   4.795 -0.5529 -1.8230  2.0917
 9466SOL     OW40033   3.658   0.686   0.587  0.6745 -0.1884 -0.2480
 9466SOL    HW140034   3.567   0.707   0.608  0.7344  1.1447 -1.3072
 9466SOL    HW240035   3.670   0.758   0.525  0.0332  0.9215  0.9276
 9467SOL     OW40036   0.653   2.792   1.976 -0.2537  0.2081 -0.0638
 9467SOL    HW140037   0.603   2.819   1.899  1.7934  2.6597 -0.5046
 9467SOL    HW240038   0.736   2.762   1.939  0.0379  0.1679  0.6296
 9468SOL     OW40039   1.335   4.313   5.242  0.0219 -0.4350 -0.6062
 9468SOL    HW140040   1.291   4.231   5.261  0.3116 -0.6951 -1.0544
 9468SOL    HW240041   1.424   4.287   5.267 -0.8339 -1.1693  1.6652
 9469SOL     OW40042   1.049   0.254  15.042  0.0667  0.5156  0.7756
 9469SOL    HW140043   0.954   0.258  15.043  0.0041 -0.6129 -1.7902
 9469SOL    HW240044   1.076   0.330  14.991 -2.3279 -0.2210 -1.5786
 9470SOL     OW40045   2.280   1.596   4.330 -0.0794 -0.0027  0.2377
 9470SOL    HW140046   2.228   1.676   4.327 -1.0319 -0.5956  1.2951
 9470SOL    HW240047   2.360   1.629   4.288  0.6834  0.4149  2.0084
 9471SOL     OW40048   4.650   0.574   7.617 -0.0805 -0.0272  0.4001
 9471SOL    HW140049   4.568   0.622   7.616  0.2487  0.5758  2.0963
 9471SOL    HW240050   4.608   0.490   7.597  1.4370 -0.3864 -1.3030
 9472SOL     OW40051   3.756   0.633   4.175 -0.5059 -0.6645 -0.8823
 9472SOL    HW140052   3.740   0.704   4.113  1.0731  0.6480  0.2145
 9472SOL    HW240053   3.695   0.568   4.140 -0.5388 -0.9974 -0.2034
 9473SOL     OW40054   1.956   4.631   3.319 -0.4334  0.0529 -0.0008
 9473SOL    HW140055   1.991   4.542   3.307 -1.1645 -0.8451  4.3785
 9473SOL    HW240056   1.918   4.621   3.406 -0.7247  1.0540 -0.0127
 9474SOL     OW40057   2.531   3.396  17.733 -0.2130  0.3152  0.1243
 9474SOL    HW140058   2.616   3.388  17.689  0.5995 -0.5877  1.8244
 9474SOL    HW240059   2.505   3.304  17.731 -2.1431  0.8406  1.5897
 9475SOL     OW40060   4.488   3.747  17.517  0.0138 -0.1818 -0.3440
 9475SOL    HW140061   4.556   3.814  17.517 -0.4074  0.2429  1.9028
 9475SOL    HW240062   4.541   3.668  17.517  0.3039  0.0056 -1.1001
 9476SOL     OW40063   1.157   2.525   8.054  0.5646  0.1309  0.0028
 9476SOL    HW140064   1.071   2.487   8.033  0.3599  1.3904 -1.4490
 9476SOL    HW240065   1.139   2.612   8.020 -0.5931  0.2327  0.8741
 9477SOL     OW40066   4.366   3.119  14.272  0.4758 -0.2011 -0.6077
 9477SOL    HW140067   4.354   3.144  14.363  2.9656  1.2578 -0.6688
 9477SOL    HW240068   4.460   3.098  14.267  0.2692 -1.2251 -0.1897
 9478SOL     OW40069   4.724   3.597   7.386  0.0819 -0.0456 -0.3186
 9478SOL    HW140070   4.638   3.557   7.372  0.5787 -1.3170  0.3099
 9478SOL    HW240071   0.005   3.644   7.304 -2.3647  1.4979  0.0525
 9479SOL     OW40072   2.798   3.646   7.209 -0.0024 -0.1634  0.1012
 9479SOL    HW140073   2.768   3.714   7.148  0.7284 -0.1999 -0.2976
 9479SOL    HW240074   2.754   3.669   7.291  0.6394  1.3908  0.0221
 9480SOL     OW40075   3.012   3.273  16.395  0.2477  0.7779 -0.6856
 9480SOL    HW140076   3.086   3.292  16.338  0.7355  3.7530  0.9122
 9480SOL    HW240077   2.957   3.351  16.384  1.8223  1.9193 -0.4295
 9481SOL     OW40078   2.547   0.202   1.332 -0.8622  0.4503 -0.1613
 9481SOL    HW140079   2.626   0.164   1.371  1.3437  1.4862 -3.5864
 9481SOL    HW240080   2.478   0.163   1.386  0.4912  0.1685  1.3767
 9482SOL     OW40081   1.894   4.656  14.283  0.2192 -0.2300  0.2588
 9482SOL    HW140082   1.893   4.561  14.283 -1.2481 -0.2072 -1.6180
 9482SOL    HW240083   1.821   4.665  14.222  0.2489  0.0511  0.2613
 9483SOL     OW40084   0.244   4.705   3.189  0.4575  0.1852  0.2691
 9483SOL    HW140085   0.286   0.024   3.255  0.4009 -0.5783  0.9289
 9483SOL    HW240086   0.239   4.621   3.234 -0.7368 -0.2302 -0.6151
 9484SOL     OW40087   0.859   1.835   4.796  0.7169  0.3200  0.6863
 9484SOL    HW140088   0.920   1.763   4.779 -0.9081 -0.9445  0.2381
 9484SOL    HW240089   0.863   1.889   4.717  0.2700  1.0795  1.1850
 9485SOL     OW40090   3.756   0.831   2.362 -0.1767 -0.0256 -0.0602
 9485SOL    HW140091   3.660   0.837   2.359 -0.2340  0.7724  3.3576
 9485SOL    HW240092   3.786   0.907   2.312 -0.0004  0.7308  1.2170
 9486SOL     OW40093   3.499   0.350   3.300  0.1368 -0.3679 -0.2111
 9486SOL    HW140094   3.461   0.390   3.378 -0.4316  1.6252 -1.5186
 9486SOL    HW240095   3.515   0.431   3.253 -2.9428  0.3154 -0.0785
 9487SOL     OW40096   0.940   1.985   3.507 -0.4069 -0.1011  0.7038
 9487SOL    HW140097   0.953   2.013   3.416 -1.9235  0.2055  0.5763
 9487SOL    HW240098   0.857   2.030   3.528 -1.1248 -0.7299 -0.7900
 9488SOL     OW40099   0.749   4.371   8.732 -0.3032  0.2122 -0.0781
 9488SOL    HW140100   0.728   4.289   8.687  2.8744  0.4219 -1.9836
 9488SOL    HW240101   0.663   4.412   8.737 -1.4829 -2.2251 -0.3109
 9489SOL     OW40102   1.562   0.065   5.632 -0.1626  0.2707  0.4137
 9489SOL    HW140103   1.561   0.042   5.539 -0.3607  0.5701  0.3398
 9489SOL    HW240104   1.535   4.717   5.670 -1.0325  0.0939 -0.5886
 9490SOL     OW40105   3.223   4.660   3.947  0.1769  0.2099  0.3549
 9490SOL    HW140106   3.188   4.605   4.017  0.4917  0.9375  1.0872
 9490SOL    HW240107   3.315   4.638   3.961  0.3329  1.4345  1.2855
 9491SOL     OW40108   0.537   0.814  11.124 -0.1729  0.5270  0.5605
 9491SOL    HW140109   0.560   0.884  11.063  0.1264  0.3189  0.4358
 9491SOL    HW240110   0.613   0.798  11.179 -0.3148  1.1711  0.9419
 9492SOL     OW40111   4.037   1.820   5.715  0.4464  0.0025  0.0938
 9492SOL    HW140112   4.078   1.735   5.731 -0.0106  0.3775  3.3330
 9492SOL    HW240113   4.116   1.873   5.707  0.2679 -0.3148 -3.7178
 9493SOL     OW40114   4.303   0.211  16.954  0.0265  0.1460 -0.1569
 9493SOL    HW140115   4.397   0.227  16.943  0.0675 -1.7241 -2.4322
 9493SOL    HW240116   4.289   0.284  16.894 -0.5715  0.4864  0.3921
 9494SOL     OW40117   2.784   3.327   8.258 -0.3856 -0.1142 -0.3383
 9494SOL    HW140118   2.807   3.415   8.290  0.7472 -1.1404  1.6779
 9494SOL    HW240119   2.866   3.301   8.217 -0.0694  1.7404 -0.8956
 9495SOL     OW40120   2.894   1.425   1.866  0.1384  0.2773 -0.0425
 9495SOL    HW140121   2.956   1.450   1.934  0.7746  2.2177 -1.3276
 9495SOL    HW240122   2.833   1.499   1.877 -1.2777 -0.7289 -1.0711
 9496SOL     OW40123   4.629   1.984   9.701  0.3607 -0.3529  0.1925
 9496SOL    HW140124   4.571   1.950   9.769 -0.9446  0.0636 -0.7193
 9496SOL    HW240125   4.710   1.953   9.742  1.5586  2.2800 -0.1183
 9497SOL     OW40126   4.241   0.845  12.120 -0.2019  0.3256  0.1224
 9497SOL    HW140127   4.177   0.858  12.051  1.2857  1.0680 -1.1088
 9497SOL    HW240128   4.316   0.885  12.077 -1.1810  2.1052  0.1046
 9498SOL     OW40129   2.196   4.591   4.945  0.2123 -0.0451 -0.0655
 9498SOL    HW140130   2.270   4.639   4.982 -1.1717  1.5125  0.6582
 9498SOL    HW240131   2.245   4.541   4.880 -0.9392 -0.2314 -0.8009
 9499SOL     OW40132   3.192   0.482  16.217  0.0768  0.0669  0.1068
 9499SOL    HW140133   3.232   0.422  16.280 -0.0841 -0.0566  0.0918
 9499SOL    HW240134   3.253   0.467  16.145 -0.2383 -2.4048  0.3418
 9500SOL     OW40135   0.974   0.505   5.268  0.2529  0.4876 -0.3415
 9500SOL    HW140136   1.050   0.559   5.288  0.9199 -0.5104 -0.1892
 9500SOL    HW240137   1.018   0.421   5.253  1.1341  0.8437  0.2623
 9501SOL     OW40138   1.969   3.657   7.462  0.7977 -0.1943 -0.0981
 9501SOL    HW140139   1.877   3.679   7.473  1.0223 -0.9866  3.4925
 9501SOL    HW240140   1.961   3.581   7.404 -0.5154 -0.3721  0.3116
 9502SOL     OW40141   0.853   3.216   5.136 -0.0224 -0.7487  0.1905
 9502SOL    HW140142   0.891   3.305   5.136  1.4673 -1.3751  1.4004
 9502SOL    HW240143   0.788   3.239   5.070  0.5474  0.1371 -0.0683
 9503SOL     OW40144   0.095   3.529   6.833  0.0305 -0.5702 -0.5018
 9503SOL    HW140145   0.089   3.598   6.767  1.2054  2.2889  2.3590
 9503SOL    HW240146   0.106   3.449   6.781 -0.2993 -1.3351  0.5962
 9504SOL     OW40147   1.199   0.652  16.925  0.1264 -0.1806  0.6426
 9504SOL    HW140148   1.199   0.667  17.019  0.8095 -0.3797  0.6759
 9504SOL    HW240149   1.227   0.740  16.900  0.5311 -0.8345 -1.2042
 9505SOL     OW40150   3.631   0.674   7.408 -0.5089 -0.3622  1.0666
 9505SOL    HW140151   3.593   0.635   7.330 -0.5282  1.0751  0.3746
 9505SOL    HW240152   3.563   0.703   7.468  1.2567  4.1064  0.9022
 9506SOL     OW40153   1.652   1.621   5.235 -0.0426 -0.2666  0.1660
 9506SOL    HW140154   1.737   1.636   5.276  0.7094  0.0364 -1.4857
 9506SOL    HW240155   1.630   1.707   5.200  2.9566  0.0064 -1.0178
 9507SOL     OW40156   3.110   3.784   5.740  0.1845  0.1420 -0.1058
 9507SOL    HW140157   3.162   3.860   5.714 -0.4858 -0.1277 -2.1704
 9507SOL    HW240158   3.167   3.733   5.798 -0.3367  2.3794  2.3859
 9508SOL     OW40159   1.369   0.767   4.372 -0.2238  0.4075 -0.1871
 9508SOL    HW140160   1.330   0.836   4.424  0.5416 -0.4076  1.4777
 9508SOL    HW240161   1.298   0.747   4.311 -0.2653 -1.0358  0.3183
 9509SOL     OW40162   2.197   1.928   4.577 -0.1298  0.3424 -0.2952
 9509SOL    HW140163   2.116   1.969   4.606  1.2699  1.6088  1.7909
 9509SOL    HW240164   2.257   1.967   4.640  1.3237 -1.5609 -0.4754
 9510SOL     OW40165   0.456   2.801   7.254  0.2949 -0.1865  0.1901
 9510SOL    HW140166   0.412   2.750   7.322 -0.9853  2.0183  1.0310
 9510SOL    HW240167   0.481   2.878   7.306  0.6351 -1.2830  1.6407
 9511SOL     OW40168   0.415   2.769   3.593 -0.5527 -0.1977  0.4927
 9511SOL    HW140169   0.321   2.768   3.610 -0.2096 -0.6397  2.3635
 9511SOL    HW240170   0.436   2.860   3.615  0.1229 -0.3874  0.6183
 9512SOL     OW40171   3.545   2.381   9.407  0.1750 -0.4274  0.4894
 9512SOL    HW140172   3.538   2.351   9.316 -0.5202  1.6592 -0.1652
 9512SOL    HW240173   3.580   2.305   9.452 -0.8130 -0.0974  1.8134
 9513SOL     OW40174   1.150   4.043  10.435  0.1760  0.0305  0.0479
 9513SOL    HW140175   1.154   3.963  10.487 -1.2587  0.4483  0.8284
 9513SOL    HW240176   1.231   4.043  10.384 -0.1786 -1.6131 -0.4915
 9514SOL     OW40177   3.975   2.942   9.996  0.4129  0.5552 -0.1117
 9514SOL    HW140178   3.941   2.852   9.995 -0.7887  1.0153 -0.4735
 9514SOL    HW240179   3.936   2.989  10.069  0.5697 -1.6299  1.3681
 9515SOL     OW40180   4.193   4.298   6.421  0.4593 -0.5027  0.1576
 9515SOL    HW140181   4.241   4.286   6.339 -1.9560  0.9338 -1.4729
 9515SOL    HW240182   4.102   4.301   6.390  0.3286  3.0420  0.8104
 9516SOL     OW40183   2.196   3.014   7.896 -0.0248 -0.2320  0.1625
 9516SOL    HW140184   2.289   3.037   7.895 -0.2230  0.4704 -1.5122
 9516SOL    HW240185   2.160   3.082   7.953  0.1658  0.2927 -0.3447
 9517SOL     OW40186   4.473   3.737   6.650  0.0545  0.0846 -0.4739
 9517SOL    HW140187   4.403   3.800   6.666  0.1735 -0.7422  3.3075
 9517SOL    HW240188   4.463   3.727   6.556  0.3667  1.5513 -0.6574
 9518SOL     OW40189   2.041   2.511   1.893  0.1495 -0.0739 -0.2194
 9518SOL    HW140190   2.091   2.591   1.875  0.2173 -0.3428 -1.2081
 9518SOL    HW240191   2.016   2.517   1.985  1.3245  0.7054  0.0545
 9519SOL     OW40192   3.105   1.316   6.999  0.2492 -0.5352 -0.2374
 9519SOL    HW140193   3.084   1.281   7.085  4.2059  0.3789  1.0907
 9519SOL    HW240194   3.025   1.364   6.976  0.9090  1.5427  1.8534
 9520SOL     OW40195   0.635   0.325   9.685 -0.2072  0.7051  0.3027
 9520SOL    HW140196   0.691   0.403   9.689  0.5503  0.1265  1.2117
 9520SOL    HW240197   0.621   0.313   9.591 -1.1965 -1.5657  0.7549
 9521SOL     OW40198   2.350   2.930  16.760 -0.5461  0.3980 -0.6055
 9521SOL    HW140199   2.270   2.981  16.749 -1.3390 -0.8027 -0.3587
 9521SOL    HW240200   2.411   3.002  16.777 -1.7043  0.7698  1.9455
 9522SOL     OW40201   1.949   0.893   3.099 -0.4321 -0.2427  0.2964
 9522SOL    HW140202   1.986   0.946   3.169 -1.5443  0.1414  0.6019
 9522SOL    HW240203   1.923   0.818   3.153 -0.7043  1.2812  2.2814
 9523SOL     OW40204   0.163   0.729   7.653 -0.5720  1.1816  0.1676
 9523SOL    HW140205   0.075   0.694   7.640 -0.1835  1.2272 -2.6204
 9523SOL    HW240206   0.213   0.652   7.678 -2.3078 -0.3790 -1.1522
 9524SOL     OW40207   2.933   3.639  11.364  0.2579  0.5096 -0.8757
 9524SOL    HW140208   2.989   3.649  11.440 -0.5942 -0.4812 -0.1058
 9524SOL    HW240209   2.900   3.549  11.375  0.7313  0.5867  1.1684
 9525SOL     OW40210   0.916   0.506   7.304  0.4757 -0.2097  0.4196
 9525SOL    HW140211   0.992   0.516   7.247  0.1386 -0.9789 -0.1708
 9525SOL    HW240212   0.972   0.494   7.381  0.9994 -2.1212 -0.2576
 9526SOL     OW40213   2.899   1.293   3.204  0.1975 -0.0395  0.4542
 9526SOL    HW140214   2.915   1.237   3.129 -0.9429  0.6939 -0.3482
 9526SOL    HW240215   2.812   1.265   3.233 -0.4363 -1.5772 -2.9034
 9527SOL     OW40216   0.836   1.754   3.835 -0.2073 -0.1415  0.5126
 9527SOL    HW140217   0.930   1.765   3.824 -0.7399  0.3834 -3.6689
 9527SOL    HW240218   0.804   1.782   3.749 -1.6201 -1.8699  0.4633
 9528SOL     OW40219   3.550   2.642   6.057  0.1263  0.6643  0.3657
 9528SOL    HW140220   3.574   2.552   6.036 -1.0985  0.7488 -1.4430
 9528SOL    HW240221   3.525   2.679   5.972  0.7540  1.2371  0.4261
 9529SOL     OW40222   1.974   2.271   9.601 -0.3527  0.1057  0.0425
 9529SOL    HW140223   2.018   2.186   9.589 -0.0324  0.1107  1.1972
 9529SOL    HW240224   2.000   2.318   9.522 -1.0110  0.4245  0.0190
 9530SOL     OW40225   4.321   4.386   5.308  0.1459 -0.6737  0.0923
 9530SOL    HW140226   4.264   4.429   5.371 -1.9435  2.2960 -3.8439
 9530SOL    HW240227   4.393   4.449   5.304  0.4429 -1.1270 -2.2118
 9531SOL     OW40228   0.900   0.423  14.113 -0.3786 -0.0024 -1.1765
 9531SOL    HW140229   0.875   0.400  14.024  0.5335 -0.3301 -1.3457
 9531SOL    HW240230   0.814   0.448  14.147 -0.7872 -1.6160 -0.9872
 9532SOL     OW40231   2.336   0.798  17.527  0.7584  0.4468  0.5300
 9532SOL    HW140232   2.311   0.883  17.561 -0.6093  0.1536  0.2342
 9532SOL    HW240233   2.263   0.764  17.475  0.2043  2.1832  0.1700
 9533SOL     OW40234   4.633   1.776   7.325  0.0838 -0.2614  0.1413
 9533SOL    HW140235   4.652   1.841   7.393 -0.3970  0.8117 -0.7549
 9533SOL    HW240236   4.714   1.725   7.332  1.2469  1.3525 -1.7001
 9534SOL     OW40237   4.415   4.188   2.111  0.3584  0.2462  0.5244
 9534SOL    HW140238   4.325   4.219   2.100  1.5994  3.6898 -0.0991
 9534SOL    HW240239   4.404   4.123   2.180  0.5567  2.6621  2.8281
 9535SOL     OW40240   1.589   0.832   6.460 -0.0944 -0.2375 -0.4468
 9535SOL    HW140241   1.528   0.904   6.474  0.5783  0.1877  0.2934
 9535SOL    HW240242   1.608   0.794   6.545 -2.7572 -1.4827 -0.4277
 9536SOL     OW40243   1.817   0.780   5.331 -0.6046  0.2913 -0.3858
 9536SOL    HW140244   1.738   0.777   5.385 -0.5504 -0.9997 -0.3855
 9536SOL    HW240245   1.829   0.687   5.314 -0.6471  0.1250  0.5072
 9537SOL     OW40246   0.975   1.335   7.312  0.2396 -0.1005  0.7879
 9537SOL    HW140247   0.995   1.385   7.391  1.7069 -1.9109  1.5407
 9537SOL    HW240248   0.894   1.290   7.336  0.8483 -0.9231  1.2510
 9538SOL     OW40249   0.536   1.016   0.857  0.2041 -0.4898  0.5093
 9538SOL    HW140250   0.535   1.013   0.953 -3.6789  0.0807  0.4717
 9538SOL    HW240251   0.603   0.952   0.832  2.7687  1.9604  0.9957
 9539SOL     OW40252   1.023   0.787   3.500 -0.1594 -0.6008  0.0497
 9539SOL    HW140253   1.080   0.763   3.573  0.6204 -1.2828 -0.7821
 9539SOL    HW240254   1.056   0.732   3.429  0.4537 -0.1979  0.0248
 9540SOL     OW40255   4.315   2.045   7.362  0.0700  0.2031 -0.5811
 9540SOL    HW140256   4.407   2.066   7.377 -0.4582  1.9604  0.1964
 9540SOL    HW240257   4.314   1.956   7.327 -1.0880  0.1464 -0.3924
 9541SOL     OW40258   1.050   4.431  13.575  0.2571 -0.1569 -0.1903
 9541SOL    HW140259   1.066   4.415  13.482 -0.0488  0.0807 -0.2854
 9541SOL    HW240260   1.003   4.349  13.593 -2.2469  1.3615  0.2679
 9542SOL     OW40261   3.837   0.140  17.735 -0.5655 -0.0617 -0.1113
 9542SOL    HW140262   3.825   0.075  17.666  0.0378 -0.9778  0.6419
 9542SOL    HW240263   3.881   0.086   0.061 -0.1234  1.9532  1.2332
 9543SOL     OW40264   3.461   1.552  16.056 -0.9597 -0.1576  0.3199
 9543SOL    HW140265   3.526   1.594  16.000  0.3431  1.1613  2.8193
 9543SOL    HW240266   3.495   1.573  16.144 -0.4537  0.7811 -0.0971
 9544SOL     OW40267   0.044   4.305   4.728 -1.0016 -0.6685  0.1144
 9544SOL    HW140268   0.133   4.319   4.760 -0.0969 -0.1822 -2.5981
 9544SOL    HW240269   4.725   4.313   4.806 -0.8979  1.0373  0.0148
 9545SOL     OW40270   1.772   4.607   3.954 -0.7517 -0.2382  0.1101
 9545SOL    HW140271   1.732   4.593   3.867 -1.1643  0.9642  0.1031
 9545SOL    HW240272   1.694   4.638   4.000  0.6839  0.0726  2.2942
 9546SOL     OW40273   4.561   4.159   9.239  0.3492 -0.4441  0.2309
 9546SOL    HW140274   4.589   4.179   9.149  0.3906 -2.3694 -0.1786
 9546SOL    HW240275   4.475   4.200   9.250  0.2758  0.2774 -2.8342
 9547SOL     OW40276   4.185   0.069   6.096 -0.4569  0.3069  0.1797
 9547SOL    HW140277   4.141   0.040   6.017 -1.1635 -1.0901  1.0941
 9547SOL    HW240278   4.124   0.059   6.169  0.1061  1.8449  0.8799
 9548SOL     OW40279   1.727   4.006   6.983  0.0809 -0.1345  0.0284
 9548SOL    HW140280   1.791   3.935   6.989  0.4106  0.0739 -1.0162
 9548SOL    HW240281   1.740   4.038   7.072 -0.1250 -0.5395  0.2055
 9549SOL     OW40282   3.678   2.103  16.785 -0.0529  0.0966  0.3970
 9549SOL    HW140283   3.660   2.191  16.752 -0.5294  0.6772  2.1921
 9549SOL    HW240284   3.689   2.115  16.880  1.0654  2.3583 -0.0234
 9550SOL     OW40285   4.099   3.286  17.298 -0.2289 -0.0541  0.3989
 9550SOL    HW140286   4.184   3.242  17.293 -0.0797  0.4350 -1.2008
 9550SOL    HW240287   4.121   3.372  17.263 -0.8678  0.6045  1.6153
 9551SOL     OW40288   4.318   1.223   7.622  0.0628  0.3254 -0.7652
 9551SOL    HW140289   4.357   1.152   7.672 -0.6214  2.2182  2.4580
 9551SOL    HW240290   4.374   1.296   7.650  1.2789 -0.2113 -1.7931
 9552SOL     OW40291   2.353   0.645   2.118  0.3253 -0.2143 -0.5344
 9552SOL    HW140292   2.417   0.626   2.186 -0.2362  1.2796  0.4203
 9552SOL    HW240293   2.272   0.617   2.160  0.8165 -3.1490 -1.5570
 9553SOL     OW40294   1.866   0.595   0.047 -0.1330  0.4082 -0.2352
 9553SOL    HW140295   1.842   0.583   0.139  2.6984  0.8478  0.5756
 9553SOL    HW240296   1.915   0.517   0.020  3.0582  2.0352  0.8169
 9554SOL     OW40297   4.636   4.160   2.599 -0.1963 -0.2513  0.0189
 9554SOL    HW140298   4.699   4.206   2.544 -0.5803 -0.5735 -0.6968
 9554SOL    HW240299   4.679   4.075   2.595 -2.1585 -1.2867  0.5281
 9555SOL     OW40300   0.027   0.437   9.744  0.3726 -0.2041  0.0763
 9555SOL    HW140301   0.067   0.517   9.778  2.7841 -0.5816 -1.8967
 9555SOL    HW240302   0.026   0.461   9.652  0.2328 -1.7168 -0.3135
 9556SOL     OW40303   0.461   2.006  12.847 -0.0437  0.5087 -0.0158
 9556SOL    HW140304   0.536   2.057  12.817  1.7204 -2.0722  0.1114
 9556SOL    HW240305   0.454   2.038  12.938 -1.3547 -0.1284  0.1015
 9557SOL     OW40306   2.916   2.295   9.540  0.2748 -0.3039  0.5784
 9557SOL    HW140307   2.977   2.299   9.613 -1.4734  1.3318  1.9526
 9557SOL    HW240308   2.909   2.389   9.523 -0.0480 -0.4649 -0.1713
 9558SOL     OW40309   4.715   2.888  11.567 -0.2007  0.0115 -0.1722
 9558SOL    HW140310   4.730   2.955  11.634 -3.6362  2.1320 -1.5105
 9558SOL    HW240311   0.070   2.864  11.546 -0.3075 -0.1270 -0.4800
 9559SOL     OW40312   0.138   4.224  11.141  0.7088 -0.1539 -0.0571
 9559SOL    HW140313   0.058   4.254  11.099  1.7009  4.5568  1.4216
 9559SOL    HW240314   0.201   4.291  11.113 -1.3108  3.1131  3.2659
 9560SOL     OW40315   0.512   4.636   6.806 -0.2254 -0.2031 -0.0783
 9560SOL    HW140316   0.526   4.678   6.721 -1.2768  0.7955  0.2495
 9560SOL    HW240317   0.576   4.565   6.800 -0.5207 -0.5860  1.2012
 9561SOL     OW40318   3.247   3.703  17.195  0.0315  0.5238  0.6113
 9561SOL    HW140319   3.175   3.757  17.228 -0.0964  0.6382  0.1329
 9561SOL    HW240320   3.315   3.718  17.261  1.3301 -3.0848  0.0870
 9562SOL     OW40321   4.255   1.257   1.449  0.5356 -0.0356  0.4532
 9562SOL    HW140322   4.281   1.318   1.518 -0.5259  0.4660  0.4025
 9562SOL    HW240323   4.258   1.170   1.489  1.8523  0.1042  0.6614
 9563SOL     OW40324   1.898   0.127   8.249  0.4045  0.0726  0.1826
 9563SOL    HW140325   1.929   0.194   8.189 -1.2742  0.5242 -0.1724
 9563SOL    HW240326   1.830   0.092   8.190  0.3559  0.4172  0.0328
 9564SOL     OW40327   1.401   0.488   8.561 -0.0644 -0.0328 -0.0279
 9564SOL    HW140328   1.471   0.454   8.505  2.5522  1.3603  2.3732
 9564SOL    HW240329   1.437   0.475   8.649  0.3699 -5.2109 -0.9712
 9565SOL     OW40330   2.170   4.261   9.161 -0.3268  0.0306  0.4782
 9565SOL    HW140331   2.252   4.239   9.206 -0.4729  0.9769  1.2128
 9565SOL    HW240332   2.188   4.352   9.139  2.5246 -0.8997 -0.9933
 9566SOL     OW40333   4.413   3.030   9.144 -0.5385 -1.1571  0.0368
 9566SOL    HW140334   4.333   2.977   9.136  0.8549 -3.3967  0.7600
 9566SOL    HW240335   4.420   3.056   9.052 -0.4481 -0.1876  0.3185
 9567SOL     OW40336   0.073   2.228   5.948 -0.5025  0.7759  0.2115
 9567SOL    HW140337   0.153   2.279   5.960 -0.5436  0.9262 -0.1488
 9567SOL    HW240338   0.103   2.139   5.926 -2.1212  0.1370  0.6202
 9568SOL     OW40339   0.965   2.142   7.779  0.5833  0.1595  0.1061
 9568SOL    HW140340   1.036   2.092   7.819 -0.4071 -1.3488 -0.0291
 9568SOL    HW240341   0.949   2.090   7.700 -2.3230  0.6491  0.3405
 9569SOL     OW40342   1.579   1.241  13.390  0.2172  0.1278  0.0135
 9569SOL    HW140343   1.638   1.208  13.322 -0.1717  1.0726 -0.7789
 9569SOL    HW240344   1.549   1.155  13.421  1.4644 -0.7266 -1.1680
   4.73538   4.73538  17.74029
